Membrane in water
40155
    1TCq1    O1    1   4.231   1.985  10.823  0.1951  0.2845 -0.9190
    1TCq1    C1    2   4.281   2.091  10.888  0.2500 -0.3369  0.1504
    1TCq1    O2    3   4.282   2.200  10.835 -0.0384 -0.3922  0.2825
    1TCq1    C2    4   4.268   2.071  11.037 -0.9644 -0.6924  0.0077
    1TCq1    C3    5   4.270   2.184  11.110  0.0539  0.2759  0.2056
    1TCq1    C4    6   4.240   2.181  11.241 -0.2732 -0.4218  0.8110
    1TCq1    C5    7   4.192   2.067  11.299  0.4024  0.3761 -0.1522
    1TCq1    C6    8   4.173   1.960  11.216  0.4943  0.2475  0.2842
    1TCq1    C7    9   4.215   1.957  11.090  0.0431  0.2238 -0.4422
    1TCq1    C8   10   4.095   1.843  11.263 -0.6943  0.1603  0.9318
    1TCq1    O4   11   4.057   1.763  11.177  0.2779 -0.0086 -0.0300
    1TCq1    C9   12   4.260   2.298  11.318 -0.0059 -0.5099  0.2523
    1TCq1    O5   13   4.295   2.408  11.271  0.1006  0.4782  0.3940
    1TCq1    O6   14   4.264   2.266  11.439 -0.4402 -0.2988  0.2051
    1TCq1    H1   15   4.278   1.904  10.852 -2.5559 -0.7602  0.6091
    1TCq1    H2   16   4.303   2.274  11.059  2.6793 -0.6539  0.2549
    1TCq1    H3   17   4.157   2.061  11.401  0.2033  1.6856 -0.1458
    1TCq1    H4   18   4.209   1.862  11.038 -1.0599  0.6002 -1.0095
    2MPD2     C   19   3.948   1.520  11.647  0.3095  0.2404  0.4259
    2MPD2    C1   20   3.973   1.644  11.694  0.0437  0.6211  0.0827
    2MPD2    C2   21   4.009   1.750  11.612 -0.3960 -0.4953 -0.2707
    2MPD2    C3   22   4.026   1.730  11.477  0.0680 -0.7704 -0.3819
    2MPD2    C4   23   3.993   1.604  11.423  0.1151 -0.3059  0.1410
    2MPD2    C5   24   3.951   1.502  11.511 -0.7360 -0.4748  0.3441
    2MPD2     H   25   4.037   1.844  11.658 -0.0821 -0.8657  0.3024
    2MPD2    H1   26   3.995   1.598  11.315  1.5928  1.6321  0.0515
    2MPD2    H2   27   3.925   1.438  11.714  2.7690 -1.4650 -0.7841
    2MPD2    H3   28   3.918   1.408  11.468  1.0248 -0.5676 -0.8430
    2MPD2     N   29   4.082   1.835  11.402  0.0060  0.0122  0.0012
    2MPD2    H5   30   4.111   1.922  11.446  1.0741  0.0765 -0.8220
    2MPD2    N1   31   3.948   1.677  11.836  0.4800  0.2717  0.6802
    2MPD2    H7   32   3.944   1.773  11.868 -2.1981  0.5701 -0.5658
    3TCq1    O1   33   3.464   3.298   9.916  0.3918  0.1470 -0.1287
    3TCq1    C1   34   3.356   3.338   9.847  0.1789  0.2870 -0.1105
    3TCq1    O2   35   3.375   3.401   9.749 -0.0253  0.1933 -0.2609
    3TCq1    C2   36   3.261   3.389   9.944  0.2096 -0.2426 -0.4079
    3TCq1    C3   37   3.176   3.486   9.894  0.0554 -0.0397 -0.2129
    3TCq1    C4   38   3.095   3.551   9.983  0.1355  0.8234 -0.0099
    3TCq1    C5   39   3.102   3.522  10.115  0.0118  0.6092  0.7129
    3TCq1    C6   40   3.190   3.429  10.167 -0.7504  0.1888  0.6108
    3TCq1    C7   41   3.273   3.362  10.075  0.2547  0.8679  0.5474
    3TCq1    C8   42   3.231   3.436  10.306  0.7210  0.0659  0.3374
    3TCq1    O4   43   3.296   3.344  10.348 -0.1215 -0.6410  0.4264
    3TCq1    C9   44   3.022   3.667   9.939  0.7978 -0.1960 -0.0805
    3TCq1    O5   45   3.013   3.760  10.016 -0.1443 -0.5422  0.6334
    3TCq1    O6   46   2.982   3.657   9.821 -0.0627 -0.6367  0.4559
    3TCq1    H1   47   3.432   3.232   9.981  0.9090  1.1664  1.1802
    3TCq1    H2   48   3.190   3.523   9.793 -1.0108  2.4938  0.5646
    3TCq1    H3   49   3.051   3.596  10.175 -2.3533  2.1715 -3.2220
    3TCq1    H4   50   3.350   3.297  10.116 -0.8999  1.1559  3.1730
    4MPD2     C   51   3.324   3.700  10.744  0.1133  0.2751  0.0700
    4MPD2    C1   52   3.266   3.784  10.656 -0.4212  0.5826  0.1335
    4MPD2    C2   53   3.236   3.733  10.533 -0.1643  0.1864  0.3389
    4MPD2    C3   54   3.262   3.601  10.496 -0.3939  1.5122 -0.3355
    4MPD2    C4   55   3.312   3.511  10.589  0.5822  0.7633  0.2759
    4MPD2    C5   56   3.333   3.562  10.712  0.9070  0.7580  0.1489
    4MPD2     H   57   3.190   3.801  10.461 -0.7462 -0.8421 -0.2693
    4MPD2    H1   58   3.332   3.406  10.569 -1.4057  0.6431 -1.0873
    4MPD2    H2   59   3.345   3.744  10.841  1.0679  1.7097 -0.7956
    4MPD2    H3   60   3.377   3.503  10.791 -1.6194 -0.6662  0.4969
    4MPD2     N   61   3.218   3.564  10.357  0.1941 -0.0831  0.0267
    4MPD2    H5   62   3.192   3.646  10.303  1.3521  1.4524  1.7988
    4MPD2    N1   63   3.242   3.925  10.686  0.2710  0.2604  0.5259
    4MPD2    H7   64   3.208   3.982  10.609  2.1636  0.3973 -0.2216
    5TCq1    O1   65   3.750   0.696  10.677 -0.2536 -0.1488  0.1499
    5TCq1    C1   66   3.839   0.721  10.578  0.5332 -0.3104 -0.7506
    5TCq1    O2   67   3.806   0.753  10.469 -0.0625  0.0913  0.3295
    5TCq1    C2   68   3.925   0.606  10.599 -0.5590 -0.0522  0.6838
    5TCq1    C3   69   3.985   0.607  10.725  0.1152  0.0922 -0.8161
    5TCq1    C4   70   4.036   0.493  10.768  0.3419 -0.1067  0.8865
    5TCq1    C5   71   4.035   0.381  10.688  0.2739  0.3424 -0.0452
    5TCq1    C6   72   3.982   0.389  10.565 -0.2394 -0.0325 -1.3745
    5TCq1    C7   73   3.914   0.495  10.524  0.4280 -0.1093 -0.0198
    5TCq1    C8   74   3.950   0.261  10.501  0.3155  1.0191  0.5762
    5TCq1    O4   75   3.998   0.160  10.548  0.0546  0.2954 -0.1538
    5TCq1    C9   76   4.115   0.492  10.893  0.0203 -0.3849  0.1223
    5TCq1    O5   77   4.133   0.382  10.950 -0.3552  0.2038 -0.6735
    5TCq1    O6   78   4.118   0.602  10.955 -0.2519 -0.3594  0.2463
    5TCq1    H1   79   3.778   0.624  10.737  0.9276 -0.7626 -1.1234
    5TCq1    H2   80   3.993   0.699  10.781  3.3604 -0.7078  0.0230
    5TCq1    H3   81   4.106   0.299  10.693  1.5334  1.3781 -0.8204
    5TCq1    H4   82   3.863   0.524  10.433  2.1443 -0.7471 -1.1790
    6MPD2     C   83   3.637   0.175  10.315  0.1223  0.1717 -0.2130
    6MPD2    C1   84   3.762   0.152  10.372  0.2924 -0.6608 -0.8070
    6MPD2    C2   85   3.827   0.029  10.362 -0.1460 -0.0894  0.3068
    6MPD2    C3   86   3.760   4.642  10.307 -0.6354 -0.0489  0.1151
    6MPD2    C4   87   3.634   4.666  10.249  0.3007  0.0536 -0.0238
    6MPD2    C5   88   3.579   0.073  10.247 -0.2854  0.4306 -0.3995
    6MPD2     H   89   3.930   0.015  10.395  0.1677  1.3975 -0.0331
    6MPD2    H1   90   3.582   4.599  10.181 -2.0056 -0.4666  2.2912
    6MPD2    H2   91   3.599   0.277  10.318  1.4723  0.6021  2.7977
    6MPD2    H3   92   3.486   0.096  10.197  1.2281  1.6118 -2.7234
    6MPD2     N   93   3.828   4.515  10.310  0.1535  0.1507  0.2640
    6MPD2    H5   94   3.909   4.514  10.371 -2.2703  0.4875  3.4769
    6MPD2    N1   95   3.832   0.260  10.424 -0.2441  0.3151  0.8688
    6MPD2    H7   96   3.783   0.349  10.424 -0.9433 -0.0685  0.8194
    7TCq1    O1   97   0.737   4.652  13.554 -0.1037 -0.0677  0.0655
    7TCq1    C1   98   0.795   4.616  13.438  0.0708 -0.0737 -0.2483
    7TCq1    O2   99   0.833   4.687  13.348  0.2172 -0.0329  0.1708
    7TCq1    C2  100   0.791   4.470  13.444 -0.3352 -0.9321  0.0504
    7TCq1    C3  101   0.781   4.404  13.322 -0.7163  0.6367 -0.1135
    7TCq1    C4  102   0.833   4.279  13.317 -0.0363  0.1814  0.1630
    7TCq1    C5  103   0.886   4.211  13.429 -0.1908  0.0542  0.0609
    7TCq1    C6  104   0.883   4.278  13.548  0.4539  0.1923  0.0249
    7TCq1    C7  105   0.833   4.408  13.560  0.7468 -0.3602 -0.0470
    7TCq1    C8  106   0.951   4.224  13.657 -0.0048 -0.0456 -0.4096
    7TCq1    O4  107   0.946   4.283  13.764  0.1325 -0.1561  0.1290
    7TCq1    C9  108   0.828   4.206  13.197  0.7069  0.3658 -0.5489
    7TCq1    O5  109   0.887   4.098  13.185 -0.3654  0.4356  0.1951
    7TCq1    O6  110   0.764   4.257  13.104  0.2209 -0.6090  0.7883
    7TCq1    H1  111   0.695   4.576  13.599 -0.6040 -1.6292 -3.0479
    7TCq1    H2  112   0.735   4.452  13.237  0.0302  3.4081  1.0379
    7TCq1    H3  113   0.918   4.108  13.418  0.6189  0.0854  2.2169
    7TCq1    H4  114   0.815   4.452  13.658  0.0494 -1.0688  0.1402
    8MPD2     C  115   1.301   3.900  13.847  0.3197 -0.1213  0.1552
    8MPD2    C1  116   1.271   3.849  13.724  0.0800 -0.1184 -0.6984
    8MPD2    C2  117   1.182   3.921  13.646 -0.3346  0.0271 -0.3018
    8MPD2    C3  118   1.116   4.036  13.698  0.4326  0.9564 -0.0033
    8MPD2    C4  119   1.145   4.064  13.830  0.0073 -0.6581 -0.1818
    8MPD2    C5  120   1.232   3.997  13.902 -0.0138 -0.0548 -0.3845
    8MPD2     H  121   1.151   3.887  13.548  0.6416  0.2746 -0.6903
    8MPD2    H1  122   1.099   4.152  13.874 -0.9708 -0.4449 -1.6398
    8MPD2    H2  123   1.382   3.857  13.905  2.0250  0.7541 -1.6048
    8MPD2    H3  124   1.256   4.033  14.001 -1.6047  1.8652 -0.6931
    8MPD2     N  125   1.027   4.119  13.618  0.0437  0.3814  0.2795
    8MPD2    H5  126   1.005   4.074  13.530 -0.5291 -0.0904  0.6649
    8MPD2    N1  127   1.336   3.730  13.686  0.4971 -0.2664  0.7806
    8MPD2    H7  128   1.387   3.679  13.757 -2.2538 -2.6918  1.0393
    9TCq1    O1  129   4.221   2.697  10.609 -0.2708 -0.4034  0.3565
    9TCq1    C1  130   4.199   2.565  10.605 -0.0187 -0.1915 -0.2876
    9TCq1    O2  131   4.287   2.481  10.584 -0.0405  0.3837 -0.2725
    9TCq1    C2  132   4.068   2.551  10.665  0.2817  0.5201  0.1954
    9TCq1    C3  133   3.958   2.583  10.593 -0.2602  0.5108 -0.0624
    9TCq1    C4  134   3.839   2.514  10.614  0.1575 -1.1801 -1.1670
    9TCq1    C5  135   3.848   2.412  10.711 -0.0161  0.4033 -0.2018
    9TCq1    C6  136   3.965   2.378  10.778  0.4804 -0.1969 -0.0217
    9TCq1    C7  137   4.080   2.443  10.752  0.1703 -0.4988  0.1005
    9TCq1    C8  138   3.956   2.270  10.877  0.0708  0.9207 -0.2353
    9TCq1    O4  139   3.915   2.161  10.834 -0.0182  0.0196  0.2465
    9TCq1    C9  140   3.718   2.544  10.546 -0.7061  0.1846  0.8496
    9TCq1    O5  141   3.723   2.640  10.471  0.4353 -1.3021  0.4708
    9TCq1    O6  142   3.614   2.477  10.566  0.6619 -0.5017 -0.0521
    9TCq1    H1  143   4.136   2.746  10.615  1.3291  2.1929  1.5736
    9TCq1    H2  144   3.976   2.651  10.511 -1.2456  0.1296 -0.5962
    9TCq1    H3  145   3.758   2.355  10.731 -0.7955  0.6349 -2.9544
    9TCq1    H4  146   4.177   2.415  10.791 -0.7660 -2.2568  1.1353
   10MPD2     C  147   3.881   2.131  11.142 -0.3397  0.3990  0.2661
   10MPD2    C1  148   3.929   2.256  11.128 -0.2168  1.2404  0.5653
   10MPD2    C2  149   3.926   2.334  11.238 -0.4739  0.1594  0.3378
   10MPD2    C3  150   3.891   2.286  11.360 -0.0351 -0.3502 -0.8527
   10MPD2    C4  151   3.849   2.154  11.368  0.1605 -0.7575  0.2581
   10MPD2    C5  152   3.834   2.080  11.257 -0.4467  0.1582  0.1706
   10MPD2     H  153   3.972   2.432  11.235 -2.1371  0.8980 -1.2377
   10MPD2    H1  154   3.814   2.109  11.460  1.1094 -1.5932  0.2042
   10MPD2    H2  155   3.883   2.062  11.058 -1.5652  3.1152 -1.9890
   10MPD2    H3  156   3.791   1.981  11.269 -0.0330  0.1962  1.9801
   10MPD2     N  157   3.873   2.365  11.476  0.0877 -0.4539 -0.3354
   10MPD2    H5  158   3.824   2.332  11.559  1.1992 -0.1466  0.4566
   10MPD2    N1  159   3.958   2.319  11.006  0.3048  0.1485  0.3589
   10MPD2    H7  160   3.983   2.417  11.012  0.4768 -0.0119  2.0992
   11TCq1    O1  161   3.809   2.865  14.389 -0.1763 -0.0997  0.3189
   11TCq1    C1  162   3.897   2.837  14.289 -0.2367  0.7139 -0.1808
   11TCq1    O2  163   3.916   2.726  14.233  0.2801  0.2563 -0.1851
   11TCq1    C2  164   3.968   2.959  14.253  0.1095 -0.5903 -0.1397
   11TCq1    C3  165   3.999   3.046  14.355 -0.1649 -0.7732  0.4551
   11TCq1    C4  166   4.104   3.132  14.340  0.1961  0.0807  0.3562
   11TCq1    C5  167   4.190   3.113  14.238 -0.1068 -0.9147 -0.6786
   11TCq1    C6  168   4.173   3.012  14.152 -0.3056 -1.0307 -0.2866
   11TCq1    C7  169   4.058   2.940  14.148  0.4424 -0.1764 -0.4859
   11TCq1    C8  170   4.295   2.968  14.086  0.0875  0.2033 -0.1118
   11TCq1    O4  171   4.399   3.011  14.126  0.2921  0.7667 -0.6756
   11TCq1    C9  172   4.142   3.232  14.441  0.5954  0.2571 -0.0677
   11TCq1    O5  173   4.097   3.218  14.556 -0.1784  0.3732  0.1902
   11TCq1    O6  174   4.221   3.322  14.411 -0.4176  0.3691  0.3343
   11TCq1    H1  175   3.780   2.958  14.395 -0.3471 -0.1093 -0.3754
   11TCq1    H2  176   3.943   3.052  14.448 -1.6591  2.7096 -0.6657
   11TCq1    H3  177   4.279   3.175  14.238 -0.5427 -0.2862  1.2869
   11TCq1    H4  178   4.033   2.871  14.069 -1.1360  1.2694 -1.2474
   12MPD2     C  179   4.506   2.768  13.998  0.4293  0.2881 -0.3099
   12MPD2    C1  180   4.369   2.754  13.984 -0.4057 -0.1638  0.0654
   12MPD2    C2  181   4.327   2.644  13.907  0.1820 -0.6741 -0.6855
   12MPD2    C3  182   4.400   2.534  13.878 -0.3105 -0.2528  0.2650
   12MPD2    C4  183   4.532   2.542  13.915  0.2152 -0.0684  0.7255
   12MPD2    C5  184   4.586   2.664  13.967  0.2643 -0.9482 -0.1169
   12MPD2     H  185   4.230   2.649  13.858  1.4623 -3.2609 -3.4768
   12MPD2    H1  186   4.600   2.461  13.889  1.8217  1.2742  0.7803
   12MPD2    H2  187   4.563   2.852  14.035  1.1734 -0.8848  1.2019
   12MPD2    H3  188   4.693   2.678  13.973  0.1057  0.2200 -0.1381
   12MPD2     N  189   4.353   2.427  13.792 -0.4446 -0.2625  0.4281
   12MPD2    H5  190   4.422   2.358  13.764 -0.2106  0.9151 -1.8148
   12MPD2    N1  191   4.273   2.847  14.024 -0.6128 -0.7363 -0.3063
   12MPD2    H7  192   4.175   2.826  14.008 -0.8236  0.0214 -0.0302
   13TCq1    O1  193   3.808   2.887  10.481  0.2389 -0.3486  0.1757
   13TCq1    C1  194   3.725   2.989  10.511  0.2458 -0.1460 -0.2422
   13TCq1    O2  195   3.741   3.104  10.544 -0.8476  0.3369 -0.1998
   13TCq1    C2  196   3.590   2.945  10.514 -0.1873  0.1161  0.2966
   13TCq1    C3  197   3.544   2.869  10.416 -0.2056 -0.9156  0.0588
   13TCq1    C4  198   3.410   2.832  10.420  0.5232 -0.0638 -0.0042
   13TCq1    C5  199   3.326   2.879  10.514  0.6244  0.5225  0.1396
   13TCq1    C6  200   3.373   2.960  10.614  0.3480 -0.3202 -0.6651
   13TCq1    C7  201   3.509   2.992  10.613 -0.1929 -0.6927 -0.9052
   13TCq1    C8  202   3.320   2.955  10.748  0.1261  0.2794 -0.3579
   13TCq1    O4  203   3.373   3.042  10.822 -0.2297 -0.3561  0.0073
   13TCq1    C9  204   3.360   2.736  10.329  0.2147 -0.1576 -0.1414
   13TCq1    O5  205   3.239   2.736  10.289 -0.0154 -0.4552  0.2895
   13TCq1    O6  206   3.438   2.650  10.288 -0.1051 -0.3935  0.5886
   13TCq1    H1  207   3.765   2.801  10.462  0.7907  0.5206 -4.9682
   13TCq1    H2  208   3.606   2.822  10.339  1.4373  2.7672 -0.8488
   13TCq1    H3  209   3.224   2.842  10.504  1.2708 -1.1006 -0.3213
   13TCq1    H4  210   3.551   3.062  10.684 -2.8638  1.6623 -1.6120
   14MPD2     C  211   3.098   2.694  10.889  0.2657  0.2456 -0.3499
   14MPD2    C1  212   3.168   2.814  10.885 -0.8619  0.2440  0.2003
   14MPD2    C2  213   3.163   2.899  10.994  0.1100  0.7506 -0.3622
   14MPD2    C3  214   3.104   2.857  11.116  0.2875  0.5837  0.2229
   14MPD2    C4  215   3.043   2.733  11.116 -0.2523 -0.3939  0.0902
   14MPD2    C5  216   3.041   2.655  10.999  0.0125 -0.1022 -0.2386
   14MPD2     H  217   3.229   2.985  11.001 -2.3516  2.3970  2.5154
   14MPD2    H1  218   2.983   2.704  11.201 -0.5171  1.3524  0.5064
   14MPD2    H2  219   3.087   2.635  10.799 -1.3817  1.9911 -1.3019
   14MPD2    H3  220   2.970   2.573  11.003 -0.7654  0.6284  0.7553
   14MPD2     N  221   3.090   2.950  11.222 -0.6599  0.0539 -0.1664
   14MPD2    H5  222   3.152   3.029  11.206 -0.7087 -0.3350 -2.2734
   14MPD2    N1  223   3.236   2.844  10.769 -0.5825  0.0614  0.4476
   14MPD2    H7  224   3.239   2.776  10.694  0.5051 -0.7848  1.2565
   15TCq1    O1  225   0.198   2.149   1.516 -0.4848  0.1798  0.7353
   15TCq1    C1  226   0.299   2.212   1.447 -1.2579 -0.2575  0.7317
   15TCq1    O2  227   0.295   2.240   1.326  0.4344 -0.3626  0.5325
   15TCq1    C2  228   0.422   2.171   1.515  1.0808  0.2843 -0.1439
   15TCq1    C3  229   0.424   2.154   1.655 -0.2408  0.6303 -0.4102
   15TCq1    C4  230   0.536   2.122   1.720 -0.5493 -0.2519  0.3915
   15TCq1    C5  231   0.651   2.108   1.657  0.4388  0.7894  0.4073
   15TCq1    C6  232   0.644   2.108   1.519  0.2072  0.5285 -0.0417
   15TCq1    C7  233   0.533   2.136   1.448  0.4669 -0.2831  0.5015
   15TCq1    C8  234   0.752   2.042   1.451 -0.0173  0.5752 -0.0551
   15TCq1    O4  235   0.862   2.058   1.499  0.7793 -0.0156  0.0145
   15TCq1    C9  236   0.548   2.146   1.867 -0.2822  0.9939 -0.2813
   15TCq1    O5  237   0.650   2.209   1.902 -0.5188 -0.2374 -0.5411
   15TCq1    O6  238   0.438   2.126   1.928  0.0593  0.2426 -0.2938
   15TCq1    H1  239   0.228   2.140   1.609  2.4995 -1.6872 -0.4143
   15TCq1    H2  240   0.346   2.194   1.719  2.7799  1.4952  2.6909
   15TCq1    H3  241   0.741   2.095   1.717 -2.0460  1.1481  4.1956
   15TCq1    H4  242   0.526   2.133   1.340  0.4150 -0.5256  0.5112
   16MPD2     C  243   0.746   1.853   1.148  0.2039 -0.3591 -0.2478
   16MPD2    C1  244   0.796   1.905   1.262  0.7797  0.0223 -0.5669
   16MPD2    C2  245   0.929   1.875   1.290  0.5673 -0.5032  0.3820
   16MPD2    C3  246   1.015   1.808   1.200 -1.0670 -0.1061  0.2521
   16MPD2    C4  247   0.955   1.750   1.092 -0.4991  0.6864 -0.2682
   16MPD2    C5  248   0.823   1.775   1.072  0.3714 -0.2828  0.2408
   16MPD2     H  249   0.987   1.924   1.367 -0.4806 -0.9318  1.4355
   16MPD2    H1  250   1.013   1.712   1.009  1.8018  2.1608  0.6461
   16MPD2    H2  251   0.644   1.874   1.115 -1.3356 -2.6363  3.0760
   16MPD2    H3  252   0.774   1.728   0.987 -2.0454  0.1256  1.4057
   16MPD2     N  253   1.154   1.815   1.220  0.2880 -0.3339 -0.3656
   16MPD2    H5  254   1.193   1.872   1.295 -1.2500 -2.0533  1.7212
   16MPD2    N1  255   0.712   1.976   1.337  0.0495 -0.3539 -0.3791
   16MPD2    H7  256   0.614   1.980   1.310 -0.2236 -1.2415  0.4511
   17TCq1    O1  257   2.532   2.226  11.075 -0.3415  0.6511  0.2697
   17TCq1    C1  258   2.628   2.133  11.093 -0.5453  0.3089  0.3655
   17TCq1    O2  259   2.616   2.030  11.156  0.0870  0.2734  0.2569
   17TCq1    C2  260   2.751   2.166  11.012  0.5704 -0.2212 -0.9621
   17TCq1    C3  261   2.752   2.275  10.925  0.0816  0.3386 -0.0384
   17TCq1    C4  262   2.871   2.296  10.858  0.2837  0.7203 -0.2234
   17TCq1    C5  263   2.978   2.212  10.875  0.8207 -0.7714 -0.1244
   17TCq1    C6  264   2.967   2.103  10.960 -0.0546  0.5294 -0.4619
   17TCq1    C7  265   2.859   2.085  11.037 -0.2151  0.3411 -0.1949
   17TCq1    C8  266   3.089   2.044  11.012 -0.1559 -0.1073 -0.0690
   17TCq1    O4  267   3.067   1.992  11.119 -0.1025  0.2055  0.1391
   17TCq1    C9  268   2.885   2.408  10.768 -0.0547 -0.1485 -0.0429
   17TCq1    O5  269   2.986   2.406  10.698  0.7460  0.0058  0.1726
   17TCq1    O6  270   2.801   2.502  10.775 -0.2624 -0.5542  0.3699
   17TCq1    H1  271   2.556   2.301  11.017  0.0234  0.7115  0.5017
   17TCq1    H2  272   2.656   2.311  10.888  0.0608 -0.4470 -0.7518
   17TCq1    H3  273   3.065   2.222  10.811  2.0702  0.1633  1.6982
   17TCq1    H4  274   2.844   2.000  11.103 -0.1879 -1.2373 -2.2269
   18MPD2     C  275   3.370   1.963  11.084  0.5503  0.1032 -0.0041
   18MPD2    C1  276   3.327   1.998  10.961 -0.1215 -0.2959  0.1586
   18MPD2    C2  277   3.415   2.002  10.852  0.3809 -0.5922 -0.3034
   18MPD2    C3  278   3.551   1.963  10.863 -0.1636 -0.4645 -0.0159
   18MPD2    C4  279   3.590   1.915  10.986  0.3809 -0.4088  0.2428
   18MPD2    C5  280   3.503   1.918  11.095  0.3271 -0.1930  0.4410
   18MPD2     H  281   3.371   2.047  10.763 -1.3954 -0.6791  0.5395
   18MPD2    H1  282   3.689   1.872  10.993  1.3798  2.2826  2.8568
   18MPD2    H2  283   3.305   1.967  11.171 -1.3442  4.2788 -1.6171
   18MPD2    H3  284   3.543   1.871  11.184  1.7831 -0.1031 -0.1671
   18MPD2     N  285   3.640   1.964  10.758 -0.0060  0.1310  0.1127
   18MPD2    H5  286   3.729   1.916  10.768  0.9161  2.2532  2.1927
   18MPD2    N1  287   3.196   2.043  10.931 -0.5787  0.4287  0.2382
   18MPD2    H7  288   3.187   2.071  10.833 -0.7344 -0.7121 -0.0722
   19TMC2    C1  289   0.536   2.686  13.791 -1.0086  0.1644  0.4761
   19TMC2    C2  290   0.433   2.766  13.741 -1.0026 -0.0791 -1.0532
   19TMC2    C3  291   0.311   2.699  13.734  0.2523  0.5948  0.3954
   19TMC2    C4  292   0.525   2.557  13.840 -0.0485  0.0572  0.1440
   19TMC2    C5  293   0.399   2.502  13.827 -0.3176 -0.6616  0.4155
   19TMC2    C6  294   0.291   2.564  13.764  0.4198  0.0245  0.2528
   19TMC2     C  295   0.654   2.755  13.817 -0.2146  0.0951 -0.2055
   19TMC2     O  296   0.673   2.860  13.759 -0.2178  0.3704  0.1312
   19TMC2     H  297   0.443   2.872  13.720  1.5708  0.1104  1.0293
   19TMC2    H1  298   0.605   2.506  13.890 -1.6786  0.6608  3.3381
   19TMC2    H2  299   0.193   2.518  13.760 -0.5693  1.9632  2.2722
   19TMC2    C7  300   0.372   2.370  13.876  0.2238 -0.4265 -0.2927
   19TMC2    C8  301   0.201   2.762  13.686 -0.4953  0.2039  0.1726
   19TMC2    O1  302   0.284   2.313  13.807 -0.2900  0.3588  0.2102
   19TMC2    O2  303   0.090   2.758  13.740  0.3264 -0.1876 -0.0188
   19TMC2    O5  304   0.239   2.851  13.591  0.4034  0.2852  0.0921
   19TMC2    H5  305   0.320   2.806  13.559 -0.1715 -0.7033  0.0314
   20MPD2     C  306   0.940   2.824  13.890 -0.4652  0.1857  0.0749
   20MPD2    C1  307   0.854   2.742  13.962 -0.4712 -0.0186  0.3347
   20MPD2    C2  308   0.897   2.697  14.086 -0.0488  0.3455  0.8793
   20MPD2    C3  309   1.028   2.722  14.132  0.5223  0.7333  0.7317
   20MPD2    C4  310   1.103   2.809  14.052  0.7360 -0.3539  0.6727
   20MPD2    C5  311   1.063   2.855  13.936 -0.3664 -0.3039  0.1469
   20MPD2     H  312   0.827   2.628  14.132 -0.4954  0.0663 -0.2176
   20MPD2    H1  313   1.198   2.847  14.085  1.2829 -0.4666 -0.7516
   20MPD2    H2  314   0.913   2.884  13.803 -0.6484  0.3236  0.2271
   20MPD2    H3  315   1.118   2.925  13.874 -0.3854  0.3084  0.8299
   20MPD2     N  316   1.076   2.680  14.256  0.3836 -0.3643  0.4001
   20MPD2    H5  317   1.163   2.720  14.291  1.2112  0.5928 -2.7241
   20MPD2    N1  318   0.726   2.706  13.927 -0.1045 -0.4142 -0.5360
   20MPD2    H7  319   0.678   2.639  13.987  0.3437 -0.7382 -0.5400
   21MPD2     C  320   3.162   2.606  14.674 -0.5863 -0.3516  0.1567
   21MPD2    C1  321   3.071   2.673  14.602 -0.0365 -0.1964  0.5670
   21MPD2    C2  322   2.949   2.704  14.665 -0.6364  0.5365 -0.4295
   21MPD2    C3  323   2.918   2.666  14.793  0.1425  0.1276  0.1201
   21MPD2    C4  324   3.014   2.587  14.856 -0.8407  0.3132  0.5799
   21MPD2    C5  325   3.133   2.562  14.801 -0.4613  0.3069 -0.0463
   21MPD2     H  326   2.890   2.771  14.603  1.9021  2.2437 -1.0127
   21MPD2    H1  327   2.993   2.549  14.955 -0.7151 -0.7591  0.1966
   21MPD2    H2  328   3.256   2.569  14.634 -0.8698  1.3459 -2.0807
   21MPD2    H3  329   3.198   2.491  14.851 -0.4239 -1.8244 -3.1187
   21MPD2     N  330   2.798   2.709  14.857 -0.0079  0.0998 -0.1410
   21MPD2    H5  331   2.799   2.688  14.956  0.6047 -0.2501 -0.2197
   21MPD2    N1  332   3.098   2.708  14.467  0.1406 -0.6422 -0.1737
   21MPD2    H7  333   3.019   2.736  14.408 -0.1122  3.0230  1.9128
   22TCq2    C1  334   2.693   2.773  14.798 -0.2910  0.6763  0.1624
   22TCq2    O2  335   2.672   2.783  14.677  0.5322  0.1503 -0.1878
   22TCq2    C2  336   2.596   2.816  14.899  0.4319 -0.6364  0.7998
   22TCq2    C3  337   2.593   2.754  15.023  0.1381  0.0226  0.0437
   22TCq2    C4  338   2.510   2.799  15.120  0.0405 -0.1964 -0.2812
   22TCq2    C5  339   2.422   2.903  15.095 -0.1351  0.1638  0.1934
   22TCq2    C6  340   2.424   2.952  14.961 -0.3909 -0.0629 -0.1094
   22TCq2    C7  341   2.517   2.921  14.864  0.3074  0.0535  0.5914
   22TCq2    C8  342   2.331   3.066  14.944  0.4658 -0.1629 -0.3546
   22TCq2    O4  343   2.304   3.137  15.039 -0.7691 -0.1872 -0.4356
   22TCq2    C9  344   2.506   2.719  15.242  0.2380 -0.1936  0.1415
   22TCq2    O5  345   2.435   2.772  15.327 -0.2440  0.1060 -0.6807
   22TCq2    O6  346   2.591   2.630  15.259  0.3316  0.0118  0.0389
   22TCq2    H2  347   2.661   2.672  15.046  1.4700  0.5587 -1.9269
   22TCq2    H3  348   2.352   2.948  15.165 -0.9838 -1.1330  0.1800
   22TCq2    H4  349   2.530   2.970  14.768  0.5819 -1.0252  0.0900
   23MPD2     C  350   0.008   4.074  14.791  0.8690 -0.1168 -0.2888
   23MPD2    C1  351   4.625   3.984  14.804  0.4513 -0.8188 -0.1942
   23MPD2    C2  352   4.512   3.995  14.731  0.1921 -0.0389  0.1799
   23MPD2    C3  353   4.509   4.103  14.648  0.3617 -0.1585  0.6025
   23MPD2    C4  354   4.606   4.194  14.632 -0.5693  0.4473 -0.2172
   23MPD2    C5  355   4.715   4.179  14.709 -0.1219  0.8699 -0.3028
   23MPD2     H  356   4.432   3.924  14.748  0.5249 -0.8388 -1.7539
   23MPD2    H1  357   4.601   4.275  14.560  0.5187  1.5957  1.0000
   23MPD2    H2  358   0.099   4.065  14.848  0.1340 -1.1714  0.7448
   23MPD2    H3  359   0.078   4.247  14.704  0.5863  0.0361  0.1155
   23MPD2     N  360   4.389   4.138  14.578  0.0643  0.5907  0.1842
   23MPD2    H5  361   4.392   4.229  14.532  1.1603  0.1233 -0.6567
   23MPD2    N1  362   4.642   3.891  14.905 -0.8115 -0.1620 -0.2362
   23MPD2    H7  363   0.009   3.895  14.954  0.0769  0.4225 -1.8670
   24TCq2    C1  364   4.265   4.075  14.583  0.0538  0.5999  0.8908
   24TCq2    O2  365   4.227   3.970  14.632 -0.8407  0.4648  0.1352
   24TCq2    C2  366   4.165   4.169  14.526 -1.0129  0.5323  1.3314
   24TCq2    C3  367   4.188   4.303  14.522 -0.1507 -0.1478 -0.2732
   24TCq2    C4  368   4.091   4.386  14.474  0.8485  0.1246 -0.1780
   24TCq2    C5  369   3.966   4.338  14.445  0.9293 -0.7795 -0.4000
   24TCq2    C6  370   3.953   4.200  14.437 -0.8032 -0.3244  0.5321
   24TCq2    C7  371   4.052   4.114  14.468 -0.4356 -0.2691  0.1555
   24TCq2    C8  372   3.841   4.156  14.354 -0.0227  0.0653  0.8562
   24TCq2    O4  373   3.759   4.243  14.321  0.7327  0.0114 -0.4183
   24TCq2    C9  374   4.098   4.529  14.474  0.6000 -0.2444 -0.5385
   24TCq2    O5  375   3.994   4.597  14.444  0.2583  0.0606  0.0061
   24TCq2    O6  376   4.211   4.577  14.476 -0.5280  0.4138 -0.0520
   24TCq2    H2  377   4.286   4.343  14.545 -0.3011 -0.6182  1.1720
   24TCq2    H3  378   3.882   4.396  14.409  1.2848 -0.7106 -1.1205
   24TCq2    H4  379   4.031   4.008  14.482 -1.0192  0.0966  2.0952
   25TMC2    C1  380   3.326   1.249  11.258 -0.0753 -0.8473  0.9866
   25TMC2    C2  381   3.452   1.261  11.304 -0.4248 -0.4625 -0.8210
   25TMC2    C3  382   3.475   1.298  11.437  0.6524  0.7132  0.1307
   25TMC2    C4  383   3.221   1.286  11.331 -0.2682  0.7803 -0.1512
   25TMC2    C5  384   3.238   1.338  11.458  0.2680  0.2705 -0.0620
   25TMC2    C6  385   3.367   1.349  11.511  0.0408  0.1994 -0.3561
   25TMC2     C  386   3.314   1.230  11.118 -0.0257  0.6819  0.2289
   25TMC2     O  387   3.415   1.268  11.060  0.4899 -0.1193  0.4064
   25TMC2     H  388   3.537   1.237  11.242  0.4803 -1.4831  0.8170
   25TMC2    H1  389   3.127   1.268  11.278 -0.0812  1.3181 -0.6642
   25TMC2    H2  390   3.371   1.383  11.614 -0.6455  0.3384 -0.3735
   25TMC2    C7  391   3.122   1.376  11.539  0.3853  0.1760 -0.1159
   25TMC2    C8  392   3.607   1.339  11.472 -0.2556  0.2128 -0.3838
   25TMC2    O1  393   3.148   1.415  11.651 -0.5532  0.8345 -0.3248
   25TMC2    O2  394   3.695   1.308  11.392  0.2031 -0.0091  0.4114
   25TMC2    O5  395   3.585   1.457  11.518 -0.3349 -0.0201 -0.1894
   25TMC2    H5  396   3.541   1.466  11.606 -1.4555 -0.8896 -0.6576
   26MPD2     C  397   3.121   1.005  10.700  1.1500 -0.2301  0.1211
   26MPD2    C1  398   3.045   0.956  10.810  0.3055  0.7693  0.5426
   26MPD2    C2  399   3.076   1.015  10.933  0.2083  0.0567 -0.7091
   26MPD2    C3  400   3.179   1.107  10.951  0.0814 -0.5828 -0.2180
   26MPD2    C4  401   3.259   1.131  10.842  0.0160  0.3240  0.2465
   26MPD2    C5  402   3.226   1.086  10.715  1.1503 -0.3423  0.4558
   26MPD2     H  403   3.017   0.987  11.019  1.3943  0.6480  0.2997
   26MPD2    H1  404   3.345   1.195  10.852  0.2355 -0.1654  1.4642
   26MPD2    H2  405   3.097   0.989  10.595  2.0200 -4.4751  0.5520
   26MPD2    H3  406   3.291   1.122  10.636  0.0727  0.1667 -0.1983
   26MPD2     N  407   3.202   1.157  11.080  0.0740 -0.2936  0.1320
   26MPD2    H5  408   3.132   1.137  11.150 -0.0699  3.5747  1.0644
   26MPD2    N1  409   2.948   0.859  10.792 -0.2715 -0.3669  0.6107
   26MPD2    H7  410   2.922   0.829  10.699  0.8392  1.0814 -0.1583
   27TMC2    C1  411   2.237   3.325  11.795 -0.1710 -0.0433 -0.0364
   27TMC2    C2  412   2.299   3.335  11.676 -0.3940  0.2899  0.0895
   27TMC2    C3  413   2.433   3.375  11.668  0.4304  0.0370  0.2432
   27TMC2    C4  414   2.312   3.354  11.907  0.1487 -0.4191  0.5429
   27TMC2    C5  415   2.438   3.397  11.895  0.1990 -0.4292  1.0051
   27TMC2    C6  416   2.497   3.408  11.775 -0.0577 -0.0497  0.6495
   27TMC2     C  417   2.097   3.289  11.800 -0.0710  0.1522  0.2169
   27TMC2     O  418   2.060   3.239  11.693  0.2123  0.1445  0.0680
   27TMC2     H  419   2.244   3.317  11.584 -0.1558  1.0789 -0.2081
   27TMC2    H1  420   2.269   3.347  12.006 -0.0471 -0.4750  0.4522
   27TMC2    H2  421   2.597   3.451  11.773 -0.4538  0.9112  1.3036
   27TMC2    C7  422   2.491   3.459  12.013  0.2157  0.1103 -0.6385
   27TMC2    C8  423   2.494   3.420  11.549 -0.7806  0.8810  0.4964
   27TMC2    O1  424   2.571   3.552  11.997 -0.5145 -0.0278 -0.4640
   27TMC2    O2  425   2.558   3.522  11.552  0.1038 -0.1408 -0.2184
   27TMC2    O5  426   2.430   3.386  11.439 -0.2639 -0.0356  0.0080
   27TMC2    H5  427   2.403   3.294  11.458 -1.6445  0.1318 -1.0671
   28MPD2     C  428   1.647   3.164  11.986 -0.1456  0.1701  0.0337
   28MPD2    C1  429   1.719   3.216  12.093 -0.0540  0.2373 -0.5530
   28MPD2    C2  430   1.849   3.276  12.069 -0.3280  0.0671 -0.8424
   28MPD2    C3  431   1.900   3.279  11.941 -0.9771 -0.0139 -0.8327
   28MPD2    C4  432   1.821   3.241  11.835 -0.0537  0.2187 -0.7002
   28MPD2    C5  433   1.698   3.189  11.861  0.3308  0.2569 -0.1748
   28MPD2     H  434   1.907   3.321  12.148  0.6629  1.2586 -2.2334
   28MPD2    H1  435   1.843   3.255  11.730  1.0481 -0.5307 -0.5782
   28MPD2    H2  436   1.553   3.112  12.003 -0.5216  0.0336 -2.4609
   28MPD2    H3  437   1.633   3.171  11.776  1.4490  1.7409 -1.3179
   28MPD2     N  438   2.038   3.307  11.918 -0.4557 -0.3805  0.2611
   28MPD2    H5  439   2.100   3.336  11.993  0.0476  1.4901 -0.8928
   28MPD2    N1  440   1.661   3.197  12.218 -0.2841  0.3498  0.7606
   28MPD2    H7  441   1.577   3.139  12.223 -0.7787  0.9000 -1.0543
   29MPD2     C  442   1.462   0.701  14.131 -0.3389 -0.0390  0.1171
   29MPD2    C1  443   1.556   0.680  14.229  0.6674 -0.4179  0.1978
   29MPD2    C2  444   1.622   0.798  14.269  0.1357  0.3468  0.4763
   29MPD2    C3  445   1.599   0.921  14.217 -0.0137  0.0681  0.5617
   29MPD2    C4  446   1.494   0.934  14.134  0.2722 -0.4621 -0.0221
   29MPD2    C5  447   1.424   0.823  14.099 -0.5896 -0.6973 -0.5229
   29MPD2     H  448   1.690   0.784  14.352  0.6643 -3.6070 -0.5967
   29MPD2    H1  449   1.457   1.034  14.114 -1.4973 -0.6053  2.4369
   29MPD2    H2  450   1.416   0.614  14.086  0.3533  0.0487 -0.7431
   29MPD2    H3  451   1.351   0.839  14.020  0.2787  0.2371 -1.1391
   29MPD2     N  452   1.668   1.037  14.256  0.7298 -0.7484  0.2397
   29MPD2    H5  453   1.648   1.127  14.213  2.2508 -0.2849  0.4762
   29MPD2    N1  454   1.589   0.555  14.285 -0.4694 -0.1848  0.0765
   29MPD2    H7  455   1.674   0.553  14.340 -1.1214 -2.2863  1.0508
   30TCq2    C1  456   1.784   1.039  14.318 -1.0134 -0.6683 -0.7582
   30TCq2    O2  457   1.838   0.954  14.386 -0.7049  0.1055  0.1847
   30TCq2    C2  458   1.852   1.161  14.305  0.4785  0.0623 -0.6670
   30TCq2    C3  459   1.784   1.287  14.293  0.2546  0.8812 -0.8225
   30TCq2    C4  460   1.864   1.402  14.305  0.0723  0.5994 -0.8443
   30TCq2    C5  461   2.002   1.402  14.309  0.0911  0.2349  0.7975
   30TCq2    C6  462   2.053   1.278  14.334  0.4475 -0.2195  0.5717
   30TCq2    C7  463   1.987   1.159  14.334 -0.5009 -0.1155  0.2270
   30TCq2    C8  464   2.201   1.264  14.340  0.1246 -0.4559  0.3225
   30TCq2    O4  465   2.248   1.183  14.256  0.1937 -0.2764  0.0771
   30TCq2    C9  466   1.798   1.526  14.285  0.2247 -0.0087  0.1035
   30TCq2    O5  467   1.855   1.631  14.329 -0.4603  0.2664  0.7035
   30TCq2    O6  468   1.714   1.524  14.192  0.0077  0.4473  0.3014
   30TCq2    H2  469   1.676   1.295  14.290  0.1377 -0.7126 -0.8149
   30TCq2    H3  470   2.060   1.493  14.301 -1.4041  0.8897 -2.5166
   30TCq2    H4  471   2.045   1.067  14.338  1.6132  1.2406  0.5595
   31MPD2     C  472   0.120   0.231  14.973  0.3661 -0.7422  0.2968
   31MPD2    C1  473   0.015   0.240  14.876 -0.5042  1.3048 -0.3187
   31MPD2    C2  474   4.617   0.174  14.905  0.0753 -0.9388 -0.3969
   31MPD2    C3  475   4.607   0.080  15.001  0.3150 -0.3724 -0.3851
   31MPD2    C4  476   4.717   0.059  15.085  0.3817  0.1712  0.4807
   31MPD2    C5  477   0.104   0.145  15.081  0.2932 -0.3613 -1.2219
   31MPD2     H  478   4.538   0.185  14.831  0.8940  0.0804 -1.1344
   31MPD2    H1  479   4.708   4.706  15.164 -1.1652  1.9328  1.9259
   31MPD2    H2  480   0.214   0.284  14.962  0.1637 -0.1333  1.5007
   31MPD2    H3  481   0.185   0.122  15.148 -0.6373 -1.4269 -0.4627
   31MPD2     N  482   4.485   0.006  15.025  0.0272  0.1836 -0.0083
   31MPD2    H5  483   4.479   4.663  15.104 -0.9681  1.3242  0.8324
   31MPD2    N1  484   0.035   0.321  14.762 -0.2079  0.1018  0.3055
   31MPD2    H7  485   0.120   0.375  14.757 -0.8623  1.0263 -0.7735
   32TCq2    C1  486   4.380   4.719  14.936 -0.2344 -0.1187 -0.2810
   32TCq2    O2  487   4.367   0.055  14.828 -0.2444  0.6276 -0.1525
   32TCq2    C2  488   4.268   4.639  14.979  1.0236 -0.4842  0.1330
   32TCq2    C3  489   4.147   4.680  14.932  0.4357  0.2609  0.2843
   32TCq2    C4  490   4.032   4.628  14.977  0.6173  0.1774  0.1830
   32TCq2    C5  491   4.040   4.545  15.082 -0.5583 -0.4967 -0.1905
   32TCq2    C6  492   4.158   4.518  15.143  0.0306 -0.2985  0.7724
   32TCq2    C7  493   4.278   4.557  15.088 -0.8051 -0.2108  0.2319
   32TCq2    C8  494   4.171   4.412  15.247  0.1644 -0.2937 -0.0702
   32TCq2    O4  495   4.271   4.405  15.318  0.5141 -0.5318  0.2272
   32TCq2    C9  496   3.908   4.654  14.917 -0.4561  0.4167  1.0146
   32TCq2    O5  497   3.807   4.615  14.979 -0.3085 -0.7093 -0.3872
   32TCq2    O6  498   3.912   4.689  14.801 -0.6923  0.5580  0.3239
   32TCq2    H2  499   4.149   0.033  14.852 -2.4569  2.4240  2.1912
   32TCq2    H3  500   3.947   4.516  15.128  0.3613 -1.3859  1.1281
   32TCq2    H4  501   4.373   4.527  15.131 -0.3629 -2.6932 -2.5026
   33MPD2     C  502   4.209   2.450  10.263  0.0428 -0.5846  1.2654
   33MPD2    C1  503   4.071   2.453  10.283  0.0946  0.5868  0.0989
   33MPD2    C2  504   3.988   2.557  10.238 -0.1667 -0.3224  0.0445
   33MPD2    C3  505   4.041   2.676  10.197  0.2465 -0.0520 -0.8514
   33MPD2    C4  506   4.178   2.677  10.175  0.1648 -1.5576 -0.3985
   33MPD2    C5  507   4.255   2.571  10.207  0.1118 -0.2093  0.0672
   33MPD2     H  508   3.886   2.551  10.274 -0.5657  1.8204 -0.7456
   33MPD2    H1  509   4.220   2.761  10.122 -0.2792 -0.9421  0.2225
   33MPD2    H2  510   4.268   2.365  10.294  1.2338  0.1212  0.9018
   33MPD2    H3  511   4.358   2.593  10.183  0.3002  0.1508  1.1762
   33MPD2     N  512   3.953   2.787  10.174  0.0593 -0.4735 -0.9870
   33MPD2    H5  513   3.855   2.767  10.190  0.0477 -0.0874 -0.5825
   33MPD2    N1  514   4.025   2.336  10.336 -0.1842  0.0732 -0.1457
   33MPD2    H7  515   4.090   2.274  10.384  0.3865  1.2677  0.6264
   34TCq2    C1  516   3.993   2.913  10.155  0.4078  0.9399 -0.7245
   34TCq2    O2  517   4.107   2.960  10.139 -0.5717  0.5196 -0.3326
   34TCq2    C2  518   3.878   3.004  10.169 -0.6174  0.0565 -0.0428
   34TCq2    C3  519   3.751   2.963  10.137 -0.7086 -0.4496 -0.0949
   34TCq2    C4  520   3.641   3.052  10.140 -0.4367 -0.0091  0.2863
   34TCq2    C5  521   3.672   3.183  10.162 -0.2183 -0.1033 -0.2411
   34TCq2    C6  522   3.798   3.228  10.185 -0.8758 -0.8313 -0.1028
   34TCq2    C7  523   3.898   3.137  10.194  0.2949  0.7996 -0.0887
   34TCq2    C8  524   3.844   3.356  10.129 -0.4262 -0.7410 -0.1390
   34TCq2    O4  525   3.957   3.392  10.157 -0.7578 -0.4342  0.3944
   34TCq2    C9  526   3.519   3.010  10.083 -0.2970  0.4033  0.1913
   34TCq2    O5  527   3.515   2.892  10.039 -0.0854  0.0376  0.1101
   34TCq2    O6  528   3.431   3.098  10.066 -0.2539  0.3356  0.0867
   34TCq2    H2  529   3.734   2.864  10.097 -0.6936 -1.0627  1.4400
   34TCq2    H3  530   3.593   3.256  10.154  0.4135  0.6029 -0.0730
   34TCq2    H4  531   3.999   3.172  10.214 -0.2068  2.1446  0.0990
   35MPD2     C  532   1.376   3.705  11.421  0.2650 -0.1633  0.4011
   35MPD2    C1  533   1.320   3.600  11.487  0.2304  0.5206  0.3431
   35MPD2    C2  534   1.188   3.568  11.463 -0.2739  0.2704 -0.1515
   35MPD2    C3  535   1.111   3.648  11.380 -0.5480 -0.6595  0.1352
   35MPD2    C4  536   1.173   3.741  11.309  0.2295  0.4651 -0.6438
   35MPD2    C5  537   1.304   3.774  11.328 -0.3745  0.4348  0.5554
   35MPD2     H  538   1.138   3.487  11.515 -0.2802  1.3225  1.4894
   35MPD2    H1  539   1.129   3.810  11.238  1.5985  1.0584 -0.9265
   35MPD2    H2  540   1.479   3.733  11.434  0.6537 -1.4911  0.1477
   35MPD2    H3  541   1.344   3.864  11.282  0.5943 -0.2922 -0.0351
   35MPD2     N  542   0.981   3.609  11.370 -0.3404 -0.0853  0.6185
   35MPD2    H5  543   0.938   3.554  11.444 -1.8134  1.1624  0.7018
   35MPD2    N1  544   1.402   3.543  11.589 -0.0096  0.4178  0.3021
   35MPD2    H7  545   1.473   3.605  11.627  0.5372  0.1864 -0.3370
   36TCq2    C1  546   0.891   3.674  11.286  0.7734 -0.2844  0.3011
   36TCq2    O2  547   0.908   3.767  11.208 -0.1275 -0.5061 -0.4895
   36TCq2    C2  548   0.749   3.666  11.320  0.0835 -0.1752 -1.0618
   36TCq2    C3  549   0.664   3.756  11.268 -0.0140 -0.7662  0.4357
   36TCq2    C4  550   0.530   3.759  11.298  0.1394  0.0853  0.3694
   36TCq2    C5  551   0.476   3.663  11.372  0.3150 -0.1411 -0.2754
   36TCq2    C6  552   0.564   3.564  11.422  0.7159  0.0809  0.6904
   36TCq2    C7  553   0.695   3.560  11.393 -0.6489  0.0855 -0.5515
   36TCq2    C8  554   0.492   3.447  11.475  0.3106 -0.6642 -0.1908
   36TCq2    O4  555   0.558   3.371  11.543 -0.0464  0.4105  0.5475
   36TCq2    C9  556   0.453   3.874  11.250  0.0679 -0.2760  0.3602
   36TCq2    O5  557   0.327   3.880  11.265 -0.1311  0.4088 -0.0803
   36TCq2    O6  558   0.504   3.960  11.171  0.6848 -0.3088  0.0268
   36TCq2    H2  559   0.699   3.830  11.197 -0.8875 -1.2819 -0.5388
   36TCq2    H3  560   0.368   3.662  11.382  0.3594 -1.2425  0.0744
   36TCq2    H4  561   0.751   3.473  11.426 -0.1465 -0.1703 -2.1032
   37TMC2    C1  562   3.449   4.292  11.176  0.3302  0.2367 -0.3468
   37TMC2    C2  563   3.462   4.311  11.043 -0.0605  0.1896  1.5595
   37TMC2    C3  564   3.590   4.333  10.999  0.1266  0.1866 -0.3179
   37TMC2    C4  565   3.556   4.267  11.253 -0.3515  0.0696 -0.2010
   37TMC2    C5  566   3.685   4.266  11.202  0.2869  0.2846 -0.8017
   37TMC2    C6  567   3.703   4.307  11.074 -0.1479 -0.4956 -0.0451
   37TMC2     C  568   3.317   4.244  11.228 -0.2806  0.2740  0.0114
   37TMC2     O  569   3.222   4.263  11.159  0.1638  0.1826 -0.1886
   37TMC2     H  570   3.376   4.330  10.979 -0.3552  1.4236  2.3256
   37TMC2    H1  571   3.541   4.259  11.360 -1.3112  1.6077 -0.2132
   37TMC2    H2  572   3.799   4.332  11.030 -0.1202  3.1493  2.0093
   37TMC2    C7  573   3.799   4.243  11.294 -0.7170  0.2183  0.8858
   37TMC2    C8  574   3.619   4.319  10.858 -0.0652 -0.5940 -0.2895
   37TMC2    O1  575   3.773   4.252  11.414 -0.1533  0.2026  0.3749
   37TMC2    O2  576   3.708   4.247  10.818  0.0198  0.3792 -0.6575
   37TMC2    O5  577   3.549   4.405  10.786 -0.0630  0.0921  0.6332
   37TMC2    H5  578   3.502   4.462  10.850  2.0689 -0.2650  2.4985
   38MPD2     C  579   3.020   3.998  11.562 -0.3038 -0.0327 -0.5985
   38MPD2    C1  580   3.145   3.996  11.617 -0.0581  0.6483 -0.6288
   38MPD2    C2  581   3.244   4.054  11.536 -0.3944 -0.4242 -0.0994
   38MPD2    C3  582   3.211   4.116  11.414 -0.2401  0.0170  0.4567
   38MPD2    C4  583   3.090   4.093  11.365 -0.0429 -0.1982 -0.4741
   38MPD2    C5  584   2.996   4.031  11.437 -0.6951  0.1165  0.2482
   38MPD2     H  585   3.344   4.072  11.572 -1.1962  0.6649  1.5898
   38MPD2    H1  586   3.058   4.145  11.275 -0.4167  1.6191  0.7140
   38MPD2    H2  587   2.932   3.969  11.619  1.4334 -1.4703  1.3422
   38MPD2    H3  588   2.897   4.029  11.394  0.2783 -1.6898 -1.9693
   38MPD2     N  589   3.319   4.181  11.347  0.0289  0.2162 -0.1866
   38MPD2    H5  590   3.408   4.175  11.396 -0.3252 -0.5581  0.3643
   38MPD2    N1  591   3.169   3.952  11.749  0.1215  0.0543  0.4027
   38MPD2    H7  592   3.266   3.950  11.781  0.7091  0.6766 -1.3479
   39MPD2     C  593   2.072   1.407   1.772 -0.1744  0.2834  0.7330
   39MPD2    C1  594   1.977   1.484   1.843 -0.6458  0.1955 -0.2179
   39MPD2    C2  595   1.847   1.493   1.796 -0.1323  0.7894  0.5410
   39MPD2    C3  596   1.806   1.419   1.687 -0.1765 -0.4598  0.6017
   39MPD2    C4  597   1.892   1.337   1.621 -0.1053 -0.0575 -0.1243
   39MPD2    C5  598   2.026   1.338   1.663  0.2377 -0.2303  0.1534
   39MPD2     H  599   1.777   1.562   1.842 -1.4635  0.9468 -1.7680
   39MPD2    H1  600   1.858   1.277   1.538  0.3719  1.4056 -1.3599
   39MPD2    H2  601   2.170   1.394   1.816 -1.3636 -3.7027  2.1862
   39MPD2    H3  602   2.098   1.293   1.596 -0.3842 -1.2203  0.1578
   39MPD2     N  603   1.679   1.424   1.620  0.4428  0.6183  0.2241
   39MPD2    H5  604   1.659   1.347   1.557  0.5721  0.4007  0.4467
   39MPD2    N1  605   2.023   1.533   1.969 -0.7475  0.1843 -0.0980
   39MPD2    H7  606   2.111   1.497   2.007 -1.9804 -1.5222  1.1362
   40TCq2    C1  607   1.947   1.580   2.073 -0.5724 -0.7183  0.5726
   40TCq2    O2  608   1.826   1.582   2.091  0.6898 -0.7171  0.2510
   40TCq2    C2  609   2.032   1.595   2.186  0.1016  0.5989 -0.1537
   40TCq2    C3  610   1.995   1.536   2.299  0.4734  0.2667  0.7232
   40TCq2    C4  611   2.091   1.495   2.380  0.1944  0.6092 -0.1741
   40TCq2    C5  612   2.224   1.518   2.358 -0.0472  0.5067 -0.8976
   40TCq2    C6  613   2.255   1.595   2.248 -0.6575  0.4979 -0.1978
   40TCq2    C7  614   2.162   1.630   2.160 -0.2028 -0.0072 -0.0013
   40TCq2    C8  615   2.395   1.610   2.223  0.1325 -0.2702 -0.6483
   40TCq2    O4  616   2.470   1.547   2.294  0.5144  0.1909 -0.5471
   40TCq2    C9  617   2.052   1.431   2.506  0.2020 -0.8261 -0.7241
   40TCq2    O5  618   1.928   1.402   2.523  0.5380 -0.2422 -0.1827
   40TCq2    O6  619   2.141   1.423   2.595  0.0429  0.1449 -0.3883
   40TCq2    H2  620   1.892   1.516   2.325  0.9949 -1.2940  1.6250
   40TCq2    H3  621   2.289   1.499   2.443 -1.2144 -2.7805 -0.7565
   40TCq2    H4  622   2.176   1.698   2.077 -0.2720 -2.5063 -2.0655
   41TMC2    C1  623   4.584   3.625  13.232 -0.2571 -0.7622 -0.1020
   41TMC2    C2  624   4.695   3.564  13.280  0.6002  0.2831 -0.6897
   41TMC2    C3  625   0.058   3.490  13.191 -0.1303 -0.0733 -0.6371
   41TMC2    C4  626   4.550   3.612  13.098 -0.8797 -0.1663 -0.2357
   41TMC2    C5  627   4.632   3.529  13.020 -0.4347 -0.7770  0.5629
   41TMC2    C6  628   0.021   3.462  13.063 -0.1163 -0.0826  0.5856
   41TMC2     C  629   4.523   3.733  13.312  0.3729 -0.2893  0.0259
   41TMC2     O  630   4.421   3.789  13.266 -0.1504  0.0445  0.1412
   41TMC2     H  631   4.704   3.558  13.388 -2.3190 -1.5200 -0.5375
   41TMC2    H1  632   4.459   3.660  13.065 -0.9992 -0.6762 -0.6510
   41TMC2    H2  633   0.086   3.394  13.008  1.3669  1.7060  0.0962
   41TMC2    C7  634   4.606   3.542  12.884  0.1455  0.3850 -0.4236
   41TMC2    C8  635   0.140   3.391  13.261 -0.4163  0.3186 -0.0595
   41TMC2    O1  636   4.489   3.563  12.859 -0.1244  0.1539 -0.1319
   41TMC2    O2  637   0.172   3.278  13.230 -0.0243  0.6099  0.4246
   41TMC2    O5  638   0.180   3.435  13.378 -0.8801 -0.1987  0.5046
   41TMC2    H5  639   0.162   3.530  13.396  0.3400 -0.1672  1.5561
   42MPD2     C  640   4.496   3.994  13.466  0.4050  0.3040 -0.1166
   42MPD2    C1  641   4.601   3.901  13.476  0.3452 -0.6187  0.0871
   42MPD2    C2  642   4.706   3.935  13.564  1.0533  0.4418 -0.4211
   42MPD2    C3  643   0.004   4.061  13.621  0.2667 -0.3205  0.1737
   42MPD2    C4  644   4.631   4.158  13.590  0.4141  0.0655  0.1868
   42MPD2    C5  645   4.514   4.118  13.522  0.6344 -0.5475 -0.0877
   42MPD2     H  646   0.056   3.857  13.588 -1.6068 -2.5443 -2.2135
   42MPD2    H1  647   4.656   4.261  13.613 -0.8028  0.7830 -1.7454
   42MPD2    H2  648   4.412   3.985  13.398  0.0727  3.0528 -0.0729
   42MPD2    H3  649   4.441   4.191  13.488  1.5536  0.6987  0.6212
   42MPD2     N  650   0.109   4.095  13.710 -0.4985  0.3753 -0.0404
   42MPD2    H5  651   0.115   4.191  13.744 -1.5919  0.0722  1.0021
   42MPD2    N1  652   4.608   3.775  13.411 -0.4478  0.5488 -0.1495
   42MPD2    H7  653   4.692   3.718  13.422  0.1857  1.0174 -2.4866
   43MPD2     C  654   1.955   2.178   0.679 -0.0052  0.8101  0.2882
   43MPD2    C1  655   2.049   2.237   0.770  1.1468  0.1613  0.8329
   43MPD2    C2  656   2.004   2.324   0.859 -0.3639  0.4285 -0.5490
   43MPD2    C3  657   1.868   2.348   0.875 -0.2119  0.5298  0.0019
   43MPD2    C4  658   1.781   2.281   0.793  0.0161 -0.0731 -0.2377
   43MPD2    C5  659   1.826   2.204   0.685 -0.1870 -0.0738  0.3959
   43MPD2     H  660   2.078   2.372   0.922 -0.6976  0.4775 -0.1938
   43MPD2    H1  661   1.674   2.296   0.804  0.4605  1.7735  1.5962
   43MPD2    H2  662   1.991   2.107   0.606 -1.0305  1.9490 -1.3092
   43MPD2    H3  663   1.766   2.153   0.610 -0.9045  0.9395  0.2796
   43MPD2     N  664   1.808   2.427   0.979 -0.5744  0.7896 -0.3942
   43MPD2    H5  665   1.708   2.444   0.978 -0.6702  0.2826  0.3432
   43MPD2    N1  666   2.188   2.208   0.768 -0.5464  0.0567  0.5114
   43MPD2    H7  667   2.248   2.244   0.841 -0.2768  1.2193 -0.2949
   44TCq2    C1  668   1.839   2.783   1.452 -0.5557 -0.4139  0.3957
   44TCq2    O2  669   1.962   2.763   1.467 -0.1282  0.1363  0.2076
   44TCq2    C2  670   1.778   2.726   1.331  1.2111 -0.0907  0.0114
   44TCq2    C3  671   1.662   2.783   1.290  0.5507 -0.3732 -0.9269
   44TCq2    C4  672   1.629   2.740   1.163  0.1372 -0.4590 -0.1899
   44TCq2    C5  673   1.698   2.646   1.092  0.4832  0.1504 -0.9449
   44TCq2    C6  674   1.804   2.585   1.149  0.3755 -0.2706  0.2860
   44TCq2    C7  675   1.859   2.641   1.262  0.3746  0.4477  0.3444
   44TCq2    C8  676   1.879   2.481   1.082 -0.0561 -0.7190  0.2930
   44TCq2    O4  677   1.996   2.470   1.114 -0.0997  0.6584 -0.1974
   44TCq2    C9  678   1.507   2.791   1.113 -0.1387  0.7182  0.3916
   44TCq2    O5  679   1.441   2.720   1.026 -0.8164 -0.0517  0.0534
   44TCq2    O6  680   1.453   2.880   1.184  0.0322 -0.5586  0.2834
   44TCq2    H2  681   1.601   2.854   1.345  1.0264 -0.2606 -0.5394
   44TCq2    H3  682   1.661   2.630   0.991 -0.1231  4.0298 -1.3584
   44TCq2    H4  683   1.949   2.599   1.305  1.7336  1.5977 -1.4372
   45TMC2    C1  684   2.169   3.993   9.590 -0.2244 -0.9022  0.3268
   45TMC2    C2  685   2.298   3.969   9.621  0.3312  0.5554  0.0019
   45TMC2    C3  686   2.386   4.072   9.630 -0.8104 -0.1918  0.2843
   45TMC2    C4  687   2.124   4.120   9.571  0.0079 -0.2591 -0.1926
   45TMC2    C5  688   2.212   4.221   9.597 -0.3453  0.8924 -0.3279
   45TMC2    C6  689   2.347   4.198   9.611 -0.1741 -1.1070  0.4354
   45TMC2     C  690   2.075   3.895   9.636 -0.5010  0.4971 -0.4595
   45TMC2     O  691   2.110   3.810   9.718  0.3641 -0.6422 -0.4084
   45TMC2     H  692   2.325   3.864   9.629  1.7812  0.9800  0.7578
   45TMC2    H1  693   2.018   4.139   9.577 -0.0531 -1.0173  1.1146
   45TMC2    H2  694   2.419   4.277   9.626 -0.1226 -0.4614 -3.1229
   45TMC2    C7  695   2.161   4.348   9.555  0.0983  0.4155  0.2689
   45TMC2    C8  696   2.505   4.047   9.546 -0.3348 -0.3209  0.3149
   45TMC2    O1  697   2.041   4.351   9.527  0.2326  0.4335  0.1576
   45TMC2    O2  698   2.511   4.100   9.435  0.0607  0.0373 -0.1107
   45TMC2    O5  699   2.608   4.049   9.633  0.0570  0.3065  0.0670
   45TMC2    H5  700   2.584   4.003   9.716 -1.8282  0.7984 -0.1983
   46MPD2     C  701   1.875   3.684   9.630  0.0026  1.0540 -0.0575
   46MPD2    C1  702   1.850   3.815   9.589 -0.2325  0.4233 -0.8583
   46MPD2    C2  703   1.724   3.850   9.551 -0.5295  0.0687  0.2241
   46MPD2    C3  704   1.617   3.764   9.577  0.0732 -0.0932 -0.0125
   46MPD2    C4  705   1.640   3.638   9.629  0.1990  0.3505  0.2394
   46MPD2    C5  706   1.771   3.599   9.645  0.0459  0.4832  0.4455
   46MPD2     H  707   1.713   3.952   9.514 -1.3139  1.1850  3.5195
   46MPD2    H1  708   1.567   3.563   9.657 -1.8920  2.4278  0.3378
   46MPD2    H2  709   1.975   3.655   9.663  0.7372  0.2236 -3.0453
   46MPD2    H3  710   1.794   3.505   9.694 -0.5622  0.2733  0.3283
   46MPD2     N  711   1.486   3.818   9.572  0.4855  0.6647  0.4932
   46MPD2    H5  712   1.473   3.917   9.554 -0.4108  0.2139 -1.3579
   46MPD2    N1  713   1.949   3.910   9.579  0.0600  0.6137  0.3091
   46MPD2    H7  714   1.931   3.990   9.520  1.8968  2.2174  1.8811
   47TMC2    C1  715   3.945   0.058   8.898  0.1075 -0.3392  0.2649
   47TMC2    C2  716   4.041   4.704   8.833  0.1601  0.3997  0.5055
   47TMC2    C3  717   3.993   4.604   8.751 -0.0666 -0.0987  0.4025
   47TMC2    C4  718   3.813   0.047   8.880 -0.6376  0.2644  0.0699
   47TMC2    C5  719   3.777   4.659   8.803  0.2814  0.0217  0.8982
   47TMC2    C6  720   3.865   4.579   8.739 -0.1824 -0.9168 -0.5775
   47TMC2     C  721   3.983   0.148   9.013 -0.8058  0.1731 -0.5418
   47TMC2     O  722   3.900   0.222   9.067 -0.1787  0.3125  0.2525
   47TMC2     H  723   4.141   0.022   8.819 -0.3953  1.2834 -0.9548
   47TMC2    H1  724   3.750   0.082   8.961  1.5067  0.0956  1.8237
   47TMC2    H2  725   3.829   4.499   8.675 -0.4952 -1.5749  0.4137
   47TMC2    C7  726   3.639   4.631   8.782 -0.6623  0.3360  0.5859
   47TMC2    C8  727   4.087   4.521   8.686  0.2485  0.1847 -0.2686
   47TMC2    O1  728   3.607   4.530   8.727  0.5726 -0.3878 -0.6752
   47TMC2    O2  729   4.052   4.407   8.663  0.2201  0.3737  0.2044
   47TMC2    O5  730   4.180   4.602   8.617  0.6591  0.1809 -0.1371
   47TMC2    H5  731   4.182   4.699   8.632 -2.2322  0.4392 -1.3074
   48MPD2     C  732   4.119   0.266   9.254  0.1561 -0.1300 -0.3088
   48MPD2    C1  733   4.170   0.168   9.181  0.2136 -0.6557 -0.1801
   48MPD2    C2  734   4.287   0.107   9.213  0.2910 -0.3906  0.2695
   48MPD2    C3  735   4.358   0.136   9.330  0.2196 -0.6827  0.2919
   48MPD2    C4  736   4.305   0.243   9.406 -0.8065  0.2956 -0.5912
   48MPD2    C5  737   4.188   0.304   9.367 -0.3387  0.1921  0.8113
   48MPD2     H  738   4.331   0.034   9.147 -3.9496 -1.7225 -1.0935
   48MPD2    H1  739   4.345   0.273   9.503  0.4266 -3.1253 -0.0231
   48MPD2    H2  740   4.025   0.314   9.227 -0.7429 -2.3741 -1.1716
   48MPD2    H3  741   4.148   0.392   9.415  2.7392  0.7232  2.3761
   48MPD2     N  742   4.485   0.072   9.360  0.7466 -0.0632  0.0717
   48MPD2    H5  743   4.504   4.711   9.303  0.7203 -0.0609  0.0592
   48MPD2    N1  744   4.112   0.120   9.060 -0.8784  0.1234  0.2097
   48MPD2    H7  745   4.153   0.046   9.003  0.3806  1.8715 -1.1674
   49MPD2     C  746   2.634   2.261   9.753 -1.1453  0.6701 -0.7269
   49MPD2    C1  747   2.600   2.164   9.845 -0.0214  0.1171  0.3174
   49MPD2    C2  748   2.680   2.148   9.953  0.8553 -0.2217  0.2788
   49MPD2    C3  749   2.798   2.214   9.964  0.3495 -0.1872  0.0139
   49MPD2    C4  750   2.831   2.303   9.871 -0.4527  0.1327 -0.3716
   49MPD2    C5  751   2.744   2.336   9.768 -0.7229  0.9695  0.5374
   49MPD2     H  752   2.641   2.075  10.023  2.3686 -2.7072 -1.5012
   49MPD2    H1  753   2.927   2.353   9.882 -1.2380  1.4743  0.3224
   49MPD2    H2  754   2.574   2.281   9.665 -0.8068  0.1383 -1.0798
   49MPD2    H3  755   2.771   2.403   9.687  1.6109  0.5059  0.9390
   49MPD2     N  756   2.893   2.194  10.065  0.1196  0.1832 -0.3240
   49MPD2    H5  757   2.968   2.263  10.070 -0.4860  0.5578  3.8395
   49MPD2    N1  758   2.491   2.076   9.827  0.5697  0.5924  0.1592
   49MPD2    H7  759   2.465   2.013   9.902 -2.6798  1.4796 -0.2182
   50TCq2    C1  760   2.405   2.078   9.722 -0.2790 -0.4470 -0.3075
   50TCq2    O2  761   2.397   2.163   9.634  0.1971  0.4399  0.0873
   50TCq2    C2  762   2.314   1.961   9.718 -0.8410 -0.9426  0.0621
   50TCq2    C3  763   2.215   1.961   9.623  0.3225  0.1165 -0.0016
   50TCq2    C4  764   2.137   1.850   9.610  0.0270  0.5011  0.6461
   50TCq2    C5  765   2.159   1.741   9.695  0.6815  0.2573 -0.0182
   50TCq2    C6  766   2.258   1.743   9.789  0.3524  0.2521 -0.0640
   50TCq2    C7  767   2.333   1.859   9.813 -0.4217 -0.7010  0.0201
   50TCq2    C8  768   2.288   1.619   9.850 -0.1302 -0.4480  0.2810
   50TCq2    O4  769   2.205   1.530   9.852  0.1913  0.5749  0.3587
   50TCq2    C9  770   2.039   1.841   9.502  0.1432 -0.5508  0.0432
   50TCq2    O5  771   1.957   1.744   9.501  0.2250 -0.5616 -0.1643
   50TCq2    O6  772   2.038   1.940   9.425 -0.3014  0.0666 -0.4214
   50TCq2    H2  773   2.213   2.042   9.552  2.1515 -0.3684 -0.6041
   50TCq2    H3  774   2.094   1.658   9.667  2.5982 -1.1645 -0.2405
   50TCq2    H4  775   2.409   1.865   9.890 -0.9352 -0.2903  0.4924
   51MPD2     C  776   3.561   0.717   0.858  1.3111  0.4115  0.0064
   51MPD2    C1  777   3.570   0.581   0.856 -0.4543  0.4478 -0.1900
   51MPD2    C2  778   3.654   0.519   0.951  0.5886 -0.0852 -0.4030
   51MPD2    C3  779   3.731   0.586   1.038 -0.7633 -0.4230  0.3081
   51MPD2    C4  780   3.725   0.723   1.038  0.3460  0.3887 -0.6252
   51MPD2    C5  781   3.632   0.782   0.956  0.3538 -0.2321 -0.1058
   51MPD2     H  782   3.653   0.410   0.948  0.2997 -0.0632 -1.1482
   51MPD2    H1  783   3.781   0.783   1.109 -0.3693 -0.5386  0.7258
   51MPD2    H2  784   3.488   0.769   0.796  2.1141 -0.0399 -1.3189
   51MPD2    H3  785   3.628   0.890   0.964 -1.8926 -0.3693  0.5406
   51MPD2     N  786   3.815   0.524   1.134 -0.3694  0.0606  0.0379
   51MPD2    H5  787   3.870   0.589   1.189 -2.4315  0.5679  1.5467
   51MPD2    N1  788   3.498   0.504   0.761 -0.1681  0.3619  0.9080
   51MPD2    H7  789   3.518   0.405   0.761  2.4017  0.9001  3.0037
   52TCq2    C1  790   3.851   0.395   1.139  0.0800  0.0211  0.5879
   52TCq2    O2  791   3.826   0.299   1.069  0.5260  0.0622  0.1015
   52TCq2    C2  792   3.920   0.349   1.264  0.6973 -0.3193 -0.7127
   52TCq2    C3  793   3.984   0.228   1.270  0.9625 -0.2708  0.2566
   52TCq2    C4  794   4.070   0.215   1.378  0.2828  0.3338  0.7657
   52TCq2    C5  795   4.105   0.311   1.464 -0.0864 -0.4847 -0.4301
   52TCq2    C6  796   4.044   0.433   1.455 -0.1112  0.1206  0.3009
   52TCq2    C7  797   3.941   0.440   1.367 -0.5232  0.2068 -0.7700
   52TCq2    C8  798   4.073   0.542   1.546  0.4330  0.1921  0.0348
   52TCq2    O4  799   3.986   0.630   1.543  0.4810  0.2795 -0.2944
   52TCq2    C9  800   4.154   0.096   1.384  0.6891  0.0245  0.1676
   52TCq2    O5  801   4.267   0.105   1.439  0.0145  0.0246 -0.5486
   52TCq2    O6  802   4.112   0.006   1.312 -0.1687  0.0190  0.4141
   52TCq2    H2  803   3.975   0.150   1.194  2.1993  0.4451 -0.6276
   52TCq2    H3  804   4.183   0.287   1.536 -2.0673 -1.7483  1.3123
   52TCq2    H4  805   3.886   0.534   1.362 -0.5767  0.1340 -1.5587
   53TMC2    C1  806   4.258   4.003  11.825 -0.3309 -0.9654  0.0341
   53TMC2    C2  807   4.370   3.978  11.895  0.0331 -0.9625  0.7193
   53TMC2    C3  808   4.360   3.921  12.023 -1.3554 -0.4477  0.0708
   53TMC2    C4  809   4.137   3.954  11.861 -0.1638  0.1064 -0.0324
   53TMC2    C5  810   4.130   3.894  11.984  0.3112 -1.6261  0.2070
   53TMC2    C6  811   4.235   3.879  12.069  0.0577 -0.6894 -0.1144
   53TMC2     C  812   4.284   4.024  11.687 -0.1122  0.4895 -0.4231
   53TMC2     O  813   4.384   3.976  11.645  0.4462 -0.3390  0.1457
   53TMC2     H  814   4.469   4.014  11.870 -0.6887  0.9968  0.6718
   53TMC2    H1  815   4.049   3.956  11.799 -0.5008  0.6651  0.4561
   53TMC2    H2  816   4.216   3.838  12.168  1.7600  1.2866  1.0381
   53TMC2    C7  817   3.993   3.873  12.026 -0.2001  0.8407 -0.1682
   53TMC2    C8  818   4.462   3.965  12.118 -0.7864 -0.5279  0.8362
   53TMC2    O1  819   3.904   3.890  11.945 -0.3161  0.2950 -0.0214
   53TMC2    O2  820   4.514   4.077  12.111 -0.4323  0.3406  0.2339
   53TMC2    O5  821   4.433   3.898  12.231  0.3378 -0.5392  0.2053
   53TMC2    H5  822   4.409   3.806  12.208 -2.4740 -0.3376  2.3583
   54MPD2     C  823   4.281   4.089  11.402 -0.5133 -0.2225  0.1043
   54MPD2    C1  824   4.171   4.096  11.485 -0.4567 -0.4168  0.0153
   54MPD2    C2  825   4.052   4.138  11.431 -0.0079 -0.2933 -0.2020
   54MPD2    C3  826   4.038   4.168  11.292 -0.4294  0.5787 -0.9488
   54MPD2    C4  827   4.152   4.157  11.210 -0.1590 -0.1442 -0.3295
   54MPD2    C5  828   4.270   4.117  11.265  0.6720  0.7541 -0.2210
   54MPD2     H  829   3.965   4.148  11.496  1.3360 -0.8537  1.6817
   54MPD2    H1  830   4.159   4.194  11.108  1.3307  0.6881  0.0843
   54MPD2    H2  831   4.377   4.052  11.436 -1.0289  0.2909  2.0869
   54MPD2    H3  832   4.357   4.106  11.202 -0.4826  0.8893 -1.8378
   54MPD2     N  833   3.916   4.207  11.224 -0.9080  0.7756  0.3214
   54MPD2    H5  834   3.907   4.205  11.123 -1.8433 -0.0242  0.4132
   54MPD2    N1  835   4.178   4.080  11.621  0.0887  0.0176  0.2125
   54MPD2    H7  836   4.099   4.118  11.672 -1.6293 -2.5631 -0.5326
   55MPD2     C  837   0.082   1.454   0.656  0.2928 -0.5380 -0.3807
   55MPD2    C1  838   0.032   1.332   0.686  0.2031 -0.1804  0.6643
   55MPD2    C2  839   4.651   1.334   0.783 -0.0896  0.1964 -0.1727
   55MPD2    C3  840   4.606   1.446   0.846 -0.7373  0.3668  0.0275
   55MPD2    C4  841   4.676   1.561   0.820 -0.1929  0.3854  0.0203
   55MPD2    C5  842   0.047   1.566   0.721  0.2473 -0.2921 -0.6473
   55MPD2     H  843   4.598   1.244   0.811  0.3252 -0.1700 -0.5584
   55MPD2    H1  844   4.660   1.649   0.881 -0.6977  0.8349 -0.7785
   55MPD2    H2  845   0.156   1.462   0.577  1.5391  1.2792  0.9541
   55MPD2    H3  846   0.091   1.663   0.698  0.4156 -0.3510 -0.5726
   55MPD2     N  847   4.487   1.432   0.925  0.1128 -0.0330  0.6704
   55MPD2    H5  848   4.439   1.343   0.936 -2.5157  1.2634 -0.1747
   55MPD2    N1  849   0.057   1.222   0.602  0.4443  0.2143  0.0459
   55MPD2    H7  850   0.122   1.242   0.526  1.0628  0.0244  0.5258
   56TCq2    C1  851   0.001   1.094   0.614 -0.1153 -0.1594  0.1092
   56TCq2    O2  852   4.649   1.040   0.697 -0.1971  0.0309  0.4014
   56TCq2    C2  853   0.067   1.005   0.515  0.1506  0.2263  0.0688
   56TCq2    C3  854   0.144   1.048   0.408 -0.2697 -0.3459  0.0071
   56TCq2    C4  855   0.198   0.952   0.331 -0.6936 -0.6228 -0.6211
   56TCq2    C5  856   0.168   0.818   0.336  0.6580  0.4339 -0.0031
   56TCq2    C6  857   0.081   0.782   0.433 -0.0043 -0.0758 -0.0828
   56TCq2    C7  858   0.030   0.871   0.528 -0.3751 -0.0937 -0.2119
   56TCq2    C8  859   0.077   0.639   0.466  0.6006  0.3966  0.0715
   56TCq2    O4  860   0.162   0.569   0.407 -0.1709 -0.4256  0.1500
   56TCq2    C9  861   0.284   0.994   0.215  0.2353 -0.8183 -0.2801
   56TCq2    O5  862   0.299   0.916   0.120  0.4002  0.1419  0.4475
   56TCq2    O6  863   0.316   1.116   0.216 -0.2346  0.3502 -0.2689
   56TCq2    H2  864   0.174   1.151   0.394  0.1404 -0.3146  1.1589
   56TCq2    H3  865   0.196   0.748   0.257 -0.1521  0.0315  0.0609
   56TCq2    H4  866   4.684   0.840   0.607 -1.2945  2.2472 -0.0732
   57TMC2    C1  867   3.673   3.009  13.670 -0.1574  0.4460 -0.3640
   57TMC2    C2  868   3.782   3.023  13.747  0.5075 -0.1866  0.3834
   57TMC2    C3  869   3.904   2.978  13.699 -0.0949  0.4501 -0.3438
   57TMC2    C4  870   3.676   2.945  13.551 -0.0826 -0.1507 -0.0066
   57TMC2    C5  871   3.800   2.909  13.506  0.5018  0.0070 -0.2998
   57TMC2    C6  872   3.913   2.932  13.575  0.2488 -0.3221 -0.3200
   57TMC2     C  873   3.551   3.031  13.740 -0.1671 -1.2577  0.0812
   57TMC2     O  874   3.555   3.095  13.844 -0.2233  0.0448 -0.8134
   57TMC2     H  875   3.785   3.060  13.849 -1.1004  0.4659  0.1905
   57TMC2    H1  876   3.594   2.958  13.481  1.2410 -1.2923 -1.7592
   57TMC2    H2  877   4.014   2.920  13.536  0.5501  1.5641 -0.1137
   57TMC2    C7  878   3.812   2.866  13.365 -0.8736  0.1106 -0.0686
   57TMC2    C8  879   4.015   2.972  13.780  0.5782 -0.4064 -0.4054
   57TMC2    O1  880   3.726   2.898  13.286  0.1384  0.6674  0.1962
   57TMC2    O2  881   4.036   3.049  13.873 -0.6111 -0.4085 -0.4102
   57TMC2    O5  882   4.058   2.840  13.783 -0.0762  0.2213 -0.8894
   57TMC2    H5  883   4.055   2.791  13.698 -0.1412 -2.4910  0.6794
   58MPD2     C  884   3.067   2.869  13.837  0.1800  0.0290  0.4181
   58MPD2    C1  885   3.147   2.955  13.909  0.5148  0.1153  0.3599
   58MPD2    C2  886   3.275   2.985  13.860  0.8186 -0.0376  0.3437
   58MPD2    C3  887   3.322   2.938  13.731  0.3406 -1.2190  0.2175
   58MPD2    C4  888   3.232   2.856  13.663 -0.0303 -0.2499  0.3720
   58MPD2    C5  889   3.111   2.824  13.715 -0.0926  0.3174  0.6617
   58MPD2     H  890   3.341   3.051  13.915 -1.5693  0.5600  2.4576
   58MPD2    H1  891   3.271   2.818  13.569 -0.0566  0.4467  0.0821
   58MPD2    H2  892   2.966   2.842  13.865  0.3294 -0.9174  0.0217
   58MPD2    H3  893   3.046   2.761  13.656  2.0362 -0.4085 -0.9202
   58MPD2     N  894   3.451   2.968  13.675  0.3980  0.2776  0.0037
   58MPD2    H5  895   3.472   2.924  13.586 -0.0678  2.8884 -1.3801
   58MPD2    N1  896   3.109   3.001  14.038  0.2814 -0.3450 -0.2049
   58MPD2    H7  897   3.178   3.050  14.094 -0.4763  0.5842 -0.0999
   59MPD2     C  898   1.271   3.069  12.910  1.1056 -0.1914  0.9278
   59MPD2    C1  899   1.378   2.982  12.910 -0.2721  0.6676  0.6507
   59MPD2    C2  900   1.485   3.011  12.992 -0.5654 -0.0532 -0.3617
   59MPD2    C3  901   1.485   3.132  13.057 -0.0948  0.1711 -0.5089
   59MPD2    C4  902   1.377   3.217  13.054 -0.3256  0.6063 -0.1858
   59MPD2    C5  903   1.263   3.188  12.978 -0.1719 -0.5801 -0.2725
   59MPD2     H  904   1.562   2.935  12.992 -1.3052 -0.7998 -0.4337
   59MPD2    H1  905   1.381   3.307  13.113  2.3071 -0.7119  1.6372
   59MPD2    H2  906   1.190   3.037  12.846  0.6586  1.5700  0.6344
   59MPD2    H3  907   1.177   3.253  12.969  0.1788 -0.0357  0.3237
   59MPD2     N  908   1.589   3.167  13.145 -0.2909 -0.9067  0.4915
   59MPD2    H5  909   1.579   3.258  13.190 -2.2935 -0.4450 -0.9045
   59MPD2    N1  910   1.376   2.859  12.827 -0.0756 -0.4988 -0.1343
   59MPD2    H7  911   1.468   2.817  12.827  0.8524  1.5999  1.1056
   60TCq2    C1  912   1.265   2.778  12.809  0.0845  0.9070 -0.1706
   60TCq2    O2  913   1.157   2.788  12.865 -0.0554  0.2571 -0.0485
   60TCq2    C2  914   1.276   2.665  12.718  0.2438 -0.0451  0.0859
   60TCq2    C3  915   1.175   2.567  12.738  0.8346  0.2160  0.1570
   60TCq2    C4  916   1.156   2.486  12.627  0.2126  0.8363  0.4606
   60TCq2    C5  917   1.233   2.495  12.513 -0.2530  0.7585  0.1302
   60TCq2    C6  918   1.330   2.587  12.507  0.1962 -0.5755 -0.0617
   60TCq2    C7  919   1.347   2.673  12.603 -0.9992  0.1989  0.3277
   60TCq2    C8  920   1.381   2.612  12.374  0.4317  0.1673 -0.2047
   60TCq2    O4  921   1.411   2.512  12.316 -0.4906 -0.6847  0.0181
   60TCq2    C9  922   1.052   2.386  12.623  0.0455 -0.3807 -0.3238
   60TCq2    O5  923   0.970   2.392  12.715  0.0893 -0.2778 -0.5429
   60TCq2    O6  924   1.056   2.285  12.549  0.4855  0.4666 -0.3841
   60TCq2    H2  925   1.109   2.553  12.823  1.0273  1.5964  0.5192
   60TCq2    H3  926   1.216   2.430  12.428  0.1396 -2.0071  2.1613
   60TCq2    H4  927   1.422   2.749  12.583 -1.5086 -0.0589 -2.5051
   61MPD2     C  928   0.347   4.484  15.232  0.1174  0.0906  0.8754
   61MPD2    C1  929   0.427   4.588  15.257  0.3313 -0.1678 -0.2497
   61MPD2    C2  930   0.510   4.636  15.157  0.3910 -0.5428 -0.2080
   61MPD2    C3  931   0.500   4.593  15.026  0.3770 -0.2516 -0.2074
   61MPD2    C4  932   0.385   4.515  14.993  0.3366  0.8294  0.2310
   61MPD2    C5  933   0.314   4.459  15.100  0.4371 -0.6593  0.4123
   61MPD2     H  934   0.577   4.712  15.194  0.6417 -1.5580  1.4581
   61MPD2    H1  935   0.356   4.493  14.890 -0.6843 -1.8308  1.1017
   61MPD2    H2  936   0.292   4.439  15.314 -2.1986 -1.0003 -1.2888
   61MPD2    H3  937   0.245   4.377  15.079  1.0999 -1.1416  0.1223
   61MPD2     N  938   0.576   4.650  14.923 -0.9239 -0.4697  0.0236
   61MPD2    H5  939   0.546   4.639  14.826 -0.5621 -0.5951 -0.0753
   61MPD2    N1  940   0.464   4.637  15.389 -0.9860 -0.1041 -0.4263
   61MPD2    H7  941   0.551   4.689  15.389  0.3813 -2.3987  0.3228
   62TCq2    C1  942   0.399   4.622  15.505 -1.0594  0.1413  0.2989
   62TCq2    O2  943   0.306   4.548  15.539  0.4668 -0.3376  0.2634
   62TCq2    C2  944   0.447   4.704  15.613  0.7587  0.1852  0.2490
   62TCq2    C3  945   0.405   4.661  15.734  0.0697  0.0990  0.1462
   62TCq2    C4  946   0.433   0.021  15.845 -0.4352 -0.1054 -0.4501
   62TCq2    C5  947   0.506   0.143  15.831  0.1166  0.4119 -0.0239
   62TCq2    C6  948   0.551   0.185  15.711  0.1006 -0.7793 -0.3410
   62TCq2    C7  949   0.525   0.101  15.605  0.3773 -0.4394  0.2434
   62TCq2    C8  950   0.648   0.286  15.698 -0.6130  0.0723  1.0014
   62TCq2    O4  951   0.714   0.285  15.596 -0.0233 -0.3126  0.1750
   62TCq2    C9  952   0.394   4.703  15.976  0.0032 -0.2218 -0.0622
   62TCq2    O5  953   0.303   4.617  15.978  0.2795  0.2017  0.0940
   62TCq2    O6  954   0.439   0.050  16.075  0.3262 -0.1012 -0.3179
   62TCq2    H2  955   0.325   4.591  15.756 -0.0074 -0.3604 -1.5830
   62TCq2    H3  956   0.509   0.201  15.923 -1.2499  0.3070  0.0785
   62TCq2    H4  957   0.559   0.137  15.508 -2.7916 -1.0449 -1.1050
   63TMC2    C1  958   0.631   4.499  10.628  0.2952  0.0476 -0.5077
   63TMC2    C2  959   0.748   4.499  10.704  0.4029  0.2743  0.4692
   63TMC2    C3  960   0.840   4.598  10.678 -0.0106  0.0652 -0.0070
   63TMC2    C4  961   0.604   4.588  10.533  1.7916  0.5094  0.7955
   63TMC2    C5  962   0.700   4.682  10.510  0.0748  0.9604 -0.1609
   63TMC2    C6  963   0.817   4.695  10.583  1.1403  0.1979  0.2434
   63TMC2     C  964   0.539   4.395  10.658 -0.2811 -0.3253  0.1049
   63TMC2     O  965   0.582   4.299  10.722 -0.3790 -0.1572 -0.0217
   63TMC2     H  966   0.753   4.429  10.787 -1.2028 -0.5568 -0.1410
   63TMC2    H1  967   0.513   4.591  10.474  2.1852 -0.2148  0.1647
   63TMC2    H2  968   0.890   0.053  10.567  0.9567 -0.1680 -2.4652
   63TMC2    C7  969   0.675   0.045  10.393 -0.4562  0.1906  0.4091
   63TMC2    C8  970   0.970   4.614  10.756 -0.3421 -0.1954  0.4495
   63TMC2    O1  971   0.591   0.008  10.310 -0.6986 -0.2534  0.0605
   63TMC2    O2  972   1.006   0.009  10.784 -0.8226 -0.0372 -0.0448
   63TMC2    O5  973   0.995   4.503  10.823  0.1878 -0.3177 -0.5119
   63TMC2    H5  974   0.965   4.426  10.771 -1.5914 -2.0754  3.1576
   64MPD2     C  975   0.089   4.152  10.564  0.6864  0.0607 -0.1355
   64MPD2    C1  976   0.221   4.099  10.578 -0.0995  0.2244  0.1001
   64MPD2    C2  977   0.319   4.192  10.610  0.0483 -0.0040  0.2686
   64MPD2    C3  978   0.300   4.329  10.606  0.0422  0.2573 -1.1098
   64MPD2    C4  979   0.173   4.376  10.591  0.1151 -0.0704  0.1715
   64MPD2    C5  980   0.064   4.288  10.578  0.3600 -0.4998 -0.2728
   64MPD2     H  981   0.421   4.156  10.612  0.0600 -0.0061 -0.3833
   64MPD2    H1  982   0.156   4.483  10.597  0.1544 -0.0697  0.2625
   64MPD2    H2  983   0.008   4.085  10.537  2.9183 -2.9886  0.5887
   64MPD2    H3  984   4.683   4.324  10.566  0.3821 -0.3252  0.0807
   64MPD2     N  985   0.410   4.421  10.614  0.3326 -0.2835 -0.0221
   64MPD2    H5  986   0.384   4.510  10.574 -2.2136 -0.9482  0.1538
   64MPD2    N1  987   0.257   3.963  10.569  0.0457 -0.3720  0.6184
   64MPD2    H7  988   0.355   3.939  10.556  0.6348  2.8785 -1.0536
   65MPD2     C  989   1.501   3.841  15.996  0.7818 -0.3294  0.6330
   65MPD2    C1  990   1.465   3.850  15.861  0.7859  0.3327  0.7110
   65MPD2    C2  991   1.429   3.737  15.785 -0.5637 -0.2728 -0.0488
   65MPD2    C3  992   1.427   3.616  15.844  0.0172 -0.2815 -0.7937
   65MPD2    C4  993   1.460   3.606  15.977 -0.5500 -0.1907 -0.8681
   65MPD2    C5  994   1.504   3.712  16.048 -0.2968  0.6637 -0.3185
   65MPD2     H  995   1.407   3.747  15.679 -1.9195 -2.9985 -0.0456
   65MPD2    H1  996   1.462   3.505  16.018  0.4089  0.2065  0.0770
   65MPD2    H2  997   1.538   3.927  16.049  1.7823  0.7722 -1.8589
   65MPD2    H3  998   1.537   3.699  16.151  0.8750 -1.3604 -0.9477
   65MPD2     N  999   1.382   3.503  15.773  0.4556 -0.4647  0.0473
   65MPD2    H5 1000   1.366   3.419  15.827  1.4922  0.3083  1.5610
   65MPD2    N1 1001   1.490   3.967  15.781 -0.8211 -0.1960  0.2336
   65MPD2    H7 1002   1.474   3.959  15.681  3.8032  1.2497 -0.6359
   66TCq2    C1 1003   1.493   4.095  15.827 -0.2638 -0.3898 -0.2865
   66TCq2    O2 1004   1.456   4.132  15.939 -0.4885 -0.1126 -0.6157
   66TCq2    C2 1005   1.475   4.179  15.712 -0.5385  0.3484 -0.3108
   66TCq2    C3 1006   1.499   4.118  15.589  0.7299 -0.2081 -0.0507
   66TCq2    C4 1007   1.428   4.158  15.477  0.6443  0.2655  0.3359
   66TCq2    C5 1008   1.321   4.242  15.485 -0.8014 -0.2771  0.0006
   66TCq2    C6 1009   1.299   4.307  15.608 -0.3601  0.6531  0.7441
   66TCq2    C7 1010   1.369   4.267  15.723 -0.2241  0.0443 -0.2415
   66TCq2    C8 1011   1.172   4.379  15.616 -0.2535 -0.3781 -0.3433
   66TCq2    O4 1012   1.100   4.389  15.517 -0.0906 -0.7151 -0.6724
   66TCq2    C9 1013   1.460   4.108  15.346  0.0566 -0.0626 -0.4220
   66TCq2    O5 1014   1.536   4.008  15.332 -0.2787  0.9149  0.2753
   66TCq2    O6 1015   1.412   4.171  15.248  0.0023 -0.0281  0.1508
   66TCq2    H2 1016   1.592   4.064  15.571  2.7756  2.6493  1.9526
   66TCq2    H3 1017   1.281   4.273  15.389  0.7892  2.0193  0.0507
   66TCq2    H4 1018   1.333   4.300  15.820 -0.9110 -1.1575 -0.0906
   67MPD2     C 1019   1.504   3.019  13.961  0.4547 -1.4257  0.2634
   67MPD2    C1 1020   1.465   3.136  14.020  0.2306  0.1071  0.5819
   67MPD2    C2 1021   1.351   3.203  13.969  0.2044 -0.2684 -0.8776
   67MPD2    C3 1022   1.281   3.146  13.866 -1.1284 -0.1143  0.8273
   67MPD2    C4 1023   1.330   3.036  13.796  0.1991 -0.1826 -0.1109
   67MPD2    C5 1024   1.445   2.975  13.844 -0.1873  0.1650 -0.0570
   67MPD2     H 1025   1.320   3.289  14.027  1.4686 -1.0648  0.9906
   67MPD2    H1 1026   1.291   3.000  13.701 -0.2025  1.1214 -0.4328
   67MPD2    H2 1027   1.582   2.957  14.004  1.1317 -0.7988 -0.0740
   67MPD2    H3 1028   1.475   2.880  13.800 -1.0446  0.5526 -1.4699
   67MPD2     N 1029   1.160   3.207  13.821  0.0288  0.3656 -0.2426
   67MPD2    H5 1030   1.133   3.298  13.858  0.1949  0.3303 -0.0343
   67MPD2    N1 1031   1.523   3.194  14.139  0.5557  0.3395 -0.2254
   67MPD2    H7 1032   1.464   3.257  14.192 -1.9179 -1.3089 -1.0026
   68TCq2    C1 1033   1.634   3.154  14.207  0.4364  0.0549  0.0262
   68TCq2    O2 1034   1.698   3.051  14.184 -0.2883  0.8810  0.3378
   68TCq2    C2 1035   1.665   3.226  14.327 -0.5480  0.3321 -0.1287
   68TCq2    C3 1036   1.612   3.351  14.340 -0.0705 -0.0399 -0.2626
   68TCq2    C4 1037   1.655   3.431  14.443  0.4986 -0.1834  0.0296
   68TCq2    C5 1038   1.735   3.377  14.543  0.3100 -1.0519  0.2329
   68TCq2    C6 1039   1.783   3.253  14.529 -0.0891  0.1541  0.1072
   68TCq2    C7 1040   1.748   3.171  14.422 -0.5289  0.4546  0.5107
   68TCq2    C8 1041   1.835   3.168  14.640 -0.8845 -0.2302 -0.3279
   68TCq2    O4 1042   1.896   3.065  14.613 -0.2073 -0.4884 -0.9628
   68TCq2    C9 1043   1.601   3.569  14.462  0.7554  0.4564 -0.0774
   68TCq2    O5 1044   1.521   3.626  14.387 -0.3410 -0.0199  0.4288
   68TCq2    O6 1045   1.644   3.627  14.567  0.0103  0.4453  0.3120
   68TCq2    H2 1046   1.554   3.397  14.260 -0.4940 -0.1220 -0.0019
   68TCq2    H3 1047   1.769   3.443  14.622 -0.5108  0.3437 -0.5737
   68TCq2    H4 1048   1.795   3.074  14.412 -0.1303  0.5447  1.5681
   69TMC2    C1 1049   3.124   0.057  11.826 -0.7820 -0.1683 -0.1890
   69TMC2    C2 1050   3.008   0.010  11.763  0.4570  0.0517  0.5359
   69TMC2    C3 1051   2.989   0.032  11.632  0.6493 -0.1426 -0.8690
   69TMC2    C4 1052   3.216   0.118  11.746 -0.3310 -0.5142 -0.1383
   69TMC2    C5 1053   3.194   0.140  11.614 -0.0653 -0.5975 -0.6152
   69TMC2    C6 1054   3.082   0.088  11.550 -0.0162 -0.5675  0.3065
   69TMC2     C 1055   3.172   4.698  11.936 -0.3813  0.5149 -0.4160
   69TMC2     O 1056   3.081   4.657  12.009 -0.4726 -0.6601 -0.4163
   69TMC2     H 1057   2.942   4.672  11.825 -0.3500 -0.3139 -0.6779
   69TMC2    H1 1058   3.311   0.146  11.790 -0.0857 -0.0228 -0.9775
   69TMC2    H2 1059   3.052   0.104  11.447 -0.5833  0.4787  0.6320
   69TMC2    C7 1060   3.315   0.139  11.539  0.3808  0.0065  0.8293
   69TMC2    C8 1061   2.849   0.022  11.583 -0.4009 -0.0846  0.4927
   69TMC2    O1 1062   3.414   0.097  11.596 -0.3497 -0.2151  0.8945
   69TMC2    O2 1063   2.833   0.001  11.463  0.2015  0.1338 -0.0801
   69TMC2    O5 1064   2.773   0.102  11.658 -0.4283 -0.5741 -0.3539
   69TMC2    H5 1065   2.820   0.149  11.729  1.2517 -1.4139 -0.9266
   70MPD2     C 1066   3.516   4.613  12.001 -0.4499  0.2463 -0.2182
   70MPD2    C1 1067   3.378   4.600  12.021 -0.5549  0.0819 -0.0867
   70MPD2    C2 1068   3.326   4.527  12.129 -0.1705  0.0728  0.1868
   70MPD2    C3 1069   3.416   4.481  12.226 -0.7366  1.0062  0.1541
   70MPD2    C4 1070   3.551   4.497  12.207  0.3317  0.1480 -0.0211
   70MPD2    C5 1071   3.601   4.557  12.100  0.4043 -0.4481  0.6710
   70MPD2     H 1072   3.221   4.500  12.133  0.1312 -1.0317  0.7561
   70MPD2    H1 1073   3.613   4.443  12.278 -1.6412  0.5513  2.0127
   70MPD2    H2 1074   3.553   4.671  11.917  0.1377  0.5059  0.2164
   70MPD2    H3 1075   3.709   4.552  12.086  0.4184  1.9708 -0.0491
   70MPD2     N 1076   3.376   4.408  12.342 -0.0141 -0.3644  0.3220
   70MPD2    H5 1077   3.454   4.377  12.399 -0.5220 -1.3869  0.4570
   70MPD2    N1 1078   3.303   4.669  11.926  0.9095 -0.4831 -0.1076
   70MPD2    H7 1079   3.346   4.682  11.835  1.1008  1.1051  0.2015
   71TMC2    C1 1080   1.876   1.149   1.970  0.0758  0.2329  0.4945
   71TMC2    C2 1081   1.974   1.106   2.057  0.5107  0.7055 -0.1981
   71TMC2    C3 1082   1.972   1.161   2.179  0.5065 -0.6181 -0.3779
   71TMC2    C4 1083   1.768   1.227   2.006 -0.2260 -0.7350  0.0170
   71TMC2    C5 1084   1.767   1.262   2.137  0.6312 -0.0273 -0.6249
   71TMC2    C6 1085   1.871   1.244   2.222  0.1664 -0.0122  0.8819
   71TMC2     C 1086   1.857   1.080   1.840 -0.0840  0.2227  0.1025
   71TMC2     O 1087   1.774   1.120   1.757  0.3881 -0.1830  0.2624
   71TMC2     H 1088   2.062   1.053   2.025  1.2671  1.1595  1.1537
   71TMC2    H1 1089   1.686   1.243   1.937 -0.8070  0.9530  1.1102
   71TMC2    H2 1090   1.853   1.266   2.327  0.5557  0.4330  0.8542
   71TMC2    C7 1091   1.647   1.315   2.185 -0.3786 -0.0000  0.7495
   71TMC2    C8 1092   2.086   1.150   2.263  0.6355 -0.0333 -0.1152
   71TMC2    O1 1093   1.646   1.384   2.290  0.3830  0.1865  0.2699
   71TMC2    O2 1094   2.199   1.177   2.228 -0.4649  0.1039 -0.2332
   71TMC2    O5 1095   2.047   1.099   2.383  0.3077  0.3882 -0.4128
   71TMC2    H5 1096   1.952   1.076   2.373  0.5770 -0.2604 -1.4999
   72MPD2     C 1097   2.007   0.700   1.532  0.3091  0.1931  0.6097
   72MPD2    C1 1098   1.910   0.801   1.512  0.1906  0.6310  0.1633
   72MPD2    C2 1099   1.886   0.897   1.605  0.6242 -0.9857 -0.0367
   72MPD2    C3 1100   1.962   0.892   1.721  0.1836 -0.2953 -0.5298
   72MPD2    C4 1101   2.056   0.793   1.747  0.3326 -0.5471 -0.7652
   72MPD2    C5 1102   2.067   0.696   1.654 -0.4983 -0.5655  0.2443
   72MPD2     H 1103   1.809   0.974   1.600  2.4663  1.1334  3.9804
   72MPD2    H1 1104   2.123   0.790   1.833  1.2777 -0.9617 -1.5129
   72MPD2    H2 1105   2.033   0.618   1.466  0.2577  0.6281  0.0554
   72MPD2    H3 1106   2.134   0.611   1.663 -0.6788 -0.6193  1.0600
   72MPD2     N 1107   1.932   0.968   1.834  0.2928 -0.0051 -0.1830
   72MPD2    H5 1108   1.983   0.942   1.919 -1.8043  0.2325  1.1535
   72MPD2    N1 1109   1.838   0.810   1.394  0.2307 -0.0383 -0.4185
   72MPD2    H7 1110   1.771   0.886   1.387 -1.6137 -1.3319  2.9783
   73TMC2    C1 1111   0.602   2.069  13.727  0.2900 -0.2827 -0.7225
   73TMC2    C2 1112   0.567   2.009  13.608 -0.5155 -0.1564 -0.3069
   73TMC2    C3 1113   0.595   1.875  13.597 -0.1355  0.0795 -0.2044
   73TMC2    C4 1114   0.658   2.001  13.828 -0.4027  0.2965  0.0577
   73TMC2    C5 1115   0.689   1.867  13.811 -0.6115  0.3520  0.3465
   73TMC2    C6 1116   0.656   1.806  13.691 -0.7689 -0.0279  0.7704
   73TMC2     C 1117   0.667   2.197  13.714 -0.5757 -0.0176 -0.4537
   73TMC2     O 1118   0.761   2.207  13.793 -0.0640 -0.2214  0.0779
   73TMC2     H 1119   0.542   2.071  13.522  2.3171  0.1834 -0.9023
   73TMC2    H1 1120   0.688   2.048  13.921  4.1481 -1.6331 -0.4789
   73TMC2    H2 1121   0.691   1.709  13.659  0.5804  0.6661  0.1207
   73TMC2    C7 1122   0.820   1.832  13.859 -0.5495 -0.0769  0.3473
   73TMC2    C8 1123   0.563   1.796  13.476 -0.0626  0.3242  0.2197
   73TMC2    O1 1124   0.853   1.717  13.856  0.0811  0.2965  0.3921
   73TMC2    O2 1125   0.547   1.675  13.480 -0.0204  0.8358 -0.2017
   73TMC2    O5 1126   0.573   1.881  13.370  0.3200 -0.0649  0.4351
   73TMC2    H5 1127   0.610   1.971  13.383 -0.2530  0.1761  0.4156
   74MPD2     C 1128   0.820   2.620  13.480 -0.1343 -0.3434 -0.1249
   74MPD2    C1 1129   0.872   2.553  13.587  0.1374 -0.9959 -1.2823
   74MPD2    C2 1130   0.810   2.434  13.620 -0.2420  0.9684  0.2612
   74MPD2    C3 1131   0.683   2.394  13.572 -1.0482 -0.3086  0.0928
   74MPD2    C4 1132   0.639   2.468  13.461  0.1243 -0.2728 -0.3748
   74MPD2    C5 1133   0.707   2.577  13.413 -0.4470  0.0692 -0.2924
   74MPD2     H 1134   0.848   2.374  13.702  1.6700  0.0678 -1.2809
   74MPD2    H1 1135   0.549   2.448  13.403 -0.5151 -2.4719  1.4189
   74MPD2    H2 1136   0.869   2.708  13.438 -0.8069  0.2427  0.3070
   74MPD2    H3 1137   0.670   2.639  13.331 -0.0520  0.2440 -0.3400
   74MPD2     N 1138   0.612   2.282  13.619 -0.0659 -0.0738  0.2183
   74MPD2    H5 1139   0.529   2.253  13.568 -0.3980  0.9626  0.1688
   74MPD2    N1 1140   0.997   2.591  13.647  0.3978 -0.1276  0.6546
   74MPD2    H7 1141   1.044   2.677  13.620  2.4179 -1.7375 -1.0294
   75TCq2    C1 1142   1.082   3.162  13.717  0.0906 -0.2121 -0.3439
   75TCq2    O2 1143   1.097   3.075  13.632 -0.2414  0.1157  0.1014
   75TCq2    C2 1144   0.957   3.235  13.706 -0.5316  0.4090  0.2609
   75TCq2    C3 1145   0.901   3.292  13.815  1.1994  0.4053  0.5532
   75TCq2    C4 1146   0.786   3.380  13.789  0.1603 -0.3678 -0.1450
   75TCq2    C5 1147   0.740   3.405  13.669  0.0125 -0.0919  0.8899
   75TCq2    C6 1148   0.795   3.333  13.564 -0.1661  0.4351  0.1281
   75TCq2    C7 1149   0.901   3.243  13.581  0.1913  0.1146  0.4050
   75TCq2    C8 1150   0.745   3.355  13.434  0.0289 -0.3728  0.7934
   75TCq2    O4 1151   0.781   3.279  13.343  0.0639  0.2962  0.0458
   75TCq2    C9 1152   0.712   3.438  13.904  0.2623 -0.3783  0.2934
   75TCq2    O5 1153   0.588   3.457  13.889 -0.1875 -0.1346  0.5852
   75TCq2    O6 1154   0.776   3.446  14.015 -0.5272  0.5401 -0.3655
   75TCq2    H2 1155   0.942   3.294  13.915  3.2255  0.8363 -0.2934
   75TCq2    H3 1156   0.652   3.467  13.667  0.2782  0.2312 -0.3640
   75TCq2    H4 1157   0.958   3.203  13.498  1.4935 -1.2047  1.9456
   76MPD2     C 1158   4.338   4.350  11.745  0.3435  0.2855  0.1769
   76MPD2    C1 1159   4.378   4.378  11.612  0.0188  0.3473 -0.8116
   76MPD2    C2 1160   4.506   4.336  11.580  0.4645  0.4873 -0.1297
   76MPD2    C3 1161   4.597   4.290  11.671 -0.3183  0.2874 -0.7689
   76MPD2    C4 1162   4.566   4.287  11.806  0.2154  0.2424  0.3544
   76MPD2    C5 1163   4.436   4.311  11.837 -0.1527 -0.3611  0.3047
   76MPD2     H 1164   4.534   4.348  11.476 -2.9834 -0.4586 -1.1838
   76MPD2    H1 1165   4.642   4.265  11.881 -1.4673 -0.5627  1.8334
   76MPD2    H2 1166   4.249   4.372  11.803  1.0976 -0.1334  1.4847
   76MPD2    H3 1167   4.424   4.311  11.945 -0.0695  0.7898  0.3198
   76MPD2     N 1168   0.012   4.263  11.639  0.3318  0.2087  0.2610
   76MPD2    H5 1169   0.075   4.222  11.706 -0.9826 -1.5012  0.4341
   76MPD2    N1 1170   4.293   4.436  11.512 -0.4499 -0.0166  0.0287
   76MPD2    H7 1171   4.343   4.469  11.430 -1.8525  0.5070 -0.5983
   77TCq2    C1 1172   0.076   4.287  11.520 -0.1484  0.3284 -0.2146
   77TCq2    O2 1173   0.029   4.335  11.418 -0.3565 -0.1426  0.3798
   77TCq2    C2 1174   0.213   4.253  11.526 -0.2452 -0.7906  0.0318
   77TCq2    C3 1175   0.283   4.269  11.406 -0.1234  0.4717  0.1754
   77TCq2    C4 1176   0.418   4.266  11.398 -0.0488 -0.4005 -0.3075
   77TCq2    C5 1177   0.496   4.240  11.514  0.5839  0.4169 -0.2378
   77TCq2    C6 1178   0.425   4.208  11.631 -0.1190  0.7900 -0.3776
   77TCq2    C7 1179   0.284   4.217  11.635  0.3754 -0.3437 -0.4304
   77TCq2    C8 1180   0.477   4.127  11.729  0.5324  0.6041 -0.3796
   77TCq2    O4 1181   0.411   4.040  11.788  0.0965  0.2800  0.3565
   77TCq2    C9 1182   0.477   4.280  11.270  0.1142  0.3784 -0.4885
   77TCq2    O5 1183   0.403   4.262  11.171  0.2924  0.0934  0.4414
   77TCq2    O6 1184   0.599   4.297  11.256  0.4461 -0.1506 -0.7064
   77TCq2    H2 1185   0.225   4.292  11.317 -0.2774 -2.0857 -0.3796
   77TCq2    H3 1186   0.602   4.225  11.498  0.8412  1.4150  0.4693
   77TCq2    H4 1187   0.229   4.180  11.721 -0.7660 -0.5794 -1.2655
   78MPD1     C 1188   0.740   0.837   2.226 -0.2296 -0.2438 -0.5002
   78MPD1    C1 1189   0.799   0.934   2.303  0.7178 -0.6451  0.5433
   78MPD1    C2 1190   0.936   0.925   2.322  0.2581 -0.0913  0.5795
   78MPD1    C3 1191   1.017   0.823   2.266  0.1409  0.2211  0.4058
   78MPD1    C4 1192   0.954   0.727   2.183 -0.0681  0.1290 -0.3344
   78MPD1    C5 1193   0.816   0.730   2.186  0.0937 -0.4218  0.1273
   78MPD1     H 1194   0.985   1.002   2.380  0.7566 -0.3792  0.5369
   78MPD1    H1 1195   1.003   0.638   2.145 -0.3916 -0.4338  0.5772
   78MPD1    H2 1196   0.634   0.829   2.205 -0.9466 -0.2448  3.2355
   78MPD1    H3 1197   0.763   0.652   2.131  1.7067 -1.6966  0.3965
   78MPD1     N 1198   1.160   0.809   2.271 -0.1830 -0.4886 -0.4903
   78MPD1    H5 1199   1.206   0.739   2.215  1.2670 -1.3151  1.7329
   78MPD1    N1 1200   0.742   1.059   2.331 -0.7812 -0.4519  0.2654
   78MPD1    H6 1201   0.644   1.049   2.358 -0.4887 -0.0740  1.4488
   78MPD1    H7 1202   0.784   1.098   2.415 -1.3441  0.2313  0.2318
   79TCq2    C1 1203   1.236   0.910   2.335 -0.3790 -0.1089  0.0586
   79TCq2    O2 1204   1.218   0.981   2.435 -0.0918  0.5165 -0.5791
   79TCq2    C2 1205   1.374   0.911   2.292  0.2276  0.8372 -0.7776
   79TCq2    C3 1206   1.465   0.959   2.383  1.2109 -1.1334  0.3574
   79TCq2    C4 1207   1.598   0.971   2.342 -0.6321 -0.2835 -0.4687
   79TCq2    C5 1208   1.635   0.926   2.220  0.0125 -0.1350  0.2415
   79TCq2    C6 1209   1.531   0.889   2.136 -0.2676  0.8286  0.6669
   79TCq2    C7 1210   1.404   0.865   2.169 -0.1529 -0.5121  0.0194
   79TCq2    C8 1211   1.578   0.843   2.001 -0.0701 -0.3392 -0.0173
   79TCq2    O4 1212   1.693   0.812   1.985 -0.0542 -0.4744  0.1957
   79TCq2    C9 1213   1.698   1.030   2.424  0.2334  0.8020  0.7362
   79TCq2    O5 1214   1.816   0.998   2.400 -0.0337  0.6357  0.3429
   79TCq2    O6 1215   1.661   1.099   2.527  0.2059 -0.1650 -0.4315
   79TCq2    H2 1216   1.449   0.984   2.487 -1.0967  1.3133 -0.5768
   79TCq2    H3 1217   1.738   0.928   2.187 -0.1561  2.6987 -0.0961
   79TCq2    H4 1218   1.332   0.822   2.101 -0.3745 -0.4091  0.1858
   80MPD2     C 1219   3.812   3.262  11.959  1.0296  0.3033 -0.7539
   80MPD2    C1 1220   3.703   3.258  11.872 -0.4989  0.6455 -0.0457
   80MPD2    C2 1221   3.594   3.337  11.903  0.2193 -0.2418  0.2876
   80MPD2    C3 1222   3.590   3.423  12.012  0.4236  0.2048  0.0212
   80MPD2    C4 1223   3.696   3.413  12.098 -0.4734 -0.1882  0.5744
   80MPD2    C5 1224   3.807   3.344  12.065  0.3251  0.1315  0.0746
   80MPD2     H 1225   3.500   3.326  11.851  0.5180  0.6546 -0.4526
   80MPD2    H1 1226   3.683   3.474  12.187 -2.7782  1.0219 -0.5888
   80MPD2    H2 1227   3.901   3.201  11.955  0.1580 -0.9319 -1.4931
   80MPD2    H3 1228   3.887   3.353  12.137 -0.1669 -1.6802  0.8568
   80MPD2     N 1229   3.482   3.515  12.032 -0.4979  0.8832  0.7557
   80MPD2    H5 1230   3.479   3.550  12.128  1.3539 -0.9900  1.5074
   80MPD2    N1 1231   3.703   3.173  11.757 -0.3740  0.3798  0.1701
   80MPD2    H7 1232   3.617   3.185  11.704  1.3736  1.1424 -2.5010
   81TCq2    C1 1233   3.801   3.090  11.709 -0.3554  0.2210 -0.4397
   81TCq2    O2 1234   3.918   3.079  11.745 -0.0944  0.6245 -0.0204
   81TCq2    C2 1235   3.756   3.012  11.595 -0.3063  0.1133 -0.4626
   81TCq2    C3 1236   3.842   2.996  11.483  0.1321  0.1159 -0.4793
   81TCq2    C4 1237   3.794   2.932  11.372 -0.5434  0.0163  0.2282
   81TCq2    C5 1238   3.659   2.886  11.373  0.7810  0.0544 -0.0808
   81TCq2    C6 1239   3.582   2.910  11.483  0.0118  0.9715 -0.7222
   81TCq2    C7 1240   3.632   2.962  11.603 -0.4940 -0.4952 -0.3441
   81TCq2    C8 1241   3.450   2.850  11.481 -0.2962  0.0118  0.3342
   81TCq2    O4 1242   3.401   2.808  11.373  0.2930  0.4845 -0.3141
   81TCq2    C9 1243   3.877   2.913  11.256 -0.5849 -0.4847  0.5791
   81TCq2    O5 1244   4.000   2.910  11.271  0.0221 -0.9613  0.1861
   81TCq2    O6 1245   3.821   2.879  11.150  0.0625 -0.3193  0.2255
   81TCq2    H2 1246   3.941   3.038  11.488  0.0921  0.1963 -0.3579
   81TCq2    H3 1247   3.616   2.844  11.282  0.6732  1.8071 -0.8271
   81TCq2    H4 1248   3.577   2.959  11.696 -0.4593 -1.5980 -0.3598
   82MPD2     C 1249   2.169   3.557  10.724 -0.0168 -0.1856  0.3968
   82MPD2    C1 1250   2.054   3.498  10.771 -0.4186 -0.0080  0.4566
   82MPD2    C2 1251   2.066   3.401  10.867 -0.8749 -0.2032  0.0282
   82MPD2    C3 1252   2.192   3.368  10.921 -0.1667  0.3014  0.2608
   82MPD2    C4 1253   2.298   3.445  10.882  0.5447 -0.4466  0.5596
   82MPD2    C5 1254   2.293   3.539  10.781  0.1803 -0.1418  0.8128
   82MPD2     H 1255   1.979   3.340  10.890 -0.8314  0.7946  2.8551
   82MPD2    H1 1256   2.392   3.431  10.935  0.6888  1.1899  0.7320
   82MPD2    H2 1257   2.163   3.626  10.640 -1.1039  0.6379  1.1619
   82MPD2    H3 1258   2.378   3.596  10.744 -0.7912  0.6319 -0.2331
   82MPD2     N 1259   2.215   3.273  11.018 -0.4785 -0.0728 -0.1438
   82MPD2    H5 1260   2.307   3.280  11.060 -0.4078  0.7142 -0.4487
   82MPD2    N1 1261   1.934   3.523  10.700 -0.6843  0.8808  0.4604
   82MPD2    H7 1262   1.945   3.578  10.615 -2.1582  1.8075  0.8725
   83TCq2    C1 1263   2.126   3.167  11.035 -0.5436 -0.1129  0.4609
   83TCq2    O2 1264   2.032   3.140  10.962  0.2199  0.5122  0.1736
   83TCq2    C2 1265   2.170   3.064  11.125  0.2142 -0.0993  0.2383
   83TCq2    C3 1266   2.251   3.087  11.229  0.4695 -0.1645 -0.1904
   83TCq2    C4 1267   2.264   2.996  11.327  0.1022 -0.0747 -0.0793
   83TCq2    C5 1268   2.189   2.878  11.322  0.4929  0.2373  0.0734
   83TCq2    C6 1269   2.098   2.863  11.222  0.4941 -0.2691 -0.3878
   83TCq2    C7 1270   2.086   2.953  11.118 -0.6639 -0.0150  0.0693
   83TCq2    C8 1271   1.987   2.772  11.239  0.5568  0.3251 -0.3001
   83TCq2    O4 1272   1.993   2.701  11.339 -0.3511 -0.3567  0.0590
   83TCq2    C9 1273   2.335   3.025  11.447  0.0970 -0.0760 -0.7406
   83TCq2    O5 1274   2.391   3.137  11.452  0.3673  0.4357 -0.2382
   83TCq2    O6 1275   2.344   2.937  11.536  0.4702 -0.4823 -0.7279
   83TCq2    H2 1276   2.328   3.163  11.226  0.4833 -0.2323 -1.3606
   83TCq2    H3 1277   2.188   2.798  11.395 -1.9721 -1.6083 -1.9866
   83TCq2    H4 1278   2.024   2.938  11.030 -0.9187 -0.5774  0.3474
   84TCq2    C1 1279   2.893   2.091  10.158  0.0456 -0.3642  0.8848
   84TCq2    O2 1280   2.818   1.993  10.156 -0.0666  0.3093 -0.2428
   84TCq2    C2 1281   2.997   2.098  10.257 -0.2558  0.2461 -0.2264
   84TCq2    C3 1282   3.072   2.208  10.270 -0.2166  0.1204 -0.5949
   84TCq2    C4 1283   3.159   2.224  10.375  0.1131  0.4059  0.1602
   84TCq2    C5 1284   3.167   2.122  10.465  0.1968 -0.6312  0.2672
   84TCq2    C6 1285   3.089   2.008  10.458 -0.0686 -0.2009 -0.5094
   84TCq2    C7 1286   3.002   1.999  10.353  0.1209 -0.1359  0.7524
   84TCq2    C8 1287   3.058   1.941  10.584 -0.3985 -0.4704 -0.8486
   84TCq2    O4 1288   3.123   1.982  10.680 -0.1079 -0.3837  0.7595
   84TCq2    C9 1289   3.253   2.337  10.390 -0.1051  0.4394 -0.4484
   84TCq2    O5 1290   3.353   2.336  10.470 -0.1299 -0.5908 -0.0537
   84TCq2    O6 1291   3.242   2.432  10.305  0.4664 -0.2479 -0.8194
   84TCq2    H2 1292   3.070   2.291  10.200  0.1863  1.5372  1.0982
   84TCq2    H3 1293   3.236   2.138  10.547  0.8709 -0.2385 -0.3685
   84TCq2    H4 1294   2.945   1.909  10.330  0.6014 -0.1358 -0.4200
   85MPD2     C 1295   3.602   4.291  16.477  0.0629 -1.7162 -0.5393
   85MPD2    C1 1296   3.500   4.290  16.384 -0.3528 -0.8187 -0.0290
   85MPD2    C2 1297   3.511   4.375  16.271  0.0208 -0.2191  0.0131
   85MPD2    C3 1298   3.626   4.453  16.245  0.7466  0.1917 -0.8299
   85MPD2    C4 1299   3.724   4.444  16.342 -0.1201  0.0216  0.1485
   85MPD2    C5 1300   3.712   4.368  16.459 -0.3812 -0.5535  0.0132
   85MPD2     H 1301   3.438   4.357  16.192 -1.3020 -0.0232  1.1870
   85MPD2    H1 1302   3.811   4.508  16.345  1.0708 -1.5138 -1.7103
   85MPD2    H2 1303   3.607   4.223  16.562 -1.7168 -0.5646  0.5066
   85MPD2    H3 1304   3.791   4.369  16.533 -1.4213 -1.1955  1.1127
   85MPD2     N 1305   3.641   4.529  16.129 -0.3668 -1.0154 -0.0352
   85MPD2    H5 1306   3.556   4.544  16.076  0.6186 -0.6240 -1.5083
   85MPD2    N1 1307   3.400   4.197  16.377  0.5812  0.4178 -1.0441
   85MPD2    H7 1308   3.360   4.189  16.284 -3.9149 -0.9398  0.9706
   86TCq2    C1 1309   3.755   4.598  16.098  0.1584 -0.0569 -0.6112
   86TCq2    O2 1310   3.871   4.598  16.146  0.5229 -0.0942 -0.3424
   86TCq2    C2 1311   3.745   4.677  15.971 -0.9299 -0.7917  0.2123
   86TCq2    C3 1312   3.651   4.655  15.872  0.2334  0.4038  0.0854
   86TCq2    C4 1313   3.678   4.706  15.747  0.0600 -0.7191  0.0257
   86TCq2    C5 1314   3.786   0.070  15.723  0.9629  0.1358  0.3178
   86TCq2    C6 1315   3.867   0.096  15.828 -0.6745  0.1303  0.3737
   86TCq2    C7 1316   3.854   0.035  15.950 -0.7080  0.1374 -0.5879
   86TCq2    C8 1317   3.975   0.195  15.816 -1.0269 -0.2226 -0.0004
   86TCq2    O4 1318   4.040   0.233  15.909 -0.0303 -0.0083  0.2260
   86TCq2    C9 1319   3.588   4.684  15.640 -0.1027 -0.5208 -0.5559
   86TCq2    O5 1320   3.595   0.017  15.525  0.1277 -0.0250  0.1071
   86TCq2    O6 1321   3.499   4.602  15.668  0.0836 -0.8164 -0.3015
   86TCq2    H2 1322   3.566   4.589  15.884 -0.6565  1.5082 -0.1475
   86TCq2    H3 1323   3.800   0.109  15.623  0.3709 -0.2999  0.0625
   86TCq2    H4 1324   3.934   0.058  16.020  0.3232  3.0559 -2.6949
   87MPD2     C 1325   0.679   3.738   1.094 -0.4669 -0.7722 -0.6090
   87MPD2    C1 1326   0.743   3.724   0.977 -0.3305  0.2943  0.5160
   87MPD2    C2 1327   0.667   3.757   0.864  0.1619  0.3604  0.0420
   87MPD2    C3 1328   0.530   3.784   0.869 -0.2458  0.6505  0.1599
   87MPD2    C4 1329   0.475   3.803   0.993  0.2084  0.0726 -0.1336
   87MPD2    C5 1330   0.549   3.779   1.101 -0.4883 -0.0897 -0.1517
   87MPD2     H 1331   0.720   3.753   0.769 -0.4888  0.0095 -0.3039
   87MPD2    H1 1332   0.373   3.839   1.000  0.8303  1.7118  0.4965
   87MPD2    H2 1333   0.720   3.708   1.190 -1.6205 -2.9769 -0.8176
   87MPD2    H3 1334   0.496   3.784   1.196 -0.2387 -0.9871  0.0300
   87MPD2     N 1335   0.445   3.812   0.754  0.1052  0.8424  0.0988
   87MPD2    H5 1336   0.351   3.842   0.776 -0.0576  1.3356 -1.2428
   87MPD2    N1 1337   0.878   3.675   0.981  0.5748  0.6937  0.1991
   87MPD2    H7 1338   0.921   3.653   1.071 -1.9707 -1.6189  0.8704
   88TCq2    C1 1339   0.970   3.666   0.872  0.0878  0.5986  0.3561
   88TCq2    O2 1340   0.956   3.712   0.759 -0.2589  0.5125 -0.2619
   88TCq2    C2 1341   1.095   3.613   0.910 -0.2333  0.6260  0.3176
   88TCq2    C3 1342   1.097   3.530   1.017  0.8769 -0.3997 -0.5216
   88TCq2    C4 1343   1.201   3.447   1.041 -0.3322 -0.3034  0.1914
   88TCq2    C5 1344   1.312   3.454   0.962 -0.1228  0.1831  0.9411
   88TCq2    C6 1345   1.305   3.530   0.852 -0.4177 -0.6166 -0.6152
   88TCq2    C7 1346   1.196   3.602   0.823  0.1711  0.3143 -0.1479
   88TCq2    C8 1347   1.420   3.549   0.764  0.7737 -0.2286  0.7568
   88TCq2    O4 1348   1.400   3.592   0.649 -0.0036  0.0850  0.3429
   88TCq2    C9 1349   1.211   3.353   1.147 -0.1059 -0.1533 -0.1124
   88TCq2    O5 1350   1.279   3.251   1.120 -0.5671 -0.4791 -0.4425
   88TCq2    O6 1351   1.151   3.375   1.252  0.2148 -0.2702  0.3633
   88TCq2    H2 1352   1.016   3.501   1.083 -0.8720  2.0401 -1.5913
   88TCq2    H3 1353   1.403   3.400   0.987  0.3938  0.4417 -0.4404
   88TCq2    H4 1354   1.193   3.663   0.733  0.6699 -1.3511 -1.2974
   89MPD2     C 1355   2.661   1.665   2.109  0.1032  0.1312 -0.0905
   89MPD2    C1 1356   2.552   1.750   2.095  0.1125  0.6200 -0.4173
   89MPD2    C2 1357   2.564   1.853   2.001 -0.1769 -0.8155 -0.6152
   89MPD2    C3 1358   2.685   1.885   1.944 -0.8653 -0.3834  0.0120
   89MPD2    C4 1359   2.792   1.804   1.974  0.1058 -0.7358 -0.4748
   89MPD2    C5 1360   2.784   1.695   2.055 -0.0302  0.9027  0.0813
   89MPD2     H 1361   2.473   1.906   1.977 -0.9843 -2.2381 -0.6820
   89MPD2    H1 1362   2.889   1.820   1.928 -0.3174  2.3790 -0.3363
   89MPD2    H2 1363   2.661   1.580   2.176  1.2401  0.3400  0.1692
   89MPD2    H3 1364   2.870   1.631   2.072  0.0049  0.7332 -0.7518
   89MPD2     N 1365   2.692   1.993   1.854 -0.0362 -0.1852 -0.3396
   89MPD2    H5 1366   2.607   2.041   1.826 -0.3407 -1.5462 -1.7577
   89MPD2    N1 1367   2.418   1.721   2.140  0.3674  0.1184 -0.3523
   89MPD2    H7 1368   2.343   1.778   2.103  1.5102  1.5127 -0.5098
   90TCq2    C1 1369   2.810   2.033   1.788  0.1464  0.2702 -0.0578
   90TCq2    O2 1370   2.924   2.001   1.817 -0.1423  0.4862 -0.0885
   90TCq2    C2 1371   2.801   2.141   1.692  0.0398  0.3995 -0.0512
   90TCq2    C3 1372   2.677   2.168   1.640 -0.3162  0.0409 -0.2951
   90TCq2    C4 1373   2.658   2.299   1.604  0.3120 -0.4958  0.6439
   90TCq2    C5 1374   2.750   2.396   1.609  0.1286  0.2414 -0.1592
   90TCq2    C6 1375   2.876   2.358   1.650 -0.1365 -0.1770 -0.4739
   90TCq2    C7 1376   2.902   2.229   1.681  0.1726 -0.1350 -0.2015
   90TCq2    C8 1377   2.989   2.455   1.658  1.1735 -0.3972 -0.4432
   90TCq2    O4 1378   2.961   2.574   1.667  0.0689  0.0555 -0.1550
   90TCq2    C9 1379   2.528   2.348   1.579 -0.1010 -0.4593  0.1425
   90TCq2    O5 1380   2.512   2.451   1.506 -0.2852 -0.3337 -0.0656
   90TCq2    O6 1381   2.435   2.272   1.619  0.6989  0.3020 -0.0226
   90TCq2    H2 1382   2.596   2.098   1.632  0.6844 -1.1987  0.3499
   90TCq2    H3 1383   2.728   2.501   1.593  1.2733  0.3908 -0.7818
   90TCq2    H4 1384   2.996   2.203   1.728  0.1798  0.3760  0.0744
   91TMC2    C1 1385   3.712   1.045  16.025  0.0107  0.2640 -0.5556
   91TMC2    C2 1386   3.735   1.143  16.114 -0.6128  0.0689 -0.3304
   91TMC2    C3 1387   3.698   1.116  16.246 -1.0043  0.1055  0.1023
   91TMC2    C4 1388   3.624   0.937  16.048 -0.6454 -0.3960 -0.6603
   91TMC2    C5 1389   3.589   0.915  16.178 -0.4550 -0.5980 -0.8875
   91TMC2    C6 1390   3.629   1.004  16.278 -0.1326 -0.2304  0.3380
   91TMC2     C 1391   3.800   1.042  15.905 -0.4974 -0.4246 -0.3956
   91TMC2     O 1392   3.764   0.966  15.815  0.0841  0.1347  0.1585
   91TMC2     H 1393   3.802   1.227  16.100  0.0850 -0.9313 -2.9846
   91TMC2    H1 1394   3.598   0.865  15.972  2.0193 -2.1800  0.1340
   91TMC2    H2 1395   3.605   0.963  16.376  0.8177 -2.1075 -0.2217
   91TMC2    C7 1396   3.499   0.804  16.216  0.3787 -0.0517  0.1440
   91TMC2    C8 1397   3.769   1.176  16.354 -0.4564  0.2362  0.1197
   91TMC2    O1 1398   3.504   0.773  16.334  0.2752 -0.1784 -0.2325
   91TMC2    O2 1399   3.772   1.116  16.463  0.3109  0.4392 -0.2936
   91TMC2    O5 1400   3.746   1.311  16.342 -0.1743 -0.1186  0.0220
   91TMC2    H5 1401   3.748   1.329  16.246  1.2519  0.6374  0.1845
   92MPD2     C 1402   4.006   1.098  15.697  0.2779 -0.0378  0.0253
   92MPD2    C1 1403   4.026   1.114  15.831 -0.0015 -0.0824 -0.2564
   92MPD2    C2 1404   4.152   1.138  15.891  0.3950  0.0010  0.1895
   92MPD2    C3 1405   4.262   1.151  15.806 -0.8513  0.0221  0.5542
   92MPD2    C4 1406   4.239   1.155  15.668  0.2479 -0.2377  0.4397
   92MPD2    C5 1407   4.113   1.140  15.619 -0.2281  0.1038 -0.3772
   92MPD2     H 1408   4.180   1.141  15.995  2.8488  0.9628 -0.4887
   92MPD2    H1 1409   4.316   1.187  15.600 -0.1038 -2.0988 -0.8376
   92MPD2    H2 1410   3.907   1.081  15.656  0.1266 -1.0411  0.8176
   92MPD2    H3 1411   4.095   1.143  15.512 -0.4404 -0.5487 -0.3600
   92MPD2     N 1412   4.388   1.154  15.866 -0.0667  0.5778  0.0016
   92MPD2    H5 1413   4.394   1.154  15.968 -0.7098 -1.2025  0.0310
   92MPD2    N1 1414   3.922   1.104  15.926 -0.8132  0.1199 -0.0359
   92MPD2    H7 1415   3.952   1.132  16.018  1.3456 -2.4606  0.0310
   93MPD2     C 1416   0.207   0.989  13.991  0.7443  0.8152  0.6474
   93MPD2    C1 1417   0.269   1.094  13.934 -0.3122 -0.1451 -0.3047
   93MPD2    C2 1418   0.216   1.139  13.816  0.2835 -0.3958 -0.0660
   93MPD2    C3 1419   0.092   1.095  13.766 -0.3641  0.7975 -0.0659
   93MPD2    C4 1420   0.023   0.999  13.843  0.5854  0.5466 -0.4327
   93MPD2    C5 1421   0.082   0.944  13.952  0.4181  0.0682 -0.1501
   93MPD2     H 1422   0.269   1.223  13.772  3.9763 -2.3468  0.7547
   93MPD2    H1 1423   4.650   0.956  13.808 -0.8257  1.5931  2.0725
   93MPD2    H2 1424   0.239   0.949  14.087 -1.0014 -1.3548  0.3243
   93MPD2    H3 1425   0.038   0.867  14.013 -1.4479  1.5138  0.3293
   93MPD2     N 1426   0.037   1.144  13.647  0.3783 -0.3084  0.4417
   93MPD2    H5 1427   4.665   1.111  13.623  0.4769 -1.2650  1.3731
   93MPD2    N1 1428   0.386   1.161  13.979 -0.3866  0.3590 -0.1428
   93MPD2    H7 1429   0.413   1.247  13.933 -0.5083  0.7980  0.6065
   94TCq2    C1 1430   0.482   1.108  14.069 -0.1649  0.0004 -0.3516
   94TCq2    O2 1431   0.500   0.991  14.099 -0.2072 -0.3188 -0.5079
   94TCq2    C2 1432   0.578   1.209  14.109 -0.0281 -0.2671  0.2657
   94TCq2    C3 1433   0.527   1.329  14.135  0.1009  0.1000 -0.0999
   94TCq2    C4 1434   0.611   1.440  14.131  0.1958 -0.0461  0.1034
   94TCq2    C5 1435   0.744   1.418  14.113  0.3364  0.2097 -0.2344
   94TCq2    C6 1436   0.795   1.290  14.098 -0.3573 -0.2348  0.3061
   94TCq2    C7 1437   0.714   1.183  14.096 -0.5392  0.3080  0.7058
   94TCq2    C8 1438   0.926   1.270  14.046 -0.4668 -0.1804 -0.2447
   94TCq2    O4 1439   1.002   1.208  14.119  0.2889  0.5578  0.4137
   94TCq2    C9 1440   0.551   1.567  14.130 -0.1563 -0.7357  0.3744
   94TCq2    O5 1441   0.424   1.570  14.150 -0.0490 -0.3119  0.0072
   94TCq2    O6 1442   0.629   1.670  14.116  0.5695 -0.3359  0.0356
   94TCq2    H2 1443   0.421   1.345  14.149  0.1525 -0.1111  0.5324
   94TCq2    H3 1444   0.811   1.502  14.121  0.4054  0.0858  0.4760
   94TCq2    H4 1445   0.761   1.085  14.093 -3.0683 -0.8771  0.3267
   95TMC2    C1 1446   0.830   2.744  16.253  0.1163  0.1263  0.4936
   95TMC2    C2 1447   0.743   2.633  16.239  0.1874  0.4793  0.2914
   95TMC2    C3 1448   0.689   2.585  16.357 -0.4607  0.1546  0.5940
   95TMC2    C4 1449   0.854   2.804  16.366  0.2672  0.0491 -0.1313
   95TMC2    C5 1450   0.795   2.754  16.480  0.1257 -0.5328 -0.2137
   95TMC2    C6 1451   0.719   2.639  16.481 -0.6677  0.3615 -0.0409
   95TMC2     C 1452   0.882   2.815  16.131  0.6753 -0.2426  0.1713
   95TMC2     O 1453   0.928   2.928  16.137 -0.3233  0.0021 -0.7261
   95TMC2     H 1454   0.720   2.578  16.149 -0.7011  3.4559 -1.2707
   95TMC2    H1 1455   0.902   2.901  16.362 -0.9742  0.5977 -1.6029
   95TMC2    H2 1456   0.666   2.611  16.571 -1.4281  0.5482 -0.4350
   95TMC2    C7 1457   0.816   2.813  16.611  0.0385 -0.0644  0.1867
   95TMC2    C8 1458   0.571   2.502  16.358  0.1424  0.0683 -0.1829
   95TMC2    O1 1459   0.818   2.739  16.709  0.9346  0.1102  0.2117
   95TMC2    O2 1460   0.514   2.461  16.455  0.6417  0.3295  0.2844
   95TMC2    O5 1461   0.499   2.535  16.249  0.1265 -0.1192  0.4852
   95TMC2    H5 1462   0.538   2.606  16.194 -1.3412  0.4778  0.1983
   96MPD2     C 1463   0.864   2.841  15.609 -0.2590 -0.0519  0.4572
   96MPD2    C1 1464   0.936   2.919  15.695 -0.1603 -0.9742 -0.6439
   96MPD2    C2 1465   0.935   2.884  15.831 -0.0255  0.5559  0.3095
   96MPD2    C3 1466   0.863   2.776  15.879 -0.3993  0.6510  0.0439
   96MPD2    C4 1467   0.790   2.700  15.788 -0.2783  0.1521 -0.6025
   96MPD2    C5 1468   0.798   2.728  15.655 -0.4078 -0.6375 -0.0557
   96MPD2     H 1469   0.985   2.944  15.906  1.1378  0.7942 -0.6566
   96MPD2    H1 1470   0.731   2.611  15.809 -0.5191 -0.1200 -2.4405
   96MPD2    H2 1471   0.874   2.865  15.504  0.9052 -0.0369  0.5717
   96MPD2    H3 1472   0.751   2.663  15.582 -2.1783 -0.8023  1.2529
   96MPD2     N 1473   0.857   2.736  16.020  0.1915 -0.1966  1.0101
   96MPD2    H5 1474   0.821   2.641  16.032  0.6707 -0.3076  1.5700
   96MPD2    N1 1475   0.999   3.034  15.647  0.0526  0.1488 -0.1479
   96MPD2    H7 1476   0.984   3.059  15.550 -0.9621  0.7112  0.1470
   97MPD2     C 1477   2.548   0.523   1.136 -0.3948  0.0639  0.1019
   97MPD2    C1 1478   2.665   0.592   1.116  0.0569  0.3368 -0.1642
   97MPD2    C2 1479   2.713   0.613   0.990  0.2809  0.1566 -0.5093
   97MPD2    C3 1480   2.644   0.555   0.886  0.2574  0.1556 -0.4690
   97MPD2    C4 1481   2.527   0.491   0.905  0.1025  0.0689  0.2488
   97MPD2    C5 1482   2.475   0.468   1.032  0.1511  0.2371 -0.1843
   97MPD2     H 1483   2.807   0.664   0.973  0.2284  0.0827 -1.0385
   97MPD2    H1 1484   2.462   0.448   0.830 -0.8009  1.0597  0.4566
   97MPD2    H2 1485   2.523   0.507   1.240  1.0778 -1.5823  0.2014
   97MPD2    H3 1486   2.379   0.417   1.041  0.0164  0.6363  0.6579
   97MPD2     N 1487   2.700   0.538   0.754  0.1126  0.1869 -0.0541
   97MPD2    H5 1488   2.642   0.487   0.688  0.6779  0.5860 -0.8727
   97MPD2    N1 1489   2.728   0.644   1.229  0.3067  0.1214 -0.3900
   97MPD2    H7 1490   2.698   0.613   1.320  0.6913 -1.8097 -0.9305
   98TCq2    C1 1491   2.820   0.587   0.712  0.0334  0.3280  0.0840
   98TCq2    O2 1492   2.894   0.664   0.767 -0.1212  0.3407 -0.6541
   98TCq2    C2 1493   2.839   0.560   0.569  0.2078  0.1321 -0.1792
   98TCq2    C3 1494   2.752   0.478   0.504 -0.3724 -0.3338 -0.2103
   98TCq2    C4 1495   2.777   0.450   0.374  0.1720 -0.3036 -0.2886
   98TCq2    C5 1496   2.888   0.497   0.312 -0.1120 -0.5178 -0.3014
   98TCq2    C6 1497   2.962   0.594   0.373 -0.1239 -0.2229  0.1952
   98TCq2    C7 1498   2.947   0.613   0.508 -0.0480 -0.1962  0.0446
   98TCq2    C8 1499   3.088   0.638   0.307  0.4302 -0.4663 -0.0732
   98TCq2    O4 1500   3.180   0.678   0.381  0.0017 -0.0915  0.1902
   98TCq2    C9 1501   2.696   0.348   0.319 -0.1378  0.0975  0.1391
   98TCq2    O5 1502   2.586   0.330   0.373 -0.5672  0.5511 -0.1325
   98TCq2    O6 1503   2.744   0.302   0.211  0.5327 -0.9071 -0.2375
   98TCq2    H2 1504   2.686   0.410   0.557  0.9192 -1.0419  0.4760
   98TCq2    H3 1505   2.903   0.464   0.209  0.9535 -0.7381 -0.0691
   98TCq2    H4 1506   3.012   0.679   0.563 -1.4133  0.0297  1.3883
   99MPD2     C 1507   1.776   3.125   1.839  0.2766  0.6767 -0.0453
   99MPD2    C1 1508   1.656   3.105   1.781  1.1555 -0.1655 -0.7068
   99MPD2    C2 1509   1.657   3.015   1.678  0.7493  0.0667 -0.2282
   99MPD2    C3 1510   1.770   2.949   1.629 -0.7264  0.1823  0.2184
   99MPD2    C4 1511   1.886   2.964   1.697  0.1843 -0.8049  0.0210
   99MPD2    C5 1512   1.884   3.051   1.804  0.1247  0.4545 -0.3233
   99MPD2     H 1513   1.570   2.988   1.619  1.5971  0.7239 -1.7974
   99MPD2    H1 1514   1.976   2.908   1.675  0.1181 -1.0766  0.4600
   99MPD2    H2 1515   1.796   3.191   1.923  0.5741  1.4716 -0.7428
   99MPD2    H3 1516   1.977   3.057   1.859 -0.8757  0.3020  1.3780
   99MPD2     N 1517   1.750   2.844   1.535  0.1625 -0.1381  0.4054
   99MPD2    H5 1518   1.655   2.821   1.509  0.4992 -1.2214  0.1497
   99MPD2    N1 1519   1.530   3.151   1.829 -0.1290  0.2292  0.4542
   99MPD2    H7 1520   1.443   3.116   1.791  0.5001 -0.2931 -0.5052
  100TCq2    C1 1521   1.513   3.234   1.934 -0.5608 -0.9967 -0.4328
  100TCq2    O2 1522   1.584   3.330   1.976  0.3318 -0.1071  0.4834
  100TCq2    C2 1523   1.380   3.221   1.987 -0.5093 -0.4227  0.0885
  100TCq2    C3 1524   1.349   3.313   2.080 -0.1030 -0.4984  0.1177
  100TCq2    C4 1525   1.226   3.305   2.130  0.2639  0.4611 -0.6218
  100TCq2    C5 1526   1.148   3.189   2.120  0.1510 -0.5944  0.3949
  100TCq2    C6 1527   1.193   3.091   2.041  0.1680  0.5159 -0.1206
  100TCq2    C7 1528   1.304   3.107   1.969 -0.1811 -0.2359 -0.6801
  100TCq2    C8 1529   1.114   2.972   2.034  0.6025 -0.1968 -0.8735
  100TCq2    O4 1530   1.009   2.976   2.098  0.4195  0.2509  0.1242
  100TCq2    C9 1531   1.180   3.408   2.223  0.3620  0.1539 -0.5928
  100TCq2    O5 1532   1.061   3.398   2.247  0.2618 -0.9121  0.2218
  100TCq2    O6 1533   1.241   3.512   2.232 -0.1381  0.0949 -0.4349
  100TCq2    H2 1534   1.403   3.400   2.116  1.0335 -0.1978 -2.3673
  100TCq2    H3 1535   1.060   3.177   2.182  0.9268 -0.8187  1.4482
  100TCq2    H4 1536   1.351   3.019   1.926 -0.0248  0.2783 -1.5716
  101MPD2     C 1537   2.489   3.539  12.921  0.0526 -0.3092  0.1145
  101MPD2    C1 1538   2.385   3.612  12.973 -0.0031  0.2829 -0.4360
  101MPD2    C2 1539   2.288   3.552  13.055  0.1107 -0.6394 -0.1119
  101MPD2    C3 1540   2.290   3.420  13.082 -0.0985  0.1228  0.6331
  101MPD2    C4 1541   2.397   3.342  13.034  0.5940 -0.7887 -0.4524
  101MPD2    C5 1542   2.490   3.407  12.955 -0.4430 -0.8551  0.0031
  101MPD2     H 1543   2.201   3.608  13.085 -0.2900 -0.7797 -1.0125
  101MPD2    H1 1544   2.409   3.235  13.045 -3.1312 -0.9970  1.6438
  101MPD2    H2 1545   2.566   3.590  12.865 -0.6330  1.2795  0.6026
  101MPD2    H3 1546   2.584   3.356  12.935  0.1727  0.1774  0.2720
  101MPD2     N 1547   2.186   3.364  13.161 -0.1277  0.1953  0.0949
  101MPD2    H5 1548   2.115   3.422  13.206  0.0639  0.0735  0.5594
  101MPD2    N1 1549   2.376   3.749  12.935 -0.6532 -0.1886  0.3325
  101MPD2    H7 1550   2.457   3.788  12.888 -1.2139  0.7210  0.1145
  102TCq2    C1 1551   2.477   4.019  12.562  0.4584  0.4513 -0.3807
  102TCq2    O2 1552   2.577   3.953  12.566 -0.4397 -0.3542 -1.0588
  102TCq2    C2 1553   2.395   4.038  12.676  0.2876  0.2699  0.3974
  102TCq2    C3 1554   2.332   4.155  12.701 -0.0833 -0.5051 -0.0450
  102TCq2    C4 1555   2.240   4.168  12.800  0.5132 -0.7043 -0.6080
  102TCq2    C5 1556   2.226   4.063  12.885 -0.0696 -0.7040 -0.4265
  102TCq2    C6 1557   2.304   3.950  12.873  0.8074  0.0637  0.5138
  102TCq2    C7 1558   2.375   3.928  12.757 -0.6303 -0.2966  0.8189
  102TCq2    C8 1559   2.279   3.839  12.965 -0.1283  0.6891 -0.6412
  102TCq2    O4 1560   2.167   3.831  13.021  0.2793  0.1528 -0.0246
  102TCq2    C9 1561   2.161   4.286  12.810 -0.3638 -0.2539  0.1050
  102TCq2    O5 1562   2.223   4.395  12.807 -0.8661  0.3066 -0.4468
  102TCq2    O6 1563   2.036   4.278  12.832 -0.0776 -0.8250  0.2439
  102TCq2    H2 1564   2.345   4.237  12.632  0.4656 -1.5098 -1.1422
  102TCq2    H3 1565   2.162   4.070  12.973  1.1806 -1.2283  0.5163
  102TCq2    H4 1566   2.418   3.835  12.721 -0.0862  0.3524 -0.2177
  103TMC2    C1 1567   0.624   3.676  12.237 -0.6294 -0.6711 -0.2068
  103TMC2    C2 1568   0.740   3.629  12.296 -0.0042 -0.3506  0.2493
  103TMC2    C3 1569   0.731   3.526  12.388 -0.0712 -0.2921 -0.1475
  103TMC2    C4 1570   0.508   3.638  12.293 -0.5614  0.1251  0.6111
  103TMC2    C5 1571   0.505   3.550  12.396 -0.1744 -0.0778 -0.0234
  103TMC2    C6 1572   0.617   3.483  12.436 -0.1211 -0.3395  0.5497
  103TMC2     C 1573   0.615   3.780  12.133  0.0006  0.1309 -0.2046
  103TMC2     O 1574   0.511   3.782  12.069 -0.1013 -0.2297  0.0001
  103TMC2     H 1575   0.837   3.672  12.277  0.9240 -2.2923  0.5271
  103TMC2    H1 1576   0.413   3.671  12.253  0.0315 -0.3359 -1.1853
  103TMC2    H2 1577   0.609   3.413  12.518 -0.8992  0.6345  1.3210
  103TMC2    C7 1578   0.381   3.537  12.474 -0.3399 -0.6493 -0.4897
  103TMC2    C8 1579   0.840   3.504  12.472 -0.5699 -0.0246 -0.3707
  103TMC2    O1 1580   0.386   3.471  12.576  0.1072 -0.0153  0.3352
  103TMC2    O2 1581   0.892   3.599  12.536  0.4153  0.3305 -0.1939
  103TMC2    O5 1582   0.909   3.429  12.380  0.1744  0.0808 -0.3954
  103TMC2    H5 1583   0.847   3.366  12.337 -0.6483  0.0083  0.8961
  104MPD2     C 1584   0.892   3.996  12.012  0.3184  0.8590 -0.4584
  104MPD2    C1 1585   0.758   3.954  12.013 -0.2772  0.3623 -0.3285
  104MPD2    C2 1586   0.657   4.011  11.936  0.0207  0.1513  0.3363
  104MPD2    C3 1587   0.692   4.118  11.849  0.2193  0.0470 -0.2521
  104MPD2    C4 1588   0.827   4.160  11.844  0.1699  0.1498 -0.2748
  104MPD2    C5 1589   0.918   4.106  11.937  0.2902 -0.0317  0.2781
  104MPD2     H 1590   0.555   3.986  11.961 -0.0330 -0.3428 -0.3901
  104MPD2    H1 1591   0.847   4.247  11.783 -0.0223 -0.0972 -0.6892
  104MPD2    H2 1592   0.976   3.955  12.067  0.4903  2.6574  0.6161
  104MPD2    H3 1593   1.019   4.143  11.929  1.1217 -2.1459  0.8615
  104MPD2     N 1594   0.598   4.179  11.767 -0.9606 -0.1843 -0.5244
  104MPD2    H5 1595   0.638   4.247  11.704  0.5913 -1.2984 -0.7514
  104MPD2    N1 1596   0.731   3.851  12.111  0.0052 -0.4235  0.4058
  104MPD2    H7 1597   0.814   3.821  12.162  0.9004 -0.7687 -1.2571
  105MPD2     C 1598   2.395   3.038  17.347  0.3726 -0.0890  0.1647
  105MPD2    C1 1599   2.295   3.116  17.295  0.4354  0.2816  0.3195
  105MPD2    C2 1600   2.219   3.207  17.371  0.3497  0.1709 -0.6487
  105MPD2    C3 1601   2.250   3.230  17.504  0.4062 -0.0224  0.1145
  105MPD2    C4 1602   2.350   3.151  17.555 -0.3645  0.6012  0.0129
  105MPD2    C5 1603   2.418   3.061  17.476 -0.6315 -0.2527  0.0377
  105MPD2     H 1604   2.140   3.266  17.327  2.1514  1.5710 -2.0192
  105MPD2    H1 1605   2.380   3.162  17.659  1.6818  0.2627 -0.5441
  105MPD2    H2 1606   2.443   2.950  17.305  0.3604  0.4166 -0.9255
  105MPD2    H3 1607   2.476   2.986  17.528  0.6480  0.0841 -0.8945
  105MPD2     N 1608   2.171   3.325  17.577  0.3533  0.1288  0.4111
  105MPD2    H5 1609   2.105   3.377  17.520  0.9609 -0.4506 -0.8218
  105MPD2    N1 1610   2.257   3.113  17.162 -0.2537 -0.0662  0.2649
  105MPD2    H7 1611   2.193   3.188  17.138  2.2139  2.4186  1.3578
  106TCq2    C1 1612   2.185   3.359   0.030  0.0760  0.4267  0.1423
  106TCq2    O2 1613   2.251   3.303   0.118 -0.8977  0.1014 -0.1932
  106TCq2    C2 1614   2.075   3.444   0.076 -0.4218  0.3486  0.6210
  106TCq2    C3 1615   1.965   3.461  17.684 -0.7290  0.4348 -0.2150
  106TCq2    C4 1616   1.856   3.518   0.058 -0.1140  0.0934 -0.6160
  106TCq2    C5 1617   1.855   3.547   0.191 -0.3965  0.3708  0.5603
  106TCq2    C6 1618   1.967   3.538   0.267 -0.3442 -0.4388 -0.5783
  106TCq2    C7 1619   2.076   3.483   0.204  0.6273 -0.6727 -0.3714
  106TCq2    C8 1620   1.979   3.554   0.411 -0.6491 -0.0028  0.8503
  106TCq2    O4 1621   2.095   3.546   0.450 -0.2429 -0.3506  0.0866
  106TCq2    C9 1622   1.739   3.545  17.665 -0.1961  0.5012 -0.2918
  106TCq2    O5 1623   1.637   3.607   0.029  0.1753 -0.8116 -0.2579
  106TCq2    O6 1624   1.754   3.523  17.543 -0.4604 -0.3356  0.1996
  106TCq2    H2 1625   1.965   3.441  17.578  4.7698 -1.8485  0.1578
  106TCq2    H3 1626   1.763   3.587   0.231  0.1802  2.6727 -0.3994
  106TCq2    H4 1627   2.168   3.472   0.260  1.0523  3.8030 -0.2614
  107TMC2    C1 1628   2.861   1.810  11.500  0.1998  0.5753 -0.2775
  107TMC2    C2 1629   2.993   1.793  11.528 -0.3719 -0.0309  0.2769
  107TMC2    C3 1630   3.073   1.752  11.430 -0.3421  0.6499  0.1108
  107TMC2    C4 1631   2.808   1.792  11.376 -0.4923  0.8435  0.6688
  107TMC2    C5 1632   2.893   1.745  11.280  0.2712  0.3606  0.2411
  107TMC2    C6 1633   3.027   1.734  11.299  0.0182  0.1983  0.3911
  107TMC2     C 1634   2.800   1.914  11.587  0.0955  0.2093  0.1966
  107TMC2     O 1635   2.836   1.913  11.705  0.5886 -0.3906 -0.3472
  107TMC2     H 1636   3.032   1.821  11.625  0.2008  2.3570 -0.6517
  107TMC2    H1 1637   2.701   1.786  11.359 -0.3250 -2.9602  0.9162
  107TMC2    H2 1638   3.090   1.691  11.223 -0.6180  0.4268 -0.2619
  107TMC2    C7 1639   2.836   1.708  11.147  0.2562 -0.8695  0.2996
  107TMC2    C8 1640   3.212   1.729  11.444 -0.7346 -0.7233 -0.2005
  107TMC2    O1 1641   2.724   1.658  11.160  0.5105 -0.2849  0.3096
  107TMC2    O2 1642   3.284   1.671  11.363 -0.3243 -0.0847  0.0373
  107TMC2    O5 1643   3.262   1.799  11.547  0.2327  0.2776 -0.6705
  107TMC2    H5 1644   3.203   1.858  11.599  1.0220 -0.0762  0.6346
  108MPD2     C 1645   2.507   2.136  11.491 -0.4160  0.0275 -0.1020
  108MPD2    C1 1646   2.605   2.078  11.576  0.3030  0.7946  0.3368
  108MPD2    C2 1647   2.611   2.122  11.710  0.9074  0.5647  1.0645
  108MPD2    C3 1648   2.499   2.198  11.756  0.0867  0.1035 -0.1038
  108MPD2    C4 1649   2.401   2.249  11.675  0.1073  0.6497 -0.0222
  108MPD2    C5 1650   2.409   2.222  11.540 -0.1271  0.3879  0.5418
  108MPD2     H 1651   2.678   2.080  11.784  1.1168 -2.2818 -0.6921
  108MPD2    H1 1652   2.313   2.305  11.703 -1.4728 -1.3727 -0.9446
  108MPD2    H2 1653   2.497   2.103  11.388 -1.2365  2.1249 -0.6892
  108MPD2    H3 1654   2.320   2.247  11.483  1.7331  3.5370 -1.0105
  108MPD2     N 1655   2.473   2.231  11.890 -0.3118  0.0221 -0.1140
  108MPD2    H5 1656   2.375   2.249  11.908  0.0641 -1.9439  3.7936
  108MPD2    N1 1657   2.695   1.977  11.522 -1.0344  0.0813  0.2058
  108MPD2    H7 1658   2.685   1.959  11.423 -4.8978  0.4469  0.5301
  109MPD2     C 1659   2.086   4.708   2.038  0.3255  0.0610  0.0082
  109MPD2    C1 1660   2.145   0.023   1.916  0.1865  0.4512 -0.2732
  109MPD2    C2 1661   2.282   0.007   1.900  0.4566 -0.4406  0.0683
  109MPD2    C3 1662   2.362   4.684   2.006  0.4358 -0.6725  0.9215
  109MPD2    C4 1663   2.301   4.663   2.128 -0.3326 -0.0093 -0.0563
  109MPD2    C5 1664   2.158   4.673   2.145  0.3100  0.1130  0.4574
  109MPD2     H 1665   2.326   0.037   1.806  2.7024 -2.1799  0.5741
  109MPD2    H1 1666   2.357   4.641   2.218 -0.2586  2.7513  0.5713
  109MPD2    H2 1667   1.978   4.704   2.043  0.3770 -0.0060  1.1083
  109MPD2    H3 1668   2.111   4.640   2.237 -1.5666 -1.8014 -1.1650
  109MPD2     N 1669   2.499   4.662   1.988 -0.1678 -0.2646  0.0089
  109MPD2    H5 1670   2.534   4.705   1.903  0.6942 -2.2125 -0.6117
  109MPD2    N1 1671   2.058   0.069   1.821 -0.3342  0.1922  0.4857
  109MPD2    H7 1672   1.965   0.099   1.850 -1.4981 -2.0020 -0.9094
  110TCq2    C1 1673   2.574   4.585   2.066 -0.0606  0.6703 -0.4271
  110TCq2    O2 1674   2.534   4.503   2.149  1.0250 -0.4467 -0.6763
  110TCq2    C2 1675   2.721   4.589   2.037 -0.1749 -0.8930  0.6816
  110TCq2    C3 1676   2.802   4.486   2.068  0.4819  0.3651  0.8318
  110TCq2    C4 1677   2.932   4.496   2.019 -0.2370 -0.5582 -0.2022
  110TCq2    C5 1678   2.980   4.606   1.962 -0.4270  0.0260  0.3329
  110TCq2    C6 1679   2.898   4.713   1.948 -0.2049 -0.2402  0.5198
  110TCq2    C7 1680   2.766   4.709   1.977  0.5968  0.2775  0.2750
  110TCq2    C8 1681   2.942   0.105   1.862  0.1796  0.5224  0.3923
  110TCq2    O4 1682   2.872   0.206   1.860 -0.0335  0.3660  0.1615
  110TCq2    C9 1683   3.020   4.384   2.027 -0.3997  0.2368 -0.0929
  110TCq2    O5 1684   3.128   4.393   1.963 -0.3089  0.1596  0.1096
  110TCq2    O6 1685   2.970   4.283   2.086  0.6277 -0.4033  0.0157
  110TCq2    H2 1686   2.769   4.395   2.116 -0.7517  1.5005  2.1558
  110TCq2    H3 1687   3.087   4.610   1.946 -0.7008  0.5834 -1.3161
  110TCq2    H4 1688   2.706   0.070   1.940 -1.0812  0.4482  3.3012
  111TMC2    C1 1689   2.986   4.640  11.132  0.2762 -0.2340  0.3721
  111TMC2    C2 1690   3.072   4.654  11.026 -0.6155 -0.1332  0.0450
  111TMC2    C3 1691   3.206   4.633  11.049 -0.5918 -0.4031 -0.2154
  111TMC2    C4 1692   3.029   4.594  11.257 -0.3287  0.1909  0.3463
  111TMC2    C5 1693   3.162   4.564  11.271  0.2906  0.2813  0.1419
  111TMC2    C6 1694   3.252   4.577  11.164  0.0911  0.1054 -0.0825
  111TMC2     C 1695   2.845   4.636  11.095  0.4376  0.6447  0.4259
  111TMC2     O 1696   2.826   4.652  10.976  0.1727  0.3584  0.5661
  111TMC2     H 1697   3.045   4.680  10.925  0.5407 -0.8989 -0.4680
  111TMC2    H1 1698   2.954   4.578  11.333 -0.8606 -0.5856 -0.3389
  111TMC2    H2 1699   3.355   4.548  11.185 -0.6155 -0.8563  2.0411
  111TMC2    C7 1700   3.216   4.526  11.411 -0.3567 -0.5681  0.8997
  111TMC2    C8 1701   3.298   4.635  10.944  0.1420  0.0264 -0.4374
  111TMC2    O1 1702   3.129   4.484  11.485  0.2096  0.3634  0.3672
  111TMC2    O2 1703   3.382   4.551  10.919  0.4882 -0.3547  0.0252
  111TMC2    O5 1704   3.274   0.022  10.865 -0.6824  0.6314 -0.4005
  111TMC2    H5 1705   3.210   0.086  10.903 -1.9923 -0.4404 -0.8297
  112MPD2     C 1706   2.348   4.691  11.161  0.0704  0.3472  0.3361
  112MPD2    C1 1707   2.421   4.659  11.053  0.3743  0.0805  0.0535
  112MPD2    C2 1708   2.554   4.620  11.072 -0.4664  0.7718 -0.3507
  112MPD2    C3 1709   2.622   4.645  11.189  0.1223  0.1188 -0.6924
  112MPD2    C4 1710   2.544   4.676  11.300  0.2412  0.3528  0.2943
  112MPD2    C5 1711   2.411   4.697  11.282 -0.2726  0.8324 -0.0955
  112MPD2     H 1712   2.612   4.590  10.985 -1.3216  0.4349 -0.8061
  112MPD2    H1 1713   2.585   4.701  11.398 -1.9607  0.2270  1.2420
  112MPD2    H2 1714   2.245   0.002  11.155  1.0999  3.5139 -0.6060
  112MPD2    H3 1715   2.365   0.001  11.377 -1.3038  1.2487 -0.7038
  112MPD2     N 1716   2.760   4.636  11.203  0.4925 -0.0184 -0.4311
  112MPD2    H5 1717   2.805   4.655  11.292 -3.0291  2.4908  0.8081
  112MPD2    N1 1718   2.372   4.655  10.921 -0.1321 -0.6175  0.0963
  112MPD2    H7 1719   2.436   4.608  10.857  1.3197  3.0583 -1.1322
  113MPD2     C 1720   1.150   2.620   1.289 -0.1957  0.0335 -0.2760
  113MPD2    C1 1721   1.027   2.676   1.255 -0.4199 -0.9586 -1.1062
  113MPD2    C2 1722   0.956   2.633   1.149 -0.3982  0.1933  0.6625
  113MPD2    C3 1723   1.009   2.546   1.051  0.2216  0.1545  0.8720
  113MPD2    C4 1724   1.136   2.503   1.071  0.1519  0.1753  0.4499
  113MPD2    C5 1725   1.202   2.538   1.187 -0.3264 -0.2773  0.2621
  113MPD2     H 1726   0.856   2.675   1.143  0.4020  2.1218  0.7929
  113MPD2    H1 1727   1.192   2.445   0.999  0.1536  1.6842 -0.7647
  113MPD2    H2 1728   1.213   2.660   1.367 -1.8242  0.7047  0.6949
  113MPD2    H3 1729   1.309   2.525   1.198 -0.2797 -0.1838 -0.1043
  113MPD2     N 1730   0.936   2.508   0.938 -0.2070 -0.6080 -0.0037
  113MPD2    H5 1731   0.987   2.448   0.875  1.4061 -0.8686  1.5417
  113MPD2    N1 1732   0.960   2.762   1.343 -0.3626 -0.3358  0.6613
  113MPD2    H7 1733   0.877   2.805   1.306 -0.5603  0.3563  1.9007
  114TCq2    C1 1734   0.801   2.530   0.912 -0.4305  0.4079 -0.0409
  114TCq2    O2 1735   0.714   2.571   0.987 -0.4661 -0.3983 -1.1801
  114TCq2    C2 1736   0.761   2.461   0.791 -0.4705 -0.8368  0.3587
  114TCq2    C3 1737   0.845   2.438   0.690 -0.3698  0.2532  0.3367
  114TCq2    C4 1738   0.810   2.355   0.592  0.6643  0.4201  0.0587
  114TCq2    C5 1739   0.695   2.289   0.584  0.3592  0.0442 -0.3977
  114TCq2    C6 1740   0.605   2.313   0.686 -0.7508  0.6797  0.0705
  114TCq2    C7 1741   0.645   2.395   0.792 -0.1135  0.3748  0.0084
  114TCq2    C8 1742   0.489   2.226   0.694 -0.0941 -0.4357  0.1664
  114TCq2    O4 1743   0.449   2.193   0.583 -0.2227  0.4727 -0.1551
  114TCq2    C9 1744   0.907   2.351   0.489 -0.1099  0.2812 -0.0377
  114TCq2    O5 1745   0.878   2.308   0.372  0.1587 -0.0646 -0.1295
  114TCq2    O6 1746   1.023   2.374   0.532  0.8641  0.3641  0.5068
  114TCq2    H2 1747   0.922   2.512   0.672  0.1552 -0.7934 -1.7345
  114TCq2    H3 1748   0.664   2.227   0.501  1.2180 -0.8876 -0.0161
  114TCq2    H4 1749   0.576   2.404   0.875  2.3859  0.1349  2.1258
  115TMC2    C1 1750   2.137   0.688   0.335 -0.1111 -0.2795 -0.2301
  115TMC2    C2 1751   2.162   0.644   0.460  0.1238  0.0787  0.1892
  115TMC2    C3 1752   2.238   0.732   0.539  0.2599  0.0742  0.2192
  115TMC2    C4 1753   2.165   0.824   0.296  0.5683 -0.5854 -0.5263
  115TMC2    C5 1754   2.239   0.902   0.386  0.5563 -0.1190  0.5897
  115TMC2    C6 1755   2.267   0.859   0.511 -0.0377  0.2999 -0.4452
  115TMC2     C 1756   2.073   0.596   0.243 -0.3822  0.6695 -0.1841
  115TMC2     O 1757   2.098   0.480   0.273  0.6072 -0.4603  0.4891
  115TMC2     H 1758   2.111   0.558   0.501 -0.1553 -0.2020 -0.7381
  115TMC2    H1 1759   2.134   0.860   0.198  1.5914 -0.8291 -0.9350
  115TMC2    H2 1760   2.322   0.925   0.576 -1.9295  1.6177 -0.1812
  115TMC2    C7 1761   2.280   1.045   0.354 -0.8324 -0.1515 -0.0982
  115TMC2    C8 1762   2.271   0.689   0.675 -0.0765  0.3049  0.3283
  115TMC2    O1 1763   2.294   1.122   0.446 -0.5818  0.4313  0.0629
  115TMC2    O2 1764   2.281   0.769   0.767 -0.8854 -0.5447 -0.3306
  115TMC2    O5 1765   2.228   0.564   0.691  0.3286  0.0013  0.1159
  115TMC2    H5 1766   2.252   0.516   0.609 -0.1506  0.4827 -0.3120
  116MPD2     C 1767   1.755   0.447  17.550 -0.0606 -0.0719  0.5780
  116MPD2    C1 1768   1.827   0.363  17.636 -0.5517 -0.6011 -0.3225
  116MPD2    C2 1769   1.919   0.430   0.041  0.8654  0.6717  0.6260
  116MPD2    C3 1770   1.925   0.570   0.049 -0.5785  0.1610 -0.8990
  116MPD2    C4 1771   1.842   0.641  17.652  0.3596  1.0524  0.4425
  116MPD2    C5 1772   1.756   0.585  17.566  0.2670  0.2850 -0.3941
  116MPD2     H 1773   1.988   0.369   0.097  1.1363  1.7515  1.4692
  116MPD2    H1 1774   1.840   0.750  17.656  4.2740  1.1330  0.7466
  116MPD2    H2 1775   1.686   0.408  17.476  0.7516 -0.7073  0.1471
  116MPD2    H3 1776   1.701   0.653  17.501 -0.0011  0.3539 -0.0951
  116MPD2     N 1777   1.997   0.647   0.143 -0.4323  0.3825 -0.4068
  116MPD2    H5 1778   1.986   0.747   0.145  0.1724  0.3954  1.4072
  116MPD2    N1 1779   1.801   0.224  17.636 -0.2316  0.3964  0.1194
  116MPD2    H7 1780   1.729   0.191  17.572  1.0850 -1.4402 -0.4136
  117TMC2    C1 1781   0.131   1.582  13.708 -0.7679  0.2135 -0.6163
  117TMC2    C2 1782   0.114   1.495  13.806 -0.2927  0.4089  0.1108
  117TMC2    C3 1783   0.164   1.518  13.931 -0.1411  1.4970 -0.4983
  117TMC2    C4 1784   0.208   1.689  13.724  0.3094  0.2368  0.0100
  117TMC2    C5 1785   0.246   1.713  13.854 -0.1565 -0.1689 -0.4601
  117TMC2    C6 1786   0.217   1.636  13.958  0.3407 -0.2920  0.4121
  117TMC2     C 1787   0.018   1.580  13.610 -0.6763  0.7650 -0.4604
  117TMC2     O 1788   4.660   1.486  13.616 -0.0602  0.1995 -0.1343
  117TMC2     H 1789   0.071   1.397  13.793  0.4692  0.0442  0.3159
  117TMC2    H1 1790   0.223   1.756  13.640  2.4009  2.0297  1.8252
  117TMC2    H2 1791   0.239   1.660  14.061  2.4302  1.5526 -0.4515
  117TMC2    C7 1792   0.303   1.846  13.871  0.2836 -0.0389  0.6417
  117TMC2    C8 1793   0.138   1.415  14.032  0.8234  0.6045 -0.4514
  117TMC2    O1 1794   0.298   1.925  13.778  0.1161 -0.6519 -0.0079
  117TMC2    O2 1795   0.040   1.343  14.018 -0.4670  0.1728 -0.1864
  117TMC2    O5 1796   0.218   1.443  14.140 -0.2126  0.0798  0.8161
  117TMC2    H5 1797   0.301   1.493  14.125  0.5044 -0.4932  2.8593
  118MPD2     C 1798   0.504   1.947  14.154 -0.1405 -0.2465  0.3094
  118MPD2    C1 1799   0.413   1.969  14.053 -0.8683  0.4005 -0.0861
  118MPD2    C2 1800   0.390   2.093  13.995  0.2615  0.1665 -0.1000
  118MPD2    C3 1801   0.466   2.201  14.037 -0.8899  0.0039  0.1023
  118MPD2    C4 1802   0.549   2.183  14.141  0.1489 -0.1937 -0.8862
  118MPD2    C5 1803   0.569   2.062  14.194  0.3530 -0.0855 -0.1565
  118MPD2     H 1804   0.325   2.109  13.910  0.4062 -3.1541 -0.8437
  118MPD2    H1 1805   0.606   2.262  14.188  0.5632 -0.1806 -1.4143
  118MPD2    H2 1806   0.530   1.855  14.205 -1.1358  0.9311  2.9513
  118MPD2    H3 1807   0.632   2.048  14.280 -0.6312 -0.0978  0.5646
  118MPD2     N 1808   0.454   2.328  13.979 -0.5185 -0.1303  1.1038
  118MPD2    H5 1809   0.511   2.399  14.024  0.4815  0.9907 -1.9143
  118MPD2    N1 1810   0.359   1.858  13.997 -0.1055 -0.0331 -0.0980
  118MPD2    H7 1811   0.381   1.770  14.041  1.6395  0.3855 -0.1240
  119MPD2     C 1812   3.253   3.444  14.049  0.7518  0.4354  0.7815
  119MPD2    C1 1813   3.124   3.425  14.088 -0.2688  0.0588  0.3590
  119MPD2    C2 1814   3.035   3.376  13.998  0.0486  0.1616  0.2081
  119MPD2    C3 1815   3.077   3.320  13.882  0.5472 -0.1128  1.1059
  119MPD2    C4 1816   3.202   3.343  13.845  0.3399 -0.6651 -0.3388
  119MPD2    C5 1817   3.288   3.413  13.921  0.1609  0.5129 -0.0559
  119MPD2     H 1818   2.930   3.379  14.026 -0.0951 -2.5526 -0.0279
  119MPD2    H1 1819   3.232   3.311  13.746 -1.2559 -0.4191 -0.9044
  119MPD2    H2 1820   3.314   3.504  14.116  3.3104  0.9835 -2.0005
  119MPD2    H3 1821   3.383   3.442  13.879  0.4464 -0.5229 -0.1405
  119MPD2     N 1822   2.998   3.233  13.804  0.2201 -0.1916  0.2075
  119MPD2    H5 1823   3.037   3.182  13.726  2.4729  1.2373  0.4084
  119MPD2    N1 1824   3.086   3.464  14.217 -0.0676  0.1501 -0.7261
  119MPD2    H7 1825   3.141   3.536  14.263 -0.9040  1.2849 -1.5456
  120TCq2    C1 1826   2.874   3.181  13.845 -0.3021 -0.0046  0.5638
  120TCq2    O2 1827   2.803   3.211  13.942 -0.1548  0.3128  0.5201
  120TCq2    C2 1828   2.831   3.077  13.751  0.2841  0.2693  0.4803
  120TCq2    C3 1829   2.885   3.072  13.625  0.3249  1.1976  0.2714
  120TCq2    C4 1830   2.813   3.008  13.529  0.0808  0.0387 -0.7969
  120TCq2    C5 1831   2.691   2.962  13.550 -0.0303 -0.1919  0.3775
  120TCq2    C6 1832   2.642   2.971  13.675 -0.1268  0.2736  0.8223
  120TCq2    C7 1833   2.716   3.024  13.782  0.8902 -0.0463 -0.4377
  120TCq2    C8 1834   2.506   2.928  13.692 -0.1459  0.3308  0.5178
  120TCq2    O4 1835   2.432   2.929  13.595 -0.5281  0.3533  0.4517
  120TCq2    C9 1836   2.864   3.007  13.397  0.1567  0.2782 -0.3124
  120TCq2    O5 1837   2.981   3.049  13.383 -0.1542 -0.0479  0.3815
  120TCq2    O6 1838   2.810   2.923  13.323 -0.3608  0.0239 -0.3960
  120TCq2    H2 1839   2.979   3.118  13.597  0.8815 -0.2340 -0.1820
  120TCq2    H3 1840   2.630   2.920  13.471 -1.6352 -0.9819  2.0372
  120TCq2    H4 1841   2.686   3.023  13.886  1.1416 -1.9883 -0.3728
  121TMC2    C1 1842   0.173   0.193  14.443  0.5363  0.2382  0.1824
  121TMC2    C2 1843   0.249   0.157  14.549 -0.4131  0.0100  0.0008
  121TMC2    C3 1844   0.236   0.029  14.592  0.8082 -0.7839 -0.4664
  121TMC2    C4 1845   0.084   0.111  14.375 -0.1204  0.3966 -0.3998
  121TMC2    C5 1846   0.078   4.698  14.422 -0.0123 -0.2762  1.4072
  121TMC2    C6 1847   0.160   4.657  14.525 -0.5498  0.3431  0.1369
  121TMC2     C 1848   0.225   0.311  14.381  0.8181 -0.5277  0.4887
  121TMC2     O 1849   0.303   0.375  14.450 -0.1331 -0.2872 -0.4590
  121TMC2     H 1850   0.322   0.218  14.600  0.0801  0.0676 -0.7636
  121TMC2    H1 1851   0.009   0.146  14.305  1.0708  0.5032 -1.6187
  121TMC2    H2 1852   0.146   4.558  14.565  1.3685  0.0233  0.0109
  121TMC2    C7 1853   4.679   4.624  14.381  0.0382  0.5386 -0.8774
  121TMC2    C8 1854   0.321   4.715  14.703  0.3245  0.5249 -0.0361
  121TMC2    O1 1855   4.629   4.541  14.454 -0.2659  0.7534 -0.4641
  121TMC2    O2 1856   0.371   0.079  14.778  0.2488  0.3970 -0.8094
  121TMC2    O5 1857   0.391   4.604  14.665 -0.2789 -0.4415 -0.4248
  121TMC2    H5 1858   0.349   4.539  14.605 -1.3824 -2.7438  2.8610
  122MPD2     C 1859   0.349   0.525  14.202 -0.1773  0.4863 -0.0461
  122MPD2    C1 1860   0.237   0.446  14.170  0.3797 -0.3867  0.5987
  122MPD2    C2 1861   0.176   0.467  14.047  0.1482  0.2807 -0.6573
  122MPD2    C3 1862   0.223   0.566  13.958  0.6919 -0.6468 -0.5261
  122MPD2    C4 1863   0.328   0.652  14.004 -0.1164 -0.2575  0.1791
  122MPD2    C5 1864   0.396   0.617  14.118 -0.1160  0.0888 -0.1104
  122MPD2     H 1865   0.104   0.398  14.004 -0.2063 -0.2067  0.7094
  122MPD2    H1 1866   0.366   0.737  13.949 -0.2087  0.1604  0.7621
  122MPD2    H2 1867   0.406   0.512  14.294  3.2735 -0.8770 -2.3593
  122MPD2    H3 1868   0.480   0.677  14.152  0.8624 -0.4059 -1.6210
  122MPD2     N 1869   0.172   0.599  13.831 -0.0989  0.0488 -0.1376
  122MPD2    H5 1870   0.224   0.668  13.777  0.3429  0.0598  0.3065
  122MPD2    N1 1871   0.179   0.344  14.256  0.8049  0.5646  0.0037
  122MPD2    H7 1872   0.106   0.286  14.218  1.1525  0.1498 -0.0332
  123MPD2     C 1873   1.084   3.031   9.891 -0.1796 -0.0779 -0.4764
  123MPD2    C1 1874   1.112   3.096   9.775 -0.0482 -0.2059  0.0197
  123MPD2    C2 1875   1.248   3.105   9.739 -0.6772  0.0023  0.2709
  123MPD2    C3 1876   1.353   3.069   9.821 -0.6148  0.6580 -0.6592
  123MPD2    C4 1877   1.316   3.033   9.946 -0.2039 -0.3955  0.0330
  123MPD2    C5 1878   1.182   3.009   9.979 -0.2987  0.0418 -0.1686
  123MPD2     H 1879   1.273   3.137   9.639  0.1110 -0.5700  0.2799
  123MPD2    H1 1880   1.388   3.009  10.024  1.3796  0.8404 -1.0554
  123MPD2    H2 1881   0.981   3.017   9.922  1.0389  0.0850  3.5783
  123MPD2    H3 1882   1.158   2.984  10.082  3.5105  0.7455  0.8946
  123MPD2     N 1883   1.484   3.091   9.779  0.1649  0.9698 -0.1188
  123MPD2    H5 1884   1.504   3.148   9.698 -1.5812  0.3518 -0.9810
  123MPD2    N1 1885   1.009   3.139   9.700  0.5930 -0.5261 -0.0324
  123MPD2    H7 1886   0.917   3.101   9.721 -1.4594  3.5452 -1.6335
  124TCq2    C1 1887   1.600   3.047   9.842  0.5728  0.3745 -0.1375
  124TCq2    O2 1888   1.606   2.981   9.947 -0.8906 -0.1437  0.3925
  124TCq2    C2 1889   1.723   3.084   9.768  0.4665 -0.0735 -0.3466
  124TCq2    C3 1890   1.719   3.140   9.642  0.4149 -0.5708 -0.3487
  124TCq2    C4 1891   1.836   3.185   9.584 -0.1601  0.7312  0.0689
  124TCq2    C5 1892   1.954   3.174   9.654 -0.6848  0.0596 -0.1689
  124TCq2    C6 1893   1.957   3.118   9.779  0.2488  0.0332 -0.0582
  124TCq2    C7 1894   1.840   3.075   9.838 -0.1093 -0.3201  0.6695
  124TCq2    C8 1895   2.086   3.075   9.838 -0.3695  0.4201  0.0526
  124TCq2    O4 1896   2.096   2.981   9.919 -0.2641 -0.1118  0.1742
  124TCq2    C9 1897   1.829   3.235   9.448 -0.4275 -0.0669  0.9177
  124TCq2    O5 1898   1.935   3.284   9.404  0.0885  0.5202  0.0845
  124TCq2    O6 1899   1.719   3.224   9.394 -0.0000  0.1766  0.0908
  124TCq2    H2 1900   1.624   3.156   9.592 -0.3626 -1.2943  0.8947
  124TCq2    H3 1901   2.046   3.196   9.601 -0.4341 -0.8886 -0.1381
  124TCq2    H4 1902   1.839   3.030   9.937 -1.7362  0.6032  1.0688
  125TMC2    C1 1903   2.843   4.171   8.867 -0.2987  0.0555  0.2152
  125TMC2    C2 1904   2.910   4.089   8.773  0.0995 -1.0175 -0.0445
  125TMC2    C3 1905   3.012   4.147   8.702 -1.2251  0.1361  0.3164
  125TMC2    C4 1906   2.872   4.307   8.876  0.4918 -0.0586 -0.5097
  125TMC2    C5 1907   2.966   4.366   8.791 -0.2291  0.4352 -0.1251
  125TMC2    C6 1908   3.042   4.282   8.710 -0.0997 -0.8355  0.2153
  125TMC2     C 1909   2.722   4.133   8.935 -0.0401  0.4379  0.1507
  125TMC2     O 1910   2.645   4.222   8.965  0.5549 -0.9530  0.2778
  125TMC2     H 1911   2.883   3.985   8.763  0.8726 -0.9689 -2.4391
  125TMC2    H1 1912   2.810   4.377   8.930 -2.1634 -3.4493  0.8044
  125TMC2    H2 1913   3.120   4.331   8.653 -1.0660  1.5938  0.9731
  125TMC2    C7 1914   3.008   4.506   8.803 -0.1442 -0.3689 -0.2152
  125TMC2    C8 1915   3.115   4.062   8.642  0.1791 -0.1422 -0.0914
  125TMC2    O1 1916   2.928   4.581   8.852 -0.3157  0.4198 -1.0172
  125TMC2    O2 1917   3.216   4.109   8.590 -0.0593  0.6346  0.5136
  125TMC2    O5 1918   3.122   3.951   8.718 -0.5791  0.9956  0.1451
  125TMC2    H5 1919   3.048   3.946   8.782  0.5415  2.2210  1.5269
  126MPD1     C 1920   2.366   3.765   8.984  0.0647  1.0484  0.4985
  126MPD1    C1 1921   2.485   3.715   9.029  0.2388  0.1867  0.0477
  126MPD1    C2 1922   2.596   3.791   9.004 -0.3156 -0.2306  0.5609
  126MPD1    C3 1923   2.591   3.921   8.974 -0.6783  0.0412 -0.2826
  126MPD1    C4 1924   2.467   3.977   8.950 -0.5925 -0.1551  0.1684
  126MPD1    C5 1925   2.357   3.899   8.966  0.0584 -0.1614  0.5619
  126MPD1     H 1926   2.698   3.754   9.005  0.2238  1.2668 -0.7357
  126MPD1    H1 1927   2.457   4.083   8.933  0.3756  0.1914  1.7631
  126MPD1    H2 1928   2.271   3.714   8.993  1.3388 -1.8181 -2.3169
  126MPD1    H3 1929   2.261   3.948   8.955  1.2011  2.1983  1.1074
  126MPD1     N 1930   2.715   3.994   8.952  0.1634  0.1496 -0.5944
  126MPD1    H5 1931   2.799   3.939   8.949  0.2294  0.2660 -0.8666
  126MPD1    N1 1932   2.504   3.574   9.035  0.3514 -0.3660  0.0082
  126MPD1    H6 1933   2.580   3.542   9.095 -0.2468 -0.0382  0.9497
  126MPD1    H7 1934   2.415   3.538   9.069 -0.1779  0.1966 -0.7639
  127MPD2     C 1935   4.686   4.007   9.663  0.0183 -0.1097  0.6938
  127MPD2    C1 1936   4.592   4.102   9.683 -0.7369 -0.1639 -0.0807
  127MPD2    C2 1937   4.602   4.222   9.626  0.0711 -0.1343  0.0105
  127MPD2    C3 1938   4.711   4.248   9.538  0.0685  0.3084 -0.1752
  127MPD2    C4 1939   0.084   4.148   9.505  0.6298  0.1563 -0.3841
  127MPD2    C5 1940   0.073   4.037   9.582 -1.0602  0.6456 -0.2496
  127MPD2     H 1941   4.529   4.302   9.638 -2.8802 -2.5672 -1.6587
  127MPD2    H1 1942   0.168   4.156   9.438  1.2364 -2.5093  0.0240
  127MPD2    H2 1943   4.675   3.907   9.705  0.1407 -0.0717  0.8134
  127MPD2    H3 1944   0.144   3.956   9.571 -1.7289 -0.3305  2.7724
  127MPD2     N 1945   4.704   4.370   9.472  0.0451 -0.4650 -0.8447
  127MPD2    H5 1946   4.635   4.437   9.505  1.4785  2.3787 -3.5302
  127MPD2    N1 1947   4.489   4.080   9.775 -0.4309  0.3929  0.5927
  127MPD2    H7 1948   4.497   4.002   9.839  0.8149  0.3686  0.4177
  128TCq2    C1 1949   4.370   4.159   9.775  0.1112 -0.0546  0.5935
  128TCq2    O2 1950   4.329   4.233   9.692 -0.0414  0.8357  0.1881
  128TCq2    C2 1951   4.298   4.127   9.899  0.3964 -0.0773  0.2526
  128TCq2    C3 1952   4.376   4.080  10.001  0.6599  0.2198 -0.1211
  128TCq2    C4 1953   4.311   4.000  10.092  0.0198 -0.3633 -0.4312
  128TCq2    C5 1954   4.177   3.963  10.079 -0.5576 -0.8467  0.4625
  128TCq2    C6 1955   4.110   4.016   9.978  0.0881  0.5687 -0.1646
  128TCq2    C7 1956   4.170   4.102   9.888  0.0166  0.3745  0.3099
  128TCq2    C8 1957   3.986   3.967   9.949 -0.6019 -0.0591  0.2999
  128TCq2    O4 1958   3.918   4.048   9.895  0.3632  0.1579 -0.3418
  128TCq2    C9 1959   4.386   3.942  10.198 -1.0016 -0.5142  0.1650
  128TCq2    O5 1960   4.514   3.952  10.204  0.7863 -0.1753  0.3196
  128TCq2    O6 1961   4.328   3.871  10.285  0.1545 -0.1206 -0.4745
  128TCq2    H2 1962   4.484   4.080  10.009  0.6030 -1.6578  0.6208
  128TCq2    H3 1963   4.141   3.891  10.153 -1.8660  0.0623  0.7139
  128TCq2    H4 1964   4.109   4.139   9.805  0.2384 -2.5812 -1.1699
  129MPD2     C 1965   2.630   0.164   0.900  0.0608  0.0065 -1.1765
  129MPD2    C1 1966   2.745   0.188   0.969  0.4792 -0.5933  0.1364
  129MPD2    C2 1967   2.858   0.219   0.898 -0.3674 -0.9118 -0.2825
  129MPD2    C3 1968   2.874   0.216   0.761 -0.3030 -0.4893  0.3485
  129MPD2    C4 1969   2.764   0.180   0.688  0.0601 -0.3883 -0.0072
  129MPD2    C5 1970   2.644   0.153   0.761 -0.7668  1.3722  0.3073
  129MPD2     H 1971   2.941   0.256   0.958 -1.1254  1.8272 -0.9176
  129MPD2    H1 1972   2.759   0.178   0.579 -3.6565 -1.1531  0.1516
  129MPD2    H2 1973   2.527   0.166   0.935  0.4084  0.3725 -0.2009
  129MPD2    H3 1974   2.550   0.148   0.707 -0.4942 -2.6105  0.2036
  129MPD2     N 1975   2.991   0.266   0.697  0.3278 -0.2443 -0.3718
  129MPD2    H5 1976   3.055   0.312   0.761  0.8477 -0.5667 -0.6576
  129MPD2    N1 1977   2.746   0.207   1.105 -0.1221  0.0555  0.3620
  129MPD2    H7 1978   2.830   0.251   1.142 -0.0938 -0.3482  0.7777
  130TCq2    C1 1979   2.647   0.169   1.188 -0.9408 -0.2805  0.3176
  130TCq2    O2 1980   2.554   0.089   1.175 -0.3835 -0.2421 -0.2315
  130TCq2    C2 1981   2.699   0.184   1.326 -0.1188  0.3081  0.5495
  130TCq2    C3 1982   2.707   0.312   1.377  0.5025  0.3644  0.1500
  130TCq2    C4 1983   2.678   0.324   1.513  0.2506 -0.3041  0.4175
  130TCq2    C5 1984   2.653   0.219   1.600  0.0394  0.4140 -0.4712
  130TCq2    C6 1985   2.644   0.095   1.540  0.4205  0.1433 -0.7421
  130TCq2    C7 1986   2.674   0.079   1.409 -0.0251  0.2400 -0.1307
  130TCq2    C8 1987   2.653   4.705   1.632  0.7003 -0.6155 -0.1688
  130TCq2    O4 1988   2.582   4.706   1.734  0.3013 -0.0709  0.4801
  130TCq2    C9 1989   2.671   0.455   1.563  0.4886  0.0335  0.3100
  130TCq2    O5 1990   2.632   0.464   1.684 -0.4589  0.1416  0.6314
  130TCq2    O6 1991   2.644   0.536   1.477  0.2858  0.1261 -0.4089
  130TCq2    H2 1992   2.714   0.400   1.314 -0.2059  2.0024  2.3703
  130TCq2    H3 1993   2.629   0.236   1.704  0.4500  0.1224 -0.3267
  130TCq2    H4 1994   2.658   4.702   1.365 -2.0884  0.8096 -0.6400
  131MPD2     C 1995   0.928   3.995   9.192  0.1035 -0.3850  0.1510
  131MPD2    C1 1996   1.034   3.917   9.218 -0.1460 -0.4219  1.4679
  131MPD2    C2 1997   1.020   3.779   9.249  0.5581 -0.5507 -0.1802
  131MPD2    C3 1998   0.892   3.731   9.262  0.0868 -0.5484 -0.7827
  131MPD2    C4 1999   0.789   3.820   9.256  0.6532 -0.4277 -0.0858
  131MPD2    C5 2000   0.805   3.950   9.223  0.3816 -0.1063  0.5823
  131MPD2     H 2001   1.103   3.712   9.269  2.2435  1.7701  0.6553
  131MPD2    H1 2002   0.689   3.781   9.273 -0.2373  1.5718 -0.7958
  131MPD2    H2 2003   0.939   4.096   9.156 -1.5051 -0.6060 -0.9434
  131MPD2    H3 2004   0.717   4.013   9.213  0.4681  0.1208  1.3140
  131MPD2     N 2005   0.877   3.598   9.300  0.5527  0.4936 -0.0761
  131MPD2    H5 2006   0.961   3.545   9.322  0.7804  0.1647 -1.8117
  131MPD2    N1 2007   1.160   3.975   9.214  0.2356  0.2279  0.5621
  131MPD2    H7 2008   1.159   4.076   9.200  1.9252  0.3196  1.2021
  132TCq2    C1 2009   1.760   3.974   9.217 -0.6406  0.1594  0.4394
  132TCq2    O2 2010   1.751   3.851   9.229 -0.2623  0.6510  0.6754
  132TCq2    C2 2011   1.631   4.043   9.204  0.2937  0.2649 -0.2811
  132TCq2    C3 2012   1.611   4.159   9.136 -0.3560 -0.6327 -0.0405
  132TCq2    C4 2013   1.486   4.208   9.117 -0.0035  0.0775 -0.1628
  132TCq2    C5 2014   1.381   4.135   9.163 -0.0687  0.2609  0.3967
  132TCq2    C6 2015   1.400   4.016   9.234 -0.2819  0.3995 -0.3455
  132TCq2    C7 2016   1.524   3.961   9.252  0.3861 -0.3671 -0.5564
  132TCq2    C8 2017   1.286   3.922   9.249  0.4450 -0.2333  0.1609
  132TCq2    O4 2018   1.311   3.807   9.278 -0.0636  0.5332  0.3541
  132TCq2    C9 2019   1.473   4.326   9.037  0.0774  0.4853  0.0195
  132TCq2    O5 2020   1.576   4.392   9.016  0.3952 -0.0314  0.4306
  132TCq2    O6 2021   1.358   4.366   9.001  0.2722  0.2617  0.7089
  132TCq2    H2 2022   1.688   4.199   9.072  0.6163 -1.5529  0.5535
  132TCq2    H3 2023   1.285   4.174   9.131 -0.4179 -0.4615  0.5589
  132TCq2    H4 2024   1.542   3.863   9.294 -0.5309 -0.3929 -0.2166
  133MPD2     C 2025   0.705   3.298   9.898  0.0959  0.4393  0.0537
  133MPD2    C1 2026   0.657   3.368   9.791  0.4030 -0.4772 -0.1060
  133MPD2    C2 2027   0.733   3.473   9.738  0.4318  0.0566 -0.3568
  133MPD2    C3 2028   0.859   3.502   9.781  0.8138  0.3129  0.1852
  133MPD2    C4 2029   0.906   3.423   9.884 -0.5290  0.2753  0.6128
  133MPD2    C5 2030   0.827   3.331   9.940  1.1441  0.4165  0.4340
  133MPD2     H 2031   0.699   3.531   9.653 -1.0966  0.0520  0.2521
  133MPD2    H1 2032   1.008   3.435   9.920 -0.5561 -1.5032  1.2645
  133MPD2    H2 2033   0.651   3.221   9.952 -1.6938  2.5019  1.2175
  133MPD2    H3 2034   0.858   3.278  10.029  1.7198  0.1376  0.0656
  133MPD2     N 2035   0.944   3.603   9.720 -0.2272  0.1420  0.0106
  133MPD2    H5 2036   1.039   3.615   9.756 -0.3356  2.4213 -0.4371
  133MPD2    N1 2037   0.524   3.334   9.760 -0.0336 -0.4449 -0.2521
  133MPD2    H7 2038   0.479   3.264   9.818  0.2961 -0.3054  0.1729
  134TCq2    C1 2039   0.458   3.373   9.646 -0.8686 -0.0853 -0.3369
  134TCq2    O2 2040   0.494   3.448   9.560 -0.6684  0.2503  0.0724
  134TCq2    C2 2041   0.327   3.317   9.631 -0.0201  0.5423  0.7494
  134TCq2    C3 2042   0.276   3.319   9.507  0.2559  0.4496 -0.5983
  134TCq2    C4 2043   0.160   3.255   9.479 -0.0425  0.4221  0.2561
  134TCq2    C5 2044   0.083   3.203   9.581 -0.7725 -0.3048  0.2014
  134TCq2    C6 2045   0.133   3.203   9.703 -0.4361 -0.4291  0.3818
  134TCq2    C7 2046   0.251   3.260   9.730  0.4046 -0.4641 -0.6383
  134TCq2    C8 2047   0.085   3.112   9.802 -0.1381 -0.5222 -0.0801
  134TCq2    O4 2048   0.115   3.142   9.918 -0.5648  0.3012 -0.4353
  134TCq2    C9 2049   0.112   3.257   9.343 -0.6283 -0.9355  0.1121
  134TCq2    O5 2050   0.157   3.342   9.259  0.7160  0.4895  0.5794
  134TCq2    O6 2051   0.011   3.181   9.326  0.3273 -0.0596 -0.4451
  134TCq2    H2 2052   0.326   3.380   9.432  3.4154 -2.3580 -0.7781
  134TCq2    H3 2053   4.703   3.171   9.559 -0.8581  0.1028 -0.0007
  134TCq2    H4 2054   0.295   3.256   9.829  0.3980  2.1601 -0.5165
  135MPD2     C 2055   4.317   0.592   9.850 -0.9512  0.1395 -0.1017
  135MPD2    C1 2056   4.241   0.669   9.756  0.4431  0.6017 -0.1083
  135MPD2    C2 2057   4.272   0.653   9.625  0.1994  0.0916  0.2918
  135MPD2    C3 2058   4.371   0.565   9.579  0.0833  0.0628 -0.2045
  135MPD2    C4 2059   4.437   0.491   9.670 -0.0576 -0.2836  0.3909
  135MPD2    C5 2060   4.405   0.505   9.803  0.6507  0.4370  0.1676
  135MPD2     H 2061   4.205   0.701   9.554 -0.9351 -0.0962  1.2203
  135MPD2    H1 2062   4.505   0.414   9.636 -1.7323 -1.3590 -0.5266
  135MPD2    H2 2063   4.301   0.600   9.957 -1.9724 -0.6453 -0.1918
  135MPD2    H3 2064   4.448   0.439   9.878 -1.0050  1.2256  1.7851
  135MPD2     N 2065   4.406   0.546   9.442  1.0053 -0.7772 -0.4456
  135MPD2    H5 2066   4.484   0.483   9.426 -0.2290 -2.7461  1.2359
  135MPD2    N1 2067   4.138   0.756   9.802  0.1171  0.4885  0.0777
  135MPD2    H7 2068   4.077   0.800   9.733  2.0247  1.7437 -0.8258
  136TCq2    C1 2069   4.102   0.773   9.937  0.0945 -0.5103  0.3696
  136TCq2    O2 2070   4.139   0.720  10.045  0.3667 -0.4285 -0.0989
  136TCq2    C2 2071   4.000   0.875   9.961 -0.8615  0.3944 -0.6766
  136TCq2    C3 2072   3.990   0.962   9.858 -1.3429  1.1670 -0.2460
  136TCq2    C4 2073   3.875   1.030   9.847  0.5972  0.6376  0.5620
  136TCq2    C5 2074   3.768   1.002   9.930 -0.3224 -0.1073 -0.3614
  136TCq2    C6 2075   3.787   0.906  10.031  0.0436 -0.4339  0.2621
  136TCq2    C7 2076   3.910   0.854  10.058 -0.2058 -0.6465  0.1865
  136TCq2    C8 2077   3.669   0.828  10.082 -0.7453  0.4112 -0.6269
  136TCq2    O4 2078   3.675   0.774  10.192  0.0282  0.2488 -1.0280
  136TCq2    C9 2079   3.859   1.141   9.756  0.3669  0.3176  0.9466
  136TCq2    O5 2080   3.739   1.179   9.726 -0.1661  0.5814  0.0583
  136TCq2    O6 2081   3.966   1.181   9.700  0.6419  0.2502 -0.3838
  136TCq2    H2 2082   4.070   0.992   9.792  0.0555 -1.6245  0.1777
  136TCq2    H3 2083   3.686   1.072   9.920  0.7514  1.1366 -0.3490
  136TCq2    H4 2084   3.920   0.773  10.129  0.1375  0.9347  1.9513
  137MPD2     C 2085   3.972   4.173   8.920  0.2037 -0.3629  0.2899
  137MPD2    C1 2086   3.846   4.197   8.966 -0.4804 -0.1064 -0.4446
  137MPD2    C2 2087   3.827   4.308   9.053 -0.0128  0.3627 -0.3365
  137MPD2    C3 2088   3.936   4.396   9.076 -0.1373  0.0462 -0.2540
  137MPD2    C4 2089   4.053   4.373   9.012  0.2997  0.1165  0.8999
  137MPD2    C5 2090   4.077   4.255   8.949  0.0658 -0.3557  0.2431
  137MPD2     H 2091   3.732   4.342   9.094 -0.8566 -1.4706 -0.7699
  137MPD2    H1 2092   4.135   4.442   9.023  0.0934  0.1434  2.3184
  137MPD2    H2 2093   4.004   4.083   8.869 -0.2586 -0.3290 -0.0525
  137MPD2    H3 2094   4.176   4.229   8.913  0.1885  0.8678 -0.3016
  137MPD2     N 2095   3.913   4.510   9.155 -0.0248 -0.1296  0.7788
  137MPD2    H5 2096   3.818   4.539   9.174  0.3548  0.4253  1.8257
  137MPD2    N1 2097   3.738   4.114   8.927 -0.2031 -0.7701 -0.0634
  137MPD2    H7 2098   3.748   4.036   8.863 -1.1921 -0.0358 -1.1031
  138TCq2    C1 2099   3.617   4.115   8.990 -0.6912  0.3459 -0.7642
  138TCq2    O2 2100   3.580   4.180   9.088 -0.0952 -0.3078 -0.1211
  138TCq2    C2 2101   3.515   4.031   8.923  0.0378 -0.1751  0.0661
  138TCq2    C3 2102   3.561   3.946   8.823  0.5585  0.3591 -0.2995
  138TCq2    C4 2103   3.494   3.830   8.808  0.0812 -0.1065  0.5884
  138TCq2    C5 2104   3.391   3.791   8.889 -0.4828  0.4293 -0.4329
  138TCq2    C6 2105   3.357   3.874   8.993 -0.6702 -0.6627  0.6041
  138TCq2    C7 2106   3.416   3.999   9.011 -0.4074 -0.5691 -0.1718
  138TCq2    C8 2107   3.238   3.834   9.063  0.8240 -0.1111 -0.4238
  138TCq2    O4 2108   3.210   3.716   9.072 -0.0713 -0.0758 -0.4250
  138TCq2    C9 2109   3.532   3.741   8.698 -0.6962  0.2200 -0.2978
  138TCq2    O5 2110   3.471   3.635   8.677 -0.1157  0.0410 -1.3404
  138TCq2    O6 2111   3.647   3.765   8.663 -0.3867 -0.4126 -0.6999
  138TCq2    H2 2112   3.635   3.968   8.747  0.3681  1.4442 -0.1726
  138TCq2    H3 2113   3.327   3.707   8.863 -1.1689  1.1943 -1.2433
  138TCq2    H4 2114   3.388   4.064   9.093  0.8800  0.2641 -0.3867
  139TMC2    C1 2115   4.581   2.820  13.248 -0.3677 -0.3141  0.3488
  139TMC2    C2 2116   4.524   2.817  13.123  0.0003 -0.2225  0.0988
  139TMC2    C3 2117   4.403   2.878  13.122 -0.0153  0.4893  0.2304
  139TMC2    C4 2118   4.522   2.875  13.359  0.8267 -0.4844 -0.3420
  139TMC2    C5 2119   4.408   2.951  13.337 -0.2869 -0.5152 -0.5959
  139TMC2    C6 2120   4.345   2.958  13.221 -0.0881 -0.0835  0.4309
  139TMC2     C 2121   4.690   2.726  13.252  0.3723  0.1530 -0.6605
  139TMC2     O 2122   0.034   2.711  13.147  0.0024  0.0087  0.6279
  139TMC2     H 2123   4.566   2.769  13.035 -1.0650  0.1501 -0.6140
  139TMC2    H1 2124   4.567   2.866  13.457  0.3174 -1.5467 -0.2001
  139TMC2    H2 2125   4.277   3.041  13.199 -2.9910 -2.1976  1.3956
  139TMC2    C7 2126   4.361   3.036  13.438 -0.0890 -0.1675  0.0851
  139TMC2    C8 2127   4.347   2.895  12.989  0.1182 -0.8149  0.6185
  139TMC2    O1 2128   4.243   3.065  13.431  0.0283  0.4090  0.1392
  139TMC2    O2 2129   4.398   2.859  12.882  0.1147 -0.9081  0.6368
  139TMC2    O5 2130   4.217   2.923  13.007  0.5614 -0.0144 -0.3420
  139TMC2    H5 2131   4.191   2.916  13.102  0.7900 -0.5119 -0.3146
  140MPD2     C 2132   0.024   2.495  13.509 -0.0194 -0.2479 -0.8255
  140MPD2    C1 2133   0.057   2.570  13.396  0.0505  0.0832 -0.2082
  140MPD2    C2 2134   0.159   2.521  13.312  0.5124 -0.1132  0.3294
  140MPD2    C3 2135   0.227   2.402  13.346 -1.0795 -0.1723 -0.6436
  140MPD2    C4 2136   0.195   2.338  13.461 -0.2213  0.4040  0.6215
  140MPD2    C5 2137   0.100   2.380  13.539  0.8270 -0.2442 -0.7773
  140MPD2     H 2138   0.188   2.572  13.221  3.3059 -0.2384  1.1508
  140MPD2    H1 2139   0.253   2.257  13.504  0.3824  0.4907 -0.0339
  140MPD2    H2 2140   4.667   2.529  13.576  2.2500 -0.5773  1.9514
  140MPD2    H3 2141   0.082   2.336  13.637  2.9767  0.9535  0.1490
  140MPD2     N 2142   0.319   2.352  13.251  0.4850  0.0515  0.1142
  140MPD2    H5 2143   0.335   2.404  13.166 -1.7699  0.8681  0.1927
  140MPD2    N1 2144   4.702   2.679  13.374  0.1716  0.9757 -0.0205
  140MPD2    H7 2145   4.639   2.710  13.448 -0.2218 -1.5343  0.7157
  141TCq2    C1 2146   0.204   4.011  13.774 -0.3382 -0.2126 -0.0472
  141TCq2    O2 2147   0.227   3.895  13.753  0.2385  0.5033 -0.3353
  141TCq2    C2 2148   0.283   4.074  13.874 -0.5673  0.9747  0.3638
  141TCq2    C3 2149   0.361   3.990  13.941 -0.3377  0.6307 -0.4914
  141TCq2    C4 2150   0.441   4.040  14.034 -0.2988 -0.5122  0.2075
  141TCq2    C5 2151   0.447   4.174  14.064 -0.2464 -0.6972 -0.6185
  141TCq2    C6 2152   0.362   4.256  13.992 -0.4763 -0.3328  0.4480
  141TCq2    C7 2153   0.282   4.208  13.892  0.2436 -0.1536 -0.2843
  141TCq2    C8 2154   0.361   4.394  14.024 -0.4469  0.6413 -0.8844
  141TCq2    O4 2155   0.344   4.467  13.925 -0.0036 -0.1750  0.8717
  141TCq2    C9 2156   0.538   3.947  14.095 -0.5621  0.4037 -0.7548
  141TCq2    O5 2157   0.541   3.826  14.062  0.0833  0.6205  0.5309
  141TCq2    O6 2158   0.631   4.005  14.161 -0.4081 -0.4252  0.2882
  141TCq2    H2 2159   0.358   3.882  13.931  1.3149  0.6528 -1.3507
  141TCq2    H3 2160   0.523   4.211  14.132  1.7333 -3.0393 -1.5591
  141TCq2    H4 2161   0.228   4.276  13.828  0.5211  0.9796  0.6717
  142MPD2     C 2162   2.600   1.964  10.494 -0.2347  0.8171 -0.2913
  142MPD2    C1 2163   2.523   2.000  10.388  1.0508 -0.7826 -0.6376
  142MPD2    C2 2164   2.535   2.123  10.329 -0.5162  0.4997  0.0010
  142MPD2    C3 2165   2.633   2.213  10.381 -0.1569  0.0590 -0.3876
  142MPD2    C4 2166   2.707   2.182  10.490  0.1171 -0.0183 -0.0233
  142MPD2    C5 2167   2.689   2.053  10.544 -0.1738 -0.2530 -0.5032
  142MPD2     H 2168   2.477   2.149  10.241 -1.4108 -1.5188  0.0162
  142MPD2    H1 2169   2.773   2.256  10.534  1.4251 -1.6723  0.8093
  142MPD2    H2 2170   2.588   1.866  10.541  4.1620 -0.2312 -1.3202
  142MPD2    H3 2171   2.761   2.028  10.621 -2.3562 -2.1185  0.9100
  142MPD2     N 2172   2.657   2.336  10.321 -0.0050  0.0724  0.8650
  142MPD2    H5 2173   2.741   2.383  10.355  0.1076  0.8032 -0.3887
  142MPD2    N1 2174   2.431   1.906  10.338  0.3248  0.5160 -0.2939
  142MPD2    H7 2175   2.421   1.832  10.406  3.2017  0.5823  0.1805
  143TCq2    C1 2176   2.591   2.385  10.205 -0.2827 -0.0524 -0.1935
  143TCq2    O2 2177   2.488   2.353  10.154 -0.2763  0.3069 -0.4858
  143TCq2    C2 2178   2.647   2.511  10.162  0.6030 -0.2718 -0.1083
  143TCq2    C3 2179   2.782   2.534  10.171  0.0400 -0.2528  0.2864
  143TCq2    C4 2180   2.827   2.640  10.098 -0.4224 -0.1448 -0.3387
  143TCq2    C5 2181   2.741   2.727  10.035  0.6172 -0.2558  0.0592
  143TCq2    C6 2182   2.609   2.700  10.029  0.3203 -0.4997  0.6515
  143TCq2    C7 2183   2.563   2.592  10.090 -0.2244 -0.6588 -0.3663
  143TCq2    C8 2184   2.515   2.800   9.984 -0.2949 -0.2497  0.5421
  143TCq2    O4 2185   2.398   2.763   9.968 -0.7207 -0.3004 -0.1912
  143TCq2    C9 2186   2.968   2.667  10.092  0.1450  0.0378 -0.1419
  143TCq2    O5 2187   2.997   2.786  10.072 -0.3312 -0.0007 -0.0115
  143TCq2    O6 2188   3.042   2.581  10.139 -0.1022  0.1130  0.5051
  143TCq2    H2 2189   2.849   2.466  10.223  1.5410  1.1163  0.1362
  143TCq2    H3 2190   2.786   2.795   9.963  0.2611 -0.7664 -0.6485
  143TCq2    H4 2191   2.461   2.558  10.076 -0.3241 -1.1980  1.7478
  144MPD2     C 2192   0.646   1.893   0.708 -0.7863  0.2645 -0.7133
  144MPD2    C1 2193   0.688   1.794   0.623  0.2268 -0.0961  0.0133
  144MPD2    C2 2194   0.821   1.762   0.606 -0.4823  0.2174 -0.6310
  144MPD2    C3 2195   0.916   1.837   0.672 -1.0961  0.3304 -0.7910
  144MPD2    C4 2196   0.876   1.945   0.750  0.0929 -0.5228 -0.0961
  144MPD2    C5 2197   0.745   1.968   0.765 -0.4526 -0.0557  0.4371
  144MPD2     H 2198   0.848   1.675   0.548 -0.3717  0.6300 -1.1996
  144MPD2    H1 2199   0.949   2.008   0.800  0.2743 -0.8216  0.0119
  144MPD2    H2 2200   0.541   1.917   0.723 -0.7986 -0.3540  0.1855
  144MPD2    H3 2201   0.718   2.050   0.830 -1.8938 -0.2373  0.0765
  144MPD2     N 2202   1.056   1.819   0.643 -0.7304  0.1590 -0.1973
  144MPD2    H5 2203   1.118   1.894   0.672 -1.4347  0.3584  0.7876
  144MPD2    N1 2204   0.605   1.714   0.544  0.4769  0.2216 -0.3162
  144MPD2    H7 2205   0.650   1.635   0.499 -0.2607  0.3746 -1.3253
  145TCq2    C1 2206   1.111   1.702   0.597 -0.8237 -0.0798  0.1786
  145TCq2    O2 2207   1.053   1.603   0.557  0.0638  0.4853 -0.0934
  145TCq2    C2 2208   1.254   1.708   0.598 -0.4918 -0.0764  0.0225
  145TCq2    C3 2209   1.311   1.647   0.494 -0.0044  0.6828 -0.0392
  145TCq2    C4 2210   1.440   1.689   0.465  0.8378 -0.2121 -0.3212
  145TCq2    C5 2211   1.509   1.780   0.545 -0.3823  0.4592 -0.5797
  145TCq2    C6 2212   1.438   1.836   0.653  0.3091  0.8647  0.5406
  145TCq2    C7 2213   1.312   1.792   0.686  0.2139  0.0136 -0.3769
  145TCq2    C8 2214   1.522   1.910   0.748 -0.3991 -0.7273  0.4197
  145TCq2    O4 2215   1.639   1.906   0.731  1.1277  0.3742 -0.0816
  145TCq2    C9 2216   1.511   1.623   0.355  0.0401 -0.5364 -0.0131
  145TCq2    O5 2217   1.620   1.676   0.329  0.1880  0.3132  0.7624
  145TCq2    O6 2218   1.460   1.519   0.308 -0.1577  0.5076  0.0226
  145TCq2    H2 2219   1.270   1.562   0.441  0.2973  2.1398 -2.6502
  145TCq2    H3 2220   1.607   1.817   0.517  0.3383 -1.2454 -0.3443
  145TCq2    H4 2221   1.264   1.824   0.777 -0.3523 -0.1337 -0.6251
  146TMC2    C1 2222   2.137   0.023  12.326  0.2293 -0.3898  1.0820
  146TMC2    C2 2223   2.027   0.017  12.248 -0.4263 -0.5665 -0.0122
  146TMC2    C3 2224   2.007   4.639  12.156 -0.4985 -0.4316  0.4134
  146TMC2    C4 2225   2.229   4.644  12.308  0.5953 -0.5904 -0.1066
  146TMC2    C5 2226   2.208   4.552  12.215  0.1184  0.7920  0.2459
  146TMC2    C6 2227   2.101   4.547  12.128  0.4505 -0.1352 -0.0375
  146TMC2     C 2228   2.156   0.142  12.415 -0.2686  0.0416 -0.1927
  146TMC2     O 2229   2.089   0.238  12.387  0.1291 -0.2961  0.1910
  146TMC2     H 2230   1.959   0.097  12.277  0.9358  0.9393 -0.9470
  146TMC2    H1 2231   2.319   4.650  12.368  0.9153  1.0072 -0.7380
  146TMC2    H2 2232   2.084   4.465  12.059  1.2239  1.0068 -1.5986
  146TMC2    C7 2233   2.324   4.489  12.148  0.0694 -0.7857 -0.2029
  146TMC2    C8 2234   1.899   4.661  12.061  0.5083  0.0217  0.7933
  146TMC2    O1 2235   2.305   4.454  12.036  0.0236  0.3646  0.5961
  146TMC2    O2 2236   1.908   4.619  11.944 -0.3969 -0.5365 -0.0057
  146TMC2    O5 2237   1.788   4.683  12.134 -0.4848 -0.2944 -0.7143
  146TMC2    H5 2238   1.811   4.680  12.229 -1.8254 -1.4181 -0.4298
  147MPD2     C 2239   2.843   4.458  12.172 -0.3120 -0.4384  0.4584
  147MPD2    C1 2240   2.786   4.456  12.293  0.0821  0.0183  0.3807
  147MPD2    C2 2241   2.654   4.464  12.307  0.5093  0.3126 -0.0593
  147MPD2    C3 2242   2.572   4.468  12.199  0.6867  0.0014 -0.0368
  147MPD2    C4 2243   2.628   4.474  12.071 -0.9680 -0.4395 -0.5736
  147MPD2    C5 2244   2.762   4.476  12.057  0.0600  0.3480  0.1801
  147MPD2     H 2245   2.614   4.455  12.407  0.2623  0.1503 -0.1732
  147MPD2    H1 2246   2.561   4.484  11.986 -0.6143  2.4088 -0.5203
  147MPD2    H2 2247   2.951   4.466  12.164  0.1420 -3.5691  3.2903
  147MPD2    H3 2248   2.808   4.484  11.959 -2.5846  1.6556 -0.9740
  147MPD2     N 2249   2.433   4.493  12.230  0.1592 -0.8686 -0.2361
  147MPD2    H5 2250   2.413   4.504  12.329 -2.0344 -1.2148 -0.6330
  147MPD2    N1 2251   2.882   4.469  12.404  0.3077 -0.2953 -0.3702
  147MPD2    H7 2252   2.981   4.473  12.384  0.6169 -0.3612  1.1937
  148MPD2     C 2253   2.651   2.863  11.099  0.2044  0.5744  0.2930
  148MPD2    C1 2254   2.673   2.946  10.992  0.0567 -0.5241  0.8810
  148MPD2    C2 2255   2.566   2.981  10.913  0.2893  0.0831 -0.8569
  148MPD2    C3 2256   2.439   2.919  10.930  1.1166 -0.0065  0.8440
  148MPD2    C4 2257   2.422   2.829  11.028  0.1936  0.2620  0.5207
  148MPD2    C5 2258   2.528   2.801  11.113  0.4465  0.0943  0.4017
  148MPD2     H 2259   2.577   3.045  10.826  1.0694 -0.5391 -1.2104
  148MPD2    H1 2260   2.320   2.794  11.037  0.6679 -1.6950 -1.6800
  148MPD2    H2 2261   2.731   2.847  11.170  0.1186  0.7622  0.4339
  148MPD2    H3 2262   2.506   2.731  11.193 -3.0920 -0.1389 -0.7738
  148MPD2     N 2263   2.329   2.949  10.843 -0.4842  0.9193  0.3042
  148MPD2    H5 2264   2.246   2.896  10.868 -1.7960  3.1391  0.5637
  148MPD2    N1 2265   2.802   3.006  10.968  0.2869  0.1803  0.2189
  148MPD2    H7 2266   2.867   3.029  11.042  0.1383  2.4505 -0.3548
  149TCq2    C1 2267   2.843   3.034  10.842 -0.2091 -0.3692 -0.7187
  149TCq2    O2 2268   2.784   3.007  10.739  0.0635 -0.2268  0.3303
  149TCq2    C2 2269   2.973   3.096  10.828 -0.2565 -0.1192 -0.1180
  149TCq2    C3 2270   3.005   3.181  10.927  0.2698 -0.0184  0.0542
  149TCq2    C4 2271   3.047   3.303  10.892  0.3056 -0.5137 -0.3523
  149TCq2    C5 2272   3.052   3.343  10.758 -0.3685 -0.1230 -0.3084
  149TCq2    C6 2273   3.024   3.254  10.661  0.1624  0.6440  0.0700
  149TCq2    C7 2274   2.992   3.124  10.691 -0.0102  0.3095 -0.6791
  149TCq2    C8 2275   2.981   3.297  10.528  0.3275  0.2650  0.2654
  149TCq2    O4 2276   2.955   3.216  10.442 -0.2694  0.0282  0.2813
  149TCq2    C9 2277   3.037   3.413  10.993 -0.2585  0.2394 -0.0150
  149TCq2    O5 2278   3.070   3.532  10.954  0.3088 -0.0146 -0.0059
  149TCq2    O6 2279   3.012   3.387  11.111 -0.2338 -0.5283  0.0019
  149TCq2    H2 2280   2.986   3.166  11.033 -1.5728 -1.6346 -0.5043
  149TCq2    H3 2281   3.067   3.447  10.731  0.0019 -0.1373 -0.1696
  149TCq2    H4 2282   2.950   3.061  10.613  1.9565 -0.9224 -0.7366
  150MPD2     C 2283   3.827   2.901  12.190 -0.0947 -0.1675 -0.1148
  150MPD2    C1 2284   3.922   2.870  12.098 -0.3824  0.2163 -0.1553
  150MPD2    C2 2285   4.052   2.920  12.111  0.0148  0.4219 -0.7542
  150MPD2    C3 2286   4.084   2.999  12.217 -0.2785  0.3459 -0.1545
  150MPD2    C4 2287   3.984   3.024  12.310  0.2225  0.2946 -0.7946
  150MPD2    C5 2288   3.859   2.973  12.300 -0.6217 -0.2040  0.5745
  150MPD2     H 2289   4.128   2.897  12.038 -1.3954 -0.4610 -1.9486
  150MPD2    H1 2290   4.006   3.081  12.399  1.5904 -1.4989  0.0097
  150MPD2    H2 2291   3.724   2.868  12.185 -0.0985 -0.3920  1.4794
  150MPD2    H3 2292   3.786   2.990  12.378 -0.4263 -1.8036  1.1105
  150MPD2     N 2293   4.192   3.082  12.240  0.7460 -0.2067 -0.1459
  150MPD2    H5 2294   4.177   3.153  12.311 -0.6169  0.6737 -1.3115
  150MPD2    N1 2295   3.872   2.792  11.986 -0.6447  0.5787  0.1614
  150MPD2    H7 2296   3.771   2.785  11.983 -0.5569 -0.1197 -1.3671
  151TCq2    C1 2297   4.304   3.079  12.169 -0.4701 -0.2622  0.3514
  151TCq2    O2 2298   4.330   3.011  12.071 -0.6737 -0.2656  0.5726
  151TCq2    C2 2299   4.383   3.195  12.191 -0.0854  0.2338  1.0322
  151TCq2    C3 2300   4.319   3.314  12.198  0.2700  0.0188 -0.0502
  151TCq2    C4 2301   4.397   3.424  12.174 -0.7361  0.2420  0.7810
  151TCq2    C5 2302   4.536   3.406  12.172 -0.0205  0.7608  0.4004
  151TCq2    C6 2303   4.593   3.280  12.158 -0.3049  0.4526  0.1864
  151TCq2    C7 2304   4.517   3.169  12.173 -0.5824 -0.0230  1.2042
  151TCq2    C8 2305   0.017   3.269  12.168  0.6199 -0.6255 -0.4633
  151TCq2    O4 2306   0.081   3.363  12.126  0.1546 -0.1483 -0.3804
  151TCq2    C9 2307   4.336   3.553  12.201 -0.6090 -0.2291 -0.6271
  151TCq2    O5 2308   4.218   3.558  12.249 -0.1647 -0.2994  0.4639
  151TCq2    O6 2309   4.408   3.652  12.178  1.1007 -0.0015  0.0877
  151TCq2    H2 2310   4.214   3.336  12.213  0.1978  0.6949 -1.6399
  151TCq2    H3 2311   4.603   3.492  12.170 -0.5346  1.1156 -1.8774
  151TCq2    H4 2312   4.547   3.065  12.164  1.1309  0.5289  0.6741
  152MPD2     C 2313   3.598   2.384  12.722  0.4405  0.4386 -0.3239
  152MPD2    C1 2314   3.634   2.493  12.646  0.5875 -0.1070  0.3761
  152MPD2    C2 2315   3.540   2.553  12.562  0.7558 -0.1847 -0.2611
  152MPD2    C3 2316   3.408   2.524  12.576 -0.7922  0.3431 -0.1464
  152MPD2    C4 2317   3.372   2.419  12.655 -0.3515  0.1591  0.5487
  152MPD2    C5 2318   3.464   2.344  12.720 -0.3104 -0.0446  0.5596
  152MPD2     H 2319   3.568   2.632  12.493 -0.3930 -0.4342 -1.0123
  152MPD2    H1 2320   3.268   2.390  12.668 -0.4643 -0.1404 -1.0790
  152MPD2    H2 2321   3.669   2.330  12.784 -1.0970 -0.3399  0.7510
  152MPD2    H3 2322   3.425   2.262  12.780  0.1761 -0.7259 -0.0492
  152MPD2     N 2323   3.320   2.603  12.499  0.2271 -0.5262  0.0973
  152MPD2    H5 2324   3.354   2.664  12.425 -0.5061 -0.0452  0.1581
  152MPD2    N1 2325   3.774   2.537  12.660 -0.5390  0.4426 -0.2560
  152MPD2    H7 2326   3.821   2.471  12.720  0.5399  2.5980  1.2446
  153TCq2    C1 2327   3.837   2.641  12.602 -0.9283 -0.4787 -0.4261
  153TCq2    O2 2328   3.792   2.740  12.546  0.1135  0.4930 -0.1593
  153TCq2    C2 2329   3.978   2.659  12.639  0.0133 -0.5331  0.3424
  153TCq2    C3 2330   4.065   2.556  12.605 -1.3525  0.6019  0.0694
  153TCq2    C4 2331   4.193   2.581  12.620 -0.0579 -0.1540  0.9753
  153TCq2    C5 2332   4.237   2.711  12.631 -0.2312 -0.0115  0.6721
  153TCq2    C6 2333   4.145   2.810  12.642  0.3075 -0.1876 -0.1612
  153TCq2    C7 2334   4.012   2.792  12.658  0.4201 -0.4689  0.1939
  153TCq2    C8 2335   4.187   2.946  12.608 -0.5913  0.0669 -0.4822
  153TCq2    O4 2336   4.098   3.032  12.615 -0.0320  0.4571 -0.5836
  153TCq2    C9 2337   4.292   2.479  12.600  0.6592 -0.1266 -0.2316
  153TCq2    O5 2338   4.259   2.361  12.568  0.5551 -0.2248 -0.0991
  153TCq2    O6 2339   4.414   2.510  12.617 -0.6436  0.3854 -0.4039
  153TCq2    H2 2340   4.024   2.457  12.589 -3.7951  1.8307 -1.2104
  153TCq2    H3 2341   4.342   2.718  12.607 -0.4841  1.2469 -0.0325
  153TCq2    H4 2342   3.943   2.874  12.672  1.0442 -0.2189  1.7678
  154MPD2     C 2343   1.864   3.154   0.531  0.0559  0.2217 -0.0790
  154MPD2    C1 2344   1.799   3.181   0.409 -0.2626  0.3085 -0.4157
  154MPD2    C2 2345   1.658   3.194   0.414  0.8031  0.2791 -0.3225
  154MPD2    C3 2346   1.577   3.176   0.529 -0.0554  0.8774 -0.0589
  154MPD2    C4 2347   1.648   3.160   0.647 -0.3967 -0.1856 -0.5554
  154MPD2    C5 2348   1.788   3.151   0.644  0.0232 -0.5468 -0.8260
  154MPD2     H 2349   1.604   3.224   0.325  0.7850 -1.1490 -0.7837
  154MPD2    H1 2350   1.591   3.167   0.739 -0.8257  1.2940 -0.9454
  154MPD2    H2 2351   1.972   3.141   0.537  0.1931  1.6632  0.6250
  154MPD2    H3 2352   1.847   3.137   0.734 -0.3770 -0.1073 -0.4996
  154MPD2     N 2353   1.436   3.179   0.532 -0.2221 -0.1370 -0.8720
  154MPD2    H5 2354   1.394   3.232   0.456  0.7266  0.2882 -1.1065
  154MPD2    N1 2355   1.876   3.163   0.290  0.3139 -0.2938  0.0182
  154MPD2    H7 2356   1.976   3.143   0.298  0.4895  1.0213  1.0596
  155TCq2    C1 2357   1.825   3.167   0.162  0.3296 -0.4231 -0.0099
  155TCq2    O2 2358   1.714   3.204   0.126  0.6275  0.0356 -0.7823
  155TCq2    C2 2359   1.911   3.105   0.066 -0.0519 -0.0835  0.4137
  155TCq2    C3 2360   2.023   3.042   0.106  0.4513 -0.1029  0.2506
  155TCq2    C4 2361   2.095   2.974   0.013  0.2634  0.0341 -0.0868
  155TCq2    C5 2362   2.059   2.963  17.566 -0.1964 -0.5670 -0.4258
  155TCq2    C6 2363   1.935   3.023  17.532 -0.7065  0.6416  0.5320
  155TCq2    C7 2364   1.869   3.103  17.621  0.5564  0.1592  0.0408
  155TCq2    C8 2365   1.878   3.008  17.395 -0.0611 -0.0265  0.0317
  155TCq2    O4 2366   1.797   3.095  17.362 -0.0224  1.0991 -0.0276
  155TCq2    C9 2367   2.199   2.881   0.052 -0.0771  0.9572  0.4991
  155TCq2    O5 2368   2.225   2.777  17.664  0.3344 -0.5043  0.3212
  155TCq2    O6 2369   2.256   2.904   0.164 -0.5718 -0.0951 -0.0509
  155TCq2    H2 2370   2.055   3.032   0.209 -3.3877 -1.5806  1.2798
  155TCq2    H3 2371   2.119   2.907  17.495  0.2519  0.4392 -0.8432
  155TCq2    H4 2372   1.778   3.156  17.595  1.3613  0.6028 -1.9083
  156MPD2     C 2373   4.417   0.203  12.042 -0.2966 -0.2132 -0.1736
  156MPD2    C1 2374   4.293   0.240  11.992  0.2418  0.1433  0.4344
  156MPD2    C2 2375   4.233   0.350  12.041 -0.1627  0.1947 -0.3468
  156MPD2    C3 2376   4.308   0.435  12.121 -0.6693 -0.4982  0.5344
  156MPD2    C4 2377   4.430   0.399  12.167 -0.4487  0.2381 -0.1008
  156MPD2    C5 2378   4.483   0.281  12.131  0.0067 -0.2621 -0.4573
  156MPD2     H 2379   4.140   0.387  12.000  0.8885  2.1290 -0.9815
  156MPD2    H1 2380   4.485   0.459  12.239 -0.6504  0.0098  0.2471
  156MPD2    H2 2381   4.470   0.120  11.996  0.8574 -1.2566  3.0728
  156MPD2    H3 2382   4.587   0.255  12.150  0.2913 -0.0450 -1.6770
  156MPD2     N 2383   4.246   0.555  12.144  0.7981 -0.2402 -0.0155
  156MPD2    H5 2384   4.162   0.565  12.088  0.8075  2.1826  0.3764
  156MPD2    N1 2385   4.249   0.180  11.868 -0.5134  0.0950 -0.2277
  156MPD2    H7 2386   4.323   0.140  11.812  0.6309  0.5632  0.9450
  157TCq2    C1 2387   4.115   0.180  11.821  1.2883  0.1807 -0.1082
  157TCq2    O2 2388   4.017   0.223  11.878 -0.7266  0.4777  0.0975
  157TCq2    C2 2389   4.107   0.152  11.678 -0.5062 -0.0085 -0.3292
  157TCq2    C3 2390   4.205   0.090  11.606 -0.2385  0.2885  0.4692
  157TCq2    C4 2391   4.224   0.117  11.472 -0.4348 -0.6152 -0.4602
  157TCq2    C5 2392   4.134   0.199  11.415 -0.4014 -0.2474 -0.0170
  157TCq2    C6 2393   4.022   0.238  11.482 -0.4016  0.5632 -0.0514
  157TCq2    C7 2394   4.002   0.212  11.616  0.5256 -0.0317 -0.3411
  157TCq2    C8 2395   3.942   0.346  11.416  0.0242 -0.4212  0.7129
  157TCq2    O4 2396   3.983   0.396  11.309  0.0530  0.1271  0.0045
  157TCq2    C9 2397   4.339   0.068  11.399  0.7149  0.0757  0.3308
  157TCq2    O5 2398   4.423   0.000  11.464 -0.4417 -0.3244  0.6258
  157TCq2    O6 2399   4.336   0.073  11.272 -0.5523  0.0798 -0.3000
  157TCq2    H2 2400   4.262   0.005  11.641  3.0147  1.0299 -3.0802
  157TCq2    H3 2401   4.140   0.227  11.311 -1.2214  0.7143  0.1937
  157TCq2    H4 2402   3.924   0.263  11.672 -0.6708 -0.9037 -1.2018
  158TMC2    C1 2403   4.258   4.422  13.558 -0.4584  0.0151  0.0668
  158TMC2    C2 2404   4.275   4.385  13.426  0.0340 -0.1932 -0.5036
  158TMC2    C3 2405   4.183   4.301  13.368 -0.2977 -0.5909 -0.1506
  158TMC2    C4 2406   4.144   4.385  13.625 -0.2027  0.4498 -0.1960
  158TMC2    C5 2407   4.052   4.295  13.562  0.1307 -0.5435  0.0994
  158TMC2    C6 2408   4.075   4.246  13.431 -0.2602 -0.7677 -0.2809
  158TMC2     C 2409   4.367   4.469  13.640  0.3114  0.6186 -0.0125
  158TMC2     O 2410   4.435   4.566  13.604  0.2503 -0.2164 -0.4849
  158TMC2     H 2411   4.358   4.425  13.370 -1.5383  1.5507 -1.5887
  158TMC2    H1 2412   4.133   4.402  13.732  0.6829  1.9886 -0.3449
  158TMC2    H2 2413   4.013   4.167  13.390 -0.4897 -0.3329 -0.7658
  158TMC2    C7 2414   3.953   4.237  13.652 -0.4452 -0.1407  0.3769
  158TMC2    C8 2415   4.206   4.260  13.228 -0.4620 -0.1037 -0.5227
  158TMC2    O1 2416   3.918   4.310  13.746 -0.0415 -0.6138 -0.4357
  158TMC2    O2 2417   4.272   4.319  13.142 -0.6984 -0.0437 -0.8782
  158TMC2    O5 2418   4.180   4.126  13.227  0.5574  0.2138 -0.3935
  158TMC2    H5 2419   4.145   4.089  13.311  0.8171  2.2380  0.5840
  159MPD2     C 2420   4.710   4.328  14.016  0.3751 -0.7571 -0.9624
  159MPD2    C1 2421   4.600   4.244  14.008 -0.2485 -0.2018 -0.5822
  159MPD2    C2 2422   4.498   4.261  13.913 -0.5289  0.6038  0.0796
  159MPD2    C3 2423   4.502   4.366  13.829  0.2757 -0.3814  0.1388
  159MPD2    C4 2424   4.612   4.452  13.828 -0.1336  0.1930 -0.2131
  159MPD2    C5 2425   4.712   4.433  13.926 -0.7190 -0.6572  0.5168
  159MPD2     H 2426   4.408   4.201  13.923  0.7509 -1.1080  1.3201
  159MPD2    H1 2427   4.626   4.523  13.748  2.1361  0.2323  0.2102
  159MPD2    H2 2428   0.068   4.311  14.088 -0.9744  2.4127  1.2507
  159MPD2    H3 2429   0.070   4.507  13.925 -2.2750  0.9706 -1.6616
  159MPD2     N 2430   4.395   4.373  13.737  0.4168 -0.6242 -0.0013
  159MPD2    H5 2431   4.330   4.295  13.738 -0.7050  0.3172  0.4418
  159MPD2    N1 2432   4.577   4.137  14.092  0.5457  0.1668 -0.2563
  159MPD2    H7 2433   4.485   4.096  14.080  1.1977 -1.8462  1.5168
  160TMC2    C1 2434   4.399   2.432   0.691 -0.4261 -0.3879  0.3208
  160TMC2    C2 2435   4.315   2.325   0.697  0.0932 -0.5975  0.6303
  160TMC2    C3 2436   4.369   2.205   0.680 -0.0864  0.0121  0.4854
  160TMC2    C4 2437   4.532   2.420   0.664  0.2642  0.2212 -0.1258
  160TMC2    C5 2438   4.585   2.291   0.649  0.1022  0.2792 -0.4397
  160TMC2    C6 2439   4.499   2.185   0.651  1.1380 -0.5760  0.2579
  160TMC2     C 2440   4.347   2.565   0.682 -0.7683  0.9554  0.3244
  160TMC2     O 2441   4.415   2.655   0.637 -0.1401  0.0563 -0.3602
  160TMC2     H 2442   4.209   2.337   0.715 -0.1214 -1.9582  0.2101
  160TMC2    H1 2443   4.588   2.511   0.645 -0.9777  0.3195 -3.1313
  160TMC2    H2 2444   4.541   2.087   0.630  1.8942 -0.1751 -0.0910
  160TMC2    C7 2445   4.712   2.279   0.590 -0.3004  0.1914  0.0960
  160TMC2    C8 2446   4.293   2.093   0.629 -0.3350  0.5597  0.7845
  160TMC2    O1 2447   4.719   2.186   0.511  0.0756 -0.1121 -0.3338
  160TMC2    O2 2448   4.247   2.009   0.703 -0.0467  0.6714  0.0206
  160TMC2    O5 2449   4.229   2.144   0.521 -0.3851 -0.2123  0.4501
  160TMC2    H5 2450   4.278   2.221   0.485 -0.2708 -0.7695 -0.5845
  161MPD2     C 2451   4.168   2.801   0.659  0.1194  0.4161 -0.0101
  161MPD2    C1 2452   4.138   2.690   0.739  0.3246  0.4654  0.0332
  161MPD2    C2 2453   4.025   2.687   0.812  0.4116 -0.0229 -0.2310
  161MPD2    C3 2454   3.951   2.804   0.831  0.1729 -0.3359  0.0930
  161MPD2    C4 2455   3.985   2.918   0.756 -0.3534  0.8206 -0.3202
  161MPD2    C5 2456   4.089   2.915   0.670 -0.2899 -0.2397  0.5585
  161MPD2     H 2457   4.014   2.602   0.879  0.5496  0.5287  0.4891
  161MPD2    H1 2458   3.922   3.006   0.764 -2.2559 -0.6482  0.8865
  161MPD2    H2 2459   4.252   2.806   0.590  1.0549 -0.5171  1.0706
  161MPD2    H3 2460   4.109   3.005   0.614 -1.4349  1.0276  2.2130
  161MPD2     N 2461   3.845   2.804   0.924 -0.4041 -0.1747  0.0617
  161MPD2    H5 2462   3.836   2.717   0.976  0.4708  0.1277  0.7098
  161MPD2    N1 2463   4.224   2.578   0.743  0.6657 -0.2342 -0.2079
  161MPD2    H7 2464   4.203   2.504   0.809 -1.8623  0.3555 -0.3424
  162TMC2    C1 2465   1.832   4.166   1.004  0.0519  0.0532 -0.5462
  162TMC2    C2 2466   1.696   4.158   0.972  0.6333  0.7442 -0.9168
  162TMC2    C3 2467   1.600   4.217   1.053  0.4270  0.2195 -0.9538
  162TMC2    C4 2468   1.864   4.218   1.128 -0.0586 -0.3923 -0.5066
  162TMC2    C5 2469   1.764   4.289   1.191  0.6850 -0.1747 -0.5633
  162TMC2    C6 2470   1.631   4.289   1.159 -0.3443  0.1441  0.0171
  162TMC2     C 2471   1.924   4.068   0.954  0.2865  0.5426 -0.6117
  162TMC2     O 2472   1.989   3.997   1.033 -0.2232 -0.4650 -0.3770
  162TMC2     H 2473   1.663   4.087   0.897  1.3302  0.2854 -0.7816
  162TMC2    H1 2474   1.965   4.225   1.166 -0.4467 -2.5306  0.9301
  162TMC2    H2 2475   1.550   4.352   1.193 -1.0063  0.0875 -1.4599
  162TMC2    C7 2476   1.792   4.361   1.315 -0.0678 -0.1466  0.3853
  162TMC2    C8 2477   1.462   4.211   1.017  0.6594  0.2870 -0.4803
  162TMC2    O1 2478   1.719   4.452   1.355  0.3321  0.3272 -0.7053
  162TMC2    O2 2479   1.435   4.179   0.902  0.1341 -0.2933  0.7104
  162TMC2    O5 2480   1.413   4.145   1.123 -0.0321  0.1455  0.1983
  162TMC2    H5 2481   1.457   4.161   1.209  2.1627 -0.5584 -0.7957
  163MPD2     C 2482   2.163   3.860   0.541 -0.0611 -0.0241  0.0846
  163MPD2    C1 2483   2.213   3.896   0.671 -0.4890  0.2655  0.3775
  163MPD2    C2 2484   2.128   3.943   0.768  0.5537 -0.6161 -0.7143
  163MPD2    C3 2485   2.001   3.980   0.734 -0.1896  0.3874  0.5181
  163MPD2    C4 2486   1.958   3.942   0.611 -0.3088 -0.1132  0.2687
  163MPD2    C5 2487   2.037   3.885   0.518  0.0571 -0.1969 -0.4327
  163MPD2     H 2488   2.161   3.955   0.870 -1.1428  1.5978 -0.4194
  163MPD2    H1 2489   1.856   3.957   0.579  0.7021  1.9246 -2.0062
  163MPD2    H2 2490   2.229   3.816   0.468  1.7878  0.8695  1.2102
  163MPD2    H3 2491   1.984   3.850   0.429 -0.4990 -0.6068  0.0626
  163MPD2     N 2492   1.905   4.044   0.818 -0.4309 -0.2286  0.1290
  163MPD2    H5 2493   1.826   4.090   0.774 -0.7023 -0.7932  0.0307
  163MPD2    N1 2494   2.353   3.866   0.682 -0.1840  0.2265 -0.3436
  163MPD2    H7 2495   2.397   3.832   0.597 -0.8913 -0.4146 -0.4489
  164TCq2    C1 2496   3.253   3.987  10.809 -0.3769 -0.4314 -0.0061
  164TCq2    O2 2497   3.296   3.941  10.914 -0.0015  0.1008  0.0919
  164TCq2    C2 2498   3.210   4.126  10.801 -0.3442 -0.2650 -0.1471
  164TCq2    C3 2499   3.229   4.195  10.678  0.0758 -0.5341  0.4961
  164TCq2    C4 2500   3.153   4.307  10.665 -0.5603 -0.5034  0.3336
  164TCq2    C5 2501   3.069   4.359  10.760 -0.6449 -0.2185 -1.0652
  164TCq2    C6 2502   3.058   4.287  10.876  0.1066  0.4362  0.2629
  164TCq2    C7 2503   3.135   4.174  10.902  0.0634 -0.1052 -0.7913
  164TCq2    C8 2504   2.928   4.300  10.933  0.3339  0.1029 -0.1308
  164TCq2    O4 2505   2.841   4.331  10.852  0.0298 -0.2856  0.0289
  164TCq2    C9 2506   3.170   4.374  10.542  0.4460 -0.2210  0.5905
  164TCq2    O5 2507   3.117   4.489  10.534  0.2178  0.5637  0.0103
  164TCq2    O6 2508   3.246   4.324  10.452 -0.2296 -0.0421  0.0315
  164TCq2    H2 2509   3.291   4.151  10.601 -0.3346 -1.7663  0.8581
  164TCq2    H3 2510   3.019   4.456  10.758  0.8086  0.5646  0.7199
  164TCq2    H4 2511   3.118   4.109  10.986  1.5888 -1.7701 -1.7891
  165MPD2     C 2512   4.392   0.586   1.721  0.4678 -0.4674 -0.1788
  165MPD2    C1 2513   4.272   0.624   1.669  0.2817  0.2312 -0.0795
  165MPD2    C2 2514   4.227   0.754   1.676 -0.1685  0.2580  0.0865
  165MPD2    C3 2515   4.309   0.847   1.739  0.3317 -0.1893 -0.4308
  165MPD2    C4 2516   4.430   0.813   1.790  0.2976 -0.5691  0.3489
  165MPD2    C5 2517   4.465   0.681   1.777 -0.6016  0.0173  0.2664
  165MPD2     H 2518   4.135   0.781   1.624  0.7451  0.4262 -1.4443
  165MPD2    H1 2519   4.488   0.885   1.846  0.3411  0.7797 -1.4232
  165MPD2    H2 2520   4.424   0.482   1.729  0.6330 -0.4608 -0.7788
  165MPD2    H3 2521   4.562   0.657   1.818  0.2866  2.4292 -0.4525
  165MPD2     N 2522   4.259   0.977   1.763  0.0864  0.4486  0.2751
  165MPD2    H5 2523   4.324   1.033   1.817 -0.1954  1.4052 -0.3778
  165MPD2    N1 2524   4.196   0.526   1.597  0.2980  0.0225  0.8099
  165MPD2    H7 2525   4.245   0.440   1.572  0.6710  0.0734  1.3798
  166TCq2    C1 2526   4.132   1.020   1.745 -0.6851  0.3401  0.2859
  166TCq2    O2 2527   4.030   0.955   1.723  0.3815 -0.1243  0.0089
  166TCq2    C2 2528   4.118   1.155   1.791 -0.6183  0.1901 -0.3335
  166TCq2    C3 2529   3.991   1.190   1.821  0.1729  0.3269  0.5436
  166TCq2    C4 2530   3.974   1.327   1.837 -0.1574  0.2144 -0.4205
  166TCq2    C5 2531   4.077   1.420   1.833  0.3769 -0.1363 -0.5053
  166TCq2    C6 2532   4.203   1.370   1.827  0.6339  0.1588 -0.9956
  166TCq2    C7 2533   4.227   1.239   1.800  0.3643  0.0247  0.3400
  166TCq2    C8 2534   4.304   1.459   1.772  1.0870 -0.3669  0.4517
  166TCq2    O4 2535   4.422   1.428   1.783 -0.0759  0.1892 -0.0861
  166TCq2    C9 2536   3.835   1.371   1.857 -0.3821  0.2884 -0.1775
  166TCq2    O5 2537   3.815   1.495   1.848  0.1509 -0.2438 -0.0853
  166TCq2    O6 2538   3.746   1.288   1.889  0.3324  0.1056  0.8353
  166TCq2    H2 2539   3.902   1.130   1.808  1.5008 -1.3989 -0.5317
  166TCq2    H3 2540   4.056   1.526   1.840  2.1585  0.3184 -2.2311
  166TCq2    H4 2541   4.320   1.204   1.758 -0.1837 -0.3817 -0.5431
  167TMC2    C1 2542   2.102   3.440  12.724 -0.0060  0.1177  0.3575
  167TMC2    C2 2543   2.037   3.497  12.830  0.3768 -0.4793 -0.3958
  167TMC2    C3 2544   1.929   3.436  12.884 -0.1282 -0.4264 -0.0952
  167TMC2    C4 2545   2.074   3.304  12.689  0.0731  0.6417 -0.2445
  167TMC2    C5 2546   1.959   3.252  12.746 -0.4629  0.4398 -0.0957
  167TMC2    C6 2547   1.885   3.311  12.847  0.8498  0.7915 -0.4000
  167TMC2     C 2548   2.193   3.525  12.650 -0.3113  0.0717  0.1029
  167TMC2     O 2549   2.201   3.643  12.673  0.0989 -0.0658 -0.0956
  167TMC2     H 2550   2.061   3.598  12.864  0.5068  0.7055 -4.0177
  167TMC2    H1 2551   2.125   3.251  12.610  0.6890  1.9633 -0.7291
  167TMC2    H2 2552   1.799   3.265  12.895  0.1674  0.0466 -2.3123
  167TMC2    C7 2553   1.908   3.126  12.700  0.3233 -0.0711 -0.1128
  167TMC2    C8 2554   1.888   3.486  13.020  0.2099 -0.9062  0.5663
  167TMC2    O1 2555   1.828   3.062  12.768 -0.3796 -0.0532 -0.6404
  167TMC2    O2 2556   1.941   3.574  13.081 -0.1369 -0.3722  0.2005
  167TMC2    O5 2557   1.757   3.461  13.028 -0.0387 -0.4369 -0.4350
  167TMC2    H5 2558   1.718   3.442  12.940 -1.9632  1.3689  0.0277
  168MPD2     C 2559   2.409   3.622  12.483  0.0704  0.0409 -0.0264
  168MPD2    C1 2560   2.344   3.506  12.460 -0.7200  0.4418 -0.1519
  168MPD2    C2 2561   2.369   3.429  12.351  0.2547  0.0797 -0.8773
  168MPD2    C3 2562   2.445   3.485  12.252  0.0567 -0.2389  1.0702
  168MPD2    C4 2563   2.520   3.594  12.276 -0.1757  0.2932  0.2389
  168MPD2    C5 2564   2.504   3.657  12.390 -0.1186 -0.1766 -0.2255
  168MPD2     H 2565   2.328   3.330  12.338  1.3986 -0.8047  2.1300
  168MPD2    H1 2566   2.589   3.634  12.203 -0.7543  0.4998 -0.1939
  168MPD2    H2 2567   2.400   3.672  12.579 -0.4039  0.6480 -0.3871
  168MPD2    H3 2568   2.578   3.734  12.409 -1.6665  0.8088  1.7604
  168MPD2     N 2569   2.440   3.415  12.129 -0.3485  0.3915 -0.2852
  168MPD2    H5 2570   2.375   3.337  12.128  1.1946 -0.9035 -0.8349
  168MPD2    N1 2571   2.242   3.455  12.545 -0.1286 -0.2381  0.5054
  168MPD2    H7 2572   2.195   3.370  12.516 -3.6798  1.3051  1.6453
  169MPD1     C 2573   4.358   4.200   9.266 -0.9284  0.5805 -0.9113
  169MPD1    C1 2574   4.473   4.137   9.301  0.7168  0.2991  0.1081
  169MPD1    C2 2575   4.461   4.021   9.384 -0.3595 -0.1372 -0.2474
  169MPD1    C3 2576   4.350   3.981   9.447 -0.3336  0.3340 -0.0560
  169MPD1    C4 2577   4.233   4.053   9.414  0.8487 -0.3336 -0.1163
  169MPD1    C5 2578   4.242   4.152   9.320 -0.2348  0.0372 -0.2214
  169MPD1     H 2579   4.548   3.969   9.421 -1.6336  0.4827  3.6535
  169MPD1    H1 2580   4.133   4.032   9.449  0.9802  0.9293  1.0421
  169MPD1    H2 2581   4.355   4.288   9.202 -2.1538  2.1495  1.3101
  169MPD1    H3 2582   4.149   4.196   9.286 -0.2794  0.1301  0.0188
  169MPD1     N 2583   4.348   3.872   9.538 -1.0342 -0.1185 -0.5475
  169MPD1    H5 2584   4.431   3.814   9.537 -0.4539  0.6763  1.2082
  169MPD1    N1 2585   4.596   4.172   9.244 -0.7370 -0.2676  0.2897
  169MPD1    H6 2586   4.664   4.182   9.319  0.9926  0.5324 -1.3873
  169MPD1    H7 2587   4.597   4.247   9.175 -3.1790  0.5086  1.1132
  170MPD1     C 2588   2.917   0.712  12.723 -0.8931  0.5365 -0.0879
  170MPD1    C1 2589   2.892   0.847  12.724 -0.1246 -0.0955  0.4972
  170MPD1    C2 2590   2.917   0.909  12.845 -0.3644 -0.5856 -0.8443
  170MPD1    C3 2591   2.989   0.844  12.939  0.0118  0.8140  0.4927
  170MPD1    C4 2592   3.025   0.710  12.925  0.7719  0.6150  0.7921
  170MPD1    C5 2593   2.968   0.641  12.822 -0.2633 -0.7877  0.3273
  170MPD1     H 2594   2.884   1.010  12.865  0.7585 -0.3865  0.0547
  170MPD1    H1 2595   3.086   0.653  12.994  2.5886  1.7361  0.1098
  170MPD1    H2 2596   2.890   0.656  12.634  0.1212  0.1292 -0.1427
  170MPD1    H3 2597   2.987   0.535  12.810 -1.3432 -1.1890  2.1285
  170MPD1     N 2598   3.038   0.924  13.048  0.4271 -0.1955  1.0919
  170MPD1    H5 2599   2.988   1.011  13.061 -0.8301 -0.6675 -0.6497
  170MPD1    N1 2600   2.814   0.908  12.621 -0.2134 -0.2660 -0.1813
  170MPD1    H6 2601   2.833   1.006  12.602 -0.4746 -0.0231  0.7902
  170MPD1    H7 2602   2.841   0.866  12.533  0.2150 -1.4487  0.5041
  171MPD1     C 2603   2.543   2.328  15.567  0.2006 -0.5473 -0.6028
  171MPD1    C1 2604   2.444   2.300  15.470  0.1586 -0.2257 -0.0862
  171MPD1    C2 2605   2.407   2.168  15.469 -0.8428  0.4209 -0.6845
  171MPD1    C3 2606   2.450   2.074  15.567 -1.0287 -0.1664 -0.0303
  171MPD1    C4 2607   2.544   2.113  15.662  0.4074 -0.1008 -0.8577
  171MPD1    C5 2608   2.593   2.240  15.661 -0.6859 -0.5448 -0.3087
  171MPD1     H 2609   2.341   2.132  15.391 -0.8548 -2.1432  0.4966
  171MPD1    H1 2610   2.591   2.052  15.738  1.3003  0.4233 -0.9889
  171MPD1    H2 2611   2.602   2.419  15.564 -0.7343  0.0253 -1.7328
  171MPD1    H3 2612   2.669   2.278  15.728  0.5926  2.9534 -3.7304
  171MPD1     N 2613   2.396   1.942  15.578 -0.0777 -0.0978 -0.0730
  171MPD1    H5 2614   2.449   1.887  15.645 -1.5415 -1.5690 -0.1303
  171MPD1    N1 2615   2.393   2.396  15.379 -0.2383 -0.1525 -0.3366
  171MPD1    H6 2616   2.392   2.495  15.399  0.3514 -0.3737  0.7309
  171MPD1    H7 2617   2.294   2.372  15.370 -0.2206 -0.9079  1.4774
  172MPD1     C 2618   0.510   1.038   0.775 -0.2844 -0.3415  0.9752
  172MPD1    C1 2619   0.508   1.174   0.758  0.2710 -0.4847 -0.1848
  172MPD1    C2 2620   0.604   1.231   0.684  0.0581  0.4822 -0.3858
  172MPD1    C3 2621   0.711   1.156   0.631  0.8385 -0.0939  0.1336
  172MPD1    C4 2622   0.703   1.015   0.656 -0.1859 -0.0897  0.1479
  172MPD1    C5 2623   0.605   0.959   0.722  0.0549 -0.3891 -0.1738
  172MPD1     H 2624   0.580   1.332   0.651  0.1870  0.5802 -0.1783
  172MPD1    H1 2625   0.786   0.949   0.631  0.5425  0.6019  0.7574
  172MPD1    H2 2626   0.425   0.989   0.820 -1.5518  2.9387  2.2086
  172MPD1    H3 2627   0.597   0.851   0.728 -0.7226 -0.3935 -1.2469
  172MPD1     N 2628   0.812   1.211   0.552  0.4075 -0.8003 -0.7919
  172MPD1    H5 2629   0.878   1.137   0.533  0.5659 -0.3094 -2.1337
  172MPD1    N1 2630   0.392   1.244   0.799  0.5181 -0.6654  0.2480
  172MPD1    H6 2631   0.358   1.223   0.893  0.7211 -1.1462  0.2152
  172MPD1    H7 2632   0.406   1.345   0.805 -2.9084 -0.1864  0.1998
  173MPD1     C 2633   2.971   1.238  13.988 -0.0823  0.0909 -0.0012
  173MPD1    C1 2634   2.853   1.200  13.931  0.2741 -0.3347  0.0851
  173MPD1    C2 2635   2.762   1.142  14.021  0.4207 -0.0971  0.0864
  173MPD1    C3 2636   2.780   1.120  14.153  1.0493  0.2881  0.7505
  173MPD1    C4 2637   2.895   1.168  14.205  0.7660 -0.0845  0.2948
  173MPD1    C5 2638   2.988   1.231  14.124  0.4883 -0.1938 -0.5739
  173MPD1     H 2639   2.666   1.111  13.983  1.1914 -0.4446 -1.6111
  173MPD1    H1 2640   2.915   1.174  14.311 -0.7585 -0.7531  0.6116
  173MPD1    H2 2641   3.044   1.294  13.932  0.9296 -0.4339  0.7830
  173MPD1    H3 2642   3.075   1.280  14.165  0.0417  0.7128 -0.7054
  173MPD1     N 2643   2.669   1.071  14.228 -0.0674  0.0903 -0.3409
  173MPD1    H5 2644   2.584   1.058  14.174  1.2499  1.9066 -2.9012
  173MPD1    N1 2645   2.822   1.241  13.794 -0.0077  0.2333  0.2624
  173MPD1    H6 2646   2.905   1.227  13.737  0.3371 -0.6285  0.9673
  173MPD1    H7 2647   2.762   1.174  13.747  0.4632  0.3373 -0.4776
  174MPD1     C 2648   2.213   0.541  13.805  0.1771  0.2624  0.4110
  174MPD1    C1 2649   2.180   0.485  13.928  0.5108 -0.5152  0.7034
  174MPD1    C2 2650   2.219   0.546  14.042  0.3095  0.0641  0.4102
  174MPD1    C3 2651   2.291   0.660  14.037 -0.3023 -0.0860 -0.0400
  174MPD1    C4 2652   2.319   0.721  13.916 -0.2924 -0.1947  0.0599
  174MPD1    C5 2653   2.280   0.662  13.800 -0.1168 -0.6229  0.1194
  174MPD1     H 2654   2.184   0.497  14.132 -0.9396 -1.4421 -0.9113
  174MPD1    H1 2655   2.372   0.815  13.904 -0.9882  0.2487  0.4351
  174MPD1    H2 2656   2.198   0.492  13.710  0.7357  0.6729  0.1124
  174MPD1    H3 2657   2.294   0.718  13.708 -1.6695 -1.2081 -0.4869
  174MPD1     N 2658   2.343   0.731  14.152  0.4568 -0.0337 -0.3826
  174MPD1    H5 2659   2.389   0.817  14.125  1.1711 -0.5236 -0.7345
  174MPD1    N1 2660   2.087   0.381  13.932 -0.3027 -0.1916 -0.0481
  174MPD1    H6 2661   2.101   0.311  14.005 -1.4327  0.9291  1.2401
  174MPD1    H7 2662   2.072   0.335  13.843 -0.9357 -0.3334  0.1327
  175MPD1     C 2663   0.954   2.575  15.327  0.0602 -0.5615 -0.5133
  175MPD1    C1 2664   0.871   2.471  15.288  0.1201 -0.1892  0.0312
  175MPD1    C2 2665   0.856   2.371  15.380 -0.4988 -0.6223 -1.0418
  175MPD1    C3 2666   0.926   2.364  15.496  0.0015  0.4016 -0.0954
  175MPD1    C4 2667   1.019   2.464  15.517  0.5874  0.4576 -0.6508
  175MPD1    C5 2668   1.036   2.570  15.437 -0.2920  0.4861  0.5402
  175MPD1     H 2669   0.781   2.296  15.356  0.5581 -1.5485 -1.4020
  175MPD1    H1 2670   1.089   2.458  15.600 -0.7274 -1.0285  0.3356
  175MPD1    H2 2671   0.960   2.661  15.261 -2.3856  0.5259  0.6707
  175MPD1    H3 2672   1.113   2.643  15.462  0.5715 -0.4570  0.6133
  175MPD1     N 2673   0.917   2.261  15.590 -0.4842  0.1777 -0.2012
  175MPD1    H5 2674   0.984   2.275  15.665 -0.2184 -0.6434 -0.2817
  175MPD1    N1 2675   0.781   2.482  15.184 -0.3979 -0.1086  0.1209
  175MPD1    H6 2676   0.823   2.532  15.106 -2.7263 -0.7773 -1.5685
  175MPD1    H7 2677   0.747   2.392  15.152 -2.2935  0.5941  0.1748
  176MPD1     C 2678   2.681   3.568  16.439  0.0775  0.8271 -0.0347
  176MPD1    C1 2679   2.771   3.575  16.546 -0.2689 -0.5477  0.4132
  176MPD1    C2 2680   2.729   3.640  16.657 -0.9434  0.3574 -0.4897
  176MPD1    C3 2681   2.604   3.690  16.670 -0.3913 -0.2019 -0.5112
  176MPD1    C4 2682   2.510   3.667  16.567 -0.2530 -0.6110 -0.6418
  176MPD1    C5 2683   2.550   3.605  16.451  0.2531  0.5105  0.1887
  176MPD1     H 2684   2.800   3.647  16.738 -0.4748  0.5754 -0.9164
  176MPD1    H1 2685   2.406   3.693  16.583 -0.1814 -1.8678  1.8470
  176MPD1    H2 2686   2.721   3.533  16.345  0.3171  0.2161  0.2980
  176MPD1    H3 2687   2.488   3.589  16.364  2.8080  0.5441 -1.6400
  176MPD1     N 2688   2.557   3.750  16.792 -0.2713 -0.0459  0.2368
  176MPD1    H5 2689   2.621   3.748  16.871 -1.2234  0.7207  1.0280
  176MPD1    N1 2690   2.906   3.536  16.530 -0.0326  0.5311 -0.3501
  176MPD1    H6 2691   2.964   3.561  16.610  1.4301 -2.2580 -0.5351
  176MPD1    H7 2692   2.915   3.438  16.506 -1.0039 -0.3621  3.0090
  177MPD1     C 2693   0.766   4.675   9.703  0.9352  0.1686  0.0804
  177MPD1    C1 2694   0.724   4.561   9.638 -0.0427 -0.2281  0.1156
  177MPD1    C2 2695   0.601   4.568   9.574  0.0050  0.2381  0.2823
  177MPD1    C3 2696   0.527   4.684   9.560  0.3871  0.5925  0.0759
  177MPD1    C4 2697   0.572   0.073   9.627 -0.5225  0.0716 -0.2169
  177MPD1    C5 2698   0.692   0.065   9.697 -0.3252  0.3117  0.5255
  177MPD1     H 2699   0.572   4.478   9.521  1.5696 -0.8677  1.3307
  177MPD1    H1 2700   0.524   0.170   9.630  1.4188  0.9847  1.3671
  177MPD1    H2 2701   0.863   4.673   9.752  0.2005  0.6416  1.5404
  177MPD1    H3 2702   0.723   0.160   9.739 -3.1207  0.9076  1.2630
  177MPD1     N 2703   0.411   4.677   9.489 -0.5536  0.4195 -0.3878
  177MPD1    H5 2704   0.391   4.582   9.459 -1.0048  0.8842 -1.5456
  177MPD1    N1 2705   0.800   4.439   9.633 -0.2791 -0.4689  0.1563
  177MPD1    H6 2706   0.819   4.405   9.539 -0.8769 -1.1275  0.2790
  177MPD1    H7 2707   0.896   4.464   9.654 -0.9454 -0.2288  2.9543
  178MPD1     C 2708   2.977   0.712  17.354  0.2587  0.2784 -0.6838
  178MPD1    C1 2709   2.870   0.633  17.366 -0.4862  0.3039 -0.4297
  178MPD1    C2 2710   2.893   0.497  17.350 -0.0288 -0.1822  0.6094
  178MPD1    C3 2711   3.010   0.443  17.292  0.0576  0.2172 -0.2595
  178MPD1    C4 2712   3.109   0.534  17.262 -0.0769  0.5641 -0.1499
  178MPD1    C5 2713   3.091   0.664  17.296  0.3342  0.0673 -0.6167
  178MPD1     H 2714   2.812   0.428  17.371  0.5249 -0.4928  1.6965
  178MPD1    H1 2715   3.200   0.513  17.207 -1.1146  2.4095 -2.5420
  178MPD1    H2 2716   2.962   0.816  17.382 -1.6975  0.2268 -1.5530
  178MPD1    H3 2717   3.170   0.735  17.273  0.2552 -0.1759 -1.6208
  178MPD1     N 2718   3.031   0.306  17.250  0.0248  0.4943  0.2154
  178MPD1    H5 2719   3.125   0.292  17.215 -1.3195  0.7572 -3.5142
  178MPD1    N1 2720   2.759   0.673  17.440  1.0330 -0.1115  0.0337
  178MPD1    H6 2721   2.676   0.618  17.418  1.8395 -1.5215  0.5212
  178MPD1    H7 2722   2.744   0.769  17.410  0.5808 -0.7538 -1.7974
  179MPD1     C 2723   3.254   3.183  15.730  0.1455 -0.9702 -0.4741
  179MPD1    C1 2724   3.317   3.064  15.748 -0.5328 -0.2682 -0.2042
  179MPD1    C2 2725   3.240   2.948  15.768 -0.0419  0.5849 -0.3023
  179MPD1    C3 2726   3.100   2.949  15.792 -0.4767  0.5989 -0.4441
  179MPD1    C4 2727   3.038   3.070  15.769 -0.5590  0.1787  0.4037
  179MPD1    C5 2728   3.121   3.180  15.745  0.4346 -0.0490  0.1770
  179MPD1     H 2729   3.293   2.854  15.772  1.3444  1.3576 -0.4716
  179MPD1    H1 2730   2.932   3.086  15.784 -0.2073  2.4489  0.5828
  179MPD1    H2 2731   3.297   3.271  15.685 -0.6671  0.2850  1.2347
  179MPD1    H3 2732   3.079   3.279  15.737  0.2389  0.0284  2.2302
  179MPD1     N 2733   3.019   2.845  15.834  0.6719 -0.0931  0.2958
  179MPD1    H5 2734   2.919   2.865  15.841  1.4209  3.6793  0.2369
  179MPD1    N1 2735   3.449   3.043  15.716  0.2577 -0.7208 -0.2367
  179MPD1    H6 2736   3.498   3.129  15.740  2.6372 -1.2937 -3.0036
  179MPD1    H7 2737   3.482   2.964  15.772 -0.6481 -1.4975 -0.7896
  180MPD1     C 2738   1.958   4.654  15.256  0.0445  0.2754  0.1115
  180MPD1    C1 2739   2.061   0.005  15.215 -0.0150  0.0709  0.2980
  180MPD1    C2 2740   2.102   4.706  15.085 -0.4818 -0.3817  0.3087
  180MPD1    C3 2741   2.038   4.611  15.007 -0.9161  0.5225  0.2643
  180MPD1    C4 2742   1.953   4.528  15.063  0.1617 -0.2670  0.1829
  180MPD1    C5 2743   1.900   4.558  15.181 -0.1243  0.7146  1.0622
  180MPD1     H 2744   2.182   0.044  15.042  1.9300 -3.4760  0.5442
  180MPD1    H1 2745   1.897   4.453  15.009  0.0119 -1.7919  2.4662
  180MPD1    H2 2746   1.918   4.673  15.355  2.6480  2.2432  0.7977
  180MPD1    H3 2747   1.820   4.498  15.223 -1.5284 -0.0871 -2.7394
  180MPD1     N 2748   2.072   4.605  14.865 -0.5040 -0.1263  0.0530
  180MPD1    H5 2749   2.142   4.668  14.829 -0.8251 -0.1278 -0.5795
  180MPD1    N1 2750   2.122   0.102  15.291 -0.4398  0.5185  0.1390
  180MPD1    H6 2751   2.224   0.099  15.290 -0.4239  0.9168  0.4039
  180MPD1    H7 2752   2.093   0.123  15.386 -2.7043  0.0083 -0.4433
  181MPD1     C 2753   3.622   1.258  10.142  0.3776  0.0047  0.1205
  181MPD1    C1 2754   3.608   1.391  10.111 -0.2882  0.1657  0.2122
  181MPD1    C2 2755   3.715   1.477  10.126  0.1281 -0.4897 -0.0753
  181MPD1    C3 2756   3.828   1.425  10.183  0.1694  0.3646 -0.1723
  181MPD1    C4 2757   3.837   1.296  10.227  0.0231 -0.8835 -0.3666
  181MPD1    C5 2758   3.732   1.210  10.205  0.2547  0.5117  0.1903
  181MPD1     H 2759   3.709   1.576  10.082 -0.6308 -0.1796  0.7429
  181MPD1    H1 2760   3.927   1.258  10.272  0.3849  1.2852  0.7653
  181MPD1    H2 2761   3.546   1.186  10.115 -0.4247  1.4782 -1.5092
  181MPD1    H3 2762   3.740   1.104  10.227 -1.1613  0.3531 -0.0461
  181MPD1     N 2763   3.950   1.496  10.196  0.0573  0.6905 -0.7536
  181MPD1    H5 2764   4.033   1.446  10.226  0.4613  0.8377 -1.6322
  181MPD1    N1 2765   3.498   1.435  10.036 -0.0289 -0.2568 -0.4994
  181MPD1    H6 2766   3.489   1.536  10.032 -0.3628 -0.2470  0.5732
  181MPD1    H7 2767   3.411   1.401  10.076  0.0239 -0.5515 -0.6333
  182MPD1     C 2768   1.333   1.267   1.750 -0.2069  0.3735  0.3019
  182MPD1    C1 2769   1.378   1.196   1.642 -0.3566 -0.2305  0.1692
  182MPD1    C2 2770   1.296   1.179   1.533  0.8571 -0.6788 -0.1346
  182MPD1    C3 2771   1.166   1.223   1.536 -0.3769  0.7891  0.0566
  182MPD1    C4 2772   1.126   1.292   1.646  0.4582  0.0191 -0.1970
  182MPD1    C5 2773   1.208   1.316   1.753  0.1195 -0.1001 -0.3565
  182MPD1     H 2774   1.351   1.137   1.449  1.5437  0.7770 -0.4297
  182MPD1    H1 2775   1.035   1.352   1.646  0.7918  0.5407  1.6726
  182MPD1    H2 2776   1.404   1.302   1.825  1.9771 -0.3702 -1.4178
  182MPD1    H3 2777   1.173   1.382   1.832  2.0490  1.4008 -0.7585
  182MPD1     N 2778   1.091   1.234   1.423  0.1257  0.2331 -0.0238
  182MPD1    H5 2779   1.007   1.292   1.417 -0.6579 -0.6916  2.0580
  182MPD1    N1 2780   1.514   1.156   1.635  0.2974 -0.1183  0.2581
  182MPD1    H6 2781   1.582   1.172   1.709 -0.9957 -0.1717  1.4592
  182MPD1    H7 2782   1.533   1.076   1.576  0.1363  0.6402 -0.8312
  183MPD1     C 2783   4.524   0.972   8.732 -0.2048 -0.1732 -0.3429
  183MPD1    C1 2784   4.564   1.086   8.666  0.4847  0.0461  0.2426
  183MPD1    C2 2785   4.647   1.176   8.736  0.5718 -0.1361 -0.8238
  183MPD1    C3 2786   4.710   1.139   8.855  0.9813 -0.1317 -0.1760
  183MPD1    C4 2787   4.669   1.024   8.917  0.4717  0.1985 -0.1964
  183MPD1    C5 2788   4.579   0.947   8.855  0.4973  0.0906  0.1054
  183MPD1     H 2789   4.664   1.270   8.685  1.8763  0.0179 -0.1062
  183MPD1    H1 2790   4.706   0.985   9.012 -1.3526 -2.4037 -0.5754
  183MPD1    H2 2791   4.452   0.902   8.690 -1.8782  0.9439  0.6561
  183MPD1    H3 2792   4.556   0.853   8.903  1.3361 -0.4323 -0.5040
  183MPD1     N 2793   0.068   1.232   8.919  0.1200  0.1456 -0.4386
  183MPD1    H5 2794   0.084   1.324   8.879  0.6702  0.3353  0.2047
  183MPD1    N1 2795   4.504   1.120   8.546  0.3177  0.2482  0.5370
  183MPD1    H6 2796   4.555   1.196   8.502 -1.5766  2.4087  2.0662
  183MPD1    H7 2797   4.505   1.048   8.474 -2.7468 -0.0645  0.8095
  184MPD1     C 2798   4.360   4.613  10.719  0.3459 -0.2015  0.2411
  184MPD1    C1 2799   4.244   4.646  10.649 -1.0347 -0.4130  0.0676
  184MPD1    C2 2800   4.232   4.609  10.518  0.0680 -0.6377  0.5070
  184MPD1    C3 2801   4.345   4.565  10.455 -0.5147 -1.0645  0.9880
  184MPD1    C4 2802   4.460   4.548  10.519 -0.8901 -0.3375  1.0367
  184MPD1    C5 2803   4.475   4.570  10.653 -0.4255  0.3689 -0.3419
  184MPD1     H 2804   4.145   4.635  10.460 -0.6027  1.3047  2.3805
  184MPD1    H1 2805   4.550   4.526  10.462 -0.2906  0.4233  1.6945
  184MPD1    H2 2806   4.372   4.638  10.824 -0.0450  1.0721 -0.0216
  184MPD1    H3 2807   4.575   4.547  10.688  0.1644 -1.6582 -3.3362
  184MPD1     N 2808   4.342   4.524  10.320 -0.7593 -0.3246  0.8410
  184MPD1    H5 2809   4.424   4.494  10.268 -1.0699 -1.3665  0.9434
  184MPD1    N1 2810   4.133   4.701  10.716  0.1445 -0.3656 -0.4830
  184MPD1    H6 2811   4.163   0.020  10.804 -0.2502 -0.7088 -0.1942
  184MPD1    H7 2812   4.085   0.048  10.657  0.8875 -0.1994 -0.8926
  185MPD1     C 2813   3.767   4.322   9.409  0.7560 -0.1065  0.2637
  185MPD1    C1 2814   3.755   4.437   9.495 -0.6275  0.1470 -0.4604
  185MPD1    C2 2815   3.859   4.457   9.597 -0.0948 -0.1817 -0.1874
  185MPD1    C3 2816   3.974   4.377   9.589  0.1700 -0.7406  0.6629
  185MPD1    C4 2817   3.986   4.277   9.497 -0.1587 -0.1817  0.3502
  185MPD1    C5 2818   3.877   4.236   9.422 -0.1460  0.3316  0.4397
  185MPD1     H 2819   3.860   4.542   9.664  0.5207  0.6246 -1.2162
  185MPD1    H1 2820   4.078   4.221   9.504  0.6594  1.0919 -0.3915
  185MPD1    H2 2821   3.683   4.294   9.346  2.1977 -0.7330 -1.3812
  185MPD1    H3 2822   3.875   4.143   9.367  2.5348  0.5651 -0.0716
  185MPD1     N 2823   4.079   4.396   9.682 -0.3591 -0.4163  0.4550
  185MPD1    H5 2824   4.166   4.347   9.664 -0.6866 -1.3536  1.3621
  185MPD1    N1 2825   3.630   4.504   9.501 -0.7082 -0.5215 -0.0831
  185MPD1    H6 2826   3.596   4.504   9.405 -0.0823 -1.0034 -0.3030
  185MPD1    H7 2827   3.647   4.603   9.516 -0.6627 -0.4692 -0.4822
  186MPD1     C 2828   3.370   2.364  16.119 -0.4403  0.4913  0.4894
  186MPD1    C1 2829   3.369   2.487  16.060  0.4632  0.6152  0.1680
  186MPD1    C2 2830   3.353   2.600  16.135 -0.4275  0.6016  0.6249
  186MPD1    C3 2831   3.321   2.595  16.272 -0.1199 -0.7365  0.0561
  186MPD1    C4 2832   3.316   2.475  16.333  0.3634  0.4971 -0.2775
  186MPD1    C5 2833   3.350   2.362  16.257 -0.1416  0.2605 -0.1410
  186MPD1     H 2834   3.344   2.692  16.080  0.8839 -0.6295 -1.6608
  186MPD1    H1 2835   3.294   2.457  16.437 -1.3226  1.0938 -0.5375
  186MPD1    H2 2836   3.389   2.270  16.069 -0.5198  0.1304  1.1264
  186MPD1    H3 2837   3.354   2.271  16.316 -3.5364 -0.0430 -0.3754
  186MPD1     N 2838   3.300   2.716  16.349  0.0759 -0.3837 -0.0760
  186MPD1    H5 2839   3.300   2.708  16.450 -0.0208  1.1842  0.0395
  186MPD1    N1 2840   3.417   2.489  15.929  0.1503 -0.3937  0.7722
  186MPD1    H6 2841   3.368   2.562  15.878 -0.2011 -1.6032 -0.6276
  186MPD1    H7 2842   3.404   2.406  15.871 -0.9717  2.2034 -2.6891
  187MPD1     C 2843   2.887   4.510   0.223  0.6378 -0.3455  0.1310
  187MPD1    C1 2844   2.852   4.520   0.090 -0.4434 -0.2497 -0.1078
  187MPD1    C2 2845   2.758   4.611   0.053  0.9237 -0.5315 -0.1236
  187MPD1    C3 2846   2.708   4.701   0.137 -0.2448  0.2071  0.3113
  187MPD1    C4 2847   2.750   4.703   0.271 -0.3255 -0.9835 -0.4612
  187MPD1    C5 2848   2.835   4.599   0.311  0.4597 -0.1027  0.4312
  187MPD1     H 2849   2.724   4.607  17.636 -0.3669  0.7506  0.2452
  187MPD1    H1 2850   2.701   0.044   0.345  1.4830  2.9143 -2.5281
  187MPD1    H2 2851   2.946   4.429   0.264 -3.1278 -2.4105  1.4517
  187MPD1    H3 2852   2.849   4.577   0.416 -1.5478  0.7324  0.8690
  187MPD1     N 2853   2.612   0.074   0.093 -0.6088  0.1735 -0.4196
  187MPD1    H5 2854   2.617   0.156   0.153 -2.9226  0.3193 -0.4261
  187MPD1    N1 2855   2.905   4.431  17.681 -0.1029 -0.3321 -0.3581
  187MPD1    H6 2856   2.995   4.398   0.029  0.1063  0.6233  0.0168
  187MPD1    H7 2857   2.921   4.466  17.587 -2.3009  1.5171 -0.0575
  188MPD1     C 2858   1.879   0.860  10.197  0.3480 -0.0075 -0.3138
  188MPD1    C1 2859   1.868   0.875  10.062  0.5112  0.1968  0.3417
  188MPD1    C2 2860   1.880   0.766   9.985  0.7981 -0.4886  0.1449
  188MPD1    C3 2861   1.908   0.638  10.037  0.9485  0.0487 -0.9100
  188MPD1    C4 2862   1.913   0.621  10.174  0.2151 -0.4083 -1.2937
  188MPD1    C5 2863   1.887   0.733  10.248 -0.0461 -0.1085  0.4341
  188MPD1     H 2864   1.898   0.783   9.879  2.0306 -1.2315  0.2293
  188MPD1    H1 2865   1.926   0.525  10.222  1.4047  1.2644  1.6958
  188MPD1    H2 2866   1.872   0.942  10.267  0.0466  0.4912 -0.9283
  188MPD1    H3 2867   1.896   0.727  10.356  2.2535  1.1183  0.3005
  188MPD1     N 2868   1.932   0.520   9.961 -0.0711  0.1306  0.3660
  188MPD1    H5 2869   1.957   0.436  10.013  0.6911 -0.5263 -1.0467
  188MPD1    N1 2870   1.854   1.006  10.006 -0.2048 -1.3520  0.8529
  188MPD1    H6 2871   1.793   1.065  10.063 -0.5385  0.4765 -1.4023
  188MPD1    H7 2872   1.818   1.003   9.912 -1.1538  0.6452  1.1446
  189MPD1     C 2873   4.337   0.136   0.378 -0.5454 -0.1058  0.0566
  189MPD1    C1 2874   4.198   0.132   0.379 -0.2149 -0.2611 -0.3223
  189MPD1    C2 2875   4.120   0.234   0.336 -0.4559 -0.2872 -0.0004
  189MPD1    C3 2876   4.172   0.353   0.311  0.5580  0.9294  0.4196
  189MPD1    C4 2877   4.308   0.367   0.324 -0.0785 -0.2453  0.0707
  189MPD1    C5 2878   4.386   0.256   0.348 -0.2689 -0.4221 -0.4491
  189MPD1     H 2879   4.013   0.217   0.332 -0.3373 -0.9214 -0.4048
  189MPD1    H1 2880   4.355   0.462   0.302 -1.8167  0.6260  0.1563
  189MPD1    H2 2881   4.395   0.046   0.360 -2.0446 -0.9669 -0.5247
  189MPD1    H3 2882   4.493   0.266   0.339 -0.2029  0.3781  1.1832
  189MPD1     N 2883   4.089   0.459   0.275  0.0185  0.4789  0.4152
  189MPD1    H5 2884   3.998   0.425   0.244 -0.0425  0.3037  0.7948
  189MPD1    N1 2885   4.129   0.013   0.413 -0.1718  0.0890 -0.2142
  189MPD1    H6 2886   4.034   0.027   0.448 -0.1974  0.9359 -0.6378
  189MPD1    H7 2887   4.178   4.681   0.486 -1.5173 -0.5639  0.2209
  190MPD1     C 2888   2.154   4.221  15.938  0.6167 -0.3190  0.5935
  190MPD1    C1 2889   2.219   4.335  15.971  0.3373 -0.0567  0.1179
  190MPD1    C2 2890   2.357   4.316  15.981  0.4884  0.2097 -0.8115
  190MPD1    C3 2891   2.433   4.208  15.937  0.2188 -0.0651 -0.4129
  190MPD1    C4 2892   2.355   4.095  15.902  0.4498  0.5251 -0.1685
  190MPD1    C5 2893   2.224   4.107  15.907  0.1472  0.5701 -0.0954
  190MPD1     H 2894   2.413   4.401  16.018  1.6144 -1.5920  1.6856
  190MPD1    H1 2895   2.398   3.997  15.883  2.1635  1.3876 -0.6324
  190MPD1    H2 2896   2.046   4.215  15.928  0.4339 -1.8414  3.2592
  190MPD1    H3 2897   2.164   4.020  15.879  0.4848 -0.1267  1.3586
  190MPD1     N 2898   2.578   4.203  15.942 -0.4226 -0.0735  0.2649
  190MPD1    H5 2899   2.635   4.276  15.983  1.7974 -2.0089  0.5901
  190MPD1    N1 2900   2.156   4.439  16.032  0.1176 -0.2908 -0.3041
  190MPD1    H6 2901   2.211   4.523  16.011 -0.5256  0.3020  0.3901
  190MPD1    H7 2902   2.062   4.450  15.995 -0.2411  1.3446  1.1057
  191MPD1     C 2903   2.010   1.514  13.005 -0.3221 -0.7075 -1.0072
  191MPD1    C1 2904   2.119   1.522  12.919 -0.0476  0.5709 -0.0458
  191MPD1    C2 2905   2.110   1.615  12.818 -0.5210 -0.1097  0.0871
  191MPD1    C3 2906   1.995   1.688  12.789 -0.0913 -0.2485  0.2453
  191MPD1    C4 2907   1.883   1.657  12.864 -0.3134 -0.3544 -0.8705
  191MPD1    C5 2908   1.890   1.576  12.970 -0.7829 -0.0900 -0.2243
  191MPD1     H 2909   2.201   1.626  12.761  0.3436 -0.7182  1.3620
  191MPD1    H1 2910   1.791   1.712  12.849  0.4544  1.0168 -0.5381
  191MPD1    H2 2911   2.008   1.446  13.090 -0.0838 -1.6629 -1.7609
  191MPD1    H3 2912   1.803   1.557  13.032  1.0704 -0.2656  2.3261
  191MPD1     N 2913   2.000   1.783  12.685 -0.0515  0.3110 -0.4245
  191MPD1    H5 2914   2.091   1.802  12.646 -0.1288  1.5522 -0.0123
  191MPD1    N1 2915   2.241   1.474  12.962  0.2374  0.0892  0.1550
  191MPD1    H6 2916   2.224   1.385  13.009  2.3612  0.5902  1.8899
  191MPD1    H7 2917   2.313   1.460  12.891  1.6494  2.1411  1.1562
  192MPD1     C 2918   2.117   2.700  12.697 -0.1904 -0.6919 -0.4859
  192MPD1    C1 2919   2.218   2.610  12.678 -0.1870  0.1698  0.3565
  192MPD1    C2 2920   2.176   2.500  12.603  0.5632  0.2764  0.3736
  192MPD1    C3 2921   2.045   2.482  12.560  0.5525  0.0812  0.8718
  192MPD1    C4 2922   1.955   2.587  12.570  0.3335  0.0808 -0.8185
  192MPD1    C5 2923   1.989   2.695  12.647 -0.8059 -0.1636  0.8908
  192MPD1     H 2924   2.247   2.421  12.581  0.1875  0.2963 -0.9183
  192MPD1    H1 2925   1.854   2.583  12.531  1.2356  1.1485 -3.2722
  192MPD1    H2 2926   2.124   2.778  12.772  1.5388 -0.0982 -1.2735
  192MPD1    H3 2927   1.919   2.771  12.681 -1.7108 -1.3194  1.6627
  192MPD1     N 2928   2.010   2.353  12.509  0.1210 -0.1493  0.4768
  192MPD1    H5 2929   2.082   2.282  12.494  1.1656  0.7601  1.1719
  192MPD1    N1 2930   2.336   2.611  12.756  0.2989 -0.7435 -0.3061
  192MPD1    H6 2931   2.414   2.559  12.717 -0.0412  0.2464 -2.3002
  192MPD1    H7 2932   2.373   2.702  12.782  2.3512 -1.5260 -0.4788
  193MPD1     C 2933   1.837   1.810  15.994  0.6326 -0.3096 -0.7617
  193MPD1    C1 2934   1.868   1.672  16.013  0.6585  0.5857  0.2893
  193MPD1    C2 2935   1.953   1.639  16.122 -0.2832 -0.1420 -0.3277
  193MPD1    C3 2936   2.002   1.737  16.206 -0.0856 -0.2899 -0.2157
  193MPD1    C4 2937   1.957   1.871  16.183 -0.3607  0.5557  0.1217
  193MPD1    C5 2938   1.888   1.906  16.073 -0.3899 -0.7724  0.4052
  193MPD1     H 2939   1.972   1.534  16.139 -1.3437 -0.6308 -2.1195
  193MPD1    H1 2940   1.988   1.936  16.264  2.2036  0.4925 -0.8007
  193MPD1    H2 2941   1.765   1.832  15.916  0.1734  0.0183 -0.2505
  193MPD1    H3 2942   1.872   2.013  16.064  0.5392 -0.4838  2.1918
  193MPD1     N 2943   2.078   1.704  16.322 -0.3166 -0.0425 -0.1489
  193MPD1    H5 2944   2.107   1.778  16.386 -0.7784  0.3035 -0.3397
  193MPD1    N1 2945   1.812   1.575  15.935 -0.1180  0.3030 -0.4539
  193MPD1    H6 2946   1.851   1.481  15.942 -0.6272  0.2084  1.0556
  193MPD1    H7 2947   1.805   1.588  15.834  1.6813 -0.9164 -0.7334
  194MPD1     C 2948   3.840   4.040  16.333  0.6340 -0.2682  0.6323
  194MPD1    C1 2949   3.915   3.975  16.239 -0.1699  1.3700 -0.1790
  194MPD1    C2 2950   4.029   3.900  16.285 -0.0581  0.3631 -0.5700
  194MPD1    C3 2951   4.076   3.926  16.410 -0.2085 -0.5779  0.0582
  194MPD1    C4 2952   4.011   4.007  16.505  0.0380  0.1181  0.4205
  194MPD1    C5 2953   3.894   4.063  16.460  0.4740  0.7342  0.0882
  194MPD1     H 2954   4.087   3.842  16.215 -0.2258  0.4357 -0.7689
  194MPD1    H1 2955   4.062   4.036  16.596 -1.8369  1.2370  1.1255
  194MPD1    H2 2956   3.751   4.099  16.312  1.9629  1.6568  0.5250
  194MPD1    H3 2957   3.856   4.137  16.529 -2.9912 -2.6593  1.7944
  194MPD1     N 2958   4.197   3.867  16.454 -0.4202  0.1413 -0.5346
  194MPD1    H5 2959   4.222   3.887  16.550  1.7016 -0.4081 -0.9736
  194MPD1    N1 2960   3.879   3.960  16.107 -0.4033 -0.4955  0.3188
  194MPD1    H6 2961   3.952   3.945  16.038 -0.0032 -2.3793  1.1615
  194MPD1    H7 2962   3.824   4.040  16.076  2.0396  0.9851 -0.1788
  195MPD1     C 2963   2.220   4.344   1.184 -0.2597 -0.4236  0.2051
  195MPD1    C1 2964   2.141   4.431   1.110 -0.5275  0.6717 -0.1575
  195MPD1    C2 2965   2.143   4.417   0.975 -0.0695  0.3695 -0.4098
  195MPD1    C3 2966   2.229   4.329   0.910 -0.6947  0.2373 -0.0910
  195MPD1    C4 2967   2.315   4.251   0.987 -0.5893 -0.3815 -0.4258
  195MPD1    C5 2968   2.306   4.260   1.122 -0.2456 -0.0332 -0.2134
  195MPD1     H 2969   2.083   4.487   0.917  1.4188  0.8438 -1.3964
  195MPD1    H1 2970   2.388   4.183   0.943 -0.7673 -0.9038  0.0891
  195MPD1    H2 2971   2.219   4.337   1.292 -0.7229 -2.7115  0.0661
  195MPD1    H3 2972   2.374   4.188   1.167 -1.6094 -0.9096  0.4505
  195MPD1     N 2973   2.224   4.329   0.769  0.2057 -0.1172  0.0356
  195MPD1    H5 2974   2.142   4.380   0.735  1.3537  0.7236 -1.4759
  195MPD1    N1 2975   2.066   4.528   1.171 -0.0935  0.4737  0.2288
  195MPD1    H6 2976   2.094   4.527   1.269 -1.2430  2.4099  0.5887
  195MPD1    H7 2977   2.073   4.618   1.123 -0.2831  2.2930  3.5716
  196MPD1     C 2978   1.665   0.461   0.345  0.0171 -0.6375  0.8083
  196MPD1    C1 2979   1.636   0.397   0.458 -0.1827 -0.5752 -0.9898
  196MPD1    C2 2980   1.664   0.463   0.577 -0.7812 -0.3729  0.1576
  196MPD1    C3 2981   1.724   0.591   0.583 -1.0796 -0.4031  0.1867
  196MPD1    C4 2982   1.754   0.647   0.460 -0.3662 -0.4399 -0.4071
  196MPD1    C5 2983   1.729   0.582   0.342  0.4148  0.7250  0.1767
  196MPD1     H 2984   1.643   0.408   0.668 -3.4221  2.5313  1.2713
  196MPD1    H1 2985   1.803   0.743   0.457 -3.3706  1.1503  1.4860
  196MPD1    H2 2986   1.638   0.416   0.250 -1.1496 -1.1251  1.3664
  196MPD1    H3 2987   1.766   0.623   0.249  0.2150  0.8779  0.1638
  196MPD1     N 2988   1.755   0.665   0.701  0.3792 -0.2034  0.1801
  196MPD1    H5 2989   1.802   0.754   0.690  1.5744 -0.7985  0.3805
  196MPD1    N1 2990   1.584   0.265   0.457  0.2600  0.0256 -0.2572
  196MPD1    H6 2991   1.538   0.236   0.371 -0.1509 -1.9143  0.6104
  196MPD1    H7 2992   1.530   0.241   0.540 -0.3503 -0.9804 -0.9400
  197MPD1     C 2993   1.101   1.899   0.264  0.8500 -0.3838 -0.4572
  197MPD1    C1 2994   1.013   2.002   0.255  0.3112 -0.1945  0.3223
  197MPD1    C2 2995   1.016   2.093   0.150  0.8455  0.3356 -0.2147
  197MPD1    C3 2996   1.106   2.070   0.049 -0.2173 -0.3278 -0.1146
  197MPD1    C4 2997   1.194   1.970   0.062 -0.0373  0.1611  0.7977
  197MPD1    C5 2998   1.189   1.888   0.167 -0.3374 -0.3255  0.1710
  197MPD1     H 2999   0.940   2.168   0.135 -0.2078  0.1744  4.2852
  197MPD1    H1 3000   1.255   1.945  17.662 -1.0784 -2.8483  0.9194
  197MPD1    H2 3001   1.102   1.823   0.342  2.5108  1.4418  1.2947
  197MPD1    H3 3002   1.269   1.815   0.172 -0.2019 -0.1563  0.4651
  197MPD1     N 3003   1.116   2.150  17.617 -0.2848  0.3170  0.0066
  197MPD1    H5 3004   1.191   2.123  17.555 -0.5122  1.9530 -0.9874
  197MPD1    N1 3005   0.912   2.020   0.354  0.1118  0.1970  0.1576
  197MPD1    H6 3006   0.875   2.115   0.361 -0.7506 -0.1573  0.3791
  197MPD1    H7 3007   0.919   1.970   0.442 -0.9695  0.4203  0.3697
  198MPD1     C 3008   2.583   4.305  15.466  0.2750 -0.5877  0.0060
  198MPD1    C1 3009   2.653   4.374  15.370  0.8718  1.2326  0.3736
  198MPD1    C2 3010   2.731   4.480  15.407  0.0428  0.4634 -0.3412
  198MPD1    C3 3011   2.734   4.515  15.542  0.3789  0.0256  0.2799
  198MPD1    C4 3012   2.670   4.441  15.641  0.1519 -0.0612 -0.2860
  198MPD1    C5 3013   2.582   4.337  15.602 -0.2754  0.1393 -0.3638
  198MPD1     H 3014   2.789   4.533  15.332 -0.8389  0.8513 -0.7597
  198MPD1    H1 3015   2.686   4.453  15.747  1.3839  1.0406 -0.6111
  198MPD1    H2 3016   2.514   4.226  15.436 -1.5310  0.3905  1.5864
  198MPD1    H3 3017   2.527   4.272  15.670 -0.1039  0.8184  0.4216
  198MPD1     N 3018   2.811   4.625  15.574 -0.3734  0.0816 -0.3842
  198MPD1    H5 3019   2.872   4.663  15.503  0.3402 -0.7951 -0.2385
  198MPD1    N1 3020   2.675   4.314  15.251 -0.1001  0.2270  0.3522
  198MPD1    H6 3021   2.693   4.392  15.188  0.1279  1.6476  2.1736
  198MPD1    H7 3022   2.591   4.268  15.216 -0.3860  1.8274 -1.1184
  199MPD1     C 3023   4.524   1.905   9.725 -0.2838 -0.2960 -0.3593
  199MPD1    C1 3024   4.561   2.033   9.759  0.3512  0.1038 -0.0520
  199MPD1    C2 3025   4.460   2.123   9.805  0.4181  0.8083 -0.3906
  199MPD1    C3 3026   4.326   2.090   9.796 -0.1276 -0.4100  0.1869
  199MPD1    C4 3027   4.287   1.962   9.766  0.0884 -0.6496  0.2898
  199MPD1    C5 3028   4.387   1.875   9.732 -0.0472 -0.4495  0.9475
  199MPD1     H 3029   4.499   2.222   9.828 -2.7495  1.8920  0.2546
  199MPD1    H1 3030   4.187   1.927   9.742  0.9711 -1.4506 -2.2196
  199MPD1    H2 3031   4.591   1.828   9.690  0.1977 -0.6333  1.3053
  199MPD1    H3 3032   4.360   1.780   9.688  0.1453 -0.5829  1.1128
  199MPD1     N 3033   4.224   2.184   9.826 -0.1999 -0.4703  0.3505
  199MPD1    H5 3034   4.127   2.156   9.834 -0.1525 -0.9210 -0.5834
  199MPD1    N1 3035   4.696   2.065   9.763  0.3475 -0.1208  0.0250
  199MPD1    H6 3036   0.025   2.023   9.685  0.9026  1.2239 -0.3403
  199MPD1    H7 3037   4.712   2.166   9.759 -0.2772 -0.1119 -2.0378
  200MPD1     C 3038   4.037   1.680  13.476 -0.0585  0.4149  0.0845
  200MPD1    C1 3039   4.057   1.808  13.529 -0.4096  0.0584 -0.1624
  200MPD1    C2 3040   3.949   1.897  13.528  0.3836  0.2842 -0.1051
  200MPD1    C3 3041   3.822   1.857  13.477 -0.4501 -0.9119 -1.1589
  200MPD1    C4 3042   3.810   1.730  13.427  0.5099  0.1892 -0.5719
  200MPD1    C5 3043   3.913   1.644  13.426 -0.0062  0.2963  0.3153
  200MPD1     H 3044   3.956   2.000  13.563 -0.4962  0.2627  0.1320
  200MPD1    H1 3045   3.726   1.697  13.367 -0.2112  0.9665  0.0273
  200MPD1    H2 3046   4.112   1.602  13.471 -2.0793 -1.4497 -1.0837
  200MPD1    H3 3047   3.900   1.551  13.371 -0.7641  0.8111 -0.3740
  200MPD1     N 3048   3.729   1.962  13.456  0.1592 -0.1842 -0.4616
  200MPD1    H5 3049   3.755   2.057  13.480 -1.3742 -0.1841  1.1673
  200MPD1    N1 3050   4.161   1.831  13.615  0.4474 -0.2548  0.0147
  200MPD1    H6 3051   4.139   1.793  13.706  0.0117 -0.7347 -0.2945
  200MPD1    H7 3052   4.238   1.772  13.583 -0.9081 -0.6674 -2.5119
  201MPD1     C 3053   1.287   1.167  12.625  0.0179  0.0679  0.5448
  201MPD1    C1 3054   1.180   1.124  12.705  0.0379 -0.0474  0.4180
  201MPD1    C2 3055   1.202   1.010  12.786  0.2378  0.5042 -0.3740
  201MPD1    C3 3056   1.334   0.970  12.811  0.1790  0.1795  0.3194
  201MPD1    C4 3057   1.438   1.030  12.743 -0.1654 -0.2157 -0.2543
  201MPD1    C5 3058   1.415   1.122  12.646  0.7185  0.2917  0.0564
  201MPD1     H 3059   1.120   0.965  12.841  1.2085 -0.4475  0.2920
  201MPD1    H1 3060   1.544   1.006  12.747  0.0465  1.0096  1.4260
  201MPD1    H2 3061   1.273   1.256  12.565 -0.3565 -0.9444 -0.8964
  201MPD1    H3 3062   1.495   1.165  12.586  1.3547 -0.5899  0.2714
  201MPD1     N 3063   1.355   0.856  12.890 -0.6443  0.0631  0.4835
  201MPD1    H5 3064   1.277   0.801  12.925 -0.7781  0.1645  0.3451
  201MPD1    N1 3065   1.045   1.163  12.674  0.5890 -0.0536  0.0766
  201MPD1    H6 3066   1.030   1.261  12.654  0.6944 -0.2792 -1.1070
  201MPD1    H7 3067   0.995   1.154  12.762 -1.7826 -1.5032 -1.3903
  202MPD1     C 3068   0.826   0.345   8.948 -0.3142  0.3377 -1.1324
  202MPD1    C1 3069   0.897   0.273   9.046  0.5937 -0.7620  0.1206
  202MPD1    C2 3070   0.950   0.346   9.150  0.3340 -0.3645 -0.6624
  202MPD1    C3 3071   0.904   0.472   9.167  0.6595 -1.3035 -0.0067
  202MPD1    C4 3072   0.823   0.536   9.074 -0.1165  0.0584 -0.0148
  202MPD1    C5 3073   0.791   0.474   8.962  0.6192  0.7875 -0.1886
  202MPD1     H 3074   1.023   0.302   9.217  1.5977  0.2648 -1.6250
  202MPD1    H1 3075   0.796   0.641   9.084 -2.3241 -0.5925  0.7474
  202MPD1    H2 3076   0.792   0.306   8.852  0.0401 -2.4438 -0.1219
  202MPD1    H3 3077   0.733   0.526   8.887  0.8106 -0.7648 -1.4234
  202MPD1     N 3078   0.928   0.548   9.288  0.5440  0.1704  0.3178
  202MPD1    H5 3079   0.889   0.642   9.290  0.9259  0.2685  2.5459
  202MPD1    N1 3080   0.966   0.159   9.000 -0.1199  0.1819  0.3175
  202MPD1    H6 3081   0.976   0.097   9.080 -0.0674 -1.6736 -1.1078
  202MPD1    H7 3082   0.905   0.100   8.943  1.6702 -0.4072 -1.0041
  203MPD1     C 3083   3.982   1.327  12.496 -0.1100  0.2563  0.0881
  203MPD1    C1 3084   4.039   1.293  12.614 -0.1162 -0.0670 -0.0034
  203MPD1    C2 3085   4.166   1.242  12.618  0.2510 -0.4260 -0.4606
  203MPD1    C3 3086   4.229   1.204  12.502 -0.2559  0.4179  0.0222
  203MPD1    C4 3087   4.156   1.221  12.380  0.1314  0.6485  0.1017
  203MPD1    C5 3088   4.039   1.287  12.376 -0.0916  0.2916  0.1033
  203MPD1     H 3089   4.221   1.241  12.711 -0.2967  0.9085 -0.1292
  203MPD1    H1 3090   4.188   1.177  12.286 -0.2600 -1.2746  0.8805
  203MPD1    H2 3091   3.880   1.363  12.494 -0.0671  0.3350 -1.1862
  203MPD1    H3 3092   3.981   1.301  12.286 -0.1030  0.6205  0.1607
  203MPD1     N 3093   4.347   1.128  12.519 -0.5621  0.2276  0.1187
  203MPD1    H5 3094   4.393   1.130  12.610 -0.2948  1.1114 -0.0455
  203MPD1    N1 3095   3.972   1.342  12.729 -0.5493 -0.2377  0.4385
  203MPD1    H6 3096   3.871   1.335  12.715 -0.4284  0.9943 -1.0666
  203MPD1    H7 3097   3.996   1.287  12.812 -0.3392  0.5360  0.8823
  204MPD1     C 3098   4.132   2.287   0.152 -0.6250  0.2406 -0.1694
  204MPD1    C1 3099   4.250   2.326   0.081  0.4392  0.6224 -0.3646
  204MPD1    C2 3100   4.320   2.220   0.027 -0.4155  0.0121 -0.2806
  204MPD1    C3 3101   4.271   2.092   0.023  0.6739  0.2720  0.6440
  204MPD1    C4 3102   4.158   2.062   0.094 -0.3266  0.2961 -0.6353
  204MPD1    C5 3103   4.087   2.158   0.164  0.2508 -0.0459 -0.6992
  204MPD1     H 3104   4.414   2.240  17.662  0.6492  0.7452  1.9461
  204MPD1    H1 3105   4.096   1.973   0.089  0.9927 -0.6486 -0.2512
  204MPD1    H2 3106   4.068   2.368   0.183  1.2502  0.8349  2.1940
  204MPD1    H3 3107   3.988   2.139   0.204  1.4950 -0.1595  2.3350
  204MPD1     N 3108   4.322   2.006  17.613 -0.4510  0.4384  0.1929
  204MPD1    H5 3109   4.383   2.041  17.539 -2.0252 -0.7466 -1.6843
  204MPD1    N1 3110   4.297   2.462   0.090  0.0856  0.0660  0.0145
  204MPD1    H6 3111   4.223   2.532   0.098 -0.3918 -0.4309 -0.0120
  204MPD1    H7 3112   4.361   2.488   0.016  1.5488 -1.8024  0.6280
  205MPD1     C 3113   3.856   0.820  17.162  0.8446  0.4567 -0.6547
  205MPD1    C1 3114   3.896   0.698  17.180  0.3366 -0.2003  0.1182
  205MPD1    C2 3115   4.033   0.676  17.203 -0.2143  0.9762 -0.2359
  205MPD1    C3 3116   4.124   0.778  17.212  0.8372  0.4861  0.5054
  205MPD1    C4 3117   4.079   0.905  17.191 -0.7469 -0.9174  0.7406
  205MPD1    C5 3118   3.948   0.925  17.158  0.4020 -0.5499  0.4411
  205MPD1     H 3119   4.071   0.576  17.219 -1.3668  0.8049  1.4609
  205MPD1    H1 3120   4.147   0.990  17.198  2.2092 -3.4076  2.4072
  205MPD1    H2 3121   3.755   0.847  17.133 -0.6214 -1.8457  2.2923
  205MPD1    H3 3122   3.920   1.029  17.141 -0.9167 -0.9943 -0.0909
  205MPD1     N 3123   4.257   0.764  17.261  0.0527  0.4626 -0.4554
  205MPD1    H5 3124   4.295   0.848  17.304  0.8266  0.1757 -0.5790
  205MPD1    N1 3125   3.818   0.589  17.128  0.7303 -0.5574  0.3632
  205MPD1    H6 3126   3.843   0.505  17.179 -2.7752 -1.2164  1.0260
  205MPD1    H7 3127   3.723   0.602  17.164  0.4833  2.1573 -1.2299
  206MPD1     C 3128   4.646   4.037  16.604  0.3758 -0.0625  0.1406
  206MPD1    C1 3129   4.543   4.113  16.559  0.1404 -0.2239 -0.0379
  206MPD1    C2 3130   4.473   4.082  16.444 -0.3999  0.2363 -0.2046
  206MPD1    C3 3131   4.520   3.984  16.364  0.3807  0.9830 -0.0169
  206MPD1    C4 3132   4.625   3.906  16.405 -0.3957  0.4846  0.5424
  206MPD1    C5 3133   4.685   3.931  16.525  0.3270 -0.3196  0.3117
  206MPD1     H 3134   4.383   4.135  16.417  0.2134  0.5169 -1.6745
  206MPD1    H1 3135   4.665   3.820  16.353 -1.4550 -0.0671  0.6524
  206MPD1    H2 3136   4.690   4.051  16.703 -1.8213 -0.8341  1.2269
  206MPD1    H3 3137   0.049   3.875  16.563  0.5063  0.5783  1.2383
  206MPD1     N 3138   4.469   3.951  16.236 -0.1047  0.0536  0.1188
  206MPD1    H5 3139   4.509   3.869  16.193  2.2613  0.3448  1.7632
  206MPD1    N1 3140   4.511   4.233  16.626  1.0510 -0.0492  0.0614
  206MPD1    H6 3141   4.586   4.264  16.687  2.4636  0.5854 -1.9957
  206MPD1    H7 3142   4.505   4.311  16.561  0.2670  1.1046  1.5081
  207MPD1     C 3143   1.620   1.859   9.739 -0.7239 -0.5068 -0.5865
  207MPD1    C1 3144   1.604   1.779   9.845  0.0398  0.4535  0.8216
  207MPD1    C2 3145   1.704   1.749   9.926  0.2025  0.5590 -0.3352
  207MPD1    C3 3146   1.824   1.825   9.915  0.1128  0.0408 -0.3231
  207MPD1    C4 3147   1.826   1.935   9.830 -0.2181 -0.1172  0.1866
  207MPD1    C5 3148   1.725   1.948   9.737 -0.3078  0.2713  0.0130
  207MPD1     H 3149   1.704   1.671  10.002 -0.8949  1.5908  0.7262
  207MPD1    H1 3150   1.911   2.001   9.821 -0.0272 -0.2675  0.8944
  207MPD1    H2 3151   1.534   1.883   9.678 -0.2176  0.4304 -0.9338
  207MPD1    H3 3152   1.725   2.022   9.657  0.3706 -0.0454 -0.2826
  207MPD1     N 3153   1.944   1.807   9.989 -0.4081 -0.2476  0.0732
  207MPD1    H5 3154   2.016   1.878   9.978 -0.3244  0.0253  2.5022
  207MPD1    N1 3155   1.489   1.689   9.845  0.3978  0.0258  0.6541
  207MPD1    H6 3156   1.403   1.720   9.800  2.4783  0.6754 -2.8222
  207MPD1    H7 3157   1.474   1.652   9.939  1.6025  0.7692  1.1420
  208MPD1     C 3158   0.869   0.577  17.190 -0.4197  0.0861 -0.0062
  208MPD1    C1 3159   0.765   0.497  17.225 -0.2454  0.4152 -0.1066
  208MPD1    C2 3160   0.734   0.493  17.365 -0.1160  0.7547  0.1887
  208MPD1    C3 3161   0.811   0.545  17.465 -0.4513  0.5918 -0.5130
  208MPD1    C4 3162   0.933   0.602  17.425  0.1398  0.1777 -0.1974
  208MPD1    C5 3163   0.949   0.622  17.287  0.3524 -0.5823  0.0114
  208MPD1     H 3164   0.641   0.447  17.394 -0.7318  1.1575 -1.1288
  208MPD1    H1 3165   1.003   0.651  17.492 -1.2121 -0.7845  1.9251
  208MPD1    H2 3166   0.874   0.609  17.087 -0.9966  1.0675  0.2681
  208MPD1    H3 3167   1.027   0.688  17.249 -0.2987 -0.8344 -1.7676
  208MPD1     N 3168   0.762   0.513  17.598 -0.0454 -1.0347 -0.2692
  208MPD1    H5 3169   0.675   0.460  17.600 -0.0781 -0.9850 -0.3653
  208MPD1    N1 3170   0.668   0.480  17.129  0.1966  0.4579  0.5420
  208MPD1    H6 3171   0.616   0.396  17.153 -2.0246  2.2773  1.9988
  208MPD1    H7 3172   0.713   0.453  17.041 -0.3721 -0.3181  0.4863
  209MPD1     C 3173   2.639   0.876  11.727  0.6421  0.0403  0.0654
  209MPD1    C1 3174   2.686   1.003  11.731  0.1053 -0.4365  0.1899
  209MPD1    C2 3175   2.663   1.083  11.621  0.0304 -0.2838 -0.5257
  209MPD1    C3 3176   2.626   1.016  11.496  0.7955 -0.0844  0.0998
  209MPD1    C4 3177   2.584   0.889  11.495  0.0054 -0.5870 -0.6090
  209MPD1    C5 3178   2.597   0.815  11.616  0.0898 -0.0447 -0.5611
  209MPD1     H 3179   2.688   1.188  11.613 -1.3154  0.1883  1.5672
  209MPD1    H1 3180   2.553   0.837  11.406  1.7211 -0.5345 -1.2352
  209MPD1    H2 3181   2.630   0.814  11.816 -0.8496 -1.3054 -1.0015
  209MPD1    H3 3182   2.561   0.713  11.608 -0.0034  0.0489 -1.3634
  209MPD1     N 3183   2.613   1.106  11.387  0.2937 -0.3508  0.3494
  209MPD1    H5 3184   2.652   1.199  11.401  0.2738 -0.6701  2.5871
  209MPD1    N1 3185   2.711   1.056  11.854 -0.0529 -0.5368 -0.4277
  209MPD1    H6 3186   2.735   0.991  11.929  0.7649  2.3132  1.8078
  209MPD1    H7 3187   2.771   1.139  11.856 -2.6325  1.3100  0.0712
  210MPD1     C 3188   3.272   1.621  10.849 -1.1965 -0.3959 -0.1722
  210MPD1    C1 3189   3.255   1.588  10.980  0.4147  1.0439 -0.0280
  210MPD1    C2 3190   3.157   1.496  11.015  0.4015 -0.4714 -0.1410
  210MPD1    C3 3191   3.063   1.456  10.917  0.1625 -0.3761  0.7041
  210MPD1    C4 3192   3.081   1.495  10.783 -0.0308  0.3705  0.0718
  210MPD1    C5 3193   3.185   1.582  10.749 -0.0264 -0.5503  0.0995
  210MPD1     H 3194   3.147   1.449  11.113  0.6520 -1.3427 -0.5257
  210MPD1    H1 3195   3.010   1.477  10.703  1.9289 -3.2613 -0.8467
  210MPD1    H2 3196   3.360   1.672  10.811 -2.6796  0.5704 -2.2995
  210MPD1    H3 3197   3.209   1.613  10.648  1.4024 -1.0029  0.2873
  210MPD1     N 3198   2.948   1.383  10.945 -0.1226  0.2811  0.5387
  210MPD1    H5 3199   2.899   1.354  10.861  3.5074  1.2822 -1.9403
  210MPD1    N1 3200   3.358   1.615  11.068  0.5157 -0.7407 -0.0934
  210MPD1    H6 3201   3.383   1.711  11.045  1.5838 -0.9310  0.2988
  210MPD1    H7 3202   3.335   1.611  11.167 -1.7665  0.8371 -0.5432
  211MPD1     C 3203   0.761   1.333  15.898 -0.1009 -0.1418 -0.8296
  211MPD1    C1 3204   0.703   1.348  16.026 -0.1749 -0.1757 -0.1373
  211MPD1    C2 3205   0.570   1.322  16.039 -0.2159  0.1922 -0.3067
  211MPD1    C3 3206   0.494   1.280  15.935  0.7053 -0.3209  0.5507
  211MPD1    C4 3207   0.549   1.276  15.806 -0.3027  0.1340  0.6473
  211MPD1    C5 3208   0.684   1.303  15.789 -0.0433 -0.2153  0.0756
  211MPD1     H 3209   0.528   1.338  16.138  1.1232 -1.8572  0.5973
  211MPD1    H1 3210   0.491   1.265  15.715  0.5783  0.8251  0.0044
  211MPD1    H2 3211   0.867   1.344  15.881 -0.0080  0.8889  0.3710
  211MPD1    H3 3212   0.722   1.300  15.687 -1.3795 -0.9043 -0.4036
  211MPD1     N 3213   0.356   1.243  15.970  0.1778 -0.4193  0.5332
  211MPD1    H5 3214   0.324   1.280  16.059 -2.9493 -0.3131 -0.6564
  211MPD1    N1 3215   0.788   1.353  16.135 -0.2451 -0.2280  0.1823
  211MPD1    H6 3216   0.859   1.425  16.126  1.6988 -2.0884  0.5978
  211MPD1    H7 3217   0.738   1.390  16.215  0.6487  0.5645  0.3697
  212MPD1     C 3218   4.148   4.172  16.810  0.7909 -0.2335  0.8030
  212MPD1    C1 3219   4.227   4.069  16.840  0.4888  0.3474  0.1288
  212MPD1    C2 3220   4.172   3.959  16.905  0.7428  0.4358  0.3531
  212MPD1    C3 3221   4.038   3.947  16.926  0.7145 -0.0688  0.6258
  212MPD1    C4 3222   3.957   4.058  16.879  0.2920  0.4173  0.5269
  212MPD1    C5 3223   4.015   4.169  16.817 -0.2126  0.7825  0.1457
  212MPD1     H 3224   4.244   3.882  16.933  1.0279 -0.1235 -1.9081
  212MPD1    H1 3225   3.849   4.059  16.895  0.2334 -1.0696  0.1853
  212MPD1    H2 3226   4.196   4.265  16.781 -2.5035  1.0320 -0.5771
  212MPD1    H3 3227   3.960   4.261  16.798  0.7268  1.6312  1.5636
  212MPD1     N 3228   3.969   3.839  16.991 -0.2419 -0.6187  0.4155
  212MPD1    H5 3229   3.868   3.849  16.992 -0.3411 -1.5563 -0.5106
  212MPD1    N1 3230   4.371   4.080  16.837  0.5169 -0.1784  0.5597
  212MPD1    H6 3231   4.421   3.993  16.853 -0.4292 -0.7969  0.1761
  212MPD1    H7 3232   4.403   4.127  16.753  1.3658  0.4196  1.2172
  213MPD1     C 3233   2.218   0.652  15.800  0.4502 -0.6183 -0.7193
  213MPD1    C1 3234   2.341   0.617  15.749  0.0757 -0.4725 -0.3867
  213MPD1    C2 3235   2.342   0.597  15.613  1.0466 -0.2931  0.4517
  213MPD1    C3 3236   2.228   0.565  15.536  0.6566  0.2970  0.5992
  213MPD1    C4 3237   2.106   0.568  15.602  0.3597 -0.0666 -0.2415
  213MPD1    C5 3238   2.102   0.613  15.733 -0.5012  0.1022  0.0743
  213MPD1     H 3239   2.441   0.591  15.571  0.0307 -1.0519 -1.8274
  213MPD1    H1 3240   2.012   0.541  15.555 -0.1721 -2.4684  2.1616
  213MPD1    H2 3241   2.196   0.665  15.905  1.8243 -0.3087 -0.4750
  213MPD1    H3 3242   2.008   0.622  15.788  0.8193  0.9887  2.1669
  213MPD1     N 3243   2.223   0.523  15.398 -0.4183 -0.1108 -0.0247
  213MPD1    H5 3244   2.132   0.523  15.353  0.3686 -2.1329 -1.6162
  213MPD1    N1 3245   2.452   0.677  15.809 -0.1618 -0.5003 -0.1396
  213MPD1    H6 3246   2.436   0.682  15.910  4.2266  0.6300  0.5072
  213MPD1    H7 3247   2.544   0.641  15.785  1.0002  1.8932  0.6683
  214MPD1     C 3248   1.512   0.176  15.178 -0.1608  0.3191  0.5299
  214MPD1    C1 3249   1.541   0.236  15.054  0.5150 -0.0877 -0.1235
  214MPD1    C2 3250   1.673   0.283  15.043 -0.3948  0.0443  0.0744
  214MPD1    C3 3251   1.775   0.254  15.138  0.3627  0.6026  0.2370
  214MPD1    C4 3252   1.735   0.183  15.251 -0.9836 -0.0574  0.5514
  214MPD1    C5 3253   1.602   0.144  15.266 -0.2076 -0.1584 -0.1044
  214MPD1     H 3254   1.705   0.336  14.954 -1.7769  0.1807 -0.3441
  214MPD1    H1 3255   1.811   0.160  15.325 -0.3555 -2.7229 -0.9367
  214MPD1    H2 3256   1.409   0.166  15.213 -0.3154  0.1223  0.0167
  214MPD1    H3 3257   1.573   0.098  15.360  1.7759 -1.3004 -0.0502
  214MPD1     N 3258   1.916   0.278  15.126 -0.8551 -0.4177 -0.1632
  214MPD1    H5 3259   1.973   0.239  15.200  0.9949 -0.7799 -1.7686
  214MPD1    N1 3260   1.441   0.271  14.960 -0.7732 -0.1475  0.5948
  214MPD1    H6 3261   1.359   0.214  14.979 -0.4401 -0.7602  0.1921
  214MPD1    H7 3262   1.472   0.257  14.864  1.3438  1.4284  1.0629
  215MPD1     C 3263   1.494   0.970  10.371 -0.0662 -0.2770 -0.4721
  215MPD1    C1 3264   1.477   1.109  10.386  0.5566 -0.6746  0.1032
  215MPD1    C2 3265   1.568   1.185  10.459 -0.5339 -0.2447 -0.0861
  215MPD1    C3 3266   1.668   1.124  10.530 -0.1559  0.6576  0.1480
  215MPD1    C4 3267   1.669   0.984  10.535  0.2598 -0.7160  0.5593
  215MPD1    C5 3268   1.590   0.917  10.445  0.2893  0.1444  0.3761
  215MPD1     H 3269   1.558   1.292  10.448 -0.6226 -0.0970  1.4600
  215MPD1    H1 3270   1.744   0.926  10.588  1.0090 -0.0380  0.2429
  215MPD1    H2 3271   1.438   0.906  10.305 -1.5628  0.7777 -0.2251
  215MPD1    H3 3272   1.601   0.809  10.448  1.8460  0.3076  0.5450
  215MPD1     N 3273   1.758   1.204  10.610  0.8285 -0.3396  0.2449
  215MPD1    H5 3274   1.734   1.302  10.620 -1.1148 -0.8366  0.4059
  215MPD1    N1 3275   1.388   1.169  10.299  0.0277 -0.4315  0.1363
  215MPD1    H6 3276   1.342   1.254  10.332 -0.8030 -0.8170 -0.0183
  215MPD1    H7 3277   1.315   1.100  10.282 -0.9539 -0.0505  2.8820
  216MPD1     C 3278   4.366   2.800  16.096 -0.3629  0.2547  0.6405
  216MPD1    C1 3279   4.348   2.665  16.128 -0.0207  0.2742 -0.7881
  216MPD1    C2 3280   4.401   2.622  16.249  0.1660 -0.7277 -0.0259
  216MPD1    C3 3281   4.464   2.705  16.336 -0.7490 -0.3146 -0.2748
  216MPD1    C4 3282   4.474   2.838  16.301 -1.0157  0.2917 -0.2359
  216MPD1    C5 3283   4.428   2.883  16.186  0.3998 -0.3574 -0.3410
  216MPD1     H 3284   4.396   2.517  16.277 -2.8007 -0.8513 -1.0379
  216MPD1    H1 3285   4.540   2.899  16.361  0.1757 -0.7939 -0.4438
  216MPD1    H2 3286   4.331   2.842  16.003  2.8325 -0.3927 -0.8565
  216MPD1    H3 3287   4.447   2.985  16.155  0.1075 -0.0867  0.3665
  216MPD1     N 3288   4.532   2.655  16.451  0.8312  0.0122 -0.1122
  216MPD1    H5 3289   4.541   2.554  16.457 -0.4236 -0.1618 -0.9982
  216MPD1    N1 3290   4.324   2.565  16.032 -0.0092  0.4283 -0.0321
  216MPD1    H6 3291   4.283   2.482  16.074  0.5487  0.9871  1.6515
  216MPD1    H7 3292   4.257   2.602  15.965  0.3148  0.3136 -0.4216
  217MPD1     C 3293   3.811   0.494   8.649 -0.2351 -0.2884  1.3171
  217MPD1    C1 3294   3.905   0.394   8.639 -0.2411  0.2721  0.1888
  217MPD1    C2 3295   4.006   0.389   8.738 -0.3930 -0.3915 -1.2369
  217MPD1    C3 3296   4.033   0.502   8.815  0.1072 -0.0966  0.0312
  217MPD1    C4 3297   3.939   0.600   8.822  0.1480  0.0312  0.4539
  217MPD1    C5 3298   3.826   0.591   8.746 -0.2270  0.6526 -0.0588
  217MPD1     H 3299   4.072   0.304   8.729 -3.2930 -2.6270 -1.2734
  217MPD1    H1 3300   3.954   0.687   8.885 -1.5507  0.6478  0.0109
  217MPD1    H2 3301   3.722   0.493   8.587 -0.4982 -0.7352  1.7078
  217MPD1    H3 3302   3.755   0.673   8.750 -0.8532  0.0923  0.3656
  217MPD1     N 3303   4.152   0.511   8.900  0.3663  0.3425 -0.6996
  217MPD1    H5 3304   4.157   0.594   8.957  0.3042 -0.7074  0.8175
  217MPD1    N1 3305   3.889   0.282   8.558  0.0321  0.2673 -0.3347
  217MPD1    H6 3306   3.839   0.303   8.472 -0.5436 -1.0936 -0.3246
  217MPD1    H7 3307   3.983   0.251   8.533  1.4949  1.7896  3.2087
  218MPD1     C 3308   0.983   1.036  13.346 -0.0840  0.3680 -0.5809
  218MPD1    C1 3309   1.023   1.167  13.328  0.0887  0.3660  0.8354
  218MPD1    C2 3310   1.161   1.192  13.302 -0.0364 -0.0416 -0.8950
  218MPD1    C3 3311   1.256   1.094  13.288 -0.0453  0.3225 -0.8161
  218MPD1    C4 3312   1.207   0.968  13.285  0.5279 -0.3980  0.2365
  218MPD1    C5 3313   1.079   0.942  13.332  0.2199 -0.3642  0.2599
  218MPD1     H 3314   1.196   1.294  13.295 -0.0525  0.0854  0.7026
  218MPD1    H1 3315   1.274   0.883  13.288  0.3348 -0.4575  3.6341
  218MPD1    H2 3316   0.881   1.015  13.377  0.5503  0.1890  1.3679
  218MPD1    H3 3317   1.042   0.843  13.357  0.5441 -0.4820  0.2734
  218MPD1     N 3318   1.387   1.130  13.251 -0.5567 -0.3587 -0.2715
  218MPD1    H5 3319   1.400   1.225  13.218 -2.1367 -0.1239 -0.2186
  218MPD1    N1 3320   0.928   1.261  13.340  0.4628 -0.0386 -0.1615
  218MPD1    H6 3321   0.958   1.350  13.301 -0.5798 -0.8891 -2.9331
  218MPD1    H7 3322   0.834   1.237  13.308  0.1245  3.2978 -1.6583
  219MPD1     C 3323   1.868   1.373  12.386  0.0597  0.0315  0.1274
  219MPD1    C1 3324   1.807   1.453  12.475  0.0412 -0.3679 -0.4689
  219MPD1    C2 3325   1.755   1.401  12.592  0.0867  0.3586  0.2050
  219MPD1    C3 3326   1.788   1.274  12.626 -0.1240  0.4466  0.2329
  219MPD1    C4 3327   1.854   1.203  12.533 -0.1496 -0.2967 -0.2400
  219MPD1    C5 3328   1.886   1.243  12.412  0.1130  0.0596 -0.2551
  219MPD1     H 3329   1.699   1.463  12.661  0.7784  1.5969 -0.3543
  219MPD1    H1 3330   1.870   1.097  12.549  0.2373 -0.2318 -0.1911
  219MPD1    H2 3331   1.897   1.404  12.286  1.0998 -0.8951  0.1465
  219MPD1    H3 3332   1.941   1.177  12.346 -1.6450 -0.6437 -1.0170
  219MPD1     N 3333   1.773   1.212  12.756  0.6315  0.2655  0.0564
  219MPD1    H5 3334   1.818   1.123  12.770 -2.6427 -1.9739 -3.5621
  219MPD1    N1 3335   1.765   1.579  12.431 -0.0461  0.3653  0.0852
  219MPD1    H6 3336   1.820   1.617  12.354  1.0265  0.4520  0.8997
  219MPD1    H7 3337   1.747   1.642  12.508  0.8114 -2.5819  2.6869
  220MPD1     C 3338   1.592   2.471   9.491 -0.3237  0.4856 -0.2094
  220MPD1    C1 3339   1.695   2.436   9.573 -0.5565 -1.3042 -0.1258
  220MPD1    C2 3340   1.653   2.353   9.681  0.3429  0.2842 -0.8866
  220MPD1    C3 3341   1.529   2.297   9.687  0.6427 -0.2992 -0.4233
  220MPD1    C4 3342   1.439   2.320   9.589  0.1636  0.3649 -0.1450
  220MPD1    C5 3343   1.470   2.413   9.495  0.1876  0.4965  0.1598
  220MPD1     H 3344   1.719   2.336   9.765  0.0681  1.4874 -0.4237
  220MPD1    H1 3345   1.340   2.276   9.580 -0.0098  0.9211 -0.9384
  220MPD1    H2 3346   1.604   2.528   9.400  3.1977  0.3353  0.1744
  220MPD1    H3 3347   1.394   2.446   9.424 -0.8699 -0.1154  0.9936
  220MPD1     N 3348   1.507   2.211   9.800 -0.3950 -0.3644 -0.0502
  220MPD1    H5 3349   1.584   2.209   9.867  2.0035 -2.3543 -2.8566
  220MPD1    N1 3350   1.828   2.475   9.562  0.2435 -0.5039  0.4177
  220MPD1    H6 3351   1.894   2.400   9.582 -0.0317 -0.3571  1.8352
  220MPD1    H7 3352   1.832   2.511   9.467  4.5019 -3.2316 -0.4111
  221MPD1     C 3353   0.857   4.713  17.299  0.5998 -0.2563  0.5042
  221MPD1    C1 3354   0.794   4.603  17.241  0.8619 -0.4368 -0.2661
  221MPD1    C2 3355   0.729   4.611  17.124 -0.0526  0.0853 -0.4549
  221MPD1    C3 3356   0.722   0.023  17.059  0.2917 -0.4598 -0.6813
  221MPD1    C4 3357   0.777   0.133  17.124 -0.5719  0.5477  0.0439
  221MPD1    C5 3358   0.856   0.112  17.232  0.2529  0.2362 -0.1918
  221MPD1     H 3359   0.682   4.527  17.075 -0.7414 -1.6681  3.2015
  221MPD1    H1 3360   0.769   0.237  17.095 -0.5108  0.3716 -0.6002
  221MPD1    H2 3361   0.910   4.714  17.394 -2.4095  1.0484  2.1776
  221MPD1    H3 3362   0.895   0.197  17.286  2.7894 -0.0223 -1.5963
  221MPD1     N 3363   0.640   0.048  16.944 -0.2023 -0.0879 -0.0120
  221MPD1    H5 3364   0.627   0.145  16.917 -1.3843 -0.6333 -1.3859
  221MPD1    N1 3365   0.768   4.489  17.312  0.3700  0.0681  0.3559
  221MPD1    H6 3366   0.822   4.485  17.398 -1.1138  0.0420  1.2872
  221MPD1    H7 3367   0.775   4.407  17.251  0.4602 -0.8397  1.6014
  222MPD1     C 3368   0.526   4.196   0.788 -0.1342  0.5580  0.0833
  222MPD1    C1 3369   0.630   4.244   0.719  0.2089  0.5399 -0.8140
  222MPD1    C2 3370   0.620   4.317   0.601 -0.5126  0.0770 -0.0143
  222MPD1    C3 3371   0.500   4.370   0.562  0.2898  0.0849 -0.0843
  222MPD1    C4 3372   0.384   4.332   0.636  1.0939 -0.4996 -0.3500
  222MPD1    C5 3373   0.396   4.239   0.741 -0.0147  0.7209 -0.1576
  222MPD1     H 3374   0.710   4.340   0.545  1.5159 -1.0196  2.7560
  222MPD1    H1 3375   0.286   4.377   0.623 -0.1648 -2.6931  1.4682
  222MPD1    H2 3376   0.534   4.143   0.882  2.5651  0.8743  0.0231
  222MPD1    H3 3377   0.305   4.206   0.790  0.2087  0.1347 -0.1379
  222MPD1     N 3378   0.485   4.449   0.452  0.3450 -0.5775 -0.8422
  222MPD1    H5 3379   0.392   4.472   0.421  0.5043 -2.6233 -2.7699
  222MPD1    N1 3380   0.763   4.206   0.759  0.0555 -0.2365  0.3771
  222MPD1    H6 3381   0.838   4.269   0.733 -0.1881 -0.7444 -1.5341
  222MPD1    H7 3382   0.777   4.171   0.853  1.2237  1.8564  0.9809
  223MPD1     C 3383   1.158   0.230  17.627  0.0207  0.2964 -0.1367
  223MPD1    C1 3384   1.165   0.123   0.030  0.1975 -0.3400  0.2813
  223MPD1    C2 3385   1.051   0.054   0.065 -0.5884  0.7678  0.6604
  223MPD1    C3 3386   0.933   0.095   0.014  0.6355  1.1946 -0.1359
  223MPD1    C4 3387   0.926   0.193  17.605 -0.3800  0.2148  0.6306
  223MPD1    C5 3388   1.042   0.255  17.566 -0.5285 -0.6628 -0.0213
  223MPD1     H 3389   1.057   4.692   0.135 -0.6218  0.9453  0.8739
  223MPD1    H1 3390   0.833   0.231  17.565 -0.3132 -1.6637 -1.3127
  223MPD1    H2 3391   1.243   0.290  17.595  0.6795 -0.2984  0.5044
  223MPD1    H3 3392   1.034   0.342  17.502  0.9217 -0.5101  0.0090
  223MPD1     N 3393   0.815   0.026   0.046  0.1937  0.0758  0.0198
  223MPD1    H5 3394   0.823   4.659   0.096 -2.0540 -0.3360 -0.3672
  223MPD1    N1 3395   1.285   0.081   0.086 -1.1427 -0.3062  0.1214
  223MPD1    H6 3396   1.354   0.088   0.012 -0.9227 -0.8044  0.2777
  223MPD1    H7 3397   1.271   4.703   0.106  0.2644 -0.2133  1.6402
  224MPD1     C 3398   4.387   1.479   9.045  0.4164  0.3886  0.1870
  224MPD1    C1 3399   4.413   1.349   9.023  0.0424 -0.1376 -0.1462
  224MPD1    C2 3400   4.494   1.289   9.120  0.7557 -0.7840 -0.2311
  224MPD1    C3 3401   4.532   1.358   9.235  0.5648 -0.0445 -0.1727
  224MPD1    C4 3402   4.488   1.488   9.257 -0.0792 -0.3470  0.2872
  224MPD1    C5 3403   4.426   1.551   9.152  0.1231  0.8042  0.1656
  224MPD1     H 3404   4.532   1.190   9.099  0.6179 -0.4607 -1.9491
  224MPD1    H1 3405   4.514   1.539   9.348  3.3671  0.2557 -1.0300
  224MPD1    H2 3406   4.332   1.541   8.975 -0.3322  0.3100  0.7091
  224MPD1    H3 3407   4.414   1.659   9.149  2.7396  1.1884  3.1920
  224MPD1     N 3408   4.610   1.307   9.336 -0.2804 -0.0550 -0.4776
  224MPD1    H5 3409   4.617   1.373   9.412  0.1832 -0.9515  0.2562
  224MPD1    N1 3410   4.351   1.273   8.921 -0.2104 -0.2578 -0.6235
  224MPD1    H6 3411   4.409   1.189   8.916 -0.1321 -0.0349 -3.7260
  224MPD1    H7 3412   4.336   1.309   8.827 -2.2853  1.1676  0.2769
  225MPD1     C 3413   1.419   2.101  12.924 -0.1110 -0.0213  0.6786
  225MPD1    C1 3414   1.520   2.046  12.847 -0.2183 -0.8656  0.8366
  225MPD1    C2 3415   1.509   2.047  12.707  0.2022  0.1275  0.3324
  225MPD1    C3 3416   1.393   2.094  12.652 -0.1259 -0.3154  1.1027
  225MPD1    C4 3417   1.291   2.139  12.730 -0.2683  0.1823  0.1338
  225MPD1    C5 3418   1.308   2.143  12.860 -0.1544  0.5429 -0.1033
  225MPD1     H 3419   1.588   2.014  12.642  0.1140  2.9946 -1.2477
  225MPD1    H1 3420   1.197   2.176  12.690 -0.4302  0.6664  0.9601
  225MPD1    H2 3421   1.416   2.098  13.032 -0.8478  2.6248  0.7483
  225MPD1    H3 3422   1.235   2.186  12.927 -0.8211 -1.1366  0.2612
  225MPD1     N 3423   1.373   2.102  12.511 -0.3484 -0.1151 -0.5881
  225MPD1    H5 3424   1.286   2.140  12.474  0.8973  1.6760 -1.6758
  225MPD1    N1 3425   1.639   2.036  12.909  0.2292 -0.0490 -0.0585
  225MPD1    H6 3426   1.695   1.972  12.853 -1.2582 -0.6597 -0.8597
  225MPD1    H7 3427   1.632   1.991  12.999 -0.0113 -0.2453 -0.1758
  226MPD1     C 3428   3.700   1.733   9.592  0.1340  1.2087 -1.2325
  226MPD1    C1 3429   3.668   1.869   9.605 -0.2972 -0.6755  0.7509
  226MPD1    C2 3430   3.770   1.957   9.573  0.4959 -0.2075 -0.2286
  226MPD1    C3 3431   3.885   1.925   9.513 -0.3077 -0.4194 -0.5294
  226MPD1    C4 3432   3.905   1.792   9.475  0.7392  0.1332 -0.4059
  226MPD1    C5 3433   3.812   1.698   9.517 -0.1207 -0.6218  0.7445
  226MPD1     H 3434   3.758   2.062   9.596 -2.5915 -0.4306 -0.6941
  226MPD1    H1 3435   3.987   1.756   9.414 -0.2234 -1.0539 -0.9856
  226MPD1    H2 3436   3.638   1.647   9.613 -0.6744  2.1749  0.3245
  226MPD1    H3 3437   3.853   1.605   9.480 -1.0165 -1.1149  1.0143
  226MPD1     N 3438   3.973   2.034   9.486 -0.1673  0.6587  0.2354
  226MPD1    H5 3439   3.939   2.126   9.510  0.3407  0.5175  1.4851
  226MPD1    N1 3440   3.558   1.910   9.689 -0.1123 -0.0169  0.0364
  226MPD1    H6 3441   3.482   1.844   9.704  2.5542 -3.1310 -0.2304
  226MPD1    H7 3442   3.520   2.002   9.670 -0.0592  0.1869  0.8906
  227MPD1     C 3443   3.770   2.840   9.433 -0.3306 -0.1576  0.0895
  227MPD1    C1 3444   3.718   2.718   9.478  0.0670 -0.3622 -1.5535
  227MPD1    C2 3445   3.795   2.606   9.465  0.1253 -0.5604  0.5144
  227MPD1    C3 3446   3.931   2.615   9.433 -0.0017  0.4070 -0.3438
  227MPD1    C4 3447   3.983   2.738   9.391 -0.5728 -0.0916 -0.3806
  227MPD1    C5 3448   3.896   2.847   9.385 -0.2272  0.5343 -0.0154
  227MPD1     H 3449   3.747   2.509   9.465 -0.1645 -0.4152 -0.0418
  227MPD1    H1 3450   4.086   2.744   9.358 -0.0144 -1.1588  1.1566
  227MPD1    H2 3451   3.709   2.930   9.430 -0.0186  0.1384  2.3373
  227MPD1    H3 3452   3.940   2.941   9.355  0.8232 -0.7512 -2.5229
  227MPD1     N 3453   4.016   2.496   9.442  0.0924  0.1553  0.6140
  227MPD1    H5 3454   3.969   2.424   9.497 -2.0922 -0.0091 -1.4893
  227MPD1    N1 3455   3.580   2.707   9.493  0.1187  0.2900 -0.2292
  227MPD1    H6 3456   3.537   2.795   9.521  1.1999  0.8053 -0.1943
  227MPD1    H7 3457   3.540   2.643   9.561  2.1995 -0.8232 -0.0572
  228MPD1     C 3458   3.603   0.240  12.325 -0.2576 -0.4152 -0.4374
  228MPD1    C1 3459   3.516   0.182  12.233  0.1365  0.0756  0.2182
  228MPD1    C2 3460   3.409   0.123  12.294 -0.2940  0.7610 -0.2562
  228MPD1    C3 3461   3.399   0.116  12.435  0.6082 -0.1818  0.2875
  228MPD1    C4 3462   3.491   0.167  12.516  0.3439  0.7001 -0.9118
  228MPD1    C5 3463   3.594   0.228  12.456 -0.2175  0.2010  0.0286
  228MPD1     H 3464   3.328   0.080  12.237 -0.2613  0.5272 -0.1250
  228MPD1    H1 3465   3.505   0.163  12.623  1.2462 -0.2362 -1.0669
  228MPD1    H2 3466   3.697   0.287  12.296 -1.0813  1.0695 -0.6937
  228MPD1    H3 3467   3.675   0.267  12.516  0.9397 -0.2761 -1.2188
  228MPD1     N 3468   3.287   0.042  12.478  0.1701 -0.3451 -0.1283
  228MPD1    H5 3469   3.220   0.017  12.406 -1.4530  2.9869  0.1828
  228MPD1    N1 3470   3.509   0.210  12.095  0.2126 -0.5099 -0.8372
  228MPD1    H6 3471   3.448   0.142  12.050  1.0301 -1.2716 -0.8036
  228MPD1    H7 3472   3.603   0.206  12.055  1.3996 -0.0025  1.8742
  229MPD1     C 3473   3.329   3.657  14.485 -0.0102  0.3122  0.1876
  229MPD1    C1 3474   3.421   3.565  14.434  0.6904 -0.0711  0.1965
  229MPD1    C2 3475   3.401   3.433  14.453  0.5710  0.1801  0.0379
  229MPD1    C3 3476   3.287   3.389  14.518  0.8183  0.3442 -0.2952
  229MPD1    C4 3477   3.199   3.483  14.565 -0.4319  0.4838  0.4108
  229MPD1    C5 3478   3.217   3.613  14.545 -0.2105 -0.1761 -0.0056
  229MPD1     H 3479   3.467   3.358  14.410 -0.8017 -0.8027 -0.3211
  229MPD1    H1 3480   3.107   3.452  14.614 -2.1425  1.5928 -2.0690
  229MPD1    H2 3481   3.342   3.764  14.481  0.9829  0.1131 -1.6089
  229MPD1    H3 3482   3.144   3.684  14.582  1.0329  0.3666  1.4029
  229MPD1     N 3483   3.259   3.252  14.548 -0.4291  0.2245 -0.0503
  229MPD1    H5 3484   3.184   3.233  14.613 -0.4007 -1.5949 -0.5484
  229MPD1    N1 3485   3.544   3.619  14.387 -0.0623  0.1739  0.3417
  229MPD1    H6 3486   3.523   3.694  14.322  1.0854 -0.9698 -1.3535
  229MPD1    H7 3487   3.601   3.558  14.329 -1.2864 -0.1422 -0.5397
  230MPD1     C 3488   2.711   3.121  15.150  0.2761 -0.4401 -0.0829
  230MPD1    C1 3489   2.696   3.178  15.024 -0.5379 -0.0235 -0.0235
  230MPD1    C2 3490   2.795   3.146  14.930  0.2206  0.6314 -0.4458
  230MPD1    C3 3491   2.891   3.050  14.952  0.2556 -0.0554 -0.2455
  230MPD1    C4 3492   2.889   2.983  15.079  0.3886 -0.2090  0.2246
  230MPD1    C5 3493   2.802   3.019  15.179 -0.1320 -0.2728 -0.2366
  230MPD1     H 3494   2.796   3.197  14.835  0.8306  1.4680  0.0058
  230MPD1    H1 3495   2.955   2.898  15.085 -0.0735 -0.6856 -1.4364
  230MPD1    H2 3496   2.643   3.146  15.230 -1.2696 -0.3518 -1.4376
  230MPD1    H3 3497   2.796   2.974  15.278 -1.6659 -0.8916 -0.6142
  230MPD1     N 3498   2.990   3.016  14.854  0.6045 -0.4954  0.7761
  230MPD1    H5 3499   2.974   3.054  14.762  0.1994  1.6856  1.7448
  230MPD1    N1 3500   2.617   3.289  14.998  0.3865 -0.0695 -0.0354
  230MPD1    H6 3501   2.531   3.283  15.051  0.5297  3.2282  0.5736
  230MPD1    H7 3502   2.604   3.311  14.899  2.0047  2.4926  0.3269
  231MPD1     C 3503   1.078   0.329  15.656  1.0447  0.2937 -0.3633
  231MPD1    C1 3504   1.075   0.280  15.526  0.2539  0.6474 -0.3838
  231MPD1    C2 3505   1.183   0.304  15.443 -0.4740 -0.6264  0.4357
  231MPD1    C3 3506   1.287   0.391  15.477 -0.2032  0.0673 -0.3170
  231MPD1    C4 3507   1.285   0.441  15.605  0.1999 -0.3040 -0.1062
  231MPD1    C5 3508   1.178   0.413  15.696  0.3169  0.1689  0.3519
  231MPD1     H 3509   1.189   0.257  15.345 -1.3342 -0.1801  0.1636
  231MPD1    H1 3510   1.352   0.523  15.629 -0.0216  0.6947 -2.9112
  231MPD1    H2 3511   1.001   0.305  15.728  1.6660 -1.1042 -0.1667
  231MPD1    H3 3512   1.175   0.458  15.795 -0.3005  1.5791 -0.2961
  231MPD1     N 3513   1.394   0.409  15.382 -0.1632  0.4986 -0.1867
  231MPD1    H5 3514   1.371   0.406  15.283 -0.9571 -2.7996  0.0962
  231MPD1    N1 3515   0.996   0.163  15.499  0.1812 -0.1459  0.2749
  231MPD1    H6 3516   0.904   0.174  15.541 -0.2465  2.2204 -1.3389
  231MPD1    H7 3517   0.991   0.146  15.399  2.0248  1.2117 -0.0457
  232MPD1     C 3518   3.899   3.316  17.556 -0.7613 -0.1679  0.1679
  232MPD1    C1 3519   3.923   3.178  17.544  0.1270 -0.4353 -0.2228
  232MPD1    C2 3520   3.864   3.103  17.641 -0.5133 -0.3564  0.3454
  232MPD1    C3 3521   3.780   3.159   0.050 -0.1853 -0.5927  0.4949
  232MPD1    C4 3522   3.745   3.298   0.048 -0.0210 -0.2700  0.2949
  232MPD1    C5 3523   3.822   3.374  17.648 -0.2044 -0.5898 -0.0518
  232MPD1     H 3524   3.882   2.996  17.641 -0.6095 -0.3575  3.3798
  232MPD1    H1 3525   3.677   3.344   0.118 -0.6590  0.6586 -0.9432
  232MPD1    H2 3526   3.958   3.389  17.501  0.4171 -0.8658  0.5131
  232MPD1    H3 3527   3.825   3.483  17.652 -0.1497 -0.6846  2.4553
  232MPD1     N 3528   3.714   3.068   0.141  0.1341 -0.0895  0.8095
  232MPD1    H5 3529   3.721   2.970   0.117  2.0270 -0.2590  2.0797
  232MPD1    N1 3530   4.024   3.121  17.472 -0.7353 -0.2385 -0.9845
  232MPD1    H6 3531   4.060   3.173  17.392  1.8507 -0.2507  0.2040
  232MPD1    H7 3532   4.006   3.023  17.454 -1.7843 -0.2820  0.2094
  233MPD1     C 3533   4.010   1.337   1.403  0.5622 -0.4185 -1.1250
  233MPD1    C1 3534   4.088   1.437   1.353 -0.0974 -0.4374 -0.4275
  233MPD1    C2 3535   4.225   1.423   1.371 -0.3963 -0.3197 -0.3944
  233MPD1    C3 3536   4.285   1.318   1.433 -1.2876  0.1583 -0.1187
  233MPD1    C4 3537   4.207   1.224   1.492  0.0671 -0.0826  0.6342
  233MPD1    C5 3538   4.071   1.233   1.469  0.8469  0.4822  0.7974
  233MPD1     H 3539   4.288   1.501   1.330 -0.4087  0.1157  0.4293
  233MPD1    H1 3540   4.258   1.134   1.525  1.6234  0.5184 -0.1472
  233MPD1    H2 3541   3.904   1.324   1.382  0.4091 -0.3219 -0.4370
  233MPD1    H3 3542   4.017   1.141   1.489 -0.8531  1.7582  2.1506
  233MPD1     N 3543   4.426   1.306   1.428 -0.1453 -0.1647 -0.3423
  233MPD1    H5 3544   4.476   1.232   1.477 -0.7558 -2.2458 -2.8545
  233MPD1    N1 3545   4.028   1.536   1.275 -0.4563  0.0042 -1.0114
  233MPD1    H6 3546   3.936   1.559   1.312  0.6997  1.9106  0.6694
  233MPD1    H7 3547   4.088   1.616   1.258 -0.9100  0.8460  1.3595
  234MPD1     C 3548   1.393   0.072   9.259 -0.2321 -0.0190  0.1034
  234MPD1    C1 3549   1.360   0.159   9.357 -0.9720 -0.8126  0.6337
  234MPD1    C2 3550   1.234   0.157   9.401  0.5477  0.6202  0.0208
  234MPD1    C3 3551   1.139   0.072   9.342  0.7472  0.2331  0.7787
  234MPD1    C4 3552   1.183   4.697   9.254 -0.1905 -0.0840  0.4631
  234MPD1    C5 3553   1.308   4.698   9.203 -0.2388  0.0901  0.1711
  234MPD1     H 3554   1.199   0.231   9.472 -0.1523  0.5635 -0.2656
  234MPD1    H1 3555   1.118   4.622   9.210  1.3659 -1.1123 -0.0856
  234MPD1    H2 3556   1.497   0.060   9.229 -0.1757 -0.0719  0.3208
  234MPD1    H3 3557   1.358   4.626   9.139  0.6823 -0.4796  1.5201
  234MPD1     N 3558   1.004   0.085   9.378 -0.1457 -0.1488 -0.1537
  234MPD1    H5 3559   0.984   0.164   9.438  0.6218  0.9697 -1.3803
  234MPD1    N1 3560   1.454   0.261   9.389 -0.1931  0.3258  0.0622
  234MPD1    H6 3561   1.452   0.277   9.489  0.2955  0.5988  0.0248
  234MPD1    H7 3562   1.545   0.221   9.370 -0.5822 -1.8384  2.7386
  235MPD1     C 3563   0.231   2.770   9.631  0.0763 -0.2095  0.0955
  235MPD1    C1 3564   0.324   2.790   9.727 -0.5615  0.0603  0.0012
  235MPD1    C2 3565   0.431   2.872   9.695  0.2791  0.2919 -0.2652
  235MPD1    C3 3566   0.436   2.947   9.581 -0.1201 -0.1248 -0.9480
  235MPD1    C4 3567   0.340   2.923   9.487  0.0922 -0.1505  0.8477
  235MPD1    C5 3568   0.234   2.839   9.510  0.1151 -0.4991  0.7279
  235MPD1     H 3569   0.512   2.884   9.766  2.1253  0.2139 -2.3468
  235MPD1    H1 3570   0.345   2.961   9.385  2.2784 -1.5355  0.4237
  235MPD1    H2 3571   0.140   2.713   9.643 -0.1679  0.3284  0.7685
  235MPD1    H3 3572   0.169   2.800   9.433 -1.7017 -1.0102  2.5067
  235MPD1     N 3573   0.546   3.026   9.556  0.0909 -0.0200 -0.4538
  235MPD1    H5 3574   0.618   3.031   9.628 -1.4773  2.4941  0.9342
  235MPD1    N1 3575   0.327   2.709   9.841 -0.4517 -0.0443 -0.6972
  235MPD1    H6 3576   0.357   2.745   9.931 -3.9391 -0.8759  0.7901
  235MPD1    H7 3577   0.238   2.668   9.868 -0.4873  0.8138  0.5180
  236MPD1     C 3578   2.199   3.745  10.313 -1.0004  0.5588 -0.6639
  236MPD1    C1 3579   2.067   3.703  10.323 -0.4511 -0.5145 -0.6699
  236MPD1    C2 3580   2.047   3.571  10.361  0.1175  0.7055 -0.5032
  236MPD1    C3 3581   2.150   3.493  10.401 -0.6155 -0.2002  0.3694
  236MPD1    C4 3582   2.281   3.540  10.397 -0.4686  0.1567  0.4570
  236MPD1    C5 3583   2.304   3.671  10.366 -0.3493  0.4269  0.1755
  236MPD1     H 3584   1.949   3.527  10.353  0.1478  0.1300  2.1587
  236MPD1    H1 3585   2.365   3.478  10.424  0.1319  0.0042 -1.7749
  236MPD1    H2 3586   2.223   3.846  10.283 -1.9237  1.3054  1.1192
  236MPD1    H3 3587   2.406   3.703  10.381 -0.5309  1.4847 -0.8193
  236MPD1     N 3588   2.136   3.361  10.454 -0.2485  0.3837  0.0944
  236MPD1    H5 3589   2.221   3.308  10.470  0.7542  1.5554 -1.3948
  236MPD1    N1 3590   1.959   3.781  10.271 -0.2561  0.5314  0.2928
  236MPD1    H6 3591   1.984   3.880  10.268  0.1678  0.5035  2.8213
  236MPD1    H7 3592   1.870   3.758  10.314 -0.2981  3.7711  1.9903
  237MPD1     C 3593   2.179   1.670  14.917 -0.4519 -0.5854 -0.3510
  237MPD1    C1 3594   2.089   1.711  14.822 -0.4007  1.2159 -0.3334
  237MPD1    C2 3595   1.956   1.714  14.858  0.0774  0.3630 -0.6024
  237MPD1    C3 3596   1.923   1.689  14.988  0.5712 -0.5605 -0.6704
  237MPD1    C4 3597   2.024   1.673  15.084  0.1636  0.6768  0.1532
  237MPD1    C5 3598   2.153   1.661  15.049 -0.2244 -0.1596  0.0516
  237MPD1     H 3599   1.876   1.719  14.784 -0.5004 -0.2712 -0.0197
  237MPD1    H1 3600   2.009   1.650  15.189  1.3451  2.9114  0.8077
  237MPD1    H2 3601   2.279   1.655  14.877 -0.5441  0.1077 -0.8343
  237MPD1    H3 3602   2.226   1.635  15.125  0.5901 -1.2786 -1.1160
  237MPD1     N 3603   1.789   1.674  15.033  0.6904  0.1621  0.8673
  237MPD1    H5 3604   1.783   1.645  15.130 -3.0713 -2.1939 -0.0565
  237MPD1    N1 3605   2.136   1.716  14.684 -0.2794  0.4227 -0.0151
  237MPD1    H6 3606   2.091   1.791  14.631 -2.2453 -0.7128  0.0469
  237MPD1    H7 3607   2.233   1.745  14.670 -0.2146 -1.3476 -3.3589
  238MPD1     C 3608   3.406   4.046  15.135  0.0470 -0.1668 -0.7053
  238MPD1    C1 3609   3.492   4.150  15.107 -0.0829  0.1529 -0.5311
  238MPD1    C2 3610   3.440   4.273  15.065 -0.6723 -0.0345  0.7144
  238MPD1    C3 3611   3.301   4.296  15.061  0.4398  0.0155 -0.0226
  238MPD1    C4 3612   3.219   4.191  15.095 -0.0889 -0.2213 -0.0890
  238MPD1    C5 3613   3.273   4.068  15.133  0.1130 -0.3854 -0.0087
  238MPD1     H 3614   3.504   4.360  15.052 -0.5708 -0.0365  1.2201
  238MPD1    H1 3615   3.112   4.199  15.076 -0.3761  1.2749  2.1963
  238MPD1    H2 3616   3.445   3.949  15.161 -0.1722 -0.0111  0.1905
  238MPD1    H3 3617   3.212   3.981  15.157 -1.2607  0.6654  0.3191
  238MPD1     N 3618   3.233   4.416  15.037  0.8240  0.5897 -0.0181
  238MPD1    H5 3619   3.132   4.405  15.038  0.9663 -0.6338 -0.3540
  238MPD1    N1 3620   3.627   4.137  15.144  0.4073  0.4085 -0.5588
  238MPD1    H6 3621   3.679   4.222  15.123  0.7393  0.2358 -0.4420
  238MPD1    H7 3622   3.669   4.049  15.115 -0.3401 -0.8957  2.2663
  239MPD1     C 3623   4.023   1.230  14.620 -0.7905 -0.4553 -0.3317
  239MPD1    C1 3624   4.070   1.174  14.508  0.1541  0.4850  0.1004
  239MPD1    C2 3625   3.993   1.178  14.395 -0.0845 -0.1725 -0.0441
  239MPD1    C3 3626   3.862   1.226  14.401 -0.0168  0.2933  0.2950
  239MPD1    C4 3627   3.811   1.259  14.523 -0.4488  0.3085 -0.1475
  239MPD1    C5 3628   3.888   1.264  14.631 -0.6250 -1.0914 -0.5844
  239MPD1     H 3629   4.044   1.159  14.301 -0.4640  1.8623 -0.6643
  239MPD1    H1 3630   3.709   1.295  14.527 -0.9693 -1.4549  2.7466
  239MPD1    H2 3631   4.084   1.261  14.704 -1.0885 -0.4908 -0.1034
  239MPD1    H3 3632   3.852   1.313  14.720 -0.4998 -0.6542 -0.7742
  239MPD1     N 3633   3.778   1.254  14.291 -0.1243  0.0805 -0.3557
  239MPD1    H5 3634   3.685   1.286  14.316  0.5858  0.7141  1.4920
  239MPD1    N1 3635   4.211   1.164  14.504 -0.2728  0.3796 -0.0366
  239MPD1    H6 3636   4.238   1.127  14.595  1.5422 -1.6080 -1.4033
  239MPD1    H7 3637   4.238   1.095  14.435  1.4463  0.4215  0.5771
  240MPD1     C 3638   1.578   3.838  13.386 -0.5983 -0.9174 -0.1386
  240MPD1    C1 3639   1.717   3.830  13.394  0.5230 -0.2155 -1.0043
  240MPD1    C2 3640   1.790   3.932  13.460 -0.1383  0.1910 -0.5672
  240MPD1    C3 3641   1.728   4.042  13.509 -0.2002  0.8251 -0.1388
  240MPD1    C4 3642   1.592   4.046  13.500  0.2118 -0.0443  0.0427
  240MPD1    C5 3643   1.514   3.946  13.444  0.2722 -0.2310  0.3126
  240MPD1     H 3644   1.898   3.927  13.452 -0.2389 -2.1108 -0.6647
  240MPD1    H1 3645   1.532   4.131  13.529  0.0666  0.3581 -1.4079
  240MPD1    H2 3646   1.516   3.766  13.334  0.9378 -0.9360 -1.9475
  240MPD1    H3 3647   1.409   3.969  13.428 -0.4898 -3.3972  0.7853
  240MPD1     N 3648   1.816   4.144  13.553  0.0922  0.9959  0.3473
  240MPD1    H5 3649   1.914   4.121  13.544 -0.4429 -0.7306 -1.2687
  240MPD1    N1 3650   1.780   3.732  13.325 -0.8169 -0.0622  0.1053
  240MPD1    H6 3651   1.722   3.648  13.329 -1.4069  0.3448  0.0818
  240MPD1    H7 3652   1.873   3.708  13.358 -0.1694  0.6434 -1.2157
  241MPD1     C 3653   2.119   0.151  13.149  0.1388 -0.4208  0.3883
  241MPD1    C1 3654   2.204   0.149  13.261 -0.4533  0.4413  0.1320
  241MPD1    C2 3655   2.177   0.055  13.353 -1.1715  0.8983  0.3006
  241MPD1    C3 3656   2.090   4.672  13.330 -0.3618  0.1622  0.1564
  241MPD1    C4 3657   2.009   4.673  13.211 -0.9860  0.2847  0.3107
  241MPD1    C5 3658   2.018   0.059  13.136  0.0212 -0.1742 -0.0286
  241MPD1     H 3659   2.215   0.064  13.455  1.3013 -1.5404 -0.4050
  241MPD1    H1 3660   1.938   4.598  13.178  1.6193 -1.6693 -0.8209
  241MPD1    H2 3661   2.110   0.225  13.071  2.0884  1.1699  1.6440
  241MPD1    H3 3662   1.961   0.076  13.045  0.5306 -0.3627 -0.3882
  241MPD1     N 3663   2.066   4.564  13.419  0.0359  0.5799  0.4145
  241MPD1    H5 3664   1.981   4.510  13.415  0.5634 -0.2870  0.8580
  241MPD1    N1 3665   2.260   0.269  13.301  0.5268 -0.2163  0.3518
  241MPD1    H6 3666   2.301   0.309  13.217 -0.6759 -3.9194 -1.9888
  241MPD1    H7 3667   2.328   0.263  13.376  1.0094  0.4468 -0.0355
  242MPD1     C 3668   2.155   3.817  14.874 -0.0282 -0.0794 -0.4380
  242MPD1    C1 3669   2.197   3.881  14.994 -0.0465  0.2547  0.4472
  242MPD1    C2 3670   2.317   3.954  14.998  0.8352 -0.5373 -0.5308
  242MPD1    C3 3671   2.396   3.952  14.890  0.3348  0.4030  0.0879
  242MPD1    C4 3672   2.353   3.894  14.773  0.9652 -0.2475 -0.2917
  242MPD1    C5 3673   2.231   3.835  14.763  0.3647  0.4511  0.3129
  242MPD1     H 3674   2.361   4.001  15.086  0.5014 -2.3759  0.6102
  242MPD1    H1 3675   2.416   3.895  14.684  1.9211  0.2316  0.4017
  242MPD1    H2 3676   2.058   3.769  14.869 -0.4231  0.9547 -2.7876
  242MPD1    H3 3677   2.199   3.796  14.667  1.4647  0.7596 -0.1761
  242MPD1     N 3678   2.523   4.014  14.891 -0.6524  0.2960 -0.0906
  242MPD1    H5 3679   2.569   4.008  14.800  2.7086  0.3518  1.5992
  242MPD1    N1 3680   2.122   3.858  15.111  0.8128  0.3270  0.4506
  242MPD1    H6 3681   2.022   3.843  15.108  0.7358  0.7129  1.1930
  242MPD1    H7 3682   2.141   3.916  15.192 -2.8978  1.1296  0.7060
  243MPD1     C 3683   3.800   2.016   0.440 -0.2416  0.1307 -0.5299
  243MPD1    C1 3684   3.914   1.938   0.460 -0.3723 -0.0184  0.7954
  243MPD1    C2 3685   3.952   1.847   0.363 -0.6781 -0.1086  0.1587
  243MPD1    C3 3686   3.883   1.842   0.244  0.5130 -0.5836  0.7934
  243MPD1    C4 3687   3.775   1.916   0.215 -0.3542 -0.6574  0.2694
  243MPD1    C5 3688   3.730   1.995   0.324  0.2084 -0.6545  0.3986
  243MPD1     H 3689   4.032   1.778   0.387 -0.2377  0.0971 -0.7264
  243MPD1    H1 3690   3.726   1.915   0.119  0.3658  0.0383 -0.1102
  243MPD1    H2 3691   3.766   2.085   0.516  0.2475  1.1170 -1.2197
  243MPD1    H3 3692   3.644   2.058   0.306 -0.0072 -0.8254  0.8407
  243MPD1     N 3693   3.939   1.753   0.151  0.1079  0.0968  0.1213
  243MPD1    H5 3694   4.019   1.700   0.184 -0.3476  0.1494  1.3050
  243MPD1    N1 3695   3.981   1.926   0.586  0.4473  0.8467  0.1093
  243MPD1    H6 3696   3.972   2.011   0.642  0.6699  1.4050 -0.6954
  243MPD1    H7 3697   4.080   1.906   0.572 -0.0006 -0.7295 -0.6855
  244MPD1     C 3698   4.351   1.106   0.421  0.2408  0.6240 -0.0432
  244MPD1    C1 3699   4.346   1.240   0.447 -0.4776  0.6768  0.1105
  244MPD1    C2 3700   4.286   1.328   0.356  0.7394  0.2929 -0.5228
  244MPD1    C3 3701   4.253   1.273   0.229  0.1335 -0.3930 -0.3556
  244MPD1    C4 3702   4.266   1.138   0.204 -0.0502 -0.2400  0.1797
  244MPD1    C5 3703   4.310   1.056   0.300 -0.1278  0.4682  0.3183
  244MPD1     H 3704   4.268   1.433   0.372  1.7940  0.3247  0.4877
  244MPD1    H1 3705   4.232   1.097   0.109 -1.8753 -0.1625  0.7958
  244MPD1    H2 3706   4.403   1.038   0.488  1.4936  2.2140  0.6131
  244MPD1    H3 3707   4.318   0.950   0.279  0.6529  0.1982  1.9612
  244MPD1     N 3708   4.205   1.360   0.130  0.0042  0.4897 -0.4539
  244MPD1    H5 3709   4.190   1.456   0.158  3.4065  1.0417 -0.5405
  244MPD1    N1 3710   4.401   1.291   0.566 -0.4520 -0.1259 -0.6763
  244MPD1    H6 3711   4.477   1.233   0.602 -0.0360  2.5130  2.7380
  244MPD1    H7 3712   4.430   1.389   0.566 -1.6943  0.2381 -1.1797
  245MPD1     C 3713   1.108   2.804  13.206 -0.0444 -0.2438 -0.7607
  245MPD1    C1 3714   1.241   2.789  13.222 -0.3887 -0.3827  0.2976
  245MPD1    C2 3715   1.301   2.895  13.288  0.2556 -0.3049  0.2533
  245MPD1    C3 3716   1.247   3.016  13.312 -0.2385  0.2381 -0.1245
  245MPD1    C4 3717   1.114   3.028  13.291 -0.2182 -0.3197  0.3521
  245MPD1    C5 3718   1.045   2.921  13.249 -0.3283 -0.7260  0.5721
  245MPD1     H 3719   1.407   2.892  13.310  0.5815 -1.5732 -1.5068
  245MPD1    H1 3720   1.049   3.108  13.326 -0.2827 -0.6530  0.9853
  245MPD1    H2 3721   1.046   2.727  13.161  1.0863 -0.5515 -1.7817
  245MPD1    H3 3722   0.937   2.917  13.250 -0.2848 -2.1598 -0.7212
  245MPD1     N 3723   1.318   3.115  13.383  0.1715  0.2156 -0.0049
  245MPD1    H5 3724   1.407   3.095  13.428  1.4963  0.1539 -2.6194
  245MPD1    N1 3725   1.302   2.669  13.192 -0.2642 -0.0796  0.5070
  245MPD1    H6 3726   1.403   2.676  13.203 -0.1681  1.0098 -1.0952
  245MPD1    H7 3727   1.257   2.629  13.110  0.1486  0.3885  0.0518
  246MPD1     C 3728   4.534   2.678   9.915  0.9446 -0.1018  0.1799
  246MPD1    C1 3729   4.546   2.694   9.779 -0.1336 -0.6326  0.1150
  246MPD1    C2 3730   4.610   2.804   9.733  0.6058  0.3175 -0.3684
  246MPD1    C3 3731   4.667   2.904   9.816  0.4398  0.3612  0.3895
  246MPD1    C4 3732   4.639   2.897   9.951 -0.7440 -0.2485 -0.8916
  246MPD1    C5 3733   4.572   2.783   9.999  0.3886 -0.2223 -0.3559
  246MPD1     H 3734   4.618   2.821   9.627 -0.3273 -0.5396 -0.5664
  246MPD1    H1 3735   4.681   2.975  10.014  0.1750 -0.3300 -1.4058
  246MPD1    H2 3736   4.482   2.594   9.960  1.5366  0.3508  1.7246
  246MPD1    H3 3737   4.555   2.770  10.106 -2.1574 -2.2608 -1.0043
  246MPD1     N 3738   0.016   3.002   9.745 -0.2973 -0.1110 -0.6595
  246MPD1    H5 3739   0.040   2.986   9.648  0.5787  2.6936 -0.9057
  246MPD1    N1 3740   4.538   2.582   9.691 -0.5938  0.2875  0.3283
  246MPD1    H6 3741   4.472   2.516   9.732  2.3104 -2.3509  0.7239
  246MPD1    H7 3742   4.498   2.603   9.600 -0.5165 -1.4119 -0.0878
  247MPD1     C 3743   0.814   3.195  16.943 -0.2876 -0.8372  0.1028
  247MPD1    C1 3744   0.872   3.071  16.947  0.0330  0.0868  0.1723
  247MPD1    C2 3745   0.857   2.989  16.834 -0.3865 -0.2548 -0.9107
  247MPD1    C3 3746   0.821   3.032  16.709  0.6960  0.1504 -0.4268
  247MPD1    C4 3747   0.782   3.163  16.705 -1.0405  0.0132  0.2916
  247MPD1    C5 3748   0.778   3.243  16.815 -0.3883  0.3303  0.4464
  247MPD1     H 3749   0.879   2.884  16.845 -0.3605 -0.3985 -2.2801
  247MPD1    H1 3750   0.754   3.214  16.613 -0.9687 -2.1844 -0.9416
  247MPD1    H2 3751   0.814   3.257  17.032  0.4094  1.1173 -1.2621
  247MPD1    H3 3752   0.731   3.340  16.806 -0.5701  0.0500 -1.5724
  247MPD1     N 3753   0.807   2.951  16.606 -0.2699 -0.0937  0.2717
  247MPD1    H5 3754   0.770   2.996  16.523 -1.6714 -1.2167  0.2765
  247MPD1    N1 3755   0.882   3.002  17.068 -0.0509 -0.1929 -0.2861
  247MPD1    H6 3756   0.927   2.911  17.055 -0.1100  0.0951 -2.5247
  247MPD1    H7 3757   0.923   3.056  17.144  0.9295 -1.0858 -0.1757
  248MPD1     C 3758   1.856   2.797  16.930 -0.4506 -0.2311 -0.6860
  248MPD1    C1 3759   1.975   2.768  16.987  0.4040 -0.1933  0.5978
  248MPD1    C2 3760   2.001   2.809  17.117 -0.1226 -0.0597 -0.1102
  248MPD1    C3 3761   1.912   2.883  17.191  0.3927 -0.1408  0.1242
  248MPD1    C4 3762   1.797   2.917  17.125 -1.4023 -0.1580 -0.0875
  248MPD1    C5 3763   1.770   2.874  16.997  0.4024  0.2180 -0.1936
  248MPD1     H 3764   2.097   2.797  17.167 -0.2489  0.2110  0.1912
  248MPD1    H1 3765   1.716   2.959  17.184 -2.3402 -1.7757 -0.2355
  248MPD1    H2 3766   1.821   2.760  16.834  0.3878  2.1692 -1.9193
  248MPD1    H3 3767   1.676   2.898  16.948 -0.6577 -0.0683  1.7334
  248MPD1     N 3768   1.955   2.924  17.315  0.3594 -0.7046  0.5151
  248MPD1    H5 3769   2.038   2.881  17.353 -0.3674 -1.0983  1.6649
  248MPD1    N1 3770   2.062   2.684  16.919 -0.4308 -0.5566 -0.4623
  248MPD1    H6 3771   2.159   2.684  16.952 -0.9507 -0.5271  1.0600
  248MPD1    H7 3772   2.056   2.689  16.818 -1.8130  2.4159 -0.2233
  249MPD1     C 3773   2.567   1.347  10.182  0.4620 -0.1675  0.1619
  249MPD1    C1 3774   2.653   1.441  10.132  0.1746  0.7381  0.3912
  249MPD1    C2 3775   2.588   1.525  10.041  0.7524  0.6853 -0.1358
  249MPD1    C3 3776   2.453   1.523  10.013 -0.3065  0.3758 -0.4351
  249MPD1    C4 3777   2.371   1.431  10.079  0.3742 -0.1630 -0.3225
  249MPD1    C5 3778   2.432   1.342  10.160  0.1643  0.0957  0.5982
  249MPD1     H 3779   2.645   1.601   9.990 -1.4794  0.0093 -3.6022
  249MPD1    H1 3780   2.263   1.431  10.087  0.3944  0.4312 -0.0223
  249MPD1    H2 3781   2.613   1.261  10.229 -0.6983  0.3106  2.1412
  249MPD1    H3 3782   2.380   1.260  10.209 -0.3053 -0.6132 -1.1048
  249MPD1     N 3783   2.407   1.616   9.912  0.6149 -0.3049  0.8800
  249MPD1    H5 3784   2.472   1.691   9.892  1.4820 -1.7819 -1.9060
  249MPD1    N1 3785   2.789   1.433  10.143  0.0954  0.2173  0.1649
  249MPD1    H6 3786   2.841   1.518  10.121  0.7140 -0.1938  0.0014
  249MPD1    H7 3787   2.823   1.393  10.230 -0.2955 -0.9215 -0.2021
  250MPD2     C 3788   4.606   1.736  12.926  0.2280  0.0945 -0.5416
  250MPD2    C1 3789   4.495   1.818  12.972  0.1302 -0.5307 -0.0228
  250MPD2    C2 3790   4.377   1.751  12.981  0.2467  0.1323 -0.2610
  250MPD2    C3 3791   4.356   1.620  12.948  0.9272  0.5939 -1.0313
  250MPD2    C4 3792   4.465   1.544  12.900  0.4241 -0.1665  0.7508
  250MPD2    C5 3793   4.585   1.604  12.886 -0.0793 -1.6130 -0.8397
  250MPD2     H 3794   4.286   1.792  13.022  1.6453  1.9712  0.9980
  250MPD2    H1 3795   4.458   1.438  12.875  0.3293 -0.1872  0.8634
  250MPD2    H2 3796   4.710   1.768  12.919 -0.2365  1.3717 -1.7507
  250MPD2    H3 3797   4.669   1.548  12.846  1.2701  0.4663 -0.9602
  250MPD2     N 3798   4.243   1.545  12.966 -0.4979  0.1946 -0.4669
  250MPD2    H5 3799   4.243   1.452  12.927 -0.3929  0.7068 -1.7035
  250MPD2    N1 3800   4.518   1.953  12.995  0.2536 -0.1635 -0.1831
  250MPD2    H7 3801   4.614   1.983  12.984  0.6491 -0.7370  1.6182
  251TMC3    C1 3802   4.466   2.174  13.046 -0.1956 -0.5230 -0.1603
  251TMC3    C2 3803   4.382   2.275  13.092 -0.5539 -0.7866  0.0999
  251TMC3    C3 3804   4.434   2.401  13.125 -1.4246 -0.2813  0.1581
  251TMC3    C4 3805   4.596   2.207  13.024 -0.2226  0.2787 -0.3480
  251TMC3    C5 3806   4.651   2.330  13.061  0.1506  0.1648  0.2108
  251TMC3    C6 3807   4.571   2.428  13.118  0.2222  0.2917 -0.1739
  251TMC3     C 3808   4.417   2.042  13.023  0.1581  0.3071 -0.4187
  251TMC3     O 3809   4.296   2.028  13.013  0.0580 -0.1782  0.4062
  251TMC3     H 3810   4.275   2.262  13.082 -0.4216 -0.0247 -2.3747
  251TMC3    H1 3811   4.666   2.139  12.976 -1.1670 -0.0077 -1.3216
  251TMC3    H2 3812   4.609   2.528  13.106 -1.0941  0.9213  0.9410
  251TMC3    C7 3813   0.062   2.356  13.006  0.4128  0.2743 -0.3860
  251TMC3    C8 3814   4.343   2.514  13.152 -0.2445  0.3452 -0.7436
  251TMC3    O1 3815   0.137   2.264  13.001  0.1768  0.1679 -0.2397
  251TMC3    O2 3816   4.376   2.585  13.247 -0.5643 -0.0715 -0.0240
  252TMC3    C1 3817   4.273   3.714   9.683  0.3273 -0.1021  0.3390
  252TMC3    C2 3818   4.400   3.672   9.709  0.6420 -0.7116  0.2808
  252TMC3    C3 3819   4.416   3.543   9.756  0.1986 -0.3026 -0.2700
  252TMC3    C4 3820   4.159   3.640   9.707  0.4325 -0.3945 -0.1219
  252TMC3    C5 3821   4.179   3.514   9.752  0.4636  0.4112 -0.5308
  252TMC3    C6 3822   4.305   3.463   9.779 -0.3455 -0.3947 -0.2384
  252TMC3     C 3823   4.242   3.836   9.613  0.3248  0.5099  0.3222
  252TMC3     O 3824   4.128   3.883   9.621 -0.0934  0.5356 -0.2798
  252TMC3     H 3825   4.487   3.736   9.701  1.2615 -1.6945 -0.9255
  252TMC3    H1 3826   4.062   3.682   9.681  0.1835 -0.9458 -0.0751
  252TMC3    H2 3827   4.324   3.359   9.805  1.0155  0.5960  2.7093
  252TMC3    C7 3828   4.065   3.422   9.753  0.2287  0.0589  0.0092
  252TMC3    C8 3829   4.547   3.486   9.789 -0.0019  0.5499 -0.1670
  252TMC3    O1 3830   3.960   3.479   9.718 -0.3926 -0.4404 -0.1380
  252TMC3    O2 3831   4.541   3.381   9.856  0.1859  0.0432 -0.1087
  253MPD2     C 3832   1.153   2.138  15.326  0.2536  0.1542  0.3622
  253MPD2    C1 3833   1.072   2.041  15.287 -0.5527  0.0242  0.0326
  253MPD2    C2 3834   1.058   1.924  15.357 -0.1969  0.0043 -0.1325
  253MPD2    C3 3835   1.123   1.913  15.479 -0.4068  0.0489  0.0490
  253MPD2    C4 3836   1.199   2.023  15.521 -1.1199 -0.5103 -0.0478
  253MPD2    C5 3837   1.225   2.133  15.443 -0.0131  0.0998  0.3164
  253MPD2     H 3838   0.995   1.845  15.317 -2.3921  1.1058  1.1805
  253MPD2    H1 3839   1.238   2.028  15.622 -0.1512 -3.1837 -0.2734
  253MPD2    H2 3840   1.177   2.218  15.257 -2.5933 -1.3291 -2.3473
  253MPD2    H3 3841   1.280   2.220  15.477 -0.8876  1.3216 -1.3782
  253MPD2     N 3842   1.113   1.805  15.571 -0.5400 -0.3800 -0.1323
  253MPD2    H5 3843   1.172   1.807  15.653 -1.0360 -2.1942  0.2712
  253MPD2    N1 3844   0.987   2.041  15.175 -0.8918 -0.5505  0.3955
  253MPD2    H7 3845   0.915   1.971  15.159 -3.0812  1.9555 -0.6938
  254TMC3    C1 3846   0.988   1.656  15.698 -0.4224  0.0762  0.1443
  254TMC3    C2 3847   0.857   1.647  15.726  0.0566  0.4176  1.0403
  254TMC3    C3 3848   0.799   1.650  15.853 -0.7113  0.2849 -0.4605
  254TMC3    C4 3849   1.065   1.670  15.809  0.0970  0.6772 -0.3833
  254TMC3    C5 3850   1.016   1.655  15.938  0.3144 -0.2688  0.7146
  254TMC3    C6 3851   0.880   1.649  15.960 -0.3951  0.1439  0.1800
  254TMC3     C 3852   1.019   1.706  15.560  0.7439  0.8456 -0.5088
  254TMC3     O 3853   0.926   1.685  15.478  0.0191  0.2502  0.0564
  254TMC3     H 3854   0.791   1.658  15.640  2.5611  1.3963 -0.7601
  254TMC3    H1 3855   1.173   1.659  15.800 -0.0456  0.6096 -2.0631
  254TMC3    H2 3856   0.844   1.644  16.062  3.2588  1.8788  1.5585
  254TMC3    C7 3857   1.100   1.649  16.065 -0.1989 -0.2923 -0.0394
  254TMC3    C8 3858   0.662   1.659  15.871  0.5031 -0.6331  0.5695
  254TMC3    O1 3859   1.043   1.606  16.165 -0.3002 -0.2104 -0.7965
  254TMC3    O2 3860   0.597   1.655  15.765 -0.0415 -0.3105  0.1836
  255MPD2     C 3861   3.391   0.517   9.085  0.6377 -0.0055  0.5741
  255MPD2    C1 3862   3.385   0.485   9.217 -0.0494 -0.0721  0.1253
  255MPD2    C2 3863   3.486   0.401   9.269 -0.2859  1.0134  0.2626
  255MPD2    C3 3864   3.585   0.340   9.193  0.1589 -0.9549 -0.4660
  255MPD2    C4 3865   3.586   0.370   9.057  0.0221 -0.3988 -0.2592
  255MPD2    C5 3866   3.491   0.459   9.005  0.0586  0.1720  0.1564
  255MPD2     H 3867   3.477   0.375   9.374 -3.9285  4.2307  0.7732
  255MPD2    H1 3868   3.668   0.342   8.991 -1.3081 -0.5148 -1.8479
  255MPD2    H2 3869   3.319   0.585   9.039 -2.4556 -3.3798  0.4591
  255MPD2    H3 3870   3.492   0.479   8.899  0.2117  1.4846  0.4027
  255MPD2     N 3871   3.683   0.255   9.240  0.2903  0.1654 -0.1432
  255MPD2    H5 3872   3.756   0.234   9.173  1.0854 -0.6783  0.9919
  255MPD2    N1 3873   3.285   0.518   9.305  0.4096  0.5689 -0.1486
  255MPD2    H7 3874   3.299   0.490   9.402 -0.3912  2.6020  0.5591
  256TMC3    C1 3875   3.071   0.599   9.377 -0.3822  0.3672 -0.9973
  256TMC3    C2 3876   3.118   0.610   9.505 -0.0758 -0.2194 -0.2017
  256TMC3    C3 3877   3.026   0.589   9.603 -0.2834 -0.4712  0.0212
  256TMC3    C4 3878   2.945   0.598   9.341 -0.2149 -0.3493  0.8237
  256TMC3    C5 3879   2.850   0.600   9.448  0.5526 -0.4299 -0.0538
  256TMC3    C6 3880   2.892   0.584   9.575 -0.4608 -0.3064  0.4834
  256TMC3     C 3881   3.159   0.562   9.273 -0.7404  0.5478  0.3894
  256TMC3     O 3882   3.116   0.588   9.161  0.1869  0.3749 -0.6344
  256TMC3     H 3883   3.225   0.602   9.523  0.1998  0.2709 -1.6293
  256TMC3    H1 3884   2.909   0.599   9.239  1.1302 -3.0856  0.3271
  256TMC3    H2 3885   2.816   0.587   9.653  0.2575 -1.4782  1.2134
  256TMC3    C7 3886   2.746   0.503   9.440 -0.2613  0.4915 -0.0677
  256TMC3    C8 3887   3.070   0.586   9.752 -0.0140  0.2967 -0.4643
  256TMC3    O1 3888   2.737   0.415   9.524  0.2489 -0.1228 -0.7409
  256TMC3    O2 3889   2.988   0.553   9.838  0.4580 -0.3106  0.2034
  257MPD2     C 3890   3.075   1.799  13.083  0.5118  0.1013  0.0652
  257MPD2    C1 3891   3.008   1.713  12.995  0.0239  0.0980 -0.1333
  257MPD2    C2 3892   3.001   1.579  13.040  0.2002 -0.1557 -0.9889
  257MPD2    C3 3893   3.038   1.531  13.165  0.4680 -0.4161  0.0801
  257MPD2    C4 3894   3.080   1.635  13.255 -0.2967  0.0540  0.1409
  257MPD2    C5 3895   3.101   1.760  13.212 -0.5597  0.3761  0.3448
  257MPD2     H 3896   2.962   1.504  12.973 -0.0127 -1.5064  0.6472
  257MPD2    H1 3897   3.109   1.609  13.356 -1.4534  2.0436  0.9866
  257MPD2    H2 3898   3.110   1.895  13.047  1.4424  0.0505  0.8328
  257MPD2    H3 3899   3.157   1.820  13.283 -2.1866  0.0615  1.8856
  257MPD2     N 3900   3.030   1.395  13.198  0.3849  0.3675  0.3317
  257MPD2    H5 3901   3.017   1.326  13.125 -1.5798  0.9794  0.1098
  257MPD2    N1 3902   2.979   1.761  12.869  0.2683 -0.2625 -0.2549
  257MPD2    H7 3903   2.999   1.858  12.848  0.9141 -0.9967 -3.0303
  258TMC3    C1 3904   3.065   1.207  13.328  0.1325  0.4070  0.0131
  258TMC3    C2 3905   3.100   1.128  13.219  0.3654  0.1959 -0.1132
  258TMC3    C3 3906   3.128   0.998  13.250  0.9050 -0.0570  0.1408
  258TMC3    C4 3907   3.040   1.157  13.453  0.1006 -0.4323  0.2613
  258TMC3    C5 3908   3.080   1.029  13.480  0.0318  0.1258 -0.0669
  258TMC3    C6 3909   3.119   0.943  13.377 -0.2101  0.0700  0.4259
  258TMC3     C 3910   3.049   1.347  13.324  0.2059 -0.4796  0.0445
  258TMC3     O 3911   3.060   1.406  13.435  0.2843  0.0248 -0.4202
  258TMC3     H 3912   3.118   1.178  13.124  0.8510  0.2612  0.0158
  258TMC3    H1 3913   3.010   1.220  13.536  0.1157  0.6895 -0.5904
  258TMC3    H2 3914   3.141   0.838  13.391  4.2300  0.9958  0.4229
  258TMC3    C7 3915   3.060   0.989  13.618  0.2313 -0.2518 -0.5543
  258TMC3    C8 3916   3.134   0.895  13.143  0.4637 -0.7835  0.1430
  258TMC3    O1 3917   2.967   1.042  13.674  0.1656  0.0445  0.2869
  258TMC3    O2 3918   3.211   0.803  13.149  0.4397 -0.7204 -0.0863
  259MPD2     C 3919   1.815   2.865   0.869 -0.3843 -0.5607 -0.4407
  259MPD2    C1 3920   1.919   2.910   0.945 -0.4301  0.8980 -0.5189
  259MPD2    C2 3921   2.046   2.861   0.922 -0.5056 -0.1671  0.8589
  259MPD2    C3 3922   2.065   2.774   0.810  0.0980 -0.0253 -0.1432
  259MPD2    C4 3923   1.955   2.736   0.729  0.4249 -0.0992 -0.0137
  259MPD2    C5 3924   1.831   2.783   0.762 -0.2034 -0.0682  0.0061
  259MPD2     H 3925   2.128   2.887   0.987  0.2767 -0.6962  0.0746
  259MPD2    H1 3926   1.959   2.671   0.643  0.6433  0.3943 -0.3778
  259MPD2    H2 3927   1.714   2.892   0.896 -0.5287 -3.6988  2.2396
  259MPD2    H3 3928   1.747   2.757   0.698  1.0895 -2.7425 -0.6034
  259MPD2     N 3929   2.199   2.729   0.780  0.5683  0.1248 -0.1365
  259MPD2    H5 3930   2.275   2.760   0.839 -0.5327  1.3721  0.6541
  259MPD2    N1 3931   1.884   3.002   1.051  0.5660  0.0473  0.0061
  259MPD2    H7 3932   1.799   3.057   1.046  0.7219  0.2500 -0.4416
  260TMC3    C1 3933   2.370   2.602   0.671 -0.6206 -0.7362  0.6396
  260TMC3    C2 3934   2.478   2.675   0.725  0.3167 -0.7760 -0.0656
  260TMC3    C3 3935   2.602   2.672   0.668  0.0564  0.2352  0.2756
  260TMC3    C4 3936   2.400   2.505   0.573  0.0543  0.6746  0.1450
  260TMC3    C5 3937   2.531   2.489   0.533  0.1070  0.9263 -0.7152
  260TMC3    C6 3938   2.628   2.586   0.566 -0.2110  0.6633 -0.3011
  260TMC3     C 3939   2.233   2.646   0.674 -0.4927 -0.1608 -0.0492
  260TMC3     O 3940   2.156   2.595   0.597 -0.5054 -0.8150  1.0206
  260TMC3     H 3941   2.461   2.744   0.807 -0.0562  0.3841 -1.1350
  260TMC3    H1 3942   2.322   2.445   0.529  1.4523 -0.3500 -0.9601
  260TMC3    H2 3943   2.723   2.577   0.516  0.7316  1.1893  1.4048
  260TMC3    C7 3944   2.559   2.400   0.418  0.2893  0.0596  0.7157
  260TMC3    C8 3945   2.694   2.778   0.700 -0.5408 -0.1294 -0.0884
  260TMC3    O1 3946   2.469   2.393   0.334  0.0051 -0.2437  0.4135
  260TMC3    O2 3947   2.680   2.835   0.808 -0.0366  0.6392  0.4164
  261MPD2     C 3948   3.587   1.347  12.793  0.0269  0.1162 -0.6361
  261MPD2    C1 3949   3.680   1.454  12.812  1.1156  0.2962 -0.4294
  261MPD2    C2 3950   3.710   1.528  12.701  0.2060  0.6583 -0.3888
  261MPD2    C3 3951   3.654   1.497  12.577 -0.4927 -0.2543 -0.1091
  261MPD2    C4 3952   3.577   1.384  12.563  0.0452 -0.2524  0.7047
  261MPD2    C5 3953   3.536   1.316  12.676  0.1555 -0.7173  0.1894
  261MPD2     H 3954   3.777   1.611  12.717  1.2143 -0.1620 -0.3766
  261MPD2    H1 3955   3.522   1.349  12.477  0.6610 -0.2768  0.3231
  261MPD2    H2 3956   3.540   1.291  12.874  0.0399  1.6311  0.4100
  261MPD2    H3 3957   3.473   1.228  12.673 -0.4990 -0.3005  1.4948
  261MPD2     N 3958   3.702   1.578  12.469 -0.0598  0.2327 -0.2801
  261MPD2    H5 3959   3.758   1.656  12.499 -2.2835  1.2976  1.1195
  261MPD2    N1 3960   3.747   1.474  12.932 -0.0142  0.0159 -0.0708
  261MPD2    H7 3961   3.810   1.551  12.949 -0.7630  0.9998 -1.7025
  262TMC3    C1 3962   3.747   1.635  12.248  0.1674  0.5021 -0.3594
  262TMC3    C2 3963   3.764   1.767  12.280  0.0651 -0.6186 -0.7959
  262TMC3    C3 3964   3.850   1.840  12.201 -0.1119 -0.0552 -0.4765
  262TMC3    C4 3965   3.797   1.576  12.131  0.3596 -0.7483 -0.4945
  262TMC3    C5 3966   3.883   1.650  12.057 -0.7253 -0.0625  0.2063
  262TMC3    C6 3967   3.922   1.773  12.096  0.4797  0.1078 -0.6040
  262TMC3     C 3968   3.675   1.547  12.335 -0.1383  0.2569  0.3007
  262TMC3     O 3969   3.613   1.459  12.288  0.3958 -0.2523  0.2259
  262TMC3     H 3970   3.728   1.822  12.367  0.7803 -0.9491 -0.2843
  262TMC3    H1 3971   3.768   1.479  12.092 -0.6253 -0.4065 -0.6158
  262TMC3    H2 3972   3.995   1.830  12.040 -1.9699  0.6947 -3.2066
  262TMC3    C7 3973   3.913   1.589  11.933 -0.6510 -0.4305 -0.2752
  262TMC3    C8 3974   3.808   1.962  12.142  0.3794 -0.3164  0.1576
  262TMC3    O1 3975   3.929   1.468  11.933  0.0708  0.1156  0.6461
  262TMC3    O2 3976   3.884   2.043  12.096 -0.1714  0.6709 -0.2696
  263MPD2     C 3977   4.654   0.789  11.479 -0.4200 -0.0256 -0.5870
  263MPD2    C1 3978   0.023   0.857  11.398 -0.0375 -0.7325 -0.0775
  263MPD2    C2 3979   4.707   0.923  11.278  0.6931 -1.0674  0.1164
  263MPD2    C3 3980   4.572   0.925  11.243 -0.0153 -0.3146 -0.2125
  263MPD2    C4 3981   4.475   0.859  11.323 -0.0763  0.0281  0.0094
  263MPD2    C5 3982   4.522   0.791  11.437 -0.1334  0.4192 -0.3162
  263MPD2     H 3983   0.066   0.958  11.213  1.0401 -1.8950  0.0957
  263MPD2    H1 3984   4.367   0.860  11.313 -0.1638  0.6497  1.0343
  263MPD2    H2 3985   4.673   0.736  11.571 -0.4807  0.6920 -0.1614
  263MPD2    H3 3986   4.449   0.743  11.501  0.7425 -0.4576  0.0148
  263MPD2     N 3987   4.531   0.991  11.125  0.4089  0.1025  0.5637
  263MPD2    H5 3988   4.609   1.034  11.077 -0.4337 -0.3368 -1.1890
  263MPD2    N1 3989   0.154   0.856  11.453 -0.3986 -0.1288 -0.2498
  263MPD2    H7 3990   0.156   0.816  11.546  0.3199  2.2166  0.7467
  264TMC3    C1 3991   4.394   1.111  10.981 -0.3126 -0.3370 -0.1074
  264TMC3    C2 3992   4.299   1.207  11.002  0.9058 -0.2921  0.1660
  264TMC3    C3 3993   4.303   1.307  10.904  0.0158 -0.1340 -0.6820
  264TMC3    C4 3994   4.478   1.101  10.869  0.2689  0.0239  0.0395
  264TMC3    C5 3995   4.465   1.195  10.770  0.0450 -0.1680  0.0325
  264TMC3    C6 3996   4.370   1.291  10.781 -0.7852  0.0908  0.7419
  264TMC3     C 3997   4.399   1.013  11.084  0.0983  0.1118 -0.0813
  264TMC3     O 3998   4.294   0.974  11.132 -0.4528  0.2412 -0.6124
  264TMC3     H 3999   4.242   1.211  11.094 -1.6179 -1.4369 -1.3831
  264TMC3    H1 4000   4.551   1.022  10.869  0.2893  0.0551 -1.1702
  264TMC3    H2 4001   4.364   1.370  10.708  2.0303  0.4755  0.9217
  264TMC3    C7 4002   4.581   1.241  10.686  0.2174 -0.7888  0.1054
  264TMC3    C8 4003   4.344   1.434  10.960  0.0949  0.1383 -0.1828
  264TMC3    O1 4004   4.634   1.167  10.604 -0.4298 -0.0561 -0.1636
  264TMC3    O2 4005   4.425   1.497  10.889 -0.2333  0.3766  0.5081
  265MPD2     C 4006   2.109   1.255  15.189 -0.2780 -0.4669  0.0561
  265MPD2    C1 4007   2.212   1.341  15.212  0.1487 -0.1310 -0.4075
  265MPD2    C2 4008   2.309   1.357  15.110  0.4394  0.2154  0.4926
  265MPD2    C3 4009   2.316   1.280  14.999  0.1111 -0.4418  0.2568
  265MPD2    C4 4010   2.210   1.190  14.976 -0.6537 -0.1680  0.2701
  265MPD2    C5 4011   2.113   1.177  15.075  0.0606  0.1046  0.1868
  265MPD2     H 4012   2.392   1.424  15.126  0.0368  0.9441 -0.4289
  265MPD2    H1 4013   2.208   1.129  14.887 -0.6371 -1.9849  1.5201
  265MPD2    H2 4014   2.036   1.233  15.266 -0.3055 -1.4152 -0.2485
  265MPD2    H3 4015   2.027   1.114  15.053  1.3439 -1.5354 -0.0736
  265MPD2     N 4016   2.428   1.277  14.913  0.7661  0.1589 -0.1142
  265MPD2    H5 4017   2.437   1.200  14.846 -0.2616  0.6513 -0.8127
  265MPD2    N1 4018   2.212   1.434  15.327 -0.2119 -0.0737  0.1800
  265MPD2    H7 4019   2.288   1.500  15.335 -0.3208  0.1573 -0.6959
  266TMC3    C1 4020   2.156   1.543  15.515 -0.6324  0.0060 -0.5709
  266TMC3    C2 4021   2.134   1.523  15.646 -0.3689  0.8550  0.8806
  266TMC3    C3 4022   2.184   1.618  15.730  0.4840 -0.5842 -0.4169
  266TMC3    C4 4023   2.206   1.660  15.464 -0.0543 -0.0796  0.7997
  266TMC3    C5 4024   2.256   1.747  15.549 -0.8290  0.0522  0.5940
  266TMC3    C6 4025   2.243   1.727  15.682  0.1662  0.0857  0.2531
  266TMC3     C 4026   2.125   1.428  15.429 -0.0544  0.8081  0.2641
  266TMC3     O 4027   2.035   1.347  15.450 -0.2221 -0.3449 -0.3395
  266TMC3     H 4028   2.095   1.430  15.685 -2.8136  2.6441  2.7699
  266TMC3    H1 4029   2.201   1.690  15.360  1.7409 -1.1427  0.4036
  266TMC3    H2 4030   2.290   1.802  15.744  0.7505  0.1476 -0.2611
  266TMC3    C7 4031   2.300   1.877  15.502  0.0433 -0.4883 -0.7210
  266TMC3    C8 4032   2.239   1.569  15.857  0.5171 -0.4858  0.4311
  266TMC3    O1 4033   2.244   1.916  15.403 -0.4639 -0.1840 -0.2108
  266TMC3    O2 4034   2.243   1.449  15.873 -0.0241  0.0732 -0.3618
  267MPD2     C 4035   0.352   2.685  17.408  0.0048 -0.1211  0.1231
  267MPD2    C1 4036   0.293   2.787  17.333 -0.8358 -0.6091  0.2873
  267MPD2    C2 4037   0.212   2.773  17.221  0.1052  0.3805 -0.4619
  267MPD2    C3 4038   0.199   2.645  17.174  0.6643 -0.0647 -0.0252
  267MPD2    C4 4039   0.246   2.539  17.256 -0.1969  0.7451  0.0456
  267MPD2    C5 4040   0.326   2.557  17.371 -0.3171 -0.4290 -0.4742
  267MPD2     H 4041   0.162   2.857  17.173  1.0011  0.9052 -0.4741
  267MPD2    H1 4042   0.216   2.439  17.226  1.8568  0.2999 -0.5679
  267MPD2    H2 4043   0.407   2.701  17.501  2.4650 -3.1505 -0.8427
  267MPD2    H3 4044   0.379   2.479  17.423  0.0791  0.9703  1.2372
  267MPD2     N 4045   0.135   2.614  17.054 -0.2919 -0.4064  0.5474
  267MPD2    H5 4046   0.122   2.514  17.043 -0.1326 -0.5534  1.6806
  267MPD2    N1 4047   0.320   2.915  17.384  0.0513 -0.3151  0.0953
  267MPD2    H7 4048   0.366   2.912  17.475 -2.9060 -1.8284  1.5586
  268TMC3    C1 4049   0.289   3.150  17.405  0.0209  0.8185  0.0058
  268TMC3    C2 4050   0.239   3.266  17.352 -0.7484 -0.8946  0.2921
  268TMC3    C3 4051   0.231   3.372  17.441 -0.2424 -0.2260 -0.6181
  268TMC3    C4 4052   0.313   3.141  17.539 -0.0659 -0.1683  0.2815
  268TMC3    C5 4053   0.282   3.243  17.624 -0.6732 -0.3708 -0.3511
  268TMC3    C6 4054   0.240   3.364  17.579 -0.2551 -0.6244 -0.6491
  268TMC3     C 4055   0.300   3.034  17.319  0.6021 -0.3261 -0.0263
  268TMC3     O 4056   0.267   3.057  17.200 -0.0376 -0.0183 -0.6876
  268TMC3     H 4057   0.215   3.280  17.247 -3.1719  0.7946  1.0872
  268TMC3    H1 4058   0.346   3.046  17.581 -1.6497 -0.4219  0.9317
  268TMC3    H2 4059   0.239   3.453  17.640 -0.0628 -1.1302  0.0954
  268TMC3    C7 4060   0.303   3.222   0.084 -0.6727 -1.0092  0.1217
  268TMC3    C8 4061   0.189   3.504  17.393  0.4855  0.2160 -0.0885
  268TMC3    O1 4062   0.391   3.141   0.110 -0.2470 -0.3143 -0.3898
  268TMC3    O2 4063   0.204   3.599  17.470 -0.3894 -0.6157  0.5595
  269MPD2     C 4064   0.317   1.987  15.348 -0.2581  0.5898  0.1112
  269MPD2    C1 4065   0.210   1.991  15.434  0.0374  0.5580  0.1779
  269MPD2    C2 4066   0.147   2.115  15.454  0.8793 -0.9183  0.2080
  269MPD2    C3 4067   0.177   2.226  15.376  0.3641  0.1161 -0.2401
  269MPD2    C4 4068   0.285   2.220  15.286  0.2641 -0.1788  0.0339
  269MPD2    C5 4069   0.345   2.099  15.265 -0.3462 -0.3940  0.2191
  269MPD2     H 4070   0.054   2.130  15.508 -0.1522  0.5705 -1.9972
  269MPD2    H1 4071   0.320   2.308  15.233  2.2324 -0.8208  0.2676
  269MPD2    H2 4072   0.385   1.906  15.324 -0.3795  0.1897  1.1242
  269MPD2    H3 4073   0.435   2.121  15.209 -0.0786 -2.5138 -0.1650
  269MPD2     N 4074   0.093   2.342  15.394 -0.4364  0.0999  0.3440
  269MPD2    H5 4075   0.007   2.336  15.447 -0.9115 -1.0283 -0.5739
  269MPD2    N1 4076   0.177   1.871  15.505  0.5809 -0.3369  0.0274
  269MPD2    H7 4077   0.238   1.790  15.494  1.2401  0.3313 -1.1883
  270TMC3    C1 4078   0.062   1.706  15.616 -0.4127  0.0103  0.0246
  270TMC3    C2 4079   4.657   1.654  15.605  1.1211 -0.2727  0.3403
  270TMC3    C3 4080   4.636   1.541  15.540 -0.5977  0.0878  0.2979
  270TMC3    C4 4081   0.172   1.641  15.572 -0.0547  0.7348  0.2836
  270TMC3    C5 4082   0.148   1.527  15.498 -0.4204  0.0927  0.4652
  270TMC3    C6 4083   0.021   1.478  15.475  0.5072  0.1604 -0.2435
  270TMC3     C 4084   0.065   1.847  15.583  0.3428 -0.5884 -0.0034
  270TMC3     O 4085   4.684   1.909  15.609 -0.3740  0.3573 -1.0237
  270TMC3     H 4086   4.576   1.711  15.649  0.7666 -0.3828 -0.1622
  270TMC3    H1 4087   0.269   1.675  15.604  0.5393 -1.7839  1.1316
  270TMC3    H2 4088   0.008   1.386  15.419  1.4142  0.7092 -1.3493
  270TMC3    C7 4089   0.259   1.436  15.475 -0.6256  0.1354 -0.2708
  270TMC3    C8 4090   4.503   1.509  15.489  0.8412  0.1954 -0.3669
  270TMC3    O1 4091   0.347   1.442  15.559 -0.0445 -0.1662  0.2014
  270TMC3    O2 4092   4.396   1.526  15.545  0.3687 -0.0545  0.4173
  271MPD2     C 4093   3.824   1.523  13.761  0.0927  0.0956  0.7653
  271MPD2    C1 4094   3.788   1.581  13.879  0.1972 -0.0496 -0.1354
  271MPD2    C2 4095   3.660   1.636  13.892  0.2135 -0.4997 -0.3898
  271MPD2    C3 4096   3.564   1.625  13.787 -0.3005 -0.2128  0.6975
  271MPD2    C4 4097   3.598   1.558  13.672 -0.0712 -0.5493 -0.7296
  271MPD2    C5 4098   3.723   1.506  13.663 -0.0865  1.0018  0.2350
  271MPD2     H 4099   3.637   1.690  13.983  0.5885 -0.7947 -0.1163
  271MPD2    H1 4100   3.524   1.527  13.598 -1.0743  1.3146 -0.5039
  271MPD2    H2 4101   3.926   1.491  13.743 -0.1935  0.1590 -0.9920
  271MPD2    H3 4102   3.753   1.443  13.579  1.2699 -0.7439  2.0225
  271MPD2     N 4103   3.436   1.686  13.801  0.2199 -0.2052 -0.2799
  271MPD2    H5 4104   3.372   1.670  13.725  1.0690  0.8856 -1.2186
  271MPD2    N1 4105   3.869   1.581  13.997 -0.4171 -0.1813 -0.0152
  271MPD2    H7 4106   3.845   1.652  14.065 -1.0884  1.9365 -2.4499
  272TMC3    C1 4107   4.056   1.527  14.139 -0.2805 -0.7874  0.5927
  272TMC3    C2 4108   4.185   1.480  14.146  0.3857 -0.0689  0.4027
  272TMC3    C3 4109   4.236   1.465  14.270  0.5265  0.2827  0.5651
  272TMC3    C4 4110   3.976   1.551  14.249 -0.0932 -0.8405 -0.1056
  272TMC3    C5 4111   4.025   1.511  14.372 -0.3741 -0.1798 -0.2560
  272TMC3    C6 4112   4.159   1.482  14.383  0.1103 -1.1277  0.5522
  272TMC3     C 4113   3.991   1.512  14.011 -0.5558 -0.5370  0.2119
  272TMC3     O 4114   4.044   1.433  13.936 -0.2328 -0.0623  0.0200
  272TMC3     H 4115   4.233   1.453  14.052 -1.0803 -1.2226 -0.0084
  272TMC3    H1 4116   3.868   1.561  14.240 -0.0268  0.2546  0.2168
  272TMC3    H2 4117   4.205   1.462  14.480 -1.5568  1.6054  1.8993
  272TMC3    C7 4118   3.958   1.577  14.486 -0.5821  0.3676 -0.3606
  272TMC3    C8 4119   4.378   1.433  14.274 -0.6734 -0.0994 -0.8279
  272TMC3    O1 4120   3.845   1.622  14.471  0.1146  0.4414 -0.0244
  272TMC3    O2 4121   4.444   1.495  14.190 -0.2104  0.5861  0.5091
  273MPD2     C 4122   1.034   4.430  11.655  0.1029 -0.5949 -0.4751
  273MPD2    C1 4123   1.115   4.543  11.634 -0.3441 -0.0292  0.4261
  273MPD2    C2 4124   1.115   4.600  11.511 -0.0081  0.3997  0.3112
  273MPD2    C3 4125   1.033   4.553  11.403  0.0305 -0.0692 -0.5616
  273MPD2    C4 4126   0.962   4.438  11.421 -0.6069 -0.5335 -0.1041
  273MPD2    C5 4127   0.962   4.381  11.546 -0.3189 -0.6956 -0.3632
  273MPD2     H 4128   1.175   4.688  11.489 -1.0427  0.9945 -0.1443
  273MPD2    H1 4129   0.891   4.396  11.350 -3.4799  0.1491  2.3717
  273MPD2    H2 4130   1.021   4.390  11.754  0.6902  0.3343 -0.0244
  273MPD2    H3 4131   0.898   4.295  11.561 -1.4083 -0.0960 -1.6373
  273MPD2     N 4132   1.012   4.629  11.287 -0.3397 -0.3752 -0.0381
  273MPD2    H5 4133   0.980   4.572  11.209 -0.8544 -0.5883  0.3247
  273MPD2    N1 4134   1.178   4.604  11.745 -0.8415 -0.3822  0.7479
  273MPD2    H7 4135   1.155   4.562  11.834  0.1988 -2.9197 -0.1782
  274TMC3    C1 4136   1.011   0.079  11.124 -0.0937 -0.7998  0.1583
  274TMC3    C2 4137   0.882   0.054  11.084 -0.1157 -0.0991 -0.1088
  274TMC3    C3 4138   0.812   0.145  11.012 -0.0781  0.0460 -0.0032
  274TMC3    C4 4139   1.063   0.200  11.103  0.1212 -0.1616 -0.2406
  274TMC3    C5 4140   0.993   0.299  11.037  0.2890 -0.3499  0.2024
  274TMC3    C6 4141   0.877   0.266  10.971 -0.0269  0.5908 -0.5392
  274TMC3     C 4142   1.048   0.037  11.262  0.5166  0.4015  0.5149
  274TMC3     O 4143   1.065   0.126  11.343 -0.0235 -0.4906 -0.0489
  274TMC3     H 4144   0.820   4.696  11.125 -1.4041  0.0802 -1.7300
  274TMC3    H1 4145   1.163   0.217  11.142 -0.9868  0.9231  2.1574
  274TMC3    H2 4146   0.815   0.342  10.926 -0.6084  0.2926 -0.2346
  274TMC3    C7 4147   0.973   0.413  11.121  0.2480  0.4018 -0.6215
  274TMC3    C8 4148   0.689   0.107  10.953  0.6918  0.2828  0.5172
  274TMC3    O1 4149   0.881   0.486  11.077 -0.1928 -0.3702  0.2296
  274TMC3    O2 4150   0.612   0.043  11.023 -0.3196 -0.1650  0.0999
  275MPD2     C 4151   0.079   3.258  14.486  0.5239 -0.2454  0.6821
  275MPD2    C1 4152   0.092   3.125  14.530 -0.2420  0.0568 -0.1395
  275MPD2    C2 4153   0.017   3.023  14.483 -0.0574  0.2560  0.2576
  275MPD2    C3 4154   4.646   3.047  14.390  0.3763  0.4406 -0.9592
  275MPD2    C4 4155   4.625   3.169  14.344 -0.0406 -0.2986  0.1442
  275MPD2    C5 4156   4.703   3.277  14.391 -0.3021 -0.4705  0.7558
  275MPD2     H 4157   0.029   2.922  14.523 -0.8053 -0.1162 -0.4573
  275MPD2    H1 4158   4.550   3.190  14.269  0.1471  1.7723  0.5600
  275MPD2    H2 4159   0.127   3.342  14.534  1.3004 -1.5351  2.1349
  275MPD2    H3 4160   4.669   3.377  14.368 -1.6016 -1.0650  0.0755
  275MPD2     N 4161   4.566   2.943  14.341 -0.1620 -0.0021  0.6465
  275MPD2    H5 4162   4.487   2.972  14.284  2.2442  2.5992 -1.3743
  275MPD2    N1 4163   0.183   3.090  14.634  0.4801 -0.2442 -0.2220
  275MPD2    H7 4164   0.167   3.001  14.679 -1.4963 -0.2220 -0.8486
  276TMC3    C1 4165   0.295   3.146  14.827 -0.5443 -0.8855  0.4016
  276TMC3    C2 4166   0.204   3.059  14.886  0.1583 -0.0690 -0.4803
  276TMC3    C3 4167   0.250   2.989  14.995 -0.6054 -0.2685  0.4007
  276TMC3    C4 4168   0.417   3.168  14.880 -0.5665 -0.1293  0.0716
  276TMC3    C5 4169   0.461   3.107  14.995 -0.4946 -0.5217 -0.1431
  276TMC3    C6 4170   0.379   3.005  15.041  0.0681 -0.4209  0.1989
  276TMC3     C 4171   0.276   3.172  14.685  0.0081  0.6313  0.6134
  276TMC3     O 4172   0.326   3.270  14.634  0.7921  0.0916  0.2214
  276TMC3     H 4173   0.100   3.044  14.859  0.9906 -0.6178 -3.4668
  276TMC3    H1 4174   0.475   3.243  14.827  1.9430 -0.4644  2.3479
  276TMC3    H2 4175   0.408   2.942  15.124 -1.0683 -1.7397 -0.4141
  276TMC3    C7 4176   0.595   3.121  15.038  0.1833 -0.4429  0.2246
  276TMC3    C8 4177   0.193   2.855  15.007  0.2623 -0.3170 -0.4561
  276TMC3    O1 4178   0.625   3.081  15.150 -0.4206  0.1288 -0.0864
  276TMC3    O2 4179   0.074   2.841  14.991 -0.5458  0.1789 -0.2569
  277MPD2     C 4180   2.257   1.591  13.441  0.0739 -0.7250  0.5455
  277MPD2    C1 4181   2.124   1.618  13.427 -0.1213  0.0834  0.7018
  277MPD2    C2 4182   2.045   1.542  13.507 -0.3716  0.1406  0.0651
  277MPD2    C3 4183   2.088   1.472  13.621  0.7042 -0.1463 -0.0150
  277MPD2    C4 4184   2.221   1.477  13.649  0.7497  0.2953  0.9578
  277MPD2    C5 4185   2.304   1.528  13.553 -0.3709  0.1661 -0.2153
  277MPD2     H 4186   1.938   1.543  13.488 -0.7131  0.2454  1.9941
  277MPD2    H1 4187   2.261   1.428  13.738  2.8906  2.7072  1.3178
  277MPD2    H2 4188   2.336   1.629  13.378 -0.3603  2.4047  1.8839
  277MPD2    H3 4189   2.413   1.520  13.552 -0.4075 -0.4158  0.7641
  277MPD2     N 4190   1.990   1.408  13.702  0.5760 -0.2226  0.4560
  277MPD2    H5 4191   1.894   1.426  13.672  0.7177  0.3350  0.3525
  277MPD2    N1 4192   2.076   1.700  13.322 -0.2604 -0.0474 -0.3825
  277MPD2    H7 4193   2.146   1.739  13.259 -0.1813 -2.0375 -1.5406
  278TMC3    C1 4194   1.874   1.291  13.868  1.3368 -0.0737 -0.1086
  278TMC3    C2 4195   1.871   1.159  13.911 -0.0288 -1.3153  0.1148
  278TMC3    C3 4196   1.752   1.092  13.907  0.2379  0.4906 -0.5279
  278TMC3    C4 4197   1.759   1.357  13.817 -0.0047  0.5761 -0.8968
  278TMC3    C5 4198   1.642   1.279  13.825 -0.2233 -0.0544 -0.2140
  278TMC3    C6 4199   1.635   1.147  13.871 -0.1308 -0.0537  0.9620
  278TMC3     C 4200   2.006   1.329  13.818  0.0169 -0.0671  0.2310
  278TMC3     O 4201   2.102   1.270  13.856  0.7460  0.0593  0.2287
  278TMC3     H 4202   1.967   1.110  13.899 -0.1810 -0.8162 -3.1416
  278TMC3    H1 4203   1.750   1.460  13.784  0.1121  0.9957  0.3684
  278TMC3    H2 4204   1.547   1.083  13.876 -0.0185  0.1666  5.5561
  278TMC3    C7 4205   1.528   1.324  13.753 -0.5553 -0.5771  0.1776
  278TMC3    C8 4206   1.770   0.946  13.873 -0.3466  0.5476  0.1263
  278TMC3    O1 4207   1.550   1.386  13.650 -0.3297  0.7999  1.0763
  278TMC3    O2 4208   1.851   0.883  13.946 -0.4161  0.0034  0.1715
  279MPD2     C 4209   1.487   1.002   0.399 -0.1718 -0.0549 -0.4224
  279MPD2    C1 4210   1.491   1.131   0.353  0.1595  0.0101  0.4006
  279MPD2    C2 4211   1.594   1.175   0.271 -0.2149  0.2435  0.8892
  279MPD2    C3 4212   1.697   1.088   0.238 -0.1770  0.2716  0.8162
  279MPD2    C4 4213   1.693   0.956   0.279  0.6230  0.6281 -0.0919
  279MPD2    C5 4214   1.586   0.918   0.359 -0.0079 -0.0869 -0.7179
  279MPD2     H 4215   1.595   1.275   0.230 -1.4279 -0.3925 -0.6909
  279MPD2    H1 4216   1.771   0.885   0.256 -0.2987 -0.3470 -0.1761
  279MPD2    H2 4217   1.414   0.961   0.467  1.8323 -0.6296  1.3896
  279MPD2    H3 4218   1.582   0.817   0.397  1.9468 -0.4839 -1.5926
  279MPD2     N 4219   1.795   1.141   0.159  0.2483 -0.0042  0.5281
  279MPD2    H5 4220   1.786   1.239   0.136 -1.0690 -0.2887 -0.1959
  279MPD2    N1 4221   1.385   1.219   0.366 -0.2991 -0.9659 -0.0363
  279MPD2    H7 4222   1.397   1.315   0.334 -3.6247 -0.6469 -0.3888
  280TMC3    C1 4223   1.168   1.292   0.401 -0.7286  0.2183 -0.1254
  280TMC3    C2 4224   1.045   1.274   0.461  0.3102 -0.2874  0.0022
  280TMC3    C3 4225   0.941   1.352   0.414 -0.0682  0.0989  0.9854
  280TMC3    C4 4226   1.181   1.377   0.294 -0.2396 -0.4214 -0.1069
  280TMC3    C5 4227   1.069   1.443   0.244  0.2945  0.4012 -0.1883
  280TMC3    C6 4228   0.945   1.441   0.308 -0.0851 -0.0187  0.6956
  280TMC3     C 4229   1.264   1.188   0.420 -0.3613 -0.0343 -1.1335
  280TMC3     O 4230   1.235   1.091   0.484  0.6898 -0.0658 -0.2608
  280TMC3     H 4231   1.047   1.208   0.547 -1.9258 -0.6750 -0.2337
  280TMC3    H1 4232   1.276   1.376   0.243  0.0766  3.5431  0.4018
  280TMC3    H2 4233   0.854   1.488   0.272 -1.0540 -1.6793  0.9976
  280TMC3    C7 4234   1.079   1.499   0.107 -0.7697 -0.1233  0.2486
  280TMC3    C8 4235   0.813   1.338   0.488 -0.6419 -0.9433 -0.0031
  280TMC3    O1 4236   1.162   1.434   0.043 -0.0318 -0.0297  0.7209
  280TMC3    O2 4237   0.729   1.428   0.501 -0.6528  0.4747  0.0275
  281TMC3    C1 4238   0.452   2.194  13.141 -0.2030 -0.5516  0.1294
  281TMC3    C2 4239   0.474   2.285  13.040 -0.7915 -0.1761  0.1331
  281TMC3    C3 4240   0.502   2.234  12.915 -0.5632  0.3281 -0.0124
  281TMC3    C4 4241   0.453   2.056  13.116 -0.2635  0.0583  0.3134
  281TMC3    C5 4242   0.491   2.015  12.988  0.0845 -0.0695  0.1503
  281TMC3    C6 4243   0.510   2.106  12.890 -0.3014 -0.2854 -0.4518
  281TMC3     C 4244   0.385   2.237  13.266  0.0349  0.2690  0.0017
  281TMC3     O 4245   0.381   2.155  13.354  0.1144 -0.0389  0.6496
  281TMC3     H 4246   0.483   2.388  13.071  0.0448  0.8434 -3.5062
  281TMC3    H1 4247   0.412   1.996  13.197  0.9907  0.7216  1.4477
  281TMC3    H2 4248   0.532   2.072  12.789  1.3362 -0.0036 -0.1950
  281TMC3    C7 4249   0.476   1.881  12.939 -0.3546  0.3412 -0.3156
  281TMC3    C8 4250   0.572   2.318  12.813 -0.5770  0.2128 -0.1338
  281TMC3    O1 4251   0.526   1.858  12.832 -0.3523  0.0364 -0.2358
  281TMC3    O2 4252   0.656   2.264  12.745 -0.0334 -0.1053 -0.5269
  282MPD2     C 4253   1.967   3.068  15.137  0.7023 -0.6219  0.7606
  282MPD2    C1 4254   1.878   3.171  15.137  0.6039  0.4061 -0.2198
  282MPD2    C2 4255   1.838   3.226  15.016 -0.1958 -0.2119  0.7613
  282MPD2    C3 4256   1.868   3.166  14.887 -0.5026 -0.1601 -0.3649
  282MPD2    C4 4257   1.950   3.049  14.896  0.9109  0.9043 -0.8452
  282MPD2    C5 4258   2.010   3.013  15.019  0.8225 -0.4067  0.3699
  282MPD2     H 4259   1.779   3.316  15.013  2.3132  1.4419  0.8683
  282MPD2    H1 4260   1.994   3.001  14.810  0.9750  0.9380 -0.8320
  282MPD2    H2 4261   2.001   3.020  15.228  2.1843  0.7308  0.9357
  282MPD2    H3 4262   2.084   2.934  15.015  1.9941  0.6930  0.6014
  282MPD2     N 4263   1.821   3.226  14.763 -0.7494 -0.1454 -0.4959
  282MPD2    H5 4264   1.762   3.308  14.750 -0.4566  0.4142  1.6558
  282MPD2    N1 4265   1.835   3.218  15.263 -0.1232  0.0063 -0.3360
  282MPD2    H7 4266   1.883   3.187  15.346 -2.6109 -1.9745  0.3426
  283TMC3    C1 4267   1.743   3.366  15.428  0.1717 -0.0395 -0.2737
  283TMC3    C2 4268   1.765   3.488  15.477  0.0478 -0.1626  0.0591
  283TMC3    C3 4269   1.758   3.504  15.618  0.1537 -0.2162 -0.3021
  283TMC3    C4 4270   1.708   3.259  15.505 -0.6135 -0.0146 -0.0168
  283TMC3    C5 4271   1.687   3.281  15.641 -0.3664 -0.3720 -1.1198
  283TMC3    C6 4272   1.725   3.398  15.697 -0.1530 -0.9045  0.2344
  283TMC3     C 4273   1.778   3.344  15.286 -0.2597 -0.3950  0.4230
  283TMC3     O 4274   1.741   3.433  15.215  0.1588 -0.4417  0.2410
  283TMC3     H 4275   1.795   3.569  15.412  1.0515  0.7370  1.6423
  283TMC3    H1 4276   1.693   3.159  15.465  0.9490 -0.6764  1.0461
  283TMC3    H2 4277   1.718   3.410  15.804  4.3848  1.4209  0.2582
  283TMC3    C7 4278   1.600   3.198  15.711  0.4987  0.3833  0.3061
  283TMC3    C8 4279   1.777   3.624  15.690  0.4989  0.1171 -0.7347
  283TMC3    O1 4280   1.596   3.231  15.830  0.2684 -0.2255  0.0012
  283TMC3    O2 4281   1.794   3.616  15.813  0.1851  0.3161  0.1474
  284MPD2     C 4282   4.424   2.731  12.178 -0.0073 -0.1904  0.2399
  284MPD2    C1 4283   4.496   2.634  12.123 -0.1035 -0.3261 -0.0046
  284MPD2    C2 4284   4.450   2.514  12.146 -0.3251  0.3651 -0.3578
  284MPD2    C3 4285   4.353   2.476  12.234  0.1050  0.5470 -0.2620
  284MPD2    C4 4286   4.280   2.574  12.293 -0.3605  0.5526 -0.2458
  284MPD2    C5 4287   4.314   2.701  12.260 -0.2899 -0.6045  0.4220
  284MPD2     H 4288   4.523   2.445  12.105 -1.6602 -1.3709  0.1949
  284MPD2    H1 4289   4.190   2.564  12.354 -0.0132  1.1517  0.3747
  284MPD2    H2 4290   4.443   2.833  12.145  0.7939  1.3929  5.5721
  284MPD2    H3 4291   4.256   2.783  12.299  0.3330  0.4005 -0.7453
  284MPD2     N 4292   4.321   2.342  12.265  0.4008  0.5106  0.5130
  284MPD2    H5 4293   4.275   2.321  12.353 -1.1377  2.2578  0.1265
  284MPD2    N1 4294   4.614   2.648  12.051  0.3858 -0.4806  0.2000
  284MPD2    H7 4295   4.656   2.569  12.003 -0.0241 -1.1791  0.9967
  285TMC3    C1 4296   0.066   2.783  11.941 -0.1382 -0.0362 -0.3681
  285TMC3    C2 4297   0.101   2.676  11.870 -0.0384 -0.3235 -0.1968
  285TMC3    C3 4298   0.194   2.689  11.772  0.6064 -0.1556 -1.1286
  285TMC3    C4 4299   0.141   2.897  11.928 -0.1153  0.0121 -0.5948
  285TMC3    C5 4300   0.248   2.896  11.839 -0.2625 -0.0502 -0.0228
  285TMC3    C6 4301   0.256   2.803  11.747  1.0823  0.0131 -0.0353
  285TMC3     C 4302   4.687   2.768  12.048  0.3450  0.4886 -1.2673
  285TMC3     O 4303   4.669   2.854  12.131  0.7570 -0.0658  0.5948
  285TMC3     H 4304   0.056   2.579  11.888 -2.4110  0.7439 -0.3707
  285TMC3    H1 4305   0.135   2.986  11.989  1.6280  0.9629 -1.7842
  285TMC3    H2 4306   0.311   2.826  11.657  0.4454 -0.7763 -0.6303
  285TMC3    C7 4307   0.259   3.016  11.772  0.5680  0.2332  0.1542
  285TMC3    C8 4308   0.228   2.569  11.697  0.1481  0.1534 -0.5861
  285TMC3    O1 4309   0.352   3.087  11.801 -0.1565  0.2555  0.2044
  285TMC3    O2 4310   0.138   2.492  11.674 -0.5657 -0.3546 -0.5102
  286MPD2     C 4311   0.739   1.800   1.801  0.7724  0.9783 -0.2779
  286MPD2    C1 4312   0.732   1.731   1.677 -0.3599 -0.4610  0.5025
  286MPD2    C2 4313   0.847   1.691   1.610 -0.1559 -0.7111 -0.4725
  286MPD2    C3 4314   0.973   1.702   1.680  0.8631  0.5119  0.4882
  286MPD2    C4 4315   0.975   1.766   1.801 -0.3929  0.0213 -0.2588
  286MPD2    C5 4316   0.865   1.816   1.858 -0.6152  0.2383 -0.1267
  286MPD2     H 4317   0.826   1.678   1.504  0.7319  0.3579 -0.7894
  286MPD2    H1 4318   1.068   1.783   1.854 -1.0923  2.5835  0.1526
  286MPD2    H2 4319   0.653   1.839   1.854 -0.5066 -0.8696 -0.9825
  286MPD2    H3 4320   0.862   1.864   1.955 -0.3127  2.9041 -1.4300
  286MPD2     N 4321   1.099   1.676   1.621  0.2722  0.2205 -0.4782
  286MPD2    H5 4322   1.176   1.717   1.673 -0.6251  0.2785  0.8246
  286MPD2    N1 4323   0.605   1.722   1.611 -0.4929  0.6935  0.0892
  286MPD2    H7 4324   0.601   1.684   1.517  0.2794 -0.7036  0.6196
  287TMC3    C1 4325   1.260   1.579   1.478 -0.5320  0.8224 -0.7819
  287TMC3    C2 4326   1.283   1.528   1.358 -0.0139 -0.0569  0.0839
  287TMC3    C3 4327   1.400   1.464   1.334 -0.5228 -0.0335 -0.1897
  287TMC3    C4 4328   1.355   1.582   1.576 -0.0093  0.4016  0.1834
  287TMC3    C5 4329   1.472   1.514   1.545 -0.3334 -0.7260  0.3533
  287TMC3    C6 4330   1.506   1.468   1.424 -0.0094 -0.0945 -0.0192
  287TMC3     C 4331   1.119   1.603   1.506 -0.0482 -0.1517  0.7372
  287TMC3     O 4332   1.035   1.548   1.438 -0.3166 -0.1769 -0.3554
  287TMC3     H 4333   1.201   1.530   1.287 -0.2362  0.3877  0.3508
  287TMC3    H1 4334   1.326   1.599   1.680  0.6863 -0.1462  0.4646
  287TMC3    H2 4335   1.603   1.423   1.406 -0.3009 -0.8451  0.2839
  287TMC3    C7 4336   1.582   1.524   1.644 -1.1105 -0.3609  0.4024
  287TMC3    C8 4337   1.406   1.359   1.237  0.1456 -0.3410  0.5343
  287TMC3    O1 4338   1.567   1.598   1.743 -0.2359  0.2791  0.1881
  287TMC3    O2 4339   1.484   1.271   1.271  0.0639  0.3850 -0.4832
  288TMC3    C1 4340   2.399   0.787  14.378  0.0690  0.1769  0.0575
  288TMC3    C2 4341   2.357   0.802  14.512 -0.0817  0.7821 -0.5734
  288TMC3    C3 4342   2.409   0.907  14.587 -0.0752 -0.3003  0.2053
  288TMC3    C4 4343   2.501   0.866  14.331 -0.3736 -0.1811 -0.2371
  288TMC3    C5 4344   2.551   0.969  14.409 -0.4541 -0.1146 -0.1901
  288TMC3    C6 4345   2.511   0.987  14.538 -0.5685 -0.2684 -0.3514
  288TMC3     C 4346   2.328   0.699  14.286  0.0476 -0.3247 -0.5075
  288TMC3     O 4347   2.260   0.608  14.330  0.1604 -0.3835 -0.3304
  288TMC3     H 4348   2.267   0.750  14.543  0.9800 -1.9053 -2.0342
  288TMC3    H1 4349   2.547   0.854  14.234 -2.3597 -0.9616 -1.0919
  288TMC3    H2 4350   2.542   1.077  14.590  0.5794 -1.7089  1.4622
  288TMC3    C7 4351   2.662   1.055  14.365 -0.2327  0.3736  0.2186
  288TMC3    C8 4352   2.368   0.931  14.722 -0.5312  0.3907 -0.0140
  288TMC3    O1 4353   2.721   1.101  14.459  0.1946  0.3724  0.2393
  288TMC3    O2 4354   2.422   1.022  14.785  0.1867 -0.0985 -0.1255
  289MPD2     C 4355   2.246   0.066  14.044  1.0297 -0.0867 -0.3963
  289MPD2    C1 4356   2.127   4.713  14.052  0.2368  1.0424  0.1234
  289MPD2    C2 4357   2.026   0.036  14.139 -0.0265 -0.3071  0.1179
  289MPD2    C3 4358   2.044   0.150  14.220 -0.3948  0.4493 -0.2594
  289MPD2    C4 4359   2.160   0.219  14.209 -0.2593 -0.0083 -0.4526
  289MPD2    C5 4360   2.255   0.178  14.120  0.0380 -0.0911 -0.0912
  289MPD2     H 4361   1.932   4.704  14.137 -0.0963 -0.1932  0.3904
  289MPD2    H1 4362   2.194   0.294  14.279 -0.9257  1.2325 -1.4452
  289MPD2    H2 4363   2.332   0.041  13.983  1.7708 -1.3992  1.1856
  289MPD2    H3 4364   2.346   0.237  14.122 -0.6575  0.9806 -0.1159
  289MPD2     N 4365   1.954   0.204  14.314  0.2711  0.0932 -0.2952
  289MPD2    H5 4366   1.973   0.299  14.346  1.0159  0.1455 -0.9017
  289MPD2    N1 4367   2.104   4.600  13.962  0.0320  0.3604 -0.3137
  289MPD2    H7 4368   2.188   4.578  13.910  0.7752  1.4644  0.4199
  290TMC3    C1 4369   1.752   0.209  14.437  0.7820 -0.6453 -0.0680
  290TMC3    C2 4370   1.698   0.314  14.358  0.4419  1.1476 -0.1615
  290TMC3    C3 4371   1.560   0.330  14.347  0.5093 -0.2107  0.3259
  290TMC3    C4 4372   1.660   0.127  14.494 -1.6391  0.2029  0.1795
  290TMC3    C5 4373   1.530   0.136  14.487  0.3834  1.2606 -0.0363
  290TMC3    C6 4374   1.475   0.231  14.402 -0.1541 -0.3127  0.1970
  290TMC3     C 4375   1.844   0.136  14.356 -0.5502 -0.0581  0.0743
  290TMC3     O 4376   1.796   0.023  14.333 -0.5003 -0.0378  0.4103
  290TMC3     H 4377   1.769   0.388  14.323  0.4704  0.8890 -0.6472
  290TMC3    H1 4378   1.707   0.047  14.549  0.7262  1.4042 -0.0831
  290TMC3    H2 4379   1.368   0.233  14.384 -0.3328 -2.3964  1.0764
  290TMC3    C7 4380   1.459   0.015  14.507  0.2134 -0.0784  0.1666
  290TMC3    C8 4381   1.511   0.441  14.272 -0.6047  0.3249  0.1763
  290TMC3    O1 4382   1.366   0.021  14.584  0.4125  0.2910 -0.3859
  290TMC3    O2 4383   1.397   0.436  14.231  0.2610 -0.1432 -0.0432
  291MPD2     C 4384   1.569   4.583   0.220 -0.2508  0.1433 -0.2243
  291MPD2    C1 4385   1.575   4.450   0.211  0.4172  0.0348  0.0105
  291MPD2    C2 4386   1.690   4.387   0.261  0.8143  0.6366 -0.4629
  291MPD2    C3 4387   1.802   4.457   0.301 -0.0801  0.3220 -0.5363
  291MPD2    C4 4388   1.793   4.595   0.285 -0.2128  0.4869  0.2639
  291MPD2    C5 4389   1.678   4.659   0.247 -0.3359 -0.2817  0.2412
  291MPD2     H 4390   1.692   4.279   0.249 -1.2892  0.3891  1.3076
  291MPD2    H1 4391   1.884   4.654   0.295 -0.0445  0.3203 -0.2578
  291MPD2    H2 4392   1.485   4.646   0.195  1.9559  3.7722  1.5233
  291MPD2    H3 4393   1.668   0.046   0.251  0.6903 -0.2042  0.6705
  291MPD2     N 4394   1.929   4.407   0.332 -0.8271 -0.0947  0.2795
  291MPD2    H5 4395   2.003   4.472   0.356 -2.1483  0.6216  2.3700
  291MPD2    N1 4396   1.468   4.378   0.154 -0.1918 -0.2537  0.2151
  291MPD2    H7 4397   1.474   4.278   0.171 -0.1113 -0.4231 -0.7762
  292TMC3    C1 4398   1.275   4.309   0.035  0.1433  0.2710 -0.6261
  292TMC3    C2 4399   1.149   4.349   0.006  0.5572  0.0659  0.8109
  292TMC3    C3 4400   1.044   4.264  17.677 -0.2165 -0.1685  0.6505
  292TMC3    C4 4401   1.298   4.177   0.034 -0.1788 -0.2852 -0.3415
  292TMC3    C5 4402   1.191   4.089   0.024  0.2038  0.4109  0.7853
  292TMC3    C6 4403   1.061   4.128   0.001 -0.0977  0.4011  0.1509
  292TMC3     C 4404   1.362   4.420   0.082  0.3393 -0.3296 -0.1069
  292TMC3     O 4405   1.324   4.531   0.039  0.0316  0.0137  0.7405
  292TMC3     H 4406   1.130   4.456   0.006 -2.4697 -0.4780 -2.5577
  292TMC3    H1 4407   1.400   4.141   0.040  0.1942  0.2612 -3.5143
  292TMC3    H2 4408   0.980   4.066  17.649 -0.2161  0.9665 -0.5343
  292TMC3    C7 4409   1.218   3.950   0.027  0.3345  0.3434 -0.0174
  292TMC3    C8 4410   0.914   4.332  17.658 -0.9057  0.0710 -0.2254
  292TMC3    O1 4411   1.323   3.911  17.669  0.2670  0.0193  0.0875
  292TMC3    O2 4412   0.906   4.425  17.586  0.3573 -0.0117 -0.4827
  293MPD2     C 4413   3.143   1.572  12.238  0.4223  0.3682  0.1091
  293MPD2    C1 4414   3.054   1.522  12.327 -0.6826 -1.0326  0.2117
  293MPD2    C2 4415   3.082   1.534  12.464 -0.2250  0.1477 -0.0982
  293MPD2    C3 4416   3.201   1.582  12.509  0.1525  0.3956  0.2510
  293MPD2    C4 4417   3.293   1.617  12.414  0.2298  0.0356  0.3531
  293MPD2    C5 4418   3.261   1.614  12.279  0.4362  0.6649 -0.1381
  293MPD2     H 4419   3.006   1.503  12.534 -0.1889 -0.4766 -0.3386
  293MPD2    H1 4420   3.389   1.660  12.440 -0.7363  2.7976 -0.6369
  293MPD2    H2 4421   3.118   1.563  12.132  1.2408  0.9125 -0.1270
  293MPD2    H3 4422   3.334   1.654  12.209 -1.9150  0.3171 -2.7729
  293MPD2     N 4423   3.229   1.592  12.643  0.3738  0.4320  0.5182
  293MPD2    H5 4424   3.166   1.551  12.712  0.6844  0.6479  0.9253
  293MPD2    N1 4425   2.930   1.485  12.271 -0.0398  0.2078 -0.1100
  293MPD2    H7 4426   2.920   1.499  12.170  0.1913  0.0733 -0.1504
  294TMC3    C1 4427   2.708   1.402  12.250  0.3633  0.0093 -0.7133
  294TMC3    C2 4428   2.592   1.361  12.317 -0.5227 -0.2542  0.0676
  294TMC3    C3 4429   2.483   1.347  12.242 -0.2400 -0.4923  1.1404
  294TMC3    C4 4430   2.696   1.450  12.124  0.0969  0.1291 -0.3115
  294TMC3    C5 4431   2.592   1.408  12.055 -0.5011 -0.0653 -0.7148
  294TMC3    C6 4432   2.480   1.363  12.106 -0.6134  0.0667  0.1390
  294TMC3     C 4433   2.822   1.430  12.332  0.4232  0.7398  1.0433
  294TMC3     O 4434   2.811   1.399  12.452  0.0783 -0.0620  0.5514
  294TMC3     H 4435   2.585   1.315  12.415 -0.6567  0.9329  0.6218
  294TMC3    H1 4436   2.767   1.517  12.076  2.9138 -2.3568  0.4275
  294TMC3    H2 4437   2.390   1.338  12.051 -2.0333  2.4798  1.3512
  294TMC3    C7 4438   2.580   1.438  11.912 -0.5486 -0.2574 -0.1994
  294TMC3    C8 4439   2.381   1.261  12.293 -0.2276  0.0381  0.1421
  294TMC3    O1 4440   2.473   1.481  11.872 -0.2575 -0.0823 -0.1356
  294TMC3    O2 4441   2.304   1.310  12.380 -0.5053 -0.2068 -0.0424
  295MPD2     C 4442   3.716   4.514   0.160 -0.4848 -0.2972 -0.0271
  295MPD2    C1 4443   3.761   4.632   0.202 -0.1114  0.0189 -0.5926
  295MPD2    C2 4444   3.678   4.713   0.265 -0.0086  0.3400  1.4877
  295MPD2    C3 4445   3.543   4.686   0.295  0.3847 -0.5429 -0.0278
  295MPD2    C4 4446   3.496   4.562   0.248 -0.1217 -0.1797 -0.0778
  295MPD2    C5 4447   3.588   4.479   0.179 -1.1947 -0.4989  0.9078
  295MPD2     H 4448   3.711   0.090   0.297 -0.9160  0.9136  0.6792
  295MPD2    H1 4449   3.396   4.528   0.270 -0.1742 -1.2795 -1.9703
  295MPD2    H2 4450   3.780   4.437   0.118  1.9762  1.1162  1.1690
  295MPD2    H3 4451   3.555   4.381   0.146  1.3058 -0.6940 -0.9859
  295MPD2     N 4452   3.454   0.051   0.363 -0.6769 -0.0580  0.8391
  295MPD2    H5 4453   3.356   0.025   0.367 -0.9842  1.2905  2.2873
  295MPD2    N1 4454   3.892   4.674   0.177 -0.3177 -0.4515 -0.3466
  295MPD2    H7 4455   3.916   0.047   0.209  0.8280 -1.1464  0.8164
  296TMC3    C1 4456   3.386   0.241   0.496  0.0100  0.4350 -0.2185
  296TMC3    C2 4457   3.427   0.355   0.559 -0.3019 -0.5963  0.2560
  296TMC3    C3 4458   3.334   0.429   0.623 -0.5485  0.4796  0.2460
  296TMC3    C4 4459   3.255   0.197   0.488 -0.7196  0.2842 -1.1323
  296TMC3    C5 4460   3.166   0.286   0.553 -0.8779  0.2816 -0.2079
  296TMC3    C6 4461   3.200   0.402   0.609  0.0807  0.1670  0.2937
  296TMC3     C 4462   3.491   0.171   0.424  0.1574  0.3997  0.2900
  296TMC3     O 4463   3.601   0.224   0.430 -0.4949 -0.5205 -0.2682
  296TMC3     H 4464   3.531   0.381   0.574  0.0910 -1.5701 -0.8486
  296TMC3    H1 4465   3.221   0.101   0.451  1.8240 -1.2334  0.4813
  296TMC3    H2 4466   3.133   0.462   0.670 -0.1569  0.4903 -0.2877
  296TMC3    C7 4467   3.029   0.236   0.568  0.0889  0.4233 -0.5140
  296TMC3    C8 4468   3.382   0.543   0.702  0.9048 -0.0154 -0.8394
  296TMC3    O1 4469   2.995   0.135   0.501 -0.1273 -0.1415  0.5453
  296TMC3    O2 4470   3.306   0.640   0.715 -1.1037  0.3924  0.6564
  297MPD2     C 4471   1.144   1.933  16.326  0.3559 -0.0987 -0.0985
  297MPD2    C1 4472   1.145   2.031  16.226  0.3990  0.1418  0.4351
  297MPD2    C2 4473   1.247   2.125  16.213 -0.2496  0.7570  0.1903
  297MPD2    C3 4474   1.346   2.126  16.305 -0.6612  0.1617 -0.4693
  297MPD2    C4 4475   1.354   2.028  16.407  0.2236  0.4400  0.1612
  297MPD2    C5 4476   1.249   1.937  16.415 -0.0795  0.7377  0.5534
  297MPD2     H 4477   1.251   2.201  16.136  1.3653  2.7139  2.2326
  297MPD2    H1 4478   1.435   2.023  16.479 -0.2464 -1.4136  0.5689
  297MPD2    H2 4479   1.066   1.863  16.354  0.2053  0.2120  0.2625
  297MPD2    H3 4480   1.237   1.866  16.496  0.0128 -1.5383 -1.4276
  297MPD2     N 4481   1.442   2.228  16.293  0.2052  0.1920 -0.4703
  297MPD2    H5 4482   1.428   2.301  16.223 -3.1719 -0.6057 -0.6279
  297MPD2    N1 4483   1.043   2.008  16.128 -0.4083 -0.4535  0.4708
  297MPD2    H7 4484   0.986   1.925  16.142  1.9390 -1.7081  2.6939
  298TMC3    C1 4485   0.941   2.020  15.915 -0.6010 -0.0277 -0.0682
  298TMC3    C2 4486   0.951   2.062  15.785 -0.0893 -0.6244 -0.4312
  298TMC3    C3 4487   0.839   2.074  15.708  0.6380  0.4522 -0.1366
  298TMC3    C4 4488   0.820   2.034  15.974 -0.1011 -0.1182 -0.2149
  298TMC3    C5 4489   0.710   2.051  15.897  0.4123 -0.0707 -0.2360
  298TMC3    C6 4490   0.714   2.063  15.763  0.1566  0.2774  0.0920
  298TMC3     C 4491   1.050   2.066  16.005 -0.0668  0.0811 -0.2307
  298TMC3     O 4492   1.123   2.157  15.954  0.3291 -0.2533 -0.4749
  298TMC3     H 4493   1.046   2.085  15.739 -0.2587 -0.5879 -0.7626
  298TMC3    H1 4494   0.810   2.022  16.081  0.3191 -0.6508 -0.2336
  298TMC3    H2 4495   0.634   2.120  15.718 -0.4963 -0.9504 -0.2938
  298TMC3    C7 4496   0.590   2.116  15.962 -0.0085  0.5464 -0.0611
  298TMC3    C8 4497   0.838   2.147  15.580  0.0712  0.7144  0.0293
  298TMC3    O1 4498   0.616   2.186  16.061 -0.3350 -0.4752  0.2013
  298TMC3    O2 4499   0.748   2.121  15.500 -0.5291  0.4484 -0.2384
  299MPD2     C 4500   1.555   2.434  10.123  0.3230  0.7290 -0.9202
  299MPD2    C1 4501   1.499   2.359  10.230  0.1856  1.0492  0.3513
  299MPD2    C2 4502   1.373   2.304  10.217 -0.4116 -0.5715 -0.8038
  299MPD2    C3 4503   1.297   2.329  10.103  0.8549 -0.7671  0.5213
  299MPD2    C4 4504   1.345   2.411  10.007  0.1347  0.0213 -0.2087
  299MPD2    C5 4505   1.477   2.463  10.015 -0.2027 -0.1235 -0.0843
  299MPD2     H 4506   1.338   2.230  10.288 -0.2603  2.1793  2.1366
  299MPD2    H1 4507   1.300   2.429   9.910 -0.2819  0.2033  0.0215
  299MPD2    H2 4508   1.657   2.468  10.113  0.4766 -0.2975 -2.9688
  299MPD2    H3 4509   1.522   2.504   9.925 -0.2991  0.1854  0.0084
  299MPD2     N 4510   1.165   2.287  10.080  0.2757  0.1999  0.4283
  299MPD2    H5 4511   1.124   2.328   9.997 -1.1477 -1.1822  0.4484
  299MPD2    N1 4512   1.577   2.329  10.342  0.4439  0.6463  0.0749
  299MPD2    H7 4513   1.517   2.293  10.416  0.7750 -0.0442  0.0098
  300TMC3    C1 4514   0.959   2.210  10.135  0.5136 -0.0506  0.5930
  300TMC3    C2 4515   0.904   2.331  10.167 -0.1051  0.0257  0.6287
  300TMC3    C3 4516   0.780   2.353  10.218  0.1843 -0.1378  0.1570
  300TMC3    C4 4517   0.887   2.101  10.173 -0.1823  0.1066  0.0526
  300TMC3    C5 4518   0.773   2.122  10.235  0.0843  0.6996 -0.0069
  300TMC3    C6 4519   0.713   2.245  10.262 -0.4727  0.0805 -1.2861
  300TMC3     C 4520   1.093   2.201  10.161 -0.3711 -0.4627  0.0776
  300TMC3     O 4521   1.138   2.116  10.241  0.0336  0.3872  0.3170
  300TMC3     H 4522   0.972   2.413  10.147  1.5284 -1.4462  0.1540
  300TMC3    H1 4523   0.931   2.002  10.171 -2.4998 -0.9100 -0.9740
  300TMC3    H2 4524   0.621   2.265  10.315 -0.9342 -1.1191 -1.6315
  300TMC3    C7 4525   0.718   2.000  10.294  0.0774  0.5293  0.5417
  300TMC3    C8 4526   0.782   2.458  10.322  0.1660  0.1454  0.3042
  300TMC3    O1 4527   0.747   1.897  10.238 -0.2379 -0.4546 -0.3421
  300TMC3    O2 4528   0.895   2.493  10.343 -0.0818  0.4045  0.3251
  301MPD2     C 4529   3.554   3.581   1.508  0.3126  0.4264  0.0792
  301MPD2    C1 4530   3.437   3.515   1.463 -0.3204  0.3863 -0.1498
  301MPD2    C2 4531   3.454   3.386   1.422  0.2234  0.5441 -0.6157
  301MPD2    C3 4532   3.573   3.332   1.391 -0.4083  0.7082 -0.0694
  301MPD2    C4 4533   3.686   3.405   1.418 -0.3456 -0.5428  0.4441
  301MPD2    C5 4534   3.677   3.519   1.487  0.3288 -0.0120  0.2061
  301MPD2     H 4535   3.363   3.332   1.397 -1.7658  2.8542  1.6007
  301MPD2    H1 4536   3.782   3.359   1.398 -1.7616 -3.0742 -0.5980
  301MPD2    H2 4537   3.555   3.678   1.555  1.4994 -0.2793  1.5198
  301MPD2    H3 4538   3.767   3.575   1.508  2.1737 -2.5250 -1.0483
  301MPD2     N 4539   3.592   3.204   1.333  0.0672  0.1723  0.1953
  301MPD2    H5 4540   3.688   3.180   1.307 -0.0316 -0.4833  0.4398
  301MPD2    N1 4541   3.308   3.578   1.478  0.7015  0.0288 -0.0045
  301MPD2    H7 4542   3.236   3.524   1.431 -0.7261 -0.5538  2.8581
  302TMC3    C1 4543   3.546   2.981   1.246  0.4760  0.6945  0.1836
  302TMC3    C2 4544   3.649   2.992   1.155 -0.7175  0.3242 -0.6372
  302TMC3    C3 4545   3.688   2.886   1.083  0.0971  0.3819 -0.1568
  302TMC3    C4 4546   3.476   2.865   1.258  0.2163 -0.0914 -0.0308
  302TMC3    C5 4547   3.515   2.756   1.181  0.3887  0.4558 -0.2691
  302TMC3    C6 4548   3.621   2.760   1.091  0.8627  0.4982  0.0242
  302TMC3     C 4549   3.499   3.107   1.314 -0.4455 -0.5372  0.1079
  302TMC3     O 4550   3.387   3.106   1.367 -0.6031  0.0098  0.2234
  302TMC3     H 4551   3.707   3.084   1.149 -0.8815  0.3719 -1.4301
  302TMC3    H1 4552   3.396   2.855   1.330 -0.3591 -0.1449 -0.6793
  302TMC3    H2 4553   3.644   2.679   1.023  1.2559  0.6731 -0.0509
  302TMC3    C7 4554   3.428   2.635   1.166 -0.0562  0.0973  0.3666
  302TMC3    C8 4555   3.780   2.917   0.971 -0.5730  1.1197  0.3028
  302TMC3    O1 4556   3.473   2.527   1.126  0.2048 -0.8212  0.4199
  302TMC3    O2 4557   3.785   3.032   0.932 -0.1623  0.0151 -0.2506
  303MPD2     C 4558   3.284   1.569  10.350  0.0105  0.4108 -0.0591
  303MPD2    C1 4559   3.231   1.506  10.243  0.8829  0.4085  0.0715
  303MPD2    C2 4560   3.183   1.585  10.138 -0.4674 -0.0059  0.1117
  303MPD2    C3 4561   3.198   1.723  10.138  0.2132 -0.7568 -0.1730
  303MPD2    C4 4562   3.275   1.780  10.232 -0.7597 -0.7204 -0.2796
  303MPD2    C5 4563   3.311   1.702  10.341  0.8493  0.7716 -0.5248
  303MPD2     H 4564   3.124   1.544  10.057 -0.0250 -0.6358  0.1094
  303MPD2    H1 4565   3.280   1.888  10.229 -2.9747 -0.5747  1.2317
  303MPD2    H2 4566   3.316   1.513  10.437 -1.5681  0.7334  0.7335
  303MPD2    H3 4567   3.360   1.760  10.418 -0.3173  0.2394  0.6195
  303MPD2     N 4568   3.144   1.805  10.031  0.2230 -0.1627 -0.3476
  303MPD2    H5 4569   3.167   1.903  10.022 -1.9903  0.5719  1.9674
  303MPD2    N1 4570   3.224   1.367  10.241 -0.3265  0.0937  0.3008
  303MPD2    H7 4571   3.244   1.324  10.331  1.3341  2.1193  0.9112
  304TMC3    C1 4572   3.175   1.146  10.164 -0.5249  0.0952  0.4545
  304TMC3    C2 4573   3.114   1.117  10.279  0.0539 -0.1683  0.4626
  304TMC3    C3 4574   3.047   1.002  10.285 -0.1486 -0.1979  0.9186
  304TMC3    C4 4575   3.185   1.064  10.061 -0.3194  0.0370 -0.1591
  304TMC3    C5 4576   3.128   0.943  10.070 -0.1530 -0.1749  0.0364
  304TMC3    C6 4577   3.059   0.912  10.182  0.2422 -0.4128 -0.1389
  304TMC3     C 4578   3.194   1.291  10.130 -0.4225  0.0116  0.1354
  304TMC3     O 4579   3.194   1.322  10.012 -0.0452 -0.1697 -0.6103
  304TMC3     H 4580   3.128   1.181  10.365  3.1195  0.6280 -0.6047
  304TMC3    H1 4581   3.247   1.094   9.978 -1.7668  0.5386 -1.0697
  304TMC3    H2 4582   3.021   0.811  10.194  0.0682 -0.3066  0.2098
  304TMC3    C7 4583   3.044   0.913   9.959 -0.0768 -0.1456  0.2542
  304TMC3    C8 4584   2.924   1.004  10.354  0.1413 -0.1487  0.3055
  304TMC3    O1 4585   2.926   0.884   9.988 -0.0868 -0.3647 -0.3101
  304TMC3    O2 4586   2.903   1.087  10.441 -0.5734 -0.1438  0.0254
  305MPD2     C 4587   1.990   3.686  13.879  0.1563  0.4566 -0.1296
  305MPD2    C1 4588   2.087   3.597  13.851 -0.6188  0.0048 -0.6644
  305MPD2    C2 4589   2.078   3.517  13.737  0.9462  0.3587 -0.2079
  305MPD2    C3 4590   1.959   3.531  13.660  0.2655 -0.8737 -0.0577
  305MPD2    C4 4591   1.863   3.625  13.676  0.7792  0.0332  0.0869
  305MPD2    C5 4592   1.877   3.693  13.799  0.1058  0.3617  0.6964
  305MPD2     H 4593   2.147   3.437  13.711 -1.1059 -1.7793  0.9293
  305MPD2    H1 4594   1.777   3.642  13.613  2.0555  0.6170 -1.4951
  305MPD2    H2 4595   1.994   3.747  13.968 -0.9789 -1.3495  1.1671
  305MPD2    H3 4596   1.798   3.762  13.825  0.8082  2.3505 -2.5087
  305MPD2     N 4597   1.949   3.437  13.560 -0.0347 -0.3496 -0.3780
  305MPD2    H5 4598   2.028   3.374  13.554  0.4694  0.4677 -2.3676
  305MPD2    N1 4599   2.185   3.571  13.945 -0.0196 -0.5156  0.4200
  305MPD2    H7 4600   2.164   3.606  14.038 -0.1831  3.2785 -1.0507
  306TMC3    C1 4601   2.379   3.488  14.040 -0.4722  0.5384 -0.2433
  306TMC3    C2 4602   2.317   3.459  14.154 -0.3929 -0.6780  0.7635
  306TMC3    C3 4603   2.392   3.461  14.268 -0.4086  0.5276  0.4878
  306TMC3    C4 4604   2.504   3.536  14.024 -0.0069  0.2369  0.3265
  306TMC3    C5 4605   2.577   3.539  14.140  0.8359  0.0143  0.5119
  306TMC3    C6 4606   2.525   3.504  14.261 -0.0899 -0.2952 -0.0991
  306TMC3     C 4607   2.304   3.508  13.920  0.2470  0.3077 -0.2445
  306TMC3     O 4608   2.350   3.487  13.807  0.2202 -0.0796 -0.6335
  306TMC3     H 4609   2.218   3.414  14.154 -1.1283  0.8816  2.5963
  306TMC3    H1 4610   2.540   3.561  13.925  0.6241 -2.6214 -0.1848
  306TMC3    H2 4611   2.597   3.506  14.343  2.0994  1.9328 -2.0819
  306TMC3    C7 4612   2.703   3.616  14.131 -0.0393  0.6152  0.5223
  306TMC3    C8 4613   2.363   3.382  14.389 -0.8678  0.0180 -0.3965
  306TMC3    O1 4614   2.776   3.590  14.038 -0.5997  0.5495 -0.2240
  306TMC3    O2 4615   2.458   3.337  14.448  0.0259 -0.3827  0.0865
  307MPD2     C 4616   0.011   0.354   0.546 -0.3355  0.6839 -0.8215
  307MPD2    C1 4617   4.659   0.464   0.571 -0.0417  0.3171  0.4983
  307MPD2    C2 4618   4.541   0.445   0.636  0.1215  0.2592 -0.0045
  307MPD2    C3 4619   4.493   0.322   0.665 -0.8604 -0.0195  0.2299
  307MPD2    C4 4620   4.567   0.207   0.633 -0.0865  0.1515  0.1461
  307MPD2    C5 4621   4.682   0.227   0.570  0.6011  0.9340 -0.0748
  307MPD2     H 4622   4.483   0.536   0.641  1.5111  1.0847  0.9146
  307MPD2    H1 4623   4.539   0.103   0.646  0.1323  0.1332  0.4953
  307MPD2    H2 4624   0.106   0.363   0.496 -0.1909  0.7023 -0.5424
  307MPD2    H3 4625   0.016   0.140   0.537  0.6602  0.2771  1.7641
  307MPD2     N 4626   4.360   0.320   0.715 -0.2681 -0.7744  0.1792
  307MPD2    H5 4627   4.316   0.411   0.714 -0.1705 -0.6961  2.0449
  307MPD2    N1 4628   4.691   0.600   0.541  0.1946 -0.9306  0.6667
  307MPD2    H7 4629   4.618   0.670   0.553  1.1403  0.0782  0.5686
  308TMC3    C1 4630   4.014   0.411   0.768  0.5609  0.7207 -0.2304
  308TMC3    C2 4631   4.039   0.481   0.880 -0.3879  0.0633  0.1456
  308TMC3    C3 4632   4.147   0.438   0.959 -0.3558  0.0135  0.8940
  308TMC3    C4 4633   4.071   0.292   0.745 -0.3987  0.3114 -0.6597
  308TMC3    C5 4634   4.169   0.241   0.824  0.6033  0.2127 -0.1032
  308TMC3    C6 4635   4.200   0.309   0.938  0.2065 -0.6375 -0.6312
  308TMC3     C 4636   3.915   0.446   0.665  1.1556  0.3865 -0.0822
  308TMC3     O 4637   3.863   0.349   0.613 -0.1770 -0.1372  0.1937
  308TMC3     H 4638   3.971   0.561   0.906 -1.3163 -0.2596 -1.2697
  308TMC3    H1 4639   4.062   0.248   0.646 -0.5805 -1.4207  0.1352
  308TMC3    H2 4640   4.295   0.286   0.985 -0.3318 -0.5656  0.4877
  308TMC3    C7 4641   4.289   0.206   0.746  0.4009  0.1332 -0.7800
  308TMC3    C8 4642   4.203   0.515   1.070 -0.0449 -0.2732 -0.1041
  308TMC3    O1 4643   4.331   0.093   0.767 -0.0861 -0.2659 -0.4308
  308TMC3    O2 4644   4.283   0.461   1.146 -0.0419 -0.0908  0.1799
  309MPD2     C 4645   3.821   1.409  17.213  0.7281 -0.0607  1.0316
  309MPD2    C1 4646   3.773   1.491  17.111  0.3558 -0.3436  0.3811
  309MPD2    C2 4647   3.684   1.589  17.148 -0.3109 -0.2990  0.1216
  309MPD2    C3 4648   3.653   1.609  17.284  1.0729 -0.9854  0.8767
  309MPD2    C4 4649   3.710   1.530  17.382 -0.1778 -0.4116 -0.3299
  309MPD2    C5 4650   3.792   1.425  17.347 -0.1073 -0.5000  0.4551
  309MPD2     H 4651   3.627   1.636  17.068 -1.4386 -0.4253  0.8451
  309MPD2    H1 4652   3.707   1.534  17.490  0.3170 -1.2668 -0.2786
  309MPD2    H2 4653   3.903   1.340  17.199  1.0955  0.8768 -1.3827
  309MPD2    H3 4654   3.830   1.355  17.420 -1.4087 -0.6335  1.0135
  309MPD2     N 4655   3.561   1.707  17.333 -0.2203  0.6721  0.2618
  309MPD2    H5 4656   3.542   1.695  17.432  1.8366  0.6537  0.6663
  309MPD2    N1 4657   3.808   1.485  16.976  0.6294 -0.3655  0.5777
  309MPD2    H7 4658   3.785   1.567  16.920  0.9090 -1.3060 -0.9336
  310TMC3    C1 4659   3.909   1.412  16.774  0.5971  0.1855 -0.2123
  310TMC3    C2 4660   3.837   1.507  16.707  0.0876 -0.2845  0.3692
  310TMC3    C3 4661   3.879   1.523  16.574 -0.3711 -0.0512 -0.4293
  310TMC3    C4 4662   3.992   1.323  16.711 -0.1458  0.1768  0.1626
  310TMC3    C5 4663   4.025   1.345  16.583  0.5028  0.3880  0.2676
  310TMC3    C6 4664   3.963   1.439  16.515  0.5543  0.4811 -0.0299
  310TMC3     C 4665   3.889   1.386  16.920 -0.6765  0.1895  0.2666
  310TMC3     O 4666   3.934   1.279  16.957  0.2504  0.7326 -1.0380
  310TMC3     H 4667   3.757   1.569  16.746  0.2958 -0.1908  0.6506
  310TMC3    H1 4668   4.041   1.243  16.766  1.9408  1.5085  0.2447
  310TMC3    H2 4669   4.005   1.461  16.418 -0.1455  0.7595 -0.2737
  310TMC3    C7 4670   4.130   1.281  16.511  0.2745 -0.1807  0.1795
  310TMC3    C8 4671   3.805   1.607  16.481 -0.1506 -0.0242  0.2566
  310TMC3    O1 4672   4.149   1.298  16.393 -0.3512 -0.3611 -0.2655
  310TMC3    O2 4673   3.869   1.638  16.381  0.1371  0.2211 -0.2772
  311MPD2     C 4674   1.046   2.899  12.531  0.0443 -0.5347  0.1855
  311MPD2    C1 4675   1.051   3.031  12.569 -0.2834  0.8725  1.5804
  311MPD2    C2 4676   0.932   3.088  12.621 -0.3828  0.2546  0.5351
  311MPD2    C3 4677   0.812   3.015  12.629 -0.3835  0.1430 -0.0061
  311MPD2    C4 4678   0.813   2.886  12.591  0.2285 -0.0525 -0.5384
  311MPD2    C5 4679   0.928   2.829  12.544  1.3655  0.5170 -0.0200
  311MPD2     H 4680   0.938   3.194  12.645  1.7987  0.5477 -1.2882
  311MPD2    H1 4681   0.724   2.824  12.598 -0.4274  1.2729  2.9090
  311MPD2    H2 4682   1.131   2.858  12.478  0.1479 -1.8069  1.3497
  311MPD2    H3 4683   0.915   2.729  12.504  0.3405  0.8747 -0.5751
  311MPD2     N 4684   0.685   3.077  12.676 -0.0360 -0.6049  0.5600
  311MPD2    H5 4685   0.689   3.178  12.689  0.5048 -0.7887  1.7795
  311MPD2    N1 4686   1.174   3.104  12.569 -0.2449 -0.3600  0.0737
  311MPD2    H7 4687   1.172   3.196  12.612  0.5547 -0.3262  0.0377
  312TMC3    C1 4688   0.457   3.092  12.730 -0.0896  0.0434 -0.0757
  312TMC3    C2 4689   0.348   3.059  12.660  0.6851 -0.4701 -0.0624
  312TMC3    C3 4690   0.246   3.145  12.663 -0.2805  1.1134  0.9225
  312TMC3    C4 4691   0.471   3.205  12.803 -0.2451 -0.0798 -0.3181
  312TMC3    C5 4692   0.359   3.288  12.813 -0.1218 -0.5044 -0.0867
  312TMC3    C6 4693   0.244   3.257  12.743  0.1587  0.0334  1.2956
  312TMC3     C 4694   0.563   3.012  12.686 -0.1572  0.3525  0.5685
  312TMC3     O 4695   0.531   2.897  12.667  0.1085  0.6828  0.0896
  312TMC3     H 4696   0.336   2.963  12.611 -1.9191 -0.7040  1.0542
  312TMC3    H1 4697   0.569   3.227  12.845 -0.3641 -0.2207  0.0265
  312TMC3    H2 4698   0.150   3.296  12.782 -0.1185 -0.9687  1.6105
  312TMC3    C7 4699   0.349   3.387  12.910  0.1862  0.7824  0.4184
  312TMC3    C8 4700   0.112   3.099  12.628 -0.0137  0.1800 -0.3704
  312TMC3    O1 4701   0.255   3.466  12.894 -0.0835 -0.0554  0.2784
  312TMC3    O2 4702   0.097   2.978  12.632  0.0638  0.5595  0.4460
  313MPD2     C 4703   0.591   2.587  11.110 -0.5943 -0.1157  0.1267
  313MPD2    C1 4704   0.461   2.568  11.138 -0.6335  0.2081  0.0513
  313MPD2    C2 4705   0.384   2.494  11.050  0.6464  0.5757  0.1093
  313MPD2    C3 4706   0.439   2.439  10.934 -0.6461 -1.3381  0.8716
  313MPD2    C4 4707   0.574   2.455  10.914 -0.6793 -0.7893 -0.7036
  313MPD2    C5 4708   0.655   2.526  11.008 -0.1476  0.4111  0.1507
  313MPD2     H 4709   0.282   2.482  11.084 -0.0376 -0.7422 -2.4201
  313MPD2    H1 4710   0.618   2.428  10.819 -1.1788 -2.6249 -0.4108
  313MPD2    H2 4711   0.658   2.656  11.162 -0.4818 -0.2872  0.2084
  313MPD2    H3 4712   0.761   2.537  10.988 -0.6082  3.4064 -0.7637
  313MPD2     N 4713   0.357   2.379  10.833 -0.5536  0.4991  0.5683
  313MPD2    H5 4714   0.409   2.330  10.761  0.8184  0.3888  1.6337
  313MPD2    N1 4715   0.401   2.631  11.249  0.5638 -0.0253 -0.2407
  313MPD2    H7 4716   0.302   2.616  11.268  0.5388  0.3044 -0.1111
  314TMC3    C1 4717   0.374   2.844  11.359 -0.1207  0.1672  0.2326
  314TMC3    C2 4718   0.454   2.951  11.377  0.3185 -0.7358 -0.5013
  314TMC3    C3 4719   0.451   3.058  11.284  0.7556  0.6732 -0.8131
  314TMC3    C4 4720   0.269   2.849  11.278  0.4960  0.0318  0.3845
  314TMC3    C5 4721   0.263   2.949  11.184 -0.3440 -0.6894  0.0023
  314TMC3    C6 4722   0.361   3.049  11.183  0.4476 -0.0901 -0.8996
  314TMC3     C 4723   0.462   2.735  11.320  0.0490  0.0200  0.4001
  314TMC3     O 4724   0.578   2.764  11.321 -0.4710 -0.3304  0.0771
  314TMC3     H 4725   0.526   2.955  11.459 -0.6745  1.3242  0.2719
  314TMC3    H1 4726   0.186   2.779  11.274 -0.1713  0.8262  0.2957
  314TMC3    H2 4727   0.360   3.121  11.102 -1.1570 -0.8871 -1.5919
  314TMC3    C7 4728   0.212   2.896  11.058  0.0563 -0.2963  0.2269
  314TMC3    C8 4729   0.574   3.132  11.264  0.7000 -0.1316 -0.4441
  314TMC3    O1 4730   0.122   2.812  11.061 -0.0787 -0.3899  0.5346
  314TMC3    O2 4731   0.574   3.229  11.187 -0.5334 -0.2027  0.2070
  315MPD2     C 4732   0.030   1.852   0.028 -0.6380  0.5572  1.0578
  315MPD2    C1 4733   0.156   1.798   0.034 -0.7775  0.0404 -0.7441
  315MPD2    C2 4734   0.248   1.841  17.629  0.0237 -0.5217  0.5443
  315MPD2    C3 4735   0.216   1.931  17.533  0.3241  0.0653  0.0879
  315MPD2    C4 4736   0.093   1.980  17.522 -0.3192  0.3770 -0.2832
  315MPD2    C5 4737   4.718   1.944  17.617 -0.3919 -0.8315  0.3142
  315MPD2     H 4738   0.347   1.797  17.628  0.1552 -0.1785 -0.6327
  315MPD2    H1 4739   0.061   2.043  17.440  4.1973  2.4494 -0.4591
  315MPD2    H2 4740   4.678   1.808   0.095 -1.3693  0.8049  0.4246
  315MPD2    H3 4741   4.620   1.987  17.602  0.9113  1.2037 -2.6217
  315MPD2     N 4742   0.319   1.964  17.443 -0.3831  0.2878  0.1430
  315MPD2    H5 4743   0.410   1.925  17.467 -0.6421  0.7590  1.8906
  315MPD2    N1 4744   0.202   1.704   0.131  0.7061  0.4215  0.0267
  315MPD2    H7 4745   0.298   1.673   0.117  0.1841 -1.1429 -0.1056
  316TMC3    C1 4746   0.446   2.069  17.272  0.1164  0.0835  0.0927
  316TMC3    C2 4747   0.545   2.011  17.343  0.3794 -0.1989 -0.0999
  316TMC3    C3 4748   0.660   2.084  17.366  0.2362 -0.2563 -0.2192
  316TMC3    C4 4749   0.456   2.192  17.214  0.7179 -0.4659  0.2128
  316TMC3    C5 4750   0.574   2.255  17.231  0.4147 -0.3330 -0.1858
  316TMC3    C6 4751   0.673   2.205  17.305 -0.7901 -0.1434 -0.3230
  316TMC3     C 4752   0.314   2.049  17.336  0.2320 -0.6482 -0.4963
  316TMC3     O 4753   0.223   2.114  17.286  0.1640  0.2818 -0.3024
  316TMC3     H 4754   0.544   1.904  17.360 -1.8827 -0.0031  0.9575
  316TMC3    H1 4755   0.366   2.239  17.175  0.1747 -1.1688  0.6146
  316TMC3    H2 4756   0.765   2.261  17.312  0.1039 -1.6858  0.4410
  316TMC3    C7 4757   0.591   2.387  17.175 -0.6621  0.0334 -0.4980
  316TMC3    C8 4758   0.786   2.022  17.377 -0.2594  0.7226 -0.2437
  316TMC3    O1 4759   0.687   2.448  17.224 -0.3072  0.2437  0.0159
  316TMC3    O2 4760   0.877   2.062  17.304 -0.4719 -0.2984 -0.0864
  317MPD2     C 4761   2.211   0.324  12.645  0.0762 -0.1142 -0.1654
  317MPD2    C1 4762   2.248   0.194  12.641  1.2265  0.3381 -0.3398
  317MPD2    C2 4763   2.327   0.148  12.747  0.4510  0.2223  0.1178
  317MPD2    C3 4764   2.349   0.230  12.856  0.6516 -0.1113  0.5227
  317MPD2    C4 4765   2.304   0.353  12.857  0.0754 -0.7847 -0.8910
  317MPD2    C5 4766   2.237   0.403  12.752  0.6492  0.1905  0.7645
  317MPD2     H 4767   2.364   0.046  12.751 -0.2664 -0.0835 -1.1144
  317MPD2    H1 4768   2.322   0.433  12.928 -0.9135 -0.2855 -1.2013
  317MPD2    H2 4769   2.171   0.376  12.559  4.2390  2.3679 -0.5538
  317MPD2    H3 4770   2.211   0.508  12.743  0.4972  0.1190  0.3638
  317MPD2     N 4771   2.424   0.167  12.960  0.5655  0.3736 -0.1767
  317MPD2    H5 4772   2.457   0.073  12.942  0.4178  0.2805  0.0408
  317MPD2    N1 4773   2.231   0.112  12.525  0.5924  0.2559 -0.3132
  317MPD2    H7 4774   2.277   0.022  12.526 -0.6171 -0.2809  4.0863
  318TMC3    C1 4775   2.535   0.130  13.170 -0.3334 -0.3492  0.2559
  318TMC3    C2 4776   2.500   4.719  13.157 -0.2421  0.5619 -0.3249
  318TMC3    C3 4777   2.582   4.632  13.227 -1.2897 -0.0779 -0.2710
  318TMC3    C4 4778   2.633   0.181  13.249  0.6811  0.0589 -0.2205
  318TMC3    C5 4779   2.705   0.088  13.319 -1.0667  0.3023 -0.2465
  318TMC3    C6 4780   2.689   4.670  13.306  0.4304 -0.0514 -0.5896
  318TMC3     C 4781   2.466   0.228  13.075  0.5541 -0.1333  0.3260
  318TMC3     O 4782   2.465   0.346  13.112  0.3564 -0.1164 -0.0639
  318TMC3     H 4783   2.406   4.685  13.116 -0.1735  1.4800 -1.2503
  318TMC3    H1 4784   2.652   0.287  13.255  0.1086  0.0721  1.3739
  318TMC3    H2 4785   2.741   4.600  13.370 -1.7197  0.8373  2.1803
  318TMC3    C7 4786   2.797   0.143  13.420  0.1275  0.1623  0.2501
  318TMC3    C8 4787   2.540   4.496  13.245  0.5200  0.4453 -0.7742
  318TMC3    O1 4788   2.785   0.262  13.445 -0.6061 -0.2776  0.1573
  318TMC3    O2 4789   2.617   4.426  13.299  0.3812 -0.3183 -0.0999
  319MPD2     C 4790   3.404   1.369  16.415 -0.5963  0.3191 -0.4981
  319MPD2    C1 4791   3.293   1.290  16.451  0.5831 -0.2784 -0.5123
  319MPD2    C2 4792   3.238   1.206  16.358 -0.3103  0.3660  0.3618
  319MPD2    C3 4793   3.298   1.197  16.231  0.6540  0.0218 -0.0723
  319MPD2    C4 4794   3.392   1.280  16.194  0.7394  0.4645 -0.0962
  319MPD2    C5 4795   3.441   1.370  16.281  0.0074 -0.5560 -0.6027
  319MPD2     H 4796   3.158   1.136  16.383  0.0712 -0.4733 -0.7831
  319MPD2    H1 4797   3.421   1.292  16.090 -1.0407  1.0768 -0.5207
  319MPD2    H2 4798   3.452   1.438  16.483 -0.9751  0.5600 -0.4762
  319MPD2    H3 4799   3.511   1.448  16.252 -0.7470  1.3348  2.7020
  319MPD2     N 4800   3.242   1.109  16.135 -0.5349  0.2176 -0.5655
  319MPD2    H5 4801   3.267   1.124  16.037  2.9658 -2.7570 -0.1341
  319MPD2    N1 4802   3.214   1.296  16.569  0.1154 -0.4693  0.0302
  319MPD2    H7 4803   3.139   1.228  16.580  1.5003 -2.1631 -1.0261
  320TMC3    C1 4804   3.089   0.946  16.052 -0.1849  0.0751 -0.1461
  320TMC3    C2 4805   3.025   1.034  15.962 -0.3254 -0.1417  0.1884
  320TMC3    C3 4806   2.920   0.980  15.885  0.6489  0.7545  0.4465
  320TMC3    C4 4807   3.032   0.831  16.094  0.3962 -0.3676 -0.0978
  320TMC3    C5 4808   2.929   0.788  16.020  0.3794  0.0012  0.1921
  320TMC3    C6 4809   2.869   0.855  15.920  0.2464 -0.2525 -0.0240
  320TMC3     C 4810   3.162   0.998  16.160  0.3924 -0.5630  0.5033
  320TMC3     O 4811   3.145   0.935  16.264  1.1271  0.0579 -0.3334
  320TMC3     H 4812   3.069   1.125  15.924 -1.7654  1.0396  1.3742
  320TMC3    H1 4813   3.082   0.754  16.151  0.8202 -0.8118 -1.0694
  320TMC3    H2 4814   2.780   0.814  15.874 -0.9921  2.3411  0.0323
  320TMC3    C7 4815   2.863   0.674  16.079  0.2572 -0.3358  0.0713
  320TMC3    C8 4816   2.827   1.062  15.804  0.6128 -0.7332  0.3107
  320TMC3    O1 4817   2.774   0.614  16.011  0.0434 -0.3242 -0.3813
  320TMC3    O2 4818   2.741   1.001  15.739  0.0111 -0.3508 -0.4865
  321TMC3    C1 4819   3.149   1.354  16.783 -0.8695  0.3175 -0.5426
  321TMC3    C2 4820   3.093   1.226  16.802  0.1839 -0.4123  0.1163
  321TMC3    C3 4821   3.028   1.208  16.917 -0.5460  0.4313 -0.6315
  321TMC3    C4 4822   3.118   1.452  16.875 -0.1958 -0.4322  0.4653
  321TMC3    C5 4823   3.042   1.429  16.988 -0.1527 -0.1810 -0.4557
  321TMC3    C6 4824   3.001   1.301  17.006 -0.1983 -0.5940  0.1283
  321TMC3     C 4825   3.224   1.392  16.666 -0.2343  0.3666  0.3490
  321TMC3     O 4826   3.295   1.488  16.664  0.2202 -0.3923  0.7538
  321TMC3     H 4827   3.131   1.144  16.742  0.9513 -0.1420  0.2332
  321TMC3    H1 4828   3.142   1.557  16.861  1.7980 -1.1612 -1.4336
  321TMC3    H2 4829   2.925   1.272  17.077 -1.5307  0.0304 -1.0373
  321TMC3    C7 4830   3.079   1.497  17.115  0.6804 -0.2943  0.1115
  321TMC3    C8 4831   3.084   1.095  16.996  0.5633  0.1377  0.7138
  321TMC3    O1 4832   3.098   1.618  17.115  0.1628 -0.1652 -0.2564
  321TMC3    O2 4833   3.119   1.135  17.104  0.4773  0.1211 -0.0872
  322MPD2     C 4834   1.800   2.669  13.746 -0.5713  0.7801  0.2183
  322MPD2    C1 4835   1.816   2.576  13.846 -0.0159 -0.4300 -0.8639
  322MPD2    C2 4836   1.839   2.444  13.813  0.6601 -0.6932 -0.2614
  322MPD2    C3 4837   1.872   2.410  13.683  0.2672  0.4479 -0.1682
  322MPD2    C4 4838   1.855   2.504  13.585  0.2093 -0.0315 -0.5564
  322MPD2    C5 4839   1.802   2.628  13.615 -0.5941 -0.5782 -0.4928
  322MPD2     H 4840   1.877   2.385  13.895  0.5558 -2.4317 -1.4520
  322MPD2    H1 4841   1.868   2.483  13.480 -0.2306  0.0165 -0.6216
  322MPD2    H2 4842   1.798   2.775  13.767 -1.8772  0.6683  0.6639
  322MPD2    H3 4843   1.781   2.696  13.533  0.7094  0.1781 -0.1901
  322MPD2     N 4844   1.935   2.284  13.666 -0.5145  0.6949  0.2386
  322MPD2    H5 4845   1.938   2.226  13.749 -2.8643 -0.7243 -0.6593
  322MPD2    N1 4846   1.842   2.625  13.974 -0.1619  0.1942  0.1568
  322MPD2    H7 4847   1.856   2.725  13.987  0.2363  0.0470  0.8249
  323TMC3    C1 4848   1.904   2.626  14.198  0.1108 -0.4773 -0.0620
  323TMC3    C2 4849   1.971   2.741  14.177 -0.0433  0.7064 -0.1925
  323TMC3    C3 4850   2.018   2.807  14.285  0.0397 -0.2181 -0.2922
  323TMC3    C4 4851   1.895   2.565  14.321  0.4585 -0.1156 -0.9398
  323TMC3    C5 4852   1.963   2.624  14.421 -0.1655  0.1117  0.1844
  323TMC3    C6 4853   2.020   2.744  14.403  0.4012 -0.2745  0.2728
  323TMC3     C 4854   1.860   2.549  14.087  0.0216 -0.2851 -0.4747
  323TMC3     O 4855   1.825   2.436  14.113  0.4591 -0.2605  0.2301
  323TMC3     H 4856   1.998   2.772  14.077  0.6124  0.3385 -0.1322
  323TMC3    H1 4857   1.863   2.462  14.335  1.6971 -0.2158  1.2307
  323TMC3    H2 4858   2.073   2.797  14.482  0.1968  1.5168 -0.7883
  323TMC3    C7 4859   2.022   2.530  14.511  0.4675  0.5981 -0.1481
  323TMC3    C8 4860   2.132   2.895  14.268 -0.0258 -0.4262 -0.0689
  323TMC3    O1 4861   2.006   2.411  14.496  0.7835 -0.1177 -0.3155
  323TMC3    O2 4862   2.217   2.874  14.352  0.0059 -0.2649  0.0845
  324MPD2     C 4863   3.763   3.826  14.205 -0.1781 -0.1234 -0.1946
  324MPD2    C1 4864   3.737   3.951  14.253 -0.2527  0.6320 -0.4469
  324MPD2    C2 4865   3.609   4.003  14.254 -0.2016 -0.4534  0.3212
  324MPD2    C3 4866   3.505   3.938  14.186  0.5458  0.3951  0.6851
  324MPD2    C4 4867   3.526   3.812  14.131  0.4242  0.5673  0.4203
  324MPD2    C5 4868   3.654   3.758  14.139 -0.0185  0.3507 -0.2746
  324MPD2     H 4869   3.588   4.106  14.279  1.7670  0.0115  0.0788
  324MPD2    H1 4870   3.445   3.759  14.082  1.1787  0.9357 -1.2331
  324MPD2    H2 4871   3.854   3.772  14.225 -0.7910 -1.2442 -0.4365
  324MPD2    H3 4872   3.669   3.663  14.089 -1.0037 -1.1916  2.3110
  324MPD2     N 4873   3.373   3.990  14.168  0.3790  0.2657  0.3141
  324MPD2    H5 4874   3.321   3.944  14.094  1.8788 -0.8389 -0.0490
  324MPD2    N1 4875   3.843   4.019  14.323  0.3723  1.1190 -0.6624
  324MPD2    H7 4876   3.920   3.953  14.334 -0.0991  0.5706 -0.6146
  325TMC3    C1 4877   3.185   4.132  14.221  0.2080  0.7032  0.1097
  325TMC3    C2 4878   3.099   4.080  14.132  0.0980 -0.3934 -0.4657
  325TMC3    C3 4879   2.965   4.104  14.140 -0.0351  0.2522 -0.2022
  325TMC3    C4 4880   3.135   4.198  14.329 -0.3362  0.3991  0.0345
  325TMC3    C5 4881   3.001   4.214  14.343 -0.6421  0.7391 -0.3786
  325TMC3    C6 4882   2.914   4.176  14.243 -0.2034  0.8871 -0.2509
  325TMC3     C 4883   3.326   4.100  14.234  0.8956 -0.3536 -0.4064
  325TMC3     O 4884   3.381   4.161  14.328  0.1370  0.2722  0.2371
  325TMC3     H 4885   3.137   4.019  14.050  1.9070  0.5526 -0.3344
  325TMC3    H1 4886   3.198   4.238  14.408 -0.4451  0.1810  0.2309
  325TMC3    H2 4887   2.810   4.209  14.239 -0.4152 -0.0160 -2.2534
  325TMC3    C7 4888   2.949   4.289  14.464 -0.5192  0.2694 -0.1121
  325TMC3    C8 4889   2.877   4.033  14.055  0.7127  0.3296 -0.5936
  325TMC3    O1 4890   3.009   4.270  14.572 -0.2029  0.1419 -0.5207
  325TMC3    O2 4891   2.932   3.975  13.964  0.1163  0.1283 -0.5665
  326MPD2     C 4892   0.104   0.489  11.268  0.0475  0.2042  0.5495
  326MPD2    C1 4893   0.142   0.452  11.144 -0.2316 -0.4232  0.1291
  326MPD2    C2 4894   0.270   0.483  11.098  0.1522  0.5884  0.6773
  326MPD2    C3 4895   0.358   0.550  11.178 -0.0963  0.7481 -0.2930
  326MPD2    C4 4896   0.319   0.580  11.302  0.0275  0.1916 -0.4933
  326MPD2    C5 4897   0.194   0.542  11.351 -0.3778 -0.1629  0.1907
  326MPD2     H 4898   0.292   0.461  10.994  0.7457 -0.2992  0.9848
  326MPD2    H1 4899   0.385   0.636  11.367  2.7654  0.0242 -3.0983
  326MPD2    H2 4900   0.003   0.482  11.307  0.5845 -0.3258  1.8670
  326MPD2    H3 4901   0.161   0.581  11.446 -0.0320  1.7760 -0.4945
  326MPD2     N 4902   0.483   0.610  11.126  0.2930  0.2064 -0.7239
  326MPD2    H5 4903   0.525   0.681  11.185  0.1457 -0.1241 -0.2183
  326MPD2    N1 4904   0.056   0.392  11.046 -0.3724 -0.1940 -0.3838
  326MPD2    H7 4905   0.093   0.376  10.954  1.2980 -1.5225  0.5212
  327TMC3    C1 4906   4.616   0.277  10.955  0.0299  0.6753 -0.3567
  327TMC3    C2 4907   4.500   0.309  10.897 -0.5221 -0.8932 -0.1700
  327TMC3    C3 4908   4.490   0.262  10.769  0.1976 -0.6304 -0.7836
  327TMC3    C4 4909   4.713   0.197  10.900  0.1399  0.0112 -0.0907
  327TMC3    C5 4910   4.690   0.137  10.776  0.1846 -0.2074 -0.0490
  327TMC3    C6 4911   4.579   0.172  10.711  0.2803  0.5717  0.1445
  327TMC3     C 4912   4.642   0.365  11.065  0.3861  0.2966  0.1682
  327TMC3     O 4913   4.557   0.389  11.146  0.4927 -0.0404 -0.7922
  327TMC3     H 4914   4.436   0.388  10.934  4.7707  2.7454  1.2485
  327TMC3    H1 4915   0.075   0.161  10.960 -1.8548 -2.1213  1.3823
  327TMC3    H2 4916   4.571   0.131  10.611 -1.1293 -0.8636  0.8432
  327TMC3    C7 4917   0.084   0.080  10.699 -0.5439  0.4610 -0.1189
  327TMC3    C8 4918   4.421   0.346  10.672 -0.2793  0.2420  0.1016
  327TMC3    O1 4919   0.077   0.066  10.579  0.2731  0.1934  0.9224
  327TMC3    O2 4920   4.421   0.467  10.699  0.4909 -0.2718 -0.6939
  328MPD2     C 4921   2.641   4.444  17.207 -0.2609  0.7064  0.4579
  328MPD2    C1 4922   2.531   4.422  17.133  0.6132 -0.0211 -0.1805
  328MPD2    C2 4923   2.452   4.526  17.089 -0.2189  0.2781 -0.3433
  328MPD2    C3 4924   2.486   4.657  17.128  0.1972  0.0319  0.6090
  328MPD2    C4 4925   2.601   4.673  17.203  0.5158 -0.6183 -0.1463
  328MPD2    C5 4926   2.679   4.567  17.245 -0.7425 -0.2619  0.0630
  328MPD2     H 4927   2.358   4.513  17.036 -0.6348 -1.6755  0.8533
  328MPD2    H1 4928   2.614   0.046  17.255 -3.2161 -0.3741  0.3815
  328MPD2    H2 4929   2.711   4.365  17.233  0.0196  0.4895 -0.9166
  328MPD2    H3 4930   2.765   4.582  17.311 -1.6836  0.8452  1.0305
  328MPD2     N 4931   2.406   0.055  17.111  0.0043 -0.0560  1.0076
  328MPD2    H5 4932   2.441   0.144  17.147 -0.6061  0.1968  0.9778
  328MPD2    N1 4933   2.492   4.284  17.120 -0.4800  0.3573 -0.7557
  328MPD2    H7 4934   2.541   4.218  17.179  0.3685  1.6051 -0.0788
  329TMC3    C1 4935   2.393   4.089  17.040 -0.1176  0.0046 -0.1790
  329TMC3    C2 4936   2.433   4.035  17.163  0.0841  0.7005  0.7003
  329TMC3    C3 4937   2.454   3.898  17.153 -0.2727  0.2542  0.8311
  329TMC3    C4 4938   2.387   4.024  16.920 -0.2499 -0.0675 -0.6587
  329TMC3    C5 4939   2.424   3.893  16.917  0.3991 -0.6401  0.9100
  329TMC3    C6 4940   2.453   3.817  17.034  1.0162 -0.1721 -0.3850
  329TMC3     C 4941   2.405   4.236  17.027  0.4676  0.6035 -0.6014
  329TMC3     O 4942   2.349   4.290  16.930 -0.4607  0.6658 -0.4073
  329TMC3     H 4943   2.425   4.089  17.257  1.4085 -0.7329  1.6341
  329TMC3    H1 4944   2.381   4.081  16.827  0.7323  0.3261 -0.4741
  329TMC3    H2 4945   2.479   3.712  17.027  1.7543  0.1176 -1.9453
  329TMC3    C7 4946   2.453   3.835  16.792  0.4777 -0.3004 -0.1948
  329TMC3    C8 4947   2.480   3.825  17.281 -0.0678 -0.1608 -0.6750
  329TMC3    O1 4948   2.382   3.872  16.698  0.0579 -0.5048  0.5964
  329TMC3    O2 4949   2.492   3.704  17.282  0.2407  0.2231  0.4155
  330TMC3    C1 4950   4.700   0.040   9.433 -0.5970 -0.2233 -0.1674
  330TMC3    C2 4951   4.681   4.630   9.392  0.1209 -0.0403 -0.0498
  330TMC3    C3 4952   0.070   4.560   9.351 -0.6252  0.3011  0.1438
  330TMC3    C4 4953   0.101   0.096   9.455  0.2958  0.4056 -0.0508
  330TMC3    C5 4954   0.206   0.019   9.406 -0.0517 -0.9814  0.1311
  330TMC3    C6 4955   0.197   4.615   9.354 -0.4326 -0.4639  0.3522
  330TMC3     C 4956   4.584   0.128   9.431  0.1031 -0.5066 -0.3488
  330TMC3     O 4957   4.576   0.236   9.493  0.3282  0.7234 -0.1909
  330TMC3     H 4958   4.584   4.583   9.393  0.0611  0.0803 -0.5090
  330TMC3    H1 4959   0.116   0.196   9.492 -2.3409  1.0988 -0.8781
  330TMC3    H2 4960   0.285   4.554   9.340 -0.1058  0.1888 -0.4319
  330TMC3    C7 4961   0.328   0.060   9.469 -0.4264  0.0189 -0.1257
  330TMC3    C8 4962   0.067   4.417   9.363 -0.3279 -0.5633 -0.0038
  330TMC3    O1 4963   0.333   0.174   9.511  0.0453 -0.3037 -0.1794
  330TMC3    O2 4964   0.149   4.356   9.299  0.2394 -0.2831  0.1484
  331MPD2     C 4965   2.832   3.424  12.348  0.7141 -0.2746  0.2667
  331MPD2    C1 4966   2.906   3.382  12.244  0.4220 -0.2879  0.4459
  331MPD2    C2 4967   2.930   3.248  12.213 -0.3185  0.1626  0.1462
  331MPD2    C3 4968   2.872   3.155  12.298  0.4550 -0.5126 -0.5286
  331MPD2    C4 4969   2.798   3.194  12.406 -0.3348 -0.5589 -0.4341
  331MPD2    C5 4970   2.777   3.328  12.431 -0.8276 -0.2374 -0.2493
  331MPD2     H 4971   2.996   3.223  12.131 -0.5174 -1.1101  0.3685
  331MPD2    H1 4972   2.759   3.128  12.482 -1.4151 -1.6545 -1.9426
  331MPD2    H2 4973   2.821   3.529  12.374 -0.3036 -0.2145 -0.3697
  331MPD2    H3 4974   2.726   3.353  12.524 -1.6914  2.4146 -1.4357
  331MPD2     N 4975   2.913   3.023  12.273  0.5111  0.0100 -0.1831
  331MPD2    H5 4976   2.969   3.018  12.189 -0.1199 -0.2776 -0.5819
  331MPD2    N1 4977   2.983   3.471  12.170 -0.0804  0.1169 -0.1413
  331MPD2    H7 4978   3.047   3.430  12.102 -1.2385  0.5093 -1.4865
  332TMC3    C1 4979   2.961   2.791  12.321  0.0003  0.2646 -0.7822
  332TMC3    C2 4980   3.005   2.786  12.190  0.1151  0.1706  0.2925
  332TMC3    C3 4981   3.113   2.713  12.171  0.2475  0.1916 -0.2773
  332TMC3    C4 4982   3.005   2.720  12.417 -0.6440  0.0510 -0.8101
  332TMC3    C5 4983   3.119   2.654  12.388  0.0808 -0.8304 -0.1950
  332TMC3    C6 4984   3.178   2.647  12.265  0.8892  0.4805 -0.0524
  332TMC3     C 4985   2.892   2.918  12.358  0.3716  0.3682  0.3175
  332TMC3     O 4986   2.840   2.912  12.468  0.1437 -0.1438  0.2498
  332TMC3     H 4987   2.971   2.846  12.106  0.3243 -0.2664 -0.0978
  332TMC3    H1 4988   2.971   2.737  12.518  0.0309  1.6612 -0.8477
  332TMC3    H2 4989   3.268   2.589  12.249 -0.2051 -1.3078  0.2738
  332TMC3    C7 4990   3.183   2.588  12.495 -0.0650 -1.1210  0.6658
  332TMC3    C8 4991   3.172   2.713  12.040 -0.0680  0.3795  0.0975
  332TMC3    O1 4992   3.103   2.533  12.569  0.9642  0.0250  0.7869
  332TMC3    O2 4993   3.286   2.675  12.026  1.0138 -0.0438 -0.1312
  333MPD2     C 4994   3.800   3.375  11.383 -0.1072  0.3396 -0.6001
  333MPD2    C1 4995   3.734   3.310  11.275 -0.0659 -0.2978 -0.1660
  333MPD2    C2 4996   3.615   3.260  11.300  0.4841 -0.7640  0.3580
  333MPD2    C3 4997   3.541   3.282  11.419 -0.3201 -0.1766 -0.6205
  333MPD2    C4 4998   3.606   3.362  11.512 -0.5507 -0.0352 -0.8141
  333MPD2    C5 4999   3.734   3.406  11.498 -0.1661 -0.0526  0.1252
  333MPD2     H 5000   3.571   3.196  11.225  3.6779 -0.7050 -1.5635
  333MPD2    H1 5001   3.550   3.387  11.602  1.7897 -0.8692  0.8730
  333MPD2    H2 5002   3.899   3.416  11.368  0.3820 -1.6192 -2.7362
  333MPD2    H3 5003   3.777   3.460  11.582 -2.6852  3.6704 -0.9966
  333MPD2     N 5004   3.414   3.232  11.439 -0.0563 -0.1523 -0.3664
  333MPD2    H5 5005   3.370   3.211  11.350  1.1955 -0.9154 -0.8006
  333MPD2    N1 5006   3.804   3.287  11.157  0.0287 -0.7198  0.4551
  333MPD2    H7 5007   3.900   3.319  11.153  0.1203 -0.9575  0.6950
  334TMC3    C1 5008   3.866   3.214  10.942 -0.1994 -1.1603 -0.4456
  334TMC3    C2 5009   3.992   3.190  10.991  0.4409 -0.9076  0.7048
  334TMC3    C3 5010   4.100   3.211  10.905  0.3406  0.4031  0.2287
  334TMC3    C4 5011   3.850   3.255  10.814  0.0171  0.0289 -0.5605
  334TMC3    C5 5012   3.958   3.269  10.731  0.0769  0.1225  0.1732
  334TMC3    C6 5013   4.085   3.257  10.776 -0.6976 -0.1137 -0.3378
  334TMC3     C 5014   3.758   3.224  11.042  0.0938 -0.1819  0.8115
  334TMC3     O 5015   3.645   3.187  11.015  0.1488  0.1078  0.0584
  334TMC3     H 5016   4.013   3.161  11.093  3.1257 -0.5722  0.2493
  334TMC3    H1 5017   3.750   3.277  10.778 -0.6043 -1.2313  0.3630
  334TMC3    H2 5018   4.169   3.269  10.709  1.4621 -2.8201  1.8920
  334TMC3    C7 5019   3.935   3.370  10.617 -0.6698 -0.1649 -0.3191
  334TMC3    C8 5020   4.233   3.182  10.955  0.2821  0.3004 -0.6881
  334TMC3    O1 5021   4.037   3.427  10.580 -0.2451  0.4476 -0.2124
  334TMC3    O2 5022   4.251   3.121  11.058 -0.4786 -0.0469 -0.4256
  335TMC3    C1 5023   3.017   0.084  17.191 -0.0916 -0.1087  0.4738
  335TMC3    C2 5024   2.951   4.703  17.127 -0.8575  0.1453  0.1788
  335TMC3    C3 5025   3.027   4.596  17.088 -0.4271 -0.1765  0.1006
  335TMC3    C4 5026   3.148   0.071  17.226  0.1532  0.1182 -0.3683
  335TMC3    C5 5027   3.216   4.686  17.175  0.3397 -0.1849  0.6017
  335TMC3    C6 5028   3.161   4.586  17.107  0.5443 -0.4705  0.2061
  335TMC3     C 5029   2.947   0.203  17.243  0.8007 -0.4226  0.0929
  335TMC3     O 5030   2.831   0.202  17.275  0.4024 -0.4001 -0.8518
  335TMC3     H 5031   2.848   4.706  17.093 -0.8224  1.4976  0.1687
  335TMC3    H1 5032   3.210   0.150  17.266 -0.0015 -0.5565  1.2050
  335TMC3    H2 5033   3.211   4.493  17.084  1.9982  0.4973 -0.5664
  335TMC3    C7 5034   3.361   4.680  17.205 -0.1178  1.1994 -0.3965
  335TMC3    C8 5035   2.956   4.508  17.003  0.6250 -0.7242 -0.9294
  335TMC3    O1 5036   3.429   4.599  17.142  0.3019  0.5424  0.1257
  335TMC3    O2 5037   2.887   4.558  16.917 -0.6008  0.3253  0.0650
  336MPD2     C 5038   3.062   2.266  16.422  0.5030 -0.0027 -0.2251
  336MPD2    C1 5039   3.050   2.230  16.287 -0.4393 -0.2192 -0.4191
  336MPD2    C2 5040   3.084   2.099  16.252  0.1859 -0.0618  0.1385
  336MPD2    C3 5041   3.124   2.002  16.342  0.3144 -0.2427 -0.1564
  336MPD2    C4 5042   3.116   2.032  16.473 -0.7298  0.1341  0.1755
  336MPD2    C5 5043   3.086   2.165  16.509 -0.1039 -0.1183  0.2442
  336MPD2     H 5044   3.090   2.069  16.148 -0.9652  2.1128 -0.5366
  336MPD2    H1 5045   3.124   1.953  16.546  1.3055  0.4704  0.3152
  336MPD2    H2 5046   3.051   2.365  16.464  1.0402 -0.2475  0.5026
  336MPD2    H3 5047   3.094   2.192  16.614 -0.9059 -1.2039  0.5855
  336MPD2     N 5048   3.162   1.870  16.305  0.6779 -0.6849  0.5016
  336MPD2    H5 5049   3.164   1.800  16.378  2.3164 -0.7153  0.4238
  336MPD2    N1 5050   3.010   2.330  16.186 -0.6424 -0.3313  0.2808
  336MPD2    H7 5051   3.005   2.429  16.209  1.3018 -0.2007  0.1684
  337TMC3    C1 5052   2.926   2.407  15.976 -0.1177  0.4578 -0.4760
  337TMC3    C2 5053   2.802   2.401  15.918  0.0386  0.9212 -0.3531
  337TMC3    C3 5054   2.770   2.511  15.841  0.2067  0.2919 -0.0924
  337TMC3    C4 5055   3.004   2.517  15.966  0.1914 -0.9274 -0.1025
  337TMC3    C5 5056   2.963   2.627  15.899 -0.3603  0.5461 -0.1607
  337TMC3    C6 5057   2.843   2.620  15.827  0.1875  0.1186  0.0298
  337TMC3     C 5058   2.985   2.300  16.052 -0.3899 -0.2115  0.3980
  337TMC3     O 5059   2.962   2.191  16.007  0.2560  0.1799 -0.4234
  337TMC3     H 5060   2.727   2.325  15.935 -1.0059  1.6601 -1.6562
  337TMC3    H1 5061   3.106   2.514  16.004 -0.5481 -0.7373  1.9203
  337TMC3    H2 5062   2.817   2.707  15.767 -0.4554 -0.9550 -1.2526
  337TMC3    C7 5063   3.065   2.726  15.880 -0.1076  0.0259 -0.1073
  337TMC3    C8 5064   2.630   2.545  15.851 -0.2307  0.0269  0.0106
  337TMC3    O1 5065   3.182   2.688  15.887  0.5773  0.5441  0.0570
  337TMC3    O2 5066   2.573   2.501  15.953 -0.1411 -0.3347  0.9034
  338MPD2     C 5067   3.679   1.507   1.097  0.1526  0.2300  0.6595
  338MPD2    C1 5068   3.701   1.590   0.989  0.1018  0.1607  1.3516
  338MPD2    C2 5069   3.717   1.726   1.008 -0.7399  0.1093  0.1248
  338MPD2    C3 5070   3.724   1.781   1.130 -0.2569 -0.3453 -0.4971
  338MPD2    C4 5071   3.723   1.695   1.238 -0.1038  1.0446 -0.5635
  338MPD2    C5 5072   3.698   1.561   1.217 -0.2066  0.1136  0.6694
  338MPD2     H 5073   3.706   1.794   0.924 -0.8131 -2.2050 -1.7446
  338MPD2    H1 5074   3.741   1.732   1.338 -0.5300  2.6681 -1.0939
  338MPD2    H2 5075   3.654   1.401   1.095 -1.0152  0.5332 -1.1668
  338MPD2    H3 5076   3.676   1.498   1.303  1.3247  0.8016  1.5569
  338MPD2     N 5077   3.748   1.927   1.143 -0.5716 -0.0790 -0.5374
  338MPD2    H5 5078   3.731   1.991   1.065 -1.0330 -1.4756 -1.5825
  338MPD2    N1 5079   3.693   1.536   0.855  0.2516  0.4379  0.1166
  338MPD2    H7 5080   3.692   1.615   0.791  0.3614  0.6150  0.3318
  339TMC3    C1 5081   3.771   2.134   1.248 -0.0425  0.0894  0.8068
  339TMC3    C2 5082   3.733   2.210   1.353  0.0697 -0.2622  0.7233
  339TMC3    C3 5083   3.755   2.346   1.345 -0.3886  0.8756  0.1552
  339TMC3    C4 5084   3.822   2.188   1.131 -0.0044 -0.4408  0.0566
  339TMC3    C5 5085   3.827   2.319   1.127 -0.1977 -0.1998 -0.2919
  339TMC3    C6 5086   3.811   2.407   1.231  0.0309  0.0855 -0.2410
  339TMC3     C 5087   3.759   1.993   1.261 -0.0061 -0.5171 -0.7227
  339TMC3     O 5088   3.772   1.949   1.375 -0.0785 -0.0396 -0.0700
  339TMC3     H 5089   3.692   2.167   1.443 -0.8150  1.3383  1.0785
  339TMC3    H1 5090   3.847   2.133   1.041  2.2608  1.0407 -0.2216
  339TMC3    H2 5091   3.819   2.515   1.225  3.6506 -0.2010 -0.8876
  339TMC3    C7 5092   3.841   2.399   1.000 -0.6028 -0.2783 -0.0395
  339TMC3    C8 5093   3.674   2.439   1.429  0.1763 -0.6722 -0.6168
  339TMC3    O1 5094   3.832   2.522   0.998  0.2197  0.5256  0.1530
  339TMC3    O2 5095   3.712   2.554   1.437 -0.2669 -0.0635 -0.2307
  340MPD2     C 5096   2.373   0.277   9.184 -0.1717  0.3033  0.1005
  340MPD2    C1 5097   2.484   0.215   9.233  0.3547  1.0634  0.4237
  340MPD2    C2 5098   2.585   0.301   9.281  0.1388 -0.6773 -0.3080
  340MPD2    C3 5099   2.574   0.437   9.276  0.1168 -0.1997 -0.3870
  340MPD2    C4 5100   2.461   0.498   9.222  0.2387  0.3877 -0.1274
  340MPD2    C5 5101   2.371   0.410   9.168  0.4679  0.3768  0.1526
  340MPD2     H 5102   2.679   0.266   9.323  0.9631 -0.2229 -1.7628
  340MPD2    H1 5103   2.444   0.605   9.214 -0.7869  0.1090 -1.5741
  340MPD2    H2 5104   2.295   0.209   9.151  1.0307 -0.1226 -1.8752
  340MPD2    H3 5105   2.283   0.449   9.118 -1.0214 -1.7220  1.1011
  340MPD2     N 5106   2.679   0.520   9.323 -0.1203 -0.7281  0.1036
  340MPD2    H5 5107   2.687   0.608   9.273  2.1139 -0.1328  1.4989
  340MPD2    N1 5108   2.492   0.073   9.235 -0.2806  0.2310  0.2644
  340MPD2    H7 5109   2.425   0.009   9.195 -1.0040  1.4531 -0.4638
  341TMC3    C1 5110   2.571   4.583   9.291  0.1772  0.0139 -0.1391
  341TMC3    C2 5111   2.449   4.530   9.262  0.1677  0.2975  0.6534
  341TMC3    C3 5112   2.448   4.397   9.248 -0.5470 -0.4159 -0.4794
  341TMC3    C4 5113   2.688   4.514   9.298 -0.6305  0.6719 -0.0788
  341TMC3    C5 5114   2.684   4.383   9.265 -0.2742 -0.2900  0.1071
  341TMC3    C6 5115   2.558   4.325   9.236 -0.8293  0.2932 -0.2731
  341TMC3     C 5116   2.592   0.000   9.297  0.1015  0.3399 -0.4095
  341TMC3     O 5117   2.694   0.036   9.351  0.2129  0.1272  0.4480
  341TMC3     H 5118   2.363   4.594   9.248  0.2865  0.9437  2.9590
  341TMC3    H1 5119   2.780   4.564   9.325  0.3493 -1.8943  1.3275
  341TMC3    H2 5120   2.550   4.223   9.199 -0.9321  0.1874  0.0390
  341TMC3    C7 5121   2.800   4.296   9.263  0.4548 -0.1318 -0.8246
  341TMC3    C8 5122   2.316   4.336   9.229 -0.2207 -0.8783  0.3560
  341TMC3    O1 5123   2.906   4.353   9.241  0.0188  0.2384 -0.1569
  341TMC3    O2 5124   2.226   4.396   9.178 -0.2673 -0.4683 -0.0001
  342MPD2     C 5125   1.361   2.429  17.661  0.7317  0.5052  0.9806
  342MPD2    C1 5126   1.433   2.471  17.547  0.6109  0.7432  0.3071
  342MPD2    C2 5127   1.458   2.606  17.524 -0.0684 -0.7081  0.9337
  342MPD2    C3 5128   1.392   2.699  17.603 -0.2318  0.0047 -0.5680
  342MPD2    C4 5129   1.306   2.657   0.013 -0.3915 -0.4734 -0.0463
  342MPD2    C5 5130   1.297   2.526   0.052  0.8365 -0.3382 -0.6042
  342MPD2     H 5131   1.525   2.627  17.442 -3.0277 -0.2226 -1.3967
  342MPD2    H1 5132   1.244   2.729   0.064  1.6558  1.0440  0.2925
  342MPD2    H2 5133   1.346   2.330   0.017  0.2585 -0.0831 -0.6082
  342MPD2    H3 5134   1.223   2.507   0.128  1.3137  2.7076  0.6537
  342MPD2     N 5135   1.411   2.838  17.592  0.5330  0.2978 -0.0627
  342MPD2    H5 5136   1.348   2.889  17.653 -0.4438  0.6066 -1.3215
  342MPD2    N1 5137   1.494   2.384  17.453  0.0459 -0.1176 -0.3072
  342MPD2    H7 5138   1.534   2.431  17.373 -1.6502 -1.1375 -1.7664
  343TMC3    C1 5139   1.539   2.189  17.331 -0.4176 -0.6686 -0.0683
  343TMC3    C2 5140   1.646   2.245  17.260  0.1284 -0.3941  0.1831
  343TMC3    C3 5141   1.685   2.178  17.146 -0.7046  0.0014  0.0155
  343TMC3    C4 5142   1.494   2.065  17.297  0.0638 -0.7181 -0.5506
  343TMC3    C5 5143   1.540   2.003  17.185 -0.4780 -0.0639 -0.2151
  343TMC3    C6 5144   1.628   2.061  17.101  0.0929 -0.3279 -0.1389
  343TMC3     C 5145   1.468   2.250  17.446 -0.4997 -0.0555 -0.5109
  343TMC3     O 5146   1.401   2.177  17.521 -0.4666  0.5378  0.1129
  343TMC3     H 5147   1.689   2.336  17.300 -0.0866  0.3320 -1.2464
  343TMC3    H1 5148   1.406   2.022  17.344  0.4230 -1.2340 -0.3589
  343TMC3    H2 5149   1.670   2.008  17.017  3.0083 -0.8005  1.5860
  343TMC3    C7 5150   1.443   1.904  17.128 -0.4012  0.4403 -0.5736
  343TMC3    C8 5151   1.826   2.198  17.126 -0.2636  0.0675  0.5184
  343TMC3    O1 5152   1.368   1.839  17.203  0.3047 -0.2291  0.5549
  343TMC3    O2 5153   1.891   2.267  17.206  0.2129 -0.1720  0.5369
  344MPD2     C 5154   2.352   2.514  10.567 -0.7645 -0.0109 -0.0104
  344MPD2    C1 5155   2.237   2.579  10.543  0.9260 -0.2420 -0.3676
  344MPD2    C2 5156   2.241   2.696  10.469  0.2713  0.9160  0.0301
  344MPD2    C3 5157   2.356   2.744  10.419  0.0510  0.3646  0.0694
  344MPD2    C4 5158   2.473   2.672  10.446  0.2061 -0.5217 -0.4305
  344MPD2    C5 5159   2.475   2.558  10.520 -0.2020  0.0231 -0.0649
  344MPD2     H 5160   2.143   2.740  10.453 -0.3548 -0.0533  1.1911
  344MPD2    H1 5161   2.570   2.699  10.407  0.4638 -0.1732  0.4515
  344MPD2    H2 5162   2.353   2.417  10.615  1.6651 -0.0726 -0.1949
  344MPD2    H3 5163   2.570   2.508  10.537  0.2967  0.7976 -0.5809
  344MPD2     N 5164   2.367   2.862  10.345 -0.2933  0.6458 -0.1908
  344MPD2    H5 5165   2.453   2.891  10.301  1.2408 -3.6300 -0.0344
  344MPD2    N1 5166   2.112   2.526  10.589 -0.1988 -0.9332  0.0553
  344MPD2    H7 5167   2.033   2.587  10.570 -0.3414 -1.0849  0.1572
  345TMC3    C1 5168   2.292   3.060  10.248  0.1484 -0.3790  0.7465
  345TMC3    C2 5169   2.424   3.105  10.244  0.0209  0.3066  0.2099
  345TMC3    C3 5170   2.449   3.224  10.176 -0.3720 -0.3343 -0.3962
  345TMC3    C4 5171   2.191   3.134  10.191 -0.3517  0.1051 -0.2947
  345TMC3    C5 5172   2.227   3.249  10.128 -0.0524 -0.2513 -0.4784
  345TMC3    C6 5173   2.352   3.301  10.119 -0.1750 -0.0253  0.3081
  345TMC3     C 5174   2.256   2.946  10.332 -0.1256 -0.2232 -0.3798
  345TMC3     O 5175   2.140   2.921  10.346  0.7826  0.2317 -1.0056
  345TMC3     H 5176   2.503   3.060  10.303 -1.2790 -2.1014  0.1177
  345TMC3    H1 5177   2.096   3.086  10.170 -0.1884  0.4011 -1.7509
  345TMC3    H2 5178   2.365   3.397  10.069  2.1656 -0.1302  0.7196
  345TMC3    C7 5179   2.120   3.345  10.089  0.1640  0.8686  0.2805
  345TMC3    C8 5180   2.586   3.269  10.184 -0.3193 -0.0727  0.1408
  345TMC3    O1 5181   2.148   3.440  10.012  0.4196  0.2339 -0.0344
  345TMC3    O2 5182   2.669   3.185  10.215  0.7033 -0.2515  0.6168
  346MPD2     C 5183   2.113   4.143  13.887 -0.1397 -0.2554  0.4520
  346MPD2    C1 5184   2.225   4.218  13.920 -0.0935 -0.2349 -0.1480
  346MPD2    C2 5185   2.217   4.292  14.040  0.4441 -1.0347  0.0131
  346MPD2    C3 5186   2.112   4.282  14.128 -0.3370 -0.7360 -0.6124
  346MPD2    C4 5187   2.003   4.209  14.087 -0.6969 -0.0694 -0.1677
  346MPD2    C5 5188   2.006   4.140  13.969 -0.4654  0.7940 -0.3908
  346MPD2     H 5189   2.296   4.363  14.062 -0.0427  0.3844 -2.7918
  346MPD2    H1 5190   1.914   4.192  14.147  0.1514 -1.1058  0.7955
  346MPD2    H2 5191   2.109   4.086  13.794 -0.1974  0.5076 -0.0141
  346MPD2    H3 5192   1.924   4.071  13.954  0.7876 -0.1319 -3.0003
  346MPD2     N 5193   2.115   4.358  14.243  0.0956 -0.0821  0.3288
  346MPD2    H5 5194   2.198   4.411  14.268  1.1470 -1.2290 -0.6981
  346MPD2    N1 5195   2.338   4.234  13.835  0.4515  0.3560  0.1910
  346MPD2    H7 5196   2.412   4.295  13.868  0.2297  0.5704  0.2961
  347TMC3    C1 5197   2.040   4.490  14.417  0.1550 -0.4717  0.1692
  347TMC3    C2 5198   2.148   4.567  14.387 -0.2622  0.6543  0.4026
  347TMC3    C3 5199   2.225   4.615  14.494  0.2498 -0.3821  0.6688
  347TMC3    C4 5200   2.001   4.457  14.542 -0.0129 -0.9114  0.2614
  347TMC3    C5 5201   2.074   4.512  14.641  0.2960 -0.8868 -0.0427
  347TMC3    C6 5202   2.188   4.587  14.625 -0.2381 -0.0257 -0.4748
  347TMC3     C 5203   2.003   4.385  14.318  0.6803 -0.3088  0.5898
  347TMC3     O 5204   1.889   4.347  14.315  0.1690 -0.1402 -0.1371
  347TMC3     H 5205   2.172   4.597  14.286  0.3357 -2.3530 -0.3276
  347TMC3    H1 5206   1.919   4.390  14.566 -2.3763  2.3397  1.3362
  347TMC3    H2 5207   2.269   4.568  14.695  0.8783 -2.3765 -2.4009
  347TMC3    C7 5208   2.012   4.517  14.774 -0.0147 -0.5602  0.4973
  347TMC3    C8 5209   2.359   4.576  14.465  0.1099  0.0235  0.2483
  347TMC3    O1 5210   1.910   4.452  14.787 -0.5553 -0.2594  0.1176
  347TMC3    O2 5211   2.367   4.505  14.369  0.0011  0.0057 -0.4724
  348MPD2     C 5212   0.843   3.704  11.731  0.7650  0.1242 -0.4332
  348MPD2    C1 5213   0.974   3.751  11.733 -0.4853 -0.7593  0.0649
  348MPD2    C2 5214   1.006   3.869  11.669  0.0597  0.6058  0.3913
  348MPD2    C3 5215   0.906   3.933  11.589 -0.5022  0.3103 -0.4229
  348MPD2    C4 5216   0.778   3.889  11.583  0.4175 -0.1698  0.2139
  348MPD2    C5 5217   0.748   3.775  11.661 -0.4944 -0.4392 -0.4888
  348MPD2     H 5218   1.106   3.910  11.677  0.2170 -0.1885  2.6091
  348MPD2    H1 5219   0.698   3.932  11.524  1.6540  1.4975 -0.2298
  348MPD2    H2 5220   0.804   3.635  11.805  0.7955  1.2715  0.6618
  348MPD2    H3 5221   0.651   3.730  11.675 -0.5519 -0.2928 -0.4153
  348MPD2     N 5222   0.940   4.025  11.484 -0.0300 -0.1564 -0.2347
  348MPD2    H5 5223   0.877   4.047  11.407 -2.1007 -1.5740  1.0512
  348MPD2    N1 5224   1.078   3.701  11.810 -0.1086  0.6154 -0.4397
  348MPD2    H7 5225   1.169   3.746  11.799 -0.6957  1.4430 -1.9491
  349TMC3    C1 5226   1.194   3.538  11.943  0.1264  0.3428  0.0205
  349TMC3    C2 5227   1.194   3.421  12.007  0.1125  0.3278 -0.2917
  349TMC3    C3 5228   1.279   3.318  11.970  0.0738  0.3250 -0.3034
  349TMC3    C4 5229   1.295   3.560  11.846 -0.0684 -0.7157 -0.3349
  349TMC3    C5 5230   1.372   3.451  11.806  0.6520  0.6696 -0.3431
  349TMC3    C6 5231   1.366   3.328  11.868 -0.0950 -0.3071 -0.4248
  349TMC3     C 5232   1.067   3.597  11.901 -0.5307 -0.3634 -0.7093
  349TMC3     O 5233   0.969   3.534  11.932 -0.3339 -0.5814  0.0805
  349TMC3     H 5234   1.121   3.394  12.082  1.0452  0.2422  0.5895
  349TMC3    H1 5235   1.303   3.655  11.795  2.4673 -0.0999  1.2163
  349TMC3    H2 5236   1.434   3.248  11.841  0.7578 -0.4101  1.9838
  349TMC3    C7 5237   1.359   3.432  11.663  0.0618  0.1957  0.1956
  349TMC3    C8 5238   1.275   3.189  12.048  0.3693  0.2331 -0.4749
  349TMC3    O1 5239   1.301   3.330  11.622 -0.0960  0.3534  0.0726
  349TMC3    O2 5240   1.258   3.194  12.168  0.0946 -0.4403  0.2300
  350MPD2     C 5241   4.457   2.230  10.130 -0.1661 -0.0858  0.3618
  350MPD2    C1 5242   4.492   2.100  10.164 -0.0606  0.3263 -0.0694
  350MPD2    C2 5243   4.617   2.086  10.220  0.5538 -1.2064  0.4402
  350MPD2    C3 5244   4.699   2.191  10.249 -0.2079 -0.2799  0.0708
  350MPD2    C4 5245   4.667   2.320  10.211 -0.4273  0.4469  0.6721
  350MPD2    C5 5246   4.543   2.337  10.146  0.4829 -0.3585 -0.2601
  350MPD2     H 5247   4.633   1.982  10.246 -0.8562 -1.2320  1.1951
  350MPD2    H1 5248   0.008   2.407  10.229 -0.0706  0.6663 -1.5457
  350MPD2    H2 5249   4.356   2.260  10.104 -0.0889  1.0646  1.4018
  350MPD2    H3 5250   4.521   2.436  10.109  0.9053 -0.4208 -0.6719
  350MPD2     N 5251   0.086   2.169  10.338 -0.1831 -0.0299 -0.1604
  350MPD2    H5 5252   0.102   2.072  10.365  0.9218  0.0100 -0.6834
  350MPD2    N1 5253   4.411   1.989  10.155 -0.2054  0.0798 -0.5803
  350MPD2    H7 5254   4.458   1.900  10.157  1.0118  0.7254 -0.6679
  351TMC3    C1 5255   4.246   1.842  10.113 -0.5615  0.0590 -0.1541
  351TMC3    C2 5256   4.339   1.752  10.066 -0.0497  0.2255 -0.4447
  351TMC3    C3 5257   4.310   1.625  10.064  0.4846 -0.0348 -0.4075
  351TMC3    C4 5258   4.118   1.803  10.148  1.0260 -0.0794 -0.2710
  351TMC3    C5 5259   4.096   1.666  10.146 -0.1837  0.2476  0.5620
  351TMC3    C6 5260   4.190   1.580  10.102 -0.1605 -0.5214 -0.2312
  351TMC3     C 5261   4.278   1.984  10.134 -0.7726 -0.1779  0.2141
  351TMC3     O 5262   4.190   2.070  10.149  0.1617  0.0966 -0.9597
  351TMC3     H 5263   4.436   1.787  10.032  0.8550  0.8124  2.7140
  351TMC3    H1 5264   4.047   1.882  10.167  3.5442  2.2748 -0.7186
  351TMC3    H2 5265   4.170   1.473  10.099  0.5031 -0.6518 -0.0538
  351TMC3    C7 5266   3.965   1.630  10.184 -0.1759  0.3113 -0.6748
  351TMC3    C8 5267   4.424   1.540  10.036  0.2517 -0.3363 -0.0468
  351TMC3    O1 5268   3.883   1.716  10.165  0.3791  0.0552  0.1649
  351TMC3    O2 5269   4.499   1.586   9.957  0.5688 -0.2531 -0.1670
  352MPD2     C 5270   2.476   4.298   1.441 -0.2898 -0.3470 -0.6566
  352MPD2    C1 5271   2.593   4.300   1.371 -0.5335  0.5548 -0.3098
  352MPD2    C2 5272   2.680   4.196   1.376  0.2549 -0.2627  0.5873
  352MPD2    C3 5273   2.660   4.093   1.451 -0.4196  0.0490  0.3461
  352MPD2    C4 5274   2.543   4.082   1.521 -0.3743  0.5447  0.5086
  352MPD2    C5 5275   2.444   4.182   1.504 -0.0324 -0.0409  0.5173
  352MPD2     H 5276   2.763   4.190   1.306 -0.7464 -2.4050 -0.4139
  352MPD2    H1 5277   2.511   3.991   1.571  0.0842  0.8346  1.3277
  352MPD2    H2 5278   2.400   4.375   1.431 -0.4747 -0.4828 -0.3077
  352MPD2    H3 5279   2.346   4.172   1.547 -0.7149  2.1247 -0.5144
  352MPD2     N 5280   2.749   3.975   1.466  1.1162 -0.3478  0.2349
  352MPD2    H5 5281   2.708   3.888   1.499 -2.3580  1.6161  1.0833
  352MPD2    N1 5282   2.609   4.406   1.278 -0.1085 -0.5874  0.4136
  352MPD2    H7 5283   2.532   4.472   1.282  0.2499 -0.2375  1.6722
  353TMC3    C1 5284   2.948   3.849   1.443  0.4569 -0.1994 -0.4842
  353TMC3    C2 5285   3.075   3.845   1.489  0.2480 -0.5798  0.3664
  353TMC3    C3 5286   3.128   3.725   1.529  0.2184  0.3549 -0.4747
  353TMC3    C4 5287   2.873   3.735   1.448 -0.4056 -0.2883 -0.4625
  353TMC3    C5 5288   2.928   3.620   1.505 -0.4112 -0.3685 -0.0139
  353TMC3    C6 5289   3.058   3.607   1.549  1.1362  0.3492  0.4936
  353TMC3     C 5290   2.883   3.975   1.434 -0.5941  0.1738  0.2049
  353TMC3     O 5291   2.957   4.066   1.407 -0.1282 -0.2345  0.2546
  353TMC3     H 5292   3.134   3.936   1.482 -0.9774  0.0831 -1.2770
  353TMC3    H1 5293   2.774   3.731   1.404  0.0818 -0.6996 -1.5074
  353TMC3    H2 5294   3.100   3.519   1.598  1.3829  0.1378 -0.1042
  353TMC3    C7 5295   2.832   3.514   1.521  0.1981  0.4765  0.3238
  353TMC3    C8 5296   3.277   3.708   1.514  0.3156  0.0082  0.1685
  353TMC3    O1 5297   2.762   3.489   1.426 -0.5989  1.0063  0.2986
  353TMC3    O2 5298   3.346   3.806   1.537 -0.2211 -0.1995  0.2287
  354TMC3    C1 5299   0.075   0.575  13.624 -0.1084 -0.1029 -0.2047
  354TMC3    C2 5300   0.121   0.699  13.581  0.0024 -0.6894  0.2375
  354TMC3    C3 5301   0.128   0.719  13.443 -0.4589  0.2163 -0.0565
  354TMC3    C4 5302   0.037   0.472  13.541 -0.2020 -0.6138  0.7439
  354TMC3    C5 5303   0.073   0.490  13.407  0.6082 -0.1311 -0.3022
  354TMC3    C6 5304   0.107   0.616  13.355 -0.7032  0.5483 -0.2799
  354TMC3     C 5305   0.083   0.524  13.763  0.5378 -0.3218  0.4362
  354TMC3     O 5306   0.024   0.421  13.797 -0.0096 -0.2140 -0.2769
  354TMC3     H 5307   0.126   0.786  13.645  0.3315 -1.3909  1.1511
  354TMC3    H1 5308   0.028   0.369  13.574  0.9078 -0.3801  1.7697
  354TMC3    H2 5309   0.129   0.628  13.249 -0.5302  3.9368  0.1493
  354TMC3    C7 5310   0.069   0.376  13.325 -0.2273  0.0544  0.6414
  354TMC3    C8 5311   0.160   0.846  13.387  0.8460 -0.9793  0.2187
  354TMC3    O1 5312   0.000   0.277  13.357  0.1632  0.3403 -0.8302
  354TMC3    O2 5313   0.229   0.919  13.458 -0.1305  0.0063 -0.8492
  355MPD2     C 5314   4.687   1.172  11.550  0.6502 -0.4731 -0.4865
  355MPD2    C1 5315   0.014   1.245  11.443  0.1811 -0.6491  0.7348
  355MPD2    C2 5316   0.148   1.287  11.444  0.2509  0.3493  0.6292
  355MPD2    C3 5317   0.224   1.273  11.554  0.5042 -0.2437  0.1827
  355MPD2    C4 5318   0.159   1.222  11.660 -0.0673 -0.1977 -0.3700
  355MPD2    C5 5319   0.035   1.169  11.665  0.1546  0.3189  0.2451
  355MPD2     H 5320   0.195   1.334  11.359  1.3095  0.7345  1.4237
  355MPD2    H1 5321   0.214   1.207  11.752 -1.1554 -0.8554  0.1813
  355MPD2    H2 5322   4.599   1.110  11.539 -1.4732  2.5890 -1.0357
  355MPD2    H3 5323   0.013   1.105  11.749  0.1664  0.1481  0.1167
  355MPD2     N 5324   0.352   1.326  11.573  0.8592 -0.3843 -0.0894
  355MPD2    H5 5325   0.386   1.337  11.668 -1.7176 -1.9815  1.0154
  355MPD2    N1 5326   4.651   1.255  11.328 -0.0187  0.0268  0.0290
  355MPD2    H7 5327   4.577   1.185  11.329  1.7612 -1.8689  0.3713
  356TMC3    C1 5328   0.520   1.485  11.520 -0.1107  0.1798 -0.1252
  356TMC3    C2 5329   0.601   1.547  11.433  0.1349 -0.3411  0.2189
  356TMC3    C3 5330   0.690   1.636  11.477 -0.2438 -0.2322  0.2431
  356TMC3    C4 5331   0.541   1.498  11.654 -0.1062  0.6171  0.3158
  356TMC3    C5 5332   0.635   1.587  11.701 -0.8705  0.5608  0.2378
  356TMC3    C6 5333   0.702   1.667  11.608 -0.6304 -0.2533 -0.4750
  356TMC3     C 5334   0.426   1.386  11.474 -0.2616  0.0645 -0.5455
  356TMC3     O 5335   0.427   1.365  11.356  0.1666 -0.6442  0.2556
  356TMC3     H 5336   0.587   1.527  11.327 -2.8356  0.0175  0.5367
  356TMC3    H1 5337   0.482   1.442  11.725 -0.6078  1.6511  0.7133
  356TMC3    H2 5338   0.749   1.761  11.635 -1.5353 -0.4689  1.8771
  356TMC3    C7 5339   0.679   1.594  11.841  0.3393  0.5531  1.3290
  356TMC3    C8 5340   0.764   1.714  11.379 -0.0247 -0.5113 -0.3371
  356TMC3    O1 5341   0.613   1.517  11.909  0.0891  0.2218 -0.3942
  356TMC3    O2 5342   0.731   1.688  11.264  0.0846 -0.0064  0.2251
  357MPD2     C 5343   0.547   1.560   0.857 -0.5277 -0.5284  0.4798
  357MPD2    C1 5344   0.584   1.483   0.970  0.2165  0.0613 -0.1315
  357MPD2    C2 5345   0.487   1.461   1.070  0.2067 -0.3657 -0.1141
  357MPD2    C3 5346   0.358   1.516   1.059 -0.0574 -0.5112  0.1192
  357MPD2    C4 5347   0.331   1.607   0.957 -0.3629 -0.8499 -0.2080
  357MPD2    C5 5348   0.423   1.623   0.859 -0.3565  0.6099 -0.3401
  357MPD2     H 5349   0.511   1.394   1.152  2.4737  2.7812  1.7868
  357MPD2    H1 5350   0.239   1.664   0.947 -0.2189 -1.1077 -3.0862
  357MPD2    H2 5351   0.628   1.584   0.789 -2.6667  0.5363 -1.6933
  357MPD2    H3 5352   0.416   1.686   0.772 -2.2132  0.0836 -0.5752
  357MPD2     N 5353   0.253   1.488   1.153  0.3550  0.2531  0.3029
  357MPD2    H5 5354   0.175   1.552   1.159  0.9495  1.1753 -1.6435
  357MPD2    N1 5355   0.712   1.430   0.976 -0.9157  0.0033  0.5130
  357MPD2    H7 5356   0.771   1.435   0.893 -2.0347 -1.1675 -0.3490
  358TMC3    C1 5357   0.899   1.315   1.069  0.5340  0.4540 -0.1575
  358TMC3    C2 5358   0.900   1.217   0.971 -0.0452 -0.5968 -0.1172
  358TMC3    C3 5359   0.993   1.114   0.977 -0.0641 -0.7231 -0.3551
  358TMC3    C4 5360   0.969   1.297   1.187  0.2532 -0.3926  0.7179
  358TMC3    C5 5361   1.035   1.180   1.195  0.1037  0.4853  0.8945
  358TMC3    C6 5362   1.048   1.083   1.099 -0.0985 -0.0150  0.3483
  358TMC3     C 5363   0.768   1.384   1.094 -0.5265 -0.3990 -0.0079
  358TMC3     O 5364   0.722   1.395   1.210 -0.1100  0.0235  0.3654
  358TMC3     H 5365   0.845   1.222   0.878 -0.4515 -0.4474  0.1319
  358TMC3    H1 5366   0.977   1.373   1.264 -1.2976 -0.5364  1.0092
  358TMC3    H2 5367   1.124   1.008   1.114  0.5885  0.3958 -1.0866
  358TMC3    C7 5368   1.107   1.153   1.318  0.1163 -0.5634  0.6366
  358TMC3    C8 5369   0.981   1.007   0.883 -0.3222  0.3521  0.7204
  358TMC3    O1 5370   1.174   1.053   1.319  0.3662 -0.1852  0.2747
  358TMC3    O2 5371   0.985   1.035   0.765 -0.3050  0.7586 -0.0961
  359MPD2     C 5372   0.902   0.161  12.335  0.3691 -0.2672  0.3556
  359MPD2    C1 5373   0.934   0.058  12.250  0.7616  0.1644  0.5343
  359MPD2    C2 5374   0.851   4.673  12.246 -0.3505  1.1826  0.4848
  359MPD2    C3 5375   0.734   4.657  12.317  0.2873  0.5899 -0.0044
  359MPD2    C4 5376   0.695   0.042  12.386 -0.1976  0.0942  0.7197
  359MPD2    C5 5377   0.786   0.148  12.409  1.1111  0.4670  0.1546
  359MPD2     H 5378   0.887   4.597  12.178  1.4484  2.3278  0.1480
  359MPD2    H1 5379   0.602   0.036  12.442 -0.7400  1.0468 -0.0744
  359MPD2    H2 5380   0.965   0.244  12.362  0.7337 -0.4817  0.1554
  359MPD2    H3 5381   0.758   0.231  12.473 -0.4531  0.5109 -0.5718
  359MPD2     N 5382   0.658   4.534  12.306  0.3554  0.4813  0.2159
  359MPD2    H5 5383   0.563   4.533  12.342 -0.9842 -3.7460 -3.4714
  359MPD2    N1 5384   1.060   0.059  12.170 -0.2809 -0.7945 -0.2042
  359MPD2    H7 5385   1.082   4.697  12.115 -2.0638 -1.7677  0.5386
  360TMC3    C1 5386   1.254   0.139  12.064 -0.5454 -0.0933  0.4145
  360TMC3    C2 5387   1.372   0.196  12.086  0.1085  0.0159 -0.0199
  360TMC3    C3 5388   1.459   0.170  11.986  0.2574  0.5044  0.0183
  360TMC3    C4 5389   1.217   0.049  11.961 -0.7046  0.2655  0.3681
  360TMC3    C5 5390   1.310   0.027  11.865 -0.7637  0.5765  0.0911
  360TMC3    C6 5391   1.433   0.089  11.881  0.1669  0.3375 -0.3263
  360TMC3     C 5392   1.154   0.151  12.167 -0.2764 -0.0252  0.4511
  360TMC3     O 5393   1.171   0.243  12.249 -0.5677  0.1850  0.3345
  360TMC3     H 5394   1.389   0.277  12.157 -1.9475  0.6731 -0.2734
  360TMC3    H1 5395   1.115   0.014  11.950 -0.5945 -1.2378  4.4044
  360TMC3    H2 5396   1.509   0.061  11.811  0.3547  0.9920 -0.3897
  360TMC3    C7 5397   1.282   4.692  11.738 -0.0280 -0.4739 -1.1949
  360TMC3    C8 5398   1.580   0.251  12.001  0.7233 -0.2846  0.2062
  360TMC3    O1 5399   1.345   0.004  11.637  0.0969  0.4402 -0.3038
  360TMC3    O2 5400   1.619   0.289  12.110 -0.0163  0.2192 -0.2114
  361MPD2     C 5401   2.471   3.366  16.732  0.3288 -0.0716  0.2925
  361MPD2    C1 5402   2.435   3.404  16.863 -0.5666 -0.5525 -0.0206
  361MPD2    C2 5403   2.494   3.337  16.967 -0.1843  0.7947 -0.5232
  361MPD2    C3 5404   2.586   3.236  16.945  0.2445  0.1014  0.0677
  361MPD2    C4 5405   2.606   3.193  16.816 -0.3965 -0.0978 -0.7524
  361MPD2    C5 5406   2.544   3.254  16.711  0.0171 -0.1234  0.8593
  361MPD2     H 5407   2.464   3.360  17.068 -0.0255  1.0090 -0.5262
  361MPD2    H1 5408   2.668   3.104  16.808 -0.0211  0.2780 -2.1086
  361MPD2    H2 5409   2.423   3.409  16.645  0.8313 -2.4765 -1.1877
  361MPD2    H3 5410   2.554   3.207  16.614  1.2371  1.5296  0.1840
  361MPD2     N 5411   2.655   3.159  17.044 -0.2135  0.1081  0.7012
  361MPD2    H5 5412   2.701   3.073  17.020  0.7669  0.8065  0.0874
  361MPD2    N1 5413   2.338   3.499  16.896 -0.0382  1.1486  0.2012
  361MPD2    H7 5414   2.322   3.515  16.995 -1.5968  2.2499 -0.2155
  362TMC3    C1 5415   2.157   3.640  16.861  0.2963 -0.4447  0.5392
  362TMC3    C2 5416   2.152   3.650  16.992  0.3763 -0.4592 -0.6189
  362TMC3    C3 5417   2.091   3.766  17.037 -0.3263 -0.2222 -0.5851
  362TMC3    C4 5418   2.115   3.733  16.772  0.4628 -0.0323 -0.2491
  362TMC3    C5 5419   2.065   3.849  16.821 -0.1677  0.0156 -0.1960
  362TMC3    C6 5420   2.045   3.865  16.953  0.4214  0.0710  0.2915
  362TMC3     C 5421   2.250   3.546  16.801  0.2829 -0.0762  0.2677
  362TMC3     O 5422   2.245   3.531  16.682 -0.0599 -0.0774 -0.0226
  362TMC3     H 5423   2.173   3.565  17.056  0.2720  0.0806  0.1314
  362TMC3    H1 5424   2.125   3.722  16.664 -2.5012  0.8759 -0.6091
  362TMC3    H2 5425   1.992   3.954  16.986 -1.9222 -0.9395 -0.8008
  362TMC3    C7 5426   2.015   3.952  16.733  0.3835  0.8343  0.7462
  362TMC3    C8 5427   2.073   3.791  17.177 -0.1226  0.0709  0.4015
  362TMC3    O1 5428   1.915   4.014  16.764 -0.0421  0.2944  0.3098
  362TMC3    O2 5429   2.114   3.698  17.249  0.4102 -0.0486  0.1359
  363TMC3    C1 5430   0.190   1.322   9.099  0.4079  0.5185 -0.5192
  363TMC3    C2 5431   0.295   1.290   9.185  0.4099  0.2586  0.1853
  363TMC3    C3 5432   0.325   1.389   9.272 -0.3195 -0.1501 -0.7235
  363TMC3    C4 5433   0.130   1.443   9.093  0.6730  0.0522  0.2458
  363TMC3    C5 5434   0.172   1.541   9.178  0.0802 -0.1599 -0.4397
  363TMC3    C6 5435   0.268   1.517   9.270 -0.6442  0.4839 -0.5035
  363TMC3     C 5436   0.138   1.201   9.025 -0.5775  0.1084  0.2018
  363TMC3     O 5437   0.173   1.094   9.073 -0.1291  0.3385 -0.4864
  363TMC3     H 5438   0.351   1.197   9.179 -0.5743 -0.4119  1.4727
  363TMC3    H1 5439   0.041   1.459   9.033 -0.3971 -1.4689  1.4365
  363TMC3    H2 5440   0.289   1.577   9.358  0.7831 -2.7673  1.4088
  363TMC3    C7 5441   0.106   1.676   9.176 -0.3499  0.1934 -0.1277
  363TMC3    C8 5442   0.372   1.346   9.400  0.0491 -0.0975  0.3941
  363TMC3    O1 5443   4.709   1.684   9.138  0.5533 -0.1544 -0.1153
  363TMC3    O2 5444   0.352   1.421   9.494  0.4753 -0.2001 -0.1947
  364MPD2     C 5445   4.158   0.443  10.238 -0.2968 -0.5594 -0.2277
  364MPD2    C1 5446   4.227   0.527  10.324  0.0956  0.4064 -0.7946
  364MPD2    C2 5447   4.295   0.472  10.432 -0.1139 -0.4114  0.3480
  364MPD2    C3 5448   4.298   0.333  10.451  0.1950 -0.8417  0.6455
  364MPD2    C4 5449   4.232   0.250  10.355  0.8958  0.5661  0.6864
  364MPD2    C5 5450   4.168   0.308  10.250 -0.3943  0.3204  0.1922
  364MPD2     H 5451   4.338   0.539  10.506 -1.8742  2.2805 -1.0723
  364MPD2    H1 5452   4.223   0.144  10.375  0.0795  0.5865  0.3949
  364MPD2    H2 5453   4.096   0.493  10.165  0.7895 -0.9806 -1.4278
  364MPD2    H3 5454   4.098   0.246  10.194 -1.7079 -1.9127  4.2737
  364MPD2     N 5455   4.365   0.277  10.563  0.1892 -0.2070  0.2087
  364MPD2    H5 5456   4.370   0.177  10.577 -0.6550 -0.4276 -1.1283
  364MPD2    N1 5457   4.224   0.666  10.295  0.3904 -0.2741  0.1859
  364MPD2    H7 5458   4.204   0.688  10.198  2.6361  2.9061  0.4347
  365TMC3    C1 5459   4.289   0.887  10.315  0.0242  0.0302 -0.7501
  365TMC3    C2 5460   4.336   0.887  10.191 -0.3068  0.2562 -0.7970
  365TMC3    C3 5461   4.310   0.996  10.117 -0.1501 -0.2857  0.0291
  365TMC3    C4 5462   4.233   0.997  10.377 -0.0658  0.5051  0.6163
  365TMC3    C5 5463   4.213   1.103  10.296  0.2806  0.5544 -0.4440
  365TMC3    C6 5464   4.249   1.103  10.165  0.8083 -0.0576 -0.8507
  365TMC3     C 5465   4.268   0.762  10.384  0.0921 -0.0602 -0.1749
  365TMC3     O 5466   4.274   0.763  10.506 -0.0597 -0.1149 -0.5107
  365TMC3     H 5467   4.390   0.802  10.151 -0.2721  0.8057 -1.9021
  365TMC3    H1 5468   4.177   0.977  10.468 -2.1143 -0.4765 -0.8458
  365TMC3    H2 5469   4.226   1.187  10.100 -0.3702 -0.1512 -0.5462
  365TMC3    C7 5470   4.176   1.230  10.358  0.1135 -0.6264 -0.6049
  365TMC3    C8 5471   4.372   1.017   9.981 -1.0572 -0.7611 -0.0807
  365TMC3    O1 5472   4.212   1.328  10.297 -0.5404 -0.2971  0.0472
  365TMC3    O2 5473   4.320   1.102   9.909  0.4280  0.0504  0.3783
  366MPD2     C 5474   2.576   1.307  15.299 -0.5806 -0.1469  0.1987
  366MPD2    C1 5475   2.663   1.393  15.239 -0.0639 -0.5470 -0.4476
  366MPD2    C2 5476   2.782   1.333  15.194 -0.4741  0.1857  0.4378
  366MPD2    C3 5477   2.789   1.194  15.189 -1.0368  0.1835 -0.0168
  366MPD2    C4 5478   2.687   1.116  15.236 -0.0795 -0.0592  0.0682
  366MPD2    C5 5479   2.587   1.172  15.309 -0.1220 -0.4272 -0.8088
  366MPD2     H 5480   2.866   1.392  15.160  1.2174 -1.3069  2.0393
  366MPD2    H1 5481   2.716   1.012  15.230 -0.9194 -0.1271 -2.6722
  366MPD2    H2 5482   2.495   1.348  15.359  0.3417  1.6517  0.2098
  366MPD2    H3 5483   2.512   1.123  15.371  2.6440 -2.9857  0.5372
  366MPD2     N 5484   2.917   1.150  15.145  0.0950 -0.6799 -0.1103
  366MPD2    H5 5485   2.980   1.226  15.120 -1.6155  1.1549  1.0719
  366MPD2    N1 5486   2.668   1.532  15.258 -0.2700  0.0134 -0.3865
  366MPD2    H7 5487   2.754   1.576  15.225  0.3630 -0.7303  0.2695
  367TMC3    C1 5488   2.611   1.745  15.319  0.0392  0.3297 -0.1748
  367TMC3    C2 5489   2.737   1.770  15.368 -0.0513 -0.3578 -0.0589
  367TMC3    C3 5490   2.771   1.903  15.370  0.0336 -0.3411 -0.3853
  367TMC3    C4 5491   2.527   1.843  15.264 -0.6510  0.3927 -0.1725
  367TMC3    C5 5492   2.578   1.969  15.248  0.0942  0.5728  0.9710
  367TMC3    C6 5493   2.689   2.003  15.312 -0.0875 -0.0169 -0.0912
  367TMC3     C 5494   2.569   1.606  15.310 -0.1484  0.2280 -0.2861
  367TMC3     O 5495   2.453   1.576  15.343 -1.0285 -0.2781  0.2631
  367TMC3     H 5496   2.796   1.701  15.428  0.5715 -0.7323 -1.1110
  367TMC3    H1 5497   2.427   1.818  15.233 -0.5689 -1.6201  1.2105
  367TMC3    H2 5498   2.724   2.106  15.306 -1.1416  0.4353  1.5681
  367TMC3    C7 5499   2.518   2.069  15.159  0.6216  0.0553  0.3562
  367TMC3    C8 5500   2.883   1.946  15.449 -0.1019 -0.1139 -0.2547
  367TMC3    O1 5501   2.545   2.187  15.182 -0.6315  0.2346  0.6150
  367TMC3    O2 5502   2.959   1.858  15.491  0.3712 -0.2629 -0.4697
  368MPD2     C 5503   3.706   3.798  12.731 -0.1139 -0.4248 -0.6723
  368MPD2    C1 5504   3.692   3.916  12.663 -0.3584  0.3797  0.0777
  368MPD2    C2 5505   3.796   3.968  12.587 -0.2869  0.0945 -0.1795
  368MPD2    C3 5506   3.914   3.898  12.581  0.3351  0.3963 -0.2515
  368MPD2    C4 5507   3.924   3.774  12.654 -0.0778  0.5016  0.0086
  368MPD2    C5 5508   3.821   3.731  12.727 -0.1035  0.7747 -0.4745
  368MPD2     H 5509   3.788   4.060  12.530 -2.1577  1.1338  1.7964
  368MPD2    H1 5510   4.020   3.724  12.654 -0.9345 -1.1521 -2.6736
  368MPD2    H2 5511   3.620   3.767  12.790  0.2355  1.0519  0.5976
  368MPD2    H3 5512   3.841   3.634  12.773  1.5365  1.7015  0.7991
  368MPD2     N 5513   4.032   3.950  12.515  0.0326 -0.3018 -0.1194
  368MPD2    H5 5514   4.113   3.889  12.510  0.4146  0.2367 -0.5677
  368MPD2    N1 5515   3.568   3.986  12.679  0.6227  0.0932  0.1646
  368MPD2    H7 5516   3.501   3.940  12.741  0.7393 -0.0230  0.2059
  369TMC3    C1 5517   3.402   4.152  12.632 -0.0418  0.3846 -0.5648
  369TMC3    C2 5518   3.376   4.274  12.573 -0.3586 -0.1788 -0.2258
  369TMC3    C3 5519   3.254   4.290  12.510 -0.4092  0.2761  0.4079
  369TMC3    C4 5520   3.305   4.053  12.625 -0.4616  0.4537 -1.1097
  369TMC3    C5 5521   3.176   4.089  12.590  0.1017 -0.0783  0.0211
  369TMC3    C6 5522   3.147   4.209  12.529 -0.0217 -0.7956 -0.0355
  369TMC3     C 5523   3.537   4.109  12.625 -0.2987 -0.8084 -0.1223
  369TMC3     O 5524   3.615   4.190  12.566 -0.0052  0.4570 -0.0477
  369TMC3     H 5525   3.443   4.359  12.569  1.6457 -1.7796 -0.7723
  369TMC3    H1 5526   3.320   3.951  12.657 -0.3930  0.9193  0.3958
  369TMC3    H2 5527   3.058   4.238  12.474 -0.8740  0.5890  2.0583
  369TMC3    C7 5528   3.071   4.031  12.673 -0.4861  0.3050  0.1884
  369TMC3    C8 5529   3.250   4.371  12.391 -0.0613  0.1726  0.7213
  369TMC3    O1 5530   3.115   3.949  12.757  0.1292  0.2876  0.2125
  369TMC3    O2 5531   3.142   4.393  12.343 -0.2770 -0.4658 -1.0083
  370TMC3    C1 5532   3.272   4.011  16.446  0.3789 -0.3548  0.3464
  370TMC3    C2 5533   3.236   3.925  16.551  0.4475 -0.0089  0.4486
  370TMC3    C3 5534   3.197   3.799  16.523 -0.5157  0.3978 -0.2267
  370TMC3    C4 5535   3.279   3.963  16.320 -0.5295 -0.1331 -0.9756
  370TMC3    C5 5536   3.246   3.827  16.298  1.0707 -0.6188 -0.3281
  370TMC3    C6 5537   3.208   3.747  16.399 -0.2165 -0.0817 -0.8808
  370TMC3     C 5538   3.366   4.114  16.477 -1.2381  0.1322  0.0542
  370TMC3     O 5539   3.401   4.123  16.594  0.0823 -0.1055 -0.0419
  370TMC3     H 5540   3.232   3.971  16.650  0.1361 -1.4550  1.1132
  370TMC3    H1 5541   3.312   4.018  16.232  2.2084 -0.6977 -0.2872
  370TMC3    H2 5542   3.156   3.656  16.376 -2.9867  1.3162 -0.0999
  370TMC3    C7 5543   3.276   3.770  16.166 -0.0769 -0.2162  0.0319
  370TMC3    C8 5544   3.182   3.704  16.629  0.3457 -0.2765  0.1339
  370TMC3    O1 5545   3.248   3.839  16.066 -0.5686 -0.5049 -0.2544
  370TMC3    O2 5546   3.181   3.584  16.617  0.1080 -0.1597  0.5465
  371TMC3    C1 5547   0.020   2.572  15.374  0.3534 -0.2292  0.2259
  371TMC3    C2 5548   4.620   2.542  15.428  0.1140  0.3019  0.5077
  371TMC3    C3 5549   4.534   2.642  15.469  0.2049  0.2307 -0.4359
  371TMC3    C4 5550   0.069   2.698  15.354  0.1344 -0.2099  0.2660
  371TMC3    C5 5551   4.700   2.793  15.396  0.1424  0.2170  0.1076
  371TMC3    C6 5552   4.575   2.772  15.456  0.1075  0.9116  0.0951
  371TMC3     C 5553   0.114   2.465  15.335  0.2141  0.3009 -0.2332
  371TMC3     O 5554   0.221   2.505  15.288  0.1702  0.3884  0.2185
  371TMC3     H 5555   4.593   2.440  15.452 -0.9249  0.7578  1.2529
  371TMC3    H1 5556   0.168   2.718  15.314 -1.1740  1.3938 -2.1409
  371TMC3    H2 5557   4.507   2.853  15.482 -1.8089 -1.7749  3.4535
  371TMC3    C7 5558   0.005   2.938  15.373  0.5249  0.3591 -0.2228
  371TMC3    C8 5559   4.419   2.598  15.543  0.2612 -0.2102  0.5920
  371TMC3    O1 5560   4.633   3.012  15.345 -0.4462  0.1530  0.7175
  371TMC3    O2 5561   4.397   2.479  15.529 -0.5154  0.1996  0.3912
  372MPD2     C 5562   3.743   4.080  13.780 -0.5189 -1.0592  0.1791
  372MPD2    C1 5563   3.846   4.020  13.704 -0.8298  0.2896 -0.2678
  372MPD2    C2 5564   3.842   3.887  13.685 -0.2023  0.0073 -1.2642
  372MPD2    C3 5565   3.741   3.813  13.748 -0.4615  0.6283  0.5214
  372MPD2    C4 5566   3.647   3.879  13.830  0.2234  0.0866 -0.1145
  372MPD2    C5 5567   3.652   4.014  13.850  0.1697 -0.2996  0.1261
  372MPD2     H 5568   3.917   3.837  13.624 -0.6604 -0.7338 -1.2232
  372MPD2    H1 5569   3.575   3.820  13.885 -0.2770  1.0934  0.3047
  372MPD2    H2 5570   3.738   4.188  13.787  1.6886 -1.1389  2.9159
  372MPD2    H3 5571   3.578   4.068  13.908  0.3352  0.1866 -0.1171
  372MPD2     N 5572   3.753   3.668  13.737  0.0727  0.4803 -0.4886
  372MPD2    H5 5573   3.827   3.636  13.676 -0.5945 -1.7677 -0.0974
  372MPD2    N1 5574   3.950   4.099  13.644  0.1197  0.1641  0.0227
  372MPD2    H7 5575   4.021   4.054  13.587 -1.3558  1.6903 -2.9999
  373TMC3    C1 5576   3.750   3.454  13.842 -0.2251 -0.3246 -0.0528
  373TMC3    C2 5577   3.710   3.408  13.965 -0.7396 -0.0814  0.7931
  373TMC3    C3 5578   3.809   3.356  14.043 -0.3085 -0.3987  0.3368
  373TMC3    C4 5579   3.872   3.447  13.773  0.5958  0.4512  0.1382
  373TMC3    C5 5580   3.966   3.393  13.857 -0.1473 -0.2012 -0.0083
  373TMC3    C6 5581   3.938   3.349  13.985  0.0593  0.3424  0.3142
  373TMC3     C 5582   3.674   3.574  13.804  0.0183 -0.3964 -0.3212
  373TMC3     O 5583   3.566   3.591  13.855 -0.1222 -0.3013  0.1600
  373TMC3     H 5584   3.614   3.439  14.006 -1.3303  1.8139 -2.0047
  373TMC3    H1 5585   3.878   3.476  13.669  0.5458  0.9686  0.2774
  373TMC3    H2 5586   4.008   3.285  14.037 -1.9856  0.2930  3.0408
  373TMC3    C7 5587   4.086   3.354  13.792 -0.3672  0.0880 -0.1369
  373TMC3    C8 5588   3.802   3.408  14.175 -0.0374  0.7451 -0.5024
  373TMC3    O1 5589   4.074   3.353  13.670  0.6941 -0.2288  0.3410
  373TMC3    O2 5590   3.694   3.433  14.224  0.3039  0.1339  0.8675
  374TMC3    C1 5591   4.274   4.498  10.100 -0.1686  0.5731 -0.1676
  374TMC3    C2 5592   4.398   4.517  10.043  0.9605 -0.3970 -0.0968
  374TMC3    C3 5593   4.406   4.499   9.904 -0.1313  0.3435  0.5955
  374TMC3    C4 5594   4.164   4.475  10.023  0.2515 -0.5005  0.3312
  374TMC3    C5 5595   4.179   4.471   9.886 -0.1639  0.4163  0.5245
  374TMC3    C6 5596   4.298   4.484   9.824  0.6412 -0.2668  0.2327
  374TMC3     C 5597   4.233   4.535  10.232 -0.4305  0.0414  0.1296
  374TMC3     O 5598   4.115   4.576  10.241 -0.4343  0.4251 -0.0463
  374TMC3     H 5599   4.476   4.556  10.107 -0.4185  0.6623  0.9621
  374TMC3    H1 5600   4.063   4.459  10.059  0.2087 -0.5682  0.1785
  374TMC3    H2 5601   4.307   4.498   9.717 -2.2497 -1.3388 -0.1391
  374TMC3    C7 5602   4.058   4.450   9.806 -0.7219 -0.0770  0.9121
  374TMC3    C8 5603   4.534   4.512   9.837 -0.1251  0.2512 -0.0417
  374TMC3    O1 5604   3.953   4.481   9.862  0.1783  0.9863  0.2548
  374TMC3    O2 5605   4.539   4.540   9.716 -0.1258  0.3533 -0.4013
  375MPD2     C 5606   4.700   4.277  17.260  1.1022  0.2791  0.0552
  375MPD2    C1 5607   4.637   4.322  17.148  0.1480 -0.1461  0.6942
  375MPD2    C2 5608   4.706   4.317  17.028 -1.1272 -0.1508 -0.1203
  375MPD2    C3 5609   0.114   4.275  17.014 -0.4847 -0.3278 -0.1014
  375MPD2    C4 5610   0.175   4.224  17.123  0.4561  0.5737 -0.0985
  375MPD2    C5 5611   0.110   4.224  17.247 -0.0283 -0.1115  0.7515
  375MPD2     H 5612   4.645   4.342  16.942  0.4468 -0.2146 -1.2494
  375MPD2    H1 5613   0.270   4.171  17.117 -0.1862 -0.7444  1.5348
  375MPD2    H2 5614   4.661   4.281  17.361 -0.0033  2.1573 -0.4461
  375MPD2    H3 5615   0.166   4.194  17.335  0.9469  1.5225  0.6873
  375MPD2     N 5616   0.189   4.273  16.895 -0.3464  0.7186 -0.0589
  375MPD2    H5 5617   0.290   4.265  16.899 -0.4067 -0.5501 -1.2235
  375MPD2    N1 5618   4.510   4.380  17.146 -0.7694 -0.3288 -0.3247
  375MPD2    H7 5619   4.481   4.428  17.062  1.0964  0.5790 -0.4431
  376TMC3    C1 5620   0.236   4.300  16.665 -0.4698 -0.3215  0.2625
  376TMC3    C2 5621   0.368   4.328  16.686 -0.2186  0.1129  0.1577
  376TMC3    C3 5622   0.454   4.335  16.578 -0.0006 -0.0633 -0.3910
  376TMC3    C4 5623   0.182   4.277  16.543  0.0496  0.1383  0.0381
  376TMC3    C5 5624   0.278   4.295  16.432 -0.1794 -0.6524  0.0274
  376TMC3    C6 5625   0.406   4.329  16.450 -0.6060 -0.3951 -0.1424
  376TMC3     C 5626   0.141   4.313  16.773 -0.8263 -0.3404  1.1525
  376TMC3     O 5627   0.026   4.330  16.739 -0.0844 -0.5427  0.6684
  376TMC3     H 5628   0.407   4.350  16.785 -0.7463  1.5635  0.0379
  376TMC3    H1 5629   0.077   4.260  16.522  0.3136 -0.9386 -0.3761
  376TMC3    H2 5630   0.481   4.336  16.372  0.0816 -1.5863  0.4012
  376TMC3    C7 5631   0.236   4.324  16.304  0.7048 -0.2560 -0.3864
  376TMC3    C8 5632   0.567   4.423  16.587  0.0708  0.0548  0.1296
  376TMC3    O1 5633   0.310   4.398  16.237  0.2087 -0.7212 -0.2399
  376TMC3    O2 5634   0.608   4.478  16.487 -0.7589 -0.2617 -0.2001
  377MPD2     C 5635   2.602   4.145  12.080 -0.5576 -0.7541  0.2547
  377MPD2    C1 5636   2.684   4.114  12.180 -0.0792  1.7088 -0.0071
  377MPD2    C2 5637   2.626   4.091  12.303 -0.7585  0.0348  1.4399
  377MPD2    C3 5638   2.487   4.103  12.328  0.3447 -0.3716  0.7459
  377MPD2    C4 5639   2.406   4.133  12.219 -0.1451 -0.3770  0.6392
  377MPD2    C5 5640   2.472   4.157  12.101 -0.5242  0.4676  0.3512
  377MPD2     H 5641   2.684   4.070  12.392  0.3846  1.4484  1.0356
  377MPD2    H1 5642   2.299   4.140  12.235 -0.2416  0.3987 -0.3730
  377MPD2    H2 5643   2.637   4.150  11.977 -2.3491  0.0493 -0.3278
  377MPD2    H3 5644   2.406   4.183  12.018 -0.3388 -0.8788 -0.2225
  377MPD2     N 5645   2.426   4.091  12.458 -0.1929  0.6876  0.0835
  377MPD2    H5 5646   2.333   4.118  12.489 -0.8680 -1.5516 -0.0060
  377MPD2    N1 5647   2.822   4.120  12.146  0.0858  0.1320  0.0281
  377MPD2    H7 5648   2.844   4.141  12.049  1.1276 -1.0867  0.0002
  378TMC3    C1 5649   3.215   4.187  12.020  0.1420 -0.2046 -0.0617
  378TMC3    C2 5650   3.082   4.183  12.064  0.6595  0.5070 -0.0448
  378TMC3    C3 5651   3.057   4.105  12.172 -0.8537 -0.5332 -0.5945
  378TMC3    C4 5652   3.314   4.111  12.070 -0.3470  0.3601 -0.5172
  378TMC3    C5 5653   3.284   4.048  12.185  0.0489 -0.4259 -0.2159
  378TMC3    C6 5654   3.160   4.039  12.232 -0.6498 -0.1640 -0.4946
  378TMC3     C 5655   3.235   4.254  11.886 -0.6575  0.2696  0.2752
  378TMC3     O 5656   3.133   4.285  11.830 -0.1557 -0.4719 -0.5511
  378TMC3     H 5657   3.011   4.246  12.013  0.5084 -0.2668 -0.7888
  378TMC3    H1 5658   3.409   4.093  12.019 -0.1248  0.4595 -0.1382
  378TMC3    H2 5659   3.137   3.976  12.317  1.2724 -0.2814 -0.0642
  378TMC3    C7 5660   3.376   3.949  12.241 -0.0720  0.0485  0.1622
  378TMC3    C8 5661   2.931   4.098  12.237 -0.0328 -0.4550 -0.4308
  378TMC3    O1 5662   3.327   3.868  12.315  0.2231  0.4207 -1.0284
  378TMC3    O2 5663   2.921   4.062  12.353  0.5837 -0.4925 -0.6336
  379MPD2     C 5664   3.498   1.997  16.339 -0.3563 -0.0749 -0.1785
  379MPD2    C1 5665   3.596   1.930  16.268 -0.4081 -0.0969  1.1029
  379MPD2    C2 5666   3.660   1.821  16.326 -0.4329 -0.4692  0.4782
  379MPD2    C3 5667   3.612   1.765  16.444  0.4856 -0.3672 -0.4839
  379MPD2    C4 5668   3.503   1.819  16.503  0.3181 -0.2552  0.5374
  379MPD2    C5 5669   3.454   1.939  16.459  0.2102 -0.1549  0.1306
  379MPD2     H 5670   3.739   1.769  16.274  1.7389  2.6408  0.6547
  379MPD2    H1 5671   3.454   1.773  16.588  4.7455 -2.8433  1.6946
  379MPD2    H2 5672   3.446   2.081  16.294  0.1956  1.1561  1.4639
  379MPD2    H3 5673   3.380   1.990  16.519 -1.3667 -1.6814 -0.5100
  379MPD2     N 5674   3.684   1.662  16.521  0.2619  0.5749  0.4292
  379MPD2    H5 5675   3.643   1.648  16.612  3.5707  2.2659  2.1819
  379MPD2    N1 5676   3.622   1.975  16.134 -0.6866 -0.3722 -1.1186
  379MPD2    H7 5677   3.576   2.061  16.108 -1.3216 -0.3230  0.1950
  380TMC3    C1 5678   3.680   1.976  15.907 -0.8074  0.2912  0.1997
  380TMC3    C2 5679   3.767   1.937  15.807  0.3231 -0.2953 -0.0886
  380TMC3    C3 5680   3.746   1.995  15.683  0.9177 -0.2407  0.0582
  380TMC3    C4 5681   3.565   2.046  15.874  0.5361 -1.3123 -0.4684
  380TMC3    C5 5682   3.530   2.068  15.745  0.6291 -0.2620  0.3880
  380TMC3    C6 5683   3.630   2.056  15.650  0.5480 -0.7036 -0.5403
  380TMC3     C 5684   3.698   1.908  16.034  0.5811  0.3805  0.3695
  380TMC3     O 5685   3.767   1.805  16.040 -0.1420 -0.1718 -0.3235
  380TMC3     H 5686   3.863   1.896  15.836  2.2308  1.8894 -3.4470
  380TMC3    H1 5687   3.484   2.053  15.945  1.5225  0.7265  0.4420
  380TMC3    H2 5688   3.615   2.096  15.551 -0.6369 -1.5458 -0.7032
  380TMC3    C7 5689   3.421   2.163  15.736  0.0643 -0.2429  0.2830
  380TMC3    C8 5690   3.855   2.019  15.584  0.5520  0.0459  0.3449
  380TMC3    O1 5691   3.455   2.277  15.760 -0.1183  0.3089  0.1134
  380TMC3    O2 5692   3.824   2.077  15.479  0.0193  0.4171  0.0418
  381TMC3    C1 5693   3.316   2.949  16.399 -0.0433 -0.2248 -0.2395
  381TMC3    C2 5694   3.392   3.061  16.375  1.1012  0.3588 -0.0769
  381TMC3    C3 5695   3.417   3.148  16.480 -0.1932 -0.0483 -0.7601
  381TMC3    C4 5696   3.274   2.920  16.526  1.6368  0.0788  0.0247
  381TMC3    C5 5697   3.275   3.017  16.625  0.4592  0.5532  0.3453
  381TMC3    C6 5698   3.354   3.130  16.606  0.5036  0.2429  1.3015
  381TMC3     C 5699   3.309   2.842  16.296  0.2361 -0.7484  0.0730
  381TMC3     O 5700   3.313   2.891  16.185  0.8042  0.8174  0.7206
  381TMC3     H 5701   3.444   3.075  16.280 -1.4428  0.2376 -1.4847
  381TMC3    H1 5702   3.227   2.827  16.558  2.1100  0.1638  0.9686
  381TMC3    H2 5703   3.344   3.205  16.684  1.6273 -0.1256  1.8106
  381TMC3    C7 5704   3.256   2.977  16.765 -0.7886 -0.7492 -0.0223
  381TMC3    C8 5705   3.512   3.249  16.445 -0.0547  0.4736 -0.0040
  381TMC3    O1 5706   3.260   2.858  16.794 -0.0432  0.0237  0.0507
  381TMC3    O2 5707   3.573   3.238  16.344  0.4137  0.6275  0.4050
  382MPD2     C 5708   2.623   0.900   0.306  0.6787 -0.3106 -0.6094
  382MPD2    C1 5709   2.623   0.901   0.168  0.3534 -0.4280  1.3613
  382MPD2    C2 5710   2.573   0.783   0.109  0.4372  0.2267  0.1796
  382MPD2    C3 5711   2.536   0.672   0.186 -0.2582 -0.2836 -0.7716
  382MPD2    C4 5712   2.560   0.672   0.323 -0.1427 -0.3996  0.1073
  382MPD2    C5 5713   2.592   0.785   0.384 -0.7248  0.1254  0.2810
  382MPD2     H 5714   2.588   0.760   0.004 -0.7922 -0.1688  0.0831
  382MPD2    H1 5715   2.542   0.590   0.392 -1.2303 -0.0483  0.2382
  382MPD2    H2 5716   2.660   0.984   0.364  3.1332 -2.1767  0.5090
  382MPD2    H3 5717   2.599   0.782   0.492 -4.0188  0.4787  0.4827
  382MPD2     N 5718   2.484   0.547   0.135 -1.1470 -0.1918 -0.5661
  382MPD2    H5 5719   2.467   0.470   0.199  0.5216 -0.4989 -0.4959
  382MPD2    N1 5720   2.659   1.008   0.078 -0.1178 -0.2208  0.0819
  382MPD2    H7 5721   2.662   0.997  17.663  0.5326  1.4785 -0.0870
  383TMC3    C1 5722   2.392   0.408  17.660  0.4576  0.1387 -0.8291
  383TMC3    C2 5723   2.298   0.400  17.558 -0.3855  0.0450 -0.4660
  383TMC3    C3 5724   2.281   0.283  17.498 -0.2158  0.8753 -0.2754
  383TMC3    C4 5725   2.483   0.307  17.684  0.2910  0.2058  0.0636
  383TMC3    C5 5726   2.457   0.187  17.625 -0.4391 -0.5779  0.0018
  383TMC3    C6 5727   2.356   0.172  17.526  0.0259  0.2144  0.1464
  383TMC3     C 5728   2.429   0.541   0.015  0.2791 -0.2035  0.0247
  383TMC3     O 5729   2.416   0.625  17.611 -0.2578 -0.2599  0.3859
  383TMC3     H 5730   2.237   0.483  17.525 -0.6066  0.0203 -0.1103
  383TMC3    H1 5731   2.556   0.322   0.077  0.3765  1.1996 -0.2068
  383TMC3    H2 5732   2.336   0.076  17.480 -0.2750 -0.3719  1.4925
  383TMC3    C7 5733   2.527   0.064  17.667  0.7692 -0.1709 -0.3639
  383TMC3    C8 5734   2.164   0.280  17.413 -0.0623  0.0104 -0.0163
  383TMC3    O1 5735   2.512   4.691  17.593  0.1440  0.3236 -0.2680
  383TMC3    O2 5736   2.118   0.392  17.389  0.0019 -0.6525  0.2517
  384MPD2     C 5737   4.043   2.328  11.848 -0.2108  0.2166  0.2079
  384MPD2    C1 5738   4.059   2.259  11.970  0.5258 -0.3009  0.4389
  384MPD2    C2 5739   4.133   2.145  11.971  0.3029 -0.0119 -0.0255
  384MPD2    C3 5740   4.178   2.085  11.858 -0.4504  0.2227 -0.3776
  384MPD2    C4 5741   4.147   2.146  11.738  1.0210  0.3580  0.0975
  384MPD2    C5 5742   4.095   2.269  11.735  0.0439  0.3192 -0.0691
  384MPD2     H 5743   4.150   2.095  12.066  0.1974 -0.2516 -0.1339
  384MPD2    H1 5744   4.187   2.107  11.646  0.4785  2.7812 -1.1538
  384MPD2    H2 5745   4.004   2.429  11.851 -1.5075 -0.2987  1.0712
  384MPD2    H3 5746   4.076   2.320  11.642  3.0565  1.6061  0.0182
  384MPD2     N 5747   4.247   1.962  11.865  0.0596 -0.2660 -0.0855
  384MPD2    H5 5748   4.244   1.925  11.959  0.9642 -0.0087  0.0409
  384MPD2    N1 5749   4.026   2.305  12.093 -0.0237 -0.0332  0.0040
  384MPD2    H7 5750   4.057   2.250  12.172 -1.8171 -1.5167 -0.3196
  385TMC3    C1 5751   4.348   1.758  11.822  0.2052 -0.3348  0.2511
  385TMC3    C2 5752   4.298   1.639  11.775 -0.3821 -1.2495 -0.0790
  385TMC3    C3 5753   4.282   1.544  11.870  0.5387 -0.1474  0.3155
  385TMC3    C4 5754   4.385   1.773  11.952 -0.2046  0.4112 -0.3336
  385TMC3    C5 5755   4.360   1.673  12.048 -0.2217 -0.3228 -0.2754
  385TMC3    C6 5756   4.300   1.559  12.008 -0.0584 -0.3629  0.1009
  385TMC3     C 5757   4.298   1.883  11.764  0.1595 -0.2784 -0.2344
  385TMC3     O 5758   4.296   1.891  11.642 -0.3751  1.0316  0.4588
  385TMC3     H 5759   4.264   1.627  11.673 -2.2296 -3.6293  0.8162
  385TMC3    H1 5760   4.445   1.858  11.983  1.1188 -0.4404 -0.5576
  385TMC3    H2 5761   4.277   1.485  12.083 -0.7704  1.3651  1.5846
  385TMC3    C7 5762   4.285   1.745  12.144  0.0371  0.0487  0.4086
  385TMC3    C8 5763   4.289   1.404  11.839  0.3574 -0.0141 -0.2587
  385TMC3    O1 5764   4.238   1.846  12.103  0.1239 -0.2342 -0.4150
  385TMC3    O2 5765   4.303   1.321  11.927  0.4450  1.0315 -0.6905
  386TMC3    C1 5766   4.097   4.526  11.416  0.1048  0.4057  1.0917
  386TMC3    C2 5767   4.162   4.527  11.293 -0.8156 -0.7167  0.5525
  386TMC3    C3 5768   4.103   4.574  11.184  0.3850 -0.4862 -0.0887
  386TMC3    C4 5769   3.982   4.587  11.431  0.2720 -0.0433  0.3069
  386TMC3    C5 5770   3.923   4.645  11.320 -0.5935 -0.2157 -0.3779
  386TMC3    C6 5771   3.985   4.640  11.194 -0.5461  0.2064  0.2619
  386TMC3     C 5772   4.165   4.477  11.533 -0.4084  0.3326 -0.0743
  386TMC3     O 5773   4.117   4.482  11.646 -0.4783 -0.8915 -0.0340
  386TMC3     H 5774   4.244   4.459  11.272  1.2420  2.9640 -3.4306
  386TMC3    H1 5775   3.928   4.590  11.525  0.6681  1.2760  0.4973
  386TMC3    H2 5776   3.938   4.675  11.102 -0.5131 -1.7052 -0.4968
  386TMC3    C7 5777   3.793   4.710  11.333 -0.3103  0.3050 -0.1317
  386TMC3    C8 5778   4.108   4.491  11.059  0.6070  0.5795  0.4290
  386TMC3    O1 5779   3.758   0.013  11.447  0.4053  0.0220 -0.2584
  386TMC3    O2 5780   4.000   4.460  11.002  0.0813  0.2392  0.5321
  387MPD2     C 5781   1.603   4.619   9.458  0.5623  0.0081 -0.7967
  387MPD2    C1 5782   1.686   4.628   9.568 -1.5678 -0.7621 -0.2798
  387MPD2    C2 5783   1.688   4.517   9.652 -0.5367  0.6231  0.3809
  387MPD2    C3 5784   1.624   4.397   9.627 -0.7170 -0.8850 -0.5873
  387MPD2    C4 5785   1.547   4.387   9.513 -0.4438 -0.1343  0.9514
  387MPD2    C5 5786   1.540   4.497   9.430 -0.2358  0.5531  1.2223
  387MPD2     H 5787   1.747   4.517   9.743 -2.0221  1.2562  1.3400
  387MPD2    H1 5788   1.493   4.297   9.487 -0.5006  0.0583  0.3928
  387MPD2    H2 5789   1.599   4.700   9.386 -2.1833  0.0217 -0.6511
  387MPD2    H3 5790   1.479   4.489   9.340 -2.1884 -0.6330  2.6530
  387MPD2     N 5791   1.642   4.282   9.708  0.1973  0.5189 -0.0485
  387MPD2    H5 5792   1.700   4.296   9.790  1.1197 -3.0780 -0.0768
  387MPD2    N1 5793   1.762   0.022   9.607  0.3062  0.0017  0.3681
  387MPD2    H7 5794   1.802   0.014   9.700  2.7689 -2.6548 -0.8984
  388TMC3    C1 5795   1.885   0.206   9.623 -0.1776  0.1334 -0.2483
  388TMC3    C2 5796   1.874   0.335   9.664  0.0340 -0.4005  0.5794
  388TMC3    C3 5797   1.951   0.376   9.773 -0.3516 -0.0256  0.2325
  388TMC3    C4 5798   1.973   0.123   9.686  0.3984 -0.4747 -0.2988
  388TMC3    C5 5799   2.053   0.169   9.788 -0.7039 -0.4997 -0.1817
  388TMC3    C6 5800   2.052   0.297   9.829 -0.4092  0.2511 -0.0843
  388TMC3     C 5801   1.788   0.140   9.548  0.2610 -0.0880 -0.1016
  388TMC3     O 5802   1.742   0.187   9.447 -0.4438 -0.2233 -0.7207
  388TMC3     H 5803   1.806   0.399   9.609 -0.2797 -1.4342 -0.2182
  388TMC3    H1 5804   2.003   0.028   9.644 -0.4230 -0.2156 -1.4702
  388TMC3    H2 5805   2.126   0.335   9.900 -0.8279 -2.1923  1.6604
  388TMC3    C7 5806   2.147   0.079   9.846  0.1427  0.4446  0.2288
  388TMC3    C8 5807   1.934   0.511   9.821 -0.9544  0.0989 -0.4839
  388TMC3    O1 5808   2.259   0.123   9.884  0.3461  0.0544  0.8190
  388TMC3    O2 5809   1.916   0.605   9.740 -0.3648 -0.5651  0.2569
  389MPD2     C 5810   1.364   2.698  11.444  0.2059 -0.1244  0.0828
  389MPD2    C1 5811   1.236   2.682  11.398 -0.4423  0.3964  0.4956
  389MPD2    C2 5812   1.162   2.575  11.447  0.1848 -0.0248  0.2306
  389MPD2    C3 5813   1.202   2.511  11.563 -0.0848 -0.6769 -0.1496
  389MPD2    C4 5814   1.328   2.532  11.614 -0.1267  0.4729  0.8647
  389MPD2    C5 5815   1.405   2.630  11.557 -0.4052 -0.4182 -0.0670
  389MPD2     H 5816   1.059   2.563  11.414  0.0862 -0.2204  0.6043
  389MPD2    H1 5817   1.366   2.477  11.698  2.4438  2.4564  1.0258
  389MPD2    H2 5818   1.428   2.769  11.394  0.2372 -2.1051 -2.6880
  389MPD2    H3 5819   1.508   2.640  11.587 -0.7041 -1.5856  1.3281
  389MPD2     N 5820   1.116   2.419  11.628 -0.0171  0.1590  0.2503
  389MPD2    H5 5821   1.136   2.391  11.724 -0.7955 -0.0435  0.3533
  389MPD2    N1 5822   1.194   2.759  11.283  0.0271 -0.1065 -0.0273
  389MPD2    H7 5823   1.249   2.838  11.249  1.6202 -1.6308 -1.0299
  390TMC3    C1 5824   0.918   2.295  11.675 -0.5755 -0.3665 -0.1707
  390TMC3    C2 5825   0.850   2.183  11.627  0.4110 -0.0198 -1.1196
  390TMC3    C3 5826   0.733   2.152  11.688  0.6703  0.1482  0.1357
  390TMC3    C4 5827   0.863   2.371  11.775  0.1866  0.1284 -0.3296
  390TMC3    C5 5828   0.745   2.333  11.830  0.1519 -0.3614  0.4421
  390TMC3    C6 5829   0.676   2.225  11.784 -0.2307 -0.5148 -0.3205
  390TMC3     C 5830   1.003   2.359  11.572 -1.0445 -0.2541 -0.6307
  390TMC3     O 5831   0.968   2.350  11.455  0.4444 -0.1356 -0.4698
  390TMC3     H 5832   0.885   2.131  11.539 -0.4610 -0.7592 -1.0289
  390TMC3    H1 5833   0.897   2.474  11.778  1.6089 -0.3946  1.1848
  390TMC3    H2 5834   0.568   2.219  11.792 -0.0202 -2.4044  0.8428
  390TMC3    C7 5835   0.684   2.417  11.925 -0.6629 -0.1964 -0.3102
  390TMC3    C8 5836   0.648   2.045  11.630 -0.1605  1.1722 -0.4522
  390TMC3    O1 5837   0.724   2.533  11.939 -0.4849 -0.0214 -0.2598
  390TMC3    O2 5838   0.651   2.021  11.511 -0.1659  0.0191  0.5000
  391MPD2     C 5839   0.742   3.797  10.909  0.0836 -0.5340 -0.7320
  391MPD2    C1 5840   0.836   3.902  10.892  1.0880  0.2107 -0.0421
  391MPD2    C2 5841   0.818   3.967  10.772 -0.4491  0.2329  0.0996
  391MPD2    C3 5842   0.717   3.953  10.685  0.2002  0.3516 -0.2107
  391MPD2    C4 5843   0.616   3.862  10.716  0.3388  0.3469  0.1041
  391MPD2    C5 5844   0.635   3.780  10.821  0.2736 -0.1684  0.5360
  391MPD2     H 5845   0.890   4.046  10.752 -0.0399 -0.5815 -1.5916
  391MPD2    H1 5846   0.527   3.846  10.656  0.0721  0.5477  0.4532
  391MPD2    H2 5847   0.748   3.737  11.000  0.8211  0.0064 -0.4207
  391MPD2    H3 5848   0.565   3.699  10.837 -1.4585  0.9123 -1.6273
  391MPD2     N 5849   0.715   4.038  10.574  0.2243 -0.9238  0.4514
  391MPD2    H5 5850   0.779   4.117  10.585  0.3502 -0.8788 -0.5565
  391MPD2    N1 5851   0.925   3.938  10.995  0.2198  0.3926  0.5852
  391MPD2    H7 5852   0.915   3.893  11.085  1.3996 -2.0909 -0.5255
  392TMC3    C1 5853   0.629   4.154  10.384  0.8479 -0.4812 -0.0169
  392TMC3    C2 5854   0.506   4.179  10.330  0.0708 -0.2392  0.2141
  392TMC3    C3 5855   0.496   4.293  10.251 -0.3440  0.0394 -0.4808
  392TMC3    C4 5856   0.739   4.233  10.362 -0.3388  0.1005 -0.0366
  392TMC3    C5 5857   0.720   4.340  10.276 -0.0167  0.4556 -0.3860
  392TMC3    C6 5858   0.602   4.370  10.219 -0.1570  0.0710 -0.7742
  392TMC3     C 5859   0.625   4.035  10.472  0.9162  0.4385  1.2836
  392TMC3     O 5860   0.522   3.969  10.471 -0.3820 -0.1452  0.0561
  392TMC3     H 5861   0.415   4.120  10.333  0.9091 -1.7825 -4.2196
  392TMC3    H1 5862   0.826   4.217  10.425 -2.1206 -3.0837  1.5932
  392TMC3    H2 5863   0.581   4.473  10.191  0.3307  0.7125  1.2663
  392TMC3    C7 5864   0.823   4.442  10.282  0.2922  0.2220  0.5225
  392TMC3    C8 5865   0.364   4.327  10.189  0.0713 -0.6866  0.4342
  392TMC3    O1 5866   0.905   4.427  10.371  0.0177  0.3526 -0.2273
  392TMC3    O2 5867   0.267   4.260  10.230 -0.7862 -0.5119  0.2455
  393TMC3    C1 5868   3.872   2.160  10.404 -0.0253  0.0472  0.4914
  393TMC3    C2 5869   3.749   2.140  10.464 -0.5664 -0.6851  0.3703
  393TMC3    C3 5870   3.735   2.031  10.541 -0.2383  0.3790 -0.7344
  393TMC3    C4 5871   3.984   2.077  10.421  0.0825 -0.3540  0.2071
  393TMC3    C5 5872   3.964   1.976  10.512  0.4424 -0.3560 -1.4190
  393TMC3    C6 5873   3.842   1.948  10.561  0.1321  0.3734 -0.5968
  393TMC3     C 5874   3.889   2.297  10.351  0.0216 -0.8243 -0.2496
  393TMC3     O 5875   3.779   2.341  10.318  0.7954  0.1062  0.4537
  393TMC3     H 5876   3.668   2.211  10.450  0.2616  0.4209  1.1087
  393TMC3    H1 5877   4.078   2.089  10.370  0.4294  1.9152  1.4169
  393TMC3    H2 5878   3.839   1.856  10.618  1.1579  1.6005  1.4441
  393TMC3    C7 5879   4.059   1.869  10.500 -0.4148  0.2680  0.1659
  393TMC3    C8 5880   3.620   2.034  10.637 -0.2928  0.4241  0.2381
  393TMC3    O1 5881   4.031   1.760  10.453  0.2166 -0.1120 -0.1079
  393TMC3    O2 5882   3.529   2.116  10.615 -0.1225  0.2200 -0.5092
  394TMC3    C1 5883   1.062   2.827  11.099 -0.1520 -0.1460 -0.8790
  394TMC3    C2 5884   0.938   2.829  11.037 -0.2142  0.3269 -0.3203
  394TMC3    C3 5885   0.932   2.855  10.907  0.7794  0.9417 -1.0346
  394TMC3    C4 5886   1.177   2.841  11.025  0.5178 -0.1389  0.0538
  394TMC3    C5 5887   1.162   2.852  10.893  0.4031  0.2403 -0.0140
  394TMC3    C6 5888   1.048   2.867  10.826 -0.3661 -0.2389 -0.0080
  394TMC3     C 5889   1.071   2.747  11.218 -0.3274  0.1007 -0.5455
  394TMC3     O 5890   0.979   2.669  11.239 -0.1909  0.2477 -0.1977
  394TMC3     H 5891   0.845   2.815  11.090  1.1645  0.2323  2.1039
  394TMC3    H1 5892   1.279   2.829  11.059  0.6714 -0.7939 -0.6206
  394TMC3    H2 5893   1.045   2.913  10.727 -0.4808 -1.3410 -0.5228
  394TMC3    C7 5894   1.286   2.874  10.827  0.0437  0.0239  0.2158
  394TMC3    C8 5895   0.803   2.841  10.839 -0.1229  0.2570  0.2616
  394TMC3    O1 5896   1.365   2.942  10.885 -0.0361 -0.3320 -0.1805
  394TMC3    O2 5897   0.709   2.891  10.895 -0.4574  0.3881  0.7030
  395TMC3    C1 5898   0.755   0.046  14.825 -0.2043 -0.3820 -0.0132
  395TMC3    C2 5899   0.690   0.044  14.704 -0.3382 -0.2375 -0.7416
  395TMC3    C3 5900   0.713   0.148  14.619 -0.6214  0.2068  0.1703
  395TMC3    C4 5901   0.841   0.146  14.858  0.9765  0.5844 -0.8663
  395TMC3    C5 5902   0.860   0.246  14.768  0.1003 -0.0538  0.0417
  395TMC3    C6 5903   0.797   0.255  14.650 -0.0959  0.6728  0.3302
  395TMC3     C 5904   0.689   4.713  14.945  0.7687  0.0419  0.1577
  395TMC3     O 5905   0.743   0.015  15.049 -0.4678 -0.7328 -0.0856
  395TMC3     H 5906   0.613   4.691  14.688 -0.8621  0.2778 -0.6073
  395TMC3    H1 5907   0.894   0.144  14.952 -0.6000 -1.4819 -0.0142
  395TMC3    H2 5908   0.834   0.313  14.565 -1.6456  3.7923  1.7788
  395TMC3    C7 5909   0.984   0.318  14.784 -0.2576  0.8962 -0.0106
  395TMC3    C8 5910   0.663   0.147  14.480 -0.9486 -0.4390  0.3804
  395TMC3    O1 5911   1.082   0.260  14.828 -0.9933  0.1145  0.4204
  395TMC3    O2 5912   0.678   0.250  14.414  0.5498  0.0085  0.1200
  396MPD2     C 5913   0.987   1.044  17.366 -0.0373 -0.3943 -0.2156
  396MPD2    C1 5914   1.103   1.122  17.389 -0.1126 -0.2309  0.3619
  396MPD2    C2 5915   1.159   1.197  17.289  0.5872  0.2219 -1.0300
  396MPD2    C3 5916   1.111   1.204  17.158  0.3450 -0.6632  0.1536
  396MPD2    C4 5917   0.995   1.129  17.135  0.0856 -0.6301 -0.2557
  396MPD2    C5 5918   0.942   1.056  17.239  0.5250  0.2359 -0.3344
  396MPD2     H 5919   1.244   1.259  17.317  0.6495 -0.8061  1.0440
  396MPD2    H1 5920   0.944   1.147  17.041  0.0310  0.7581  0.0410
  396MPD2    H2 5921   0.940   0.981  17.440 -3.4298  0.4346 -1.6757
  396MPD2    H3 5922   0.846   1.007  17.230  0.2773  0.4594  1.1793
  396MPD2     N 5923   1.176   1.284  17.061  0.3873 -0.0657 -0.1502
  396MPD2    H5 5924   1.243   1.348  17.102  0.9861 -0.0311 -1.1912
  396MPD2    N1 5925   1.159   1.124  17.524 -0.1297  0.0688 -0.4792
  396MPD2    H7 5926   1.109   1.061  17.585  0.4616  3.3320  3.4252
  397TMC3    C1 5927   1.322   1.143   0.008 -0.2540 -0.0188  0.0156
  397TMC3    C2 5928   1.450   1.104  17.657  0.2636  0.4455  0.6383
  397TMC3    C3 5929   1.481   0.975  17.654  0.3605 -0.4538 -0.1541
  397TMC3    C4 5930   1.242   1.048   0.066  0.0288  0.5299  0.5348
  397TMC3    C5 5931   1.277   0.919   0.069 -0.4516  0.3736 -0.4670
  397TMC3    C6 5932   1.402   0.876   0.024 -0.3591  1.0711 -0.0954
  397TMC3     C 5933   1.263   1.204  17.570  0.6238  0.2056  0.2009
  397TMC3     O 5934   1.328   1.282  17.505 -0.0672 -0.0555  0.3811
  397TMC3     H 5935   1.507   1.172  17.596 -2.0015  1.1446 -0.7124
  397TMC3    H1 5936   1.141   1.074   0.095 -0.6157 -1.1749 -0.1588
  397TMC3    H2 5937   1.438   0.774   0.030 -0.2917  1.0819 -0.3304
  397TMC3    C7 5938   1.218   0.839   0.166  0.1269  0.2192 -0.5331
  397TMC3    C8 5939   1.566   0.943  17.542  0.9264 -0.4320  0.0796
  397TMC3    O1 5940   1.158   0.893   0.253  0.0204  0.2115  0.1935
  397TMC3    O2 5941   1.680   0.904  17.560 -0.0313 -0.8573 -0.0707
  398MPD2     C 5942   3.863   1.314   0.319 -0.4501 -0.7587  0.4413
  398MPD2    C1 5943   3.935   1.215   0.384 -0.2350 -0.8307  0.3370
  398MPD2    C2 5944   3.990   1.248   0.504 -0.3807 -0.2057  0.0279
  398MPD2    C3 5945   3.999   1.373   0.546 -0.5484 -1.1411 -0.1591
  398MPD2    C4 5946   3.943   1.472   0.468  0.0223 -0.3427  0.2339
  398MPD2    C5 5947   3.865   1.440   0.361  0.6241 -0.0476 -0.2953
  398MPD2     H 5948   4.057   1.175   0.549 -0.8135 -0.3589  0.4186
  398MPD2    H1 5949   3.968   1.575   0.491  1.4876 -0.7886  0.6656
  398MPD2    H2 5950   3.807   1.291   0.229  2.1689 -0.5327 -1.2493
  398MPD2    H3 5951   3.818   1.519   0.304  3.3290 -0.6778 -3.3526
  398MPD2     N 5952   4.055   1.389   0.670 -0.0031 -0.2044  0.5400
  398MPD2    H5 5953   4.093   1.307   0.716  0.8595  1.3948  2.6790
  398MPD2    N1 5954   3.930   1.076   0.360  0.0621 -0.4191  0.0930
  398MPD2    H7 5955   3.988   1.007   0.408  0.6497 -0.6302 -0.9392
  399TMC3    C1 5956   3.876   0.876   0.236  0.2030 -0.0136 -0.0175
  399TMC3    C2 5957   3.986   0.806   0.281 -0.5314 -0.5618 -0.0773
  399TMC3    C3 5958   3.994   0.672   0.237  0.0734  0.2708 -0.4290
  399TMC3    C4 5959   3.778   0.816   0.161  0.5519 -0.2899 -0.8665
  399TMC3    C5 5960   3.788   0.683   0.120  0.4146  0.4571 -0.1848
  399TMC3    C6 5961   3.902   0.612   0.148  0.4170  0.1508  0.4996
  399TMC3     C 5962   3.857   1.021   0.259  0.3018 -0.1205 -0.3968
  399TMC3     O 5963   3.774   1.076   0.190  0.1107  0.6852  0.5311
  399TMC3     H 5964   4.054   0.844   0.357  0.1323 -2.3023  0.1937
  399TMC3    H1 5965   3.690   0.870   0.131 -0.1826 -2.3177 -2.3484
  399TMC3    H2 5966   3.914   0.509   0.116  1.0304  0.1684  0.6605
  399TMC3    C7 5967   3.678   0.623   0.040 -0.1532  0.0052 -0.5309
  399TMC3    C8 5968   4.115   0.593   0.271  0.7551  0.6650 -1.3975
  399TMC3    O1 5969   3.710   0.554  17.630 -0.0132 -0.3833 -0.0329
  399TMC3    O2 5970   4.211   0.643   0.332 -0.2939 -0.2308  0.5112
  400TMC3    C1 5971   2.235   0.195  17.058  0.7434 -0.5265  0.2547
  400TMC3    C2 5972   2.109   0.195  17.009 -0.2564  0.5929 -0.7935
  400TMC3    C3 5973   2.048   0.320  16.993  0.4537 -0.7014 -0.0697
  400TMC3    C4 5974   2.309   0.307  17.084 -0.1315 -0.1988 -0.2511
  400TMC3    C5 5975   2.253   0.426  17.054 -0.1440 -0.3308 -0.6560
  400TMC3    C6 5976   2.115   0.437  17.011  0.5777  0.3830 -0.7198
  400TMC3     C 5977   2.286   0.064  17.046  0.1476 -0.1246 -0.0512
  400TMC3     O 5978   2.230   4.703  16.970 -0.3118  0.0775  0.4004
  400TMC3     H 5979   2.047   0.107  17.015  1.4011 -0.2889  3.3679
  400TMC3    H1 5980   2.411   0.308  17.121  0.5132  0.6553 -2.0344
  400TMC3    H2 5981   2.069   0.531  16.982  0.4313  0.3531 -0.5814
  400TMC3    C7 5982   2.322   0.547  17.046  0.1219  0.3065  0.0592
  400TMC3    C8 5983   1.935   0.335  16.900 -0.5720 -0.7899  0.4556
  400TMC3    O1 5984   2.249   0.648  17.044  0.0609  0.5179 -0.0391
  400TMC3    O2 5985   1.899   0.452  16.873 -0.5118  0.2401 -0.1201
  401MPD2     C 5986   0.581   3.436   0.085  0.2016 -0.0332 -0.1145
  401MPD2    C1 5987   0.572   3.476   0.220  0.8136  0.4637 -0.7379
  401MPD2    C2 5988   0.651   3.423   0.315  0.5913 -0.2307 -0.0701
  401MPD2    C3 5989   0.753   3.334   0.286  0.6065  0.3852 -0.3927
  401MPD2    C4 5990   0.760   3.291   0.150 -0.0140  0.5257 -0.2895
  401MPD2    C5 5991   0.670   3.338   0.052  0.0371  0.7882 -0.2608
  401MPD2     H 5992   0.652   3.455   0.418  0.6333  0.7657 -0.3818
  401MPD2    H1 5993   0.833   3.216   0.121 -1.7029  0.4305 -4.3724
  401MPD2    H2 5994   0.518   3.479   0.008  1.4262  1.1701 -0.4570
  401MPD2    H3 5995   0.686   3.297  17.638 -0.9191  2.0921 -0.9536
  401MPD2     N 5996   0.843   3.305   0.389 -0.9291  0.6010 -0.4306
  401MPD2    H5 5997   0.827   3.354   0.476  1.4060  0.7581 -0.1013
  401MPD2    N1 5998   0.487   3.579   0.272  0.1293  0.3472 -0.3712
  401MPD2    H7 5999   0.496   3.616   0.366  0.8293 -2.9505  0.8361
  402TMC3    C1 6000   1.022   3.226   0.507  0.0093  0.1256 -0.8476
  402TMC3    C2 6001   0.961   3.260   0.629 -0.0987 -0.4970  0.3178
  402TMC3    C3 6002   1.032   3.245   0.748  0.3660 -0.4161 -0.6962
  402TMC3    C4 6003   1.149   3.169   0.504 -0.6795 -0.0224  0.2360
  402TMC3    C5 6004   1.217   3.161   0.622 -1.9824 -0.5793 -0.1987
  402TMC3    C6 6005   1.155   3.202   0.741  0.3661 -0.0605  0.7486
  402TMC3     C 6006   0.950   3.215   0.382 -0.2704  0.5528  0.5953
  402TMC3     O 6007   0.990   3.140   0.292  0.0454  0.6155 -0.0640
  402TMC3     H 6008   0.853   3.267   0.641 -0.1627  0.9684 -1.2996
  402TMC3    H1 6009   1.198   3.145   0.410 -0.3552  0.6476  0.2314
  402TMC3    H2 6010   1.212   3.205   0.833  0.1791 -0.1152  0.8653
  402TMC3    C7 6011   1.356   3.128   0.633 -0.4057 -0.4198 -0.0554
  402TMC3    C8 6012   0.960   3.221   0.873  0.4190  0.1552  0.5892
  402TMC3    O1 6013   1.382   3.064   0.735  0.5216  0.7926  0.3054
  402TMC3    O2 6014   1.018   3.146   0.948 -0.0191  0.4086  0.6588
  403MPD2     C 6015   3.579   2.194  13.029  0.0891  0.9209  0.5038
  403MPD2    C1 6016   3.634   2.074  13.066  0.0051  0.2282  0.2573
  403MPD2    C2 6017   3.746   2.068  13.152 -0.0708 -0.0471  0.7036
  403MPD2    C3 6018   3.806   2.190  13.192 -0.0587 -0.3345  0.0982
  403MPD2    C4 6019   3.754   2.307  13.148 -0.4949 -0.0480 -0.3855
  403MPD2    C5 6020   3.644   2.308  13.072  0.0767 -0.0743 -0.0124
  403MPD2     H 6021   3.791   1.978  13.192  0.8320 -0.4619 -1.2518
  403MPD2    H1 6022   3.791   2.401  13.186  0.8619 -1.4113  1.7187
  403MPD2    H2 6023   3.483   2.208  12.982  0.1587  1.0907  0.4108
  403MPD2    H3 6024   3.587   2.399  13.059  1.0096  0.5872  0.5431
  403MPD2     N 6025   3.916   2.176  13.282  0.3212  0.2020  0.2514
  403MPD2    H5 6026   3.970   2.090  13.285  0.0549 -0.1020 -3.0356
  403MPD2    N1 6027   3.558   1.954  13.030  0.8886 -0.7430  0.8221
  403MPD2    H7 6028   3.464   1.972  12.999  0.9362  1.6721  2.1236
  404TMC3    C1 6029   3.478   1.739  13.008  0.6301 -0.5969 -0.4215
  404TMC3    C2 6030   3.472   1.619  13.074 -0.1158 -0.4327 -0.5248
  404TMC3    C3 6031   3.379   1.525  13.019 -0.6543 -0.2069 -0.4198
  404TMC3    C4 6032   3.419   1.762  12.893 -0.7253 -0.3248  0.1357
  404TMC3    C5 6033   3.329   1.670  12.841  0.3564  0.5672 -0.1476
  404TMC3    C6 6034   3.302   1.554  12.907 -0.2392  0.2257 -0.1991
  404TMC3     C 6035   3.588   1.824  13.054 -0.1714  0.0422 -0.0548
  404TMC3     O 6036   3.685   1.776  13.115 -0.1823  0.1370 -0.7779
  404TMC3     H 6037   3.525   1.592  13.165 -0.5950 -0.8766 -0.3843
  404TMC3    H1 6038   3.441   1.857  12.844 -0.9805 -0.7716 -0.8392
  404TMC3    H2 6039   3.222   1.488  12.876  1.4361 -2.0789  0.4230
  404TMC3    C7 6040   3.330   1.669  12.696  0.4613 -0.8691  0.0372
  404TMC3    C8 6041   3.372   1.394  13.078 -0.5603 -0.7030 -0.8097
  404TMC3    O1 6042   3.415   1.738  12.646  0.5395  0.0273 -0.0263
  404TMC3    O2 6043   3.311   1.312  13.013 -0.8127  0.6342 -0.4345
  405MPD2     C 6044   3.775   2.552  13.635 -0.7682  0.8264  0.9032
  405MPD2    C1 6045   3.649   2.502  13.615  0.3467 -0.3217  0.3129
  405MPD2    C2 6046   3.557   2.528  13.717 -0.3007  0.3150 -0.4402
  405MPD2    C3 6047   3.579   2.612  13.817 -0.5445  0.7125 -0.0511
  405MPD2    C4 6048   3.705   2.668  13.830  0.5604 -0.3932  0.5119
  405MPD2    C5 6049   3.804   2.627  13.741  0.5750  0.1970 -0.0299
  405MPD2     H 6050   3.465   2.470  13.719  1.4929 -2.5692 -0.5277
  405MPD2    H1 6051   3.733   2.733  13.912 -0.9012  1.2543 -0.3092
  405MPD2    H2 6052   3.850   2.533  13.559 -1.0588 -1.1540  1.1297
  405MPD2    H3 6053   3.905   2.645  13.776  0.7623  1.4207 -1.2100
  405MPD2     N 6054   3.471   2.642  13.898  0.0363 -0.4441  0.1396
  405MPD2    H5 6055   3.386   2.587  13.887 -0.4204 -0.1160  1.9926
  405MPD2    N1 6056   3.619   2.420  13.505  0.0351 -0.3829 -0.5658
  405MPD2    H7 6057   3.699   2.384  13.454 -0.0942 -2.6907  0.8595
  406TMC3    C1 6058   3.199   2.724  14.262 -0.5843  0.7653 -0.6573
  406TMC3    C2 6059   3.108   2.643  14.201  0.1753 -0.2722 -0.4119
  406TMC3    C3 6060   3.127   2.605  14.076 -0.1332  0.1332 -0.3809
  406TMC3    C4 6061   3.319   2.757  14.197 -0.7860 -0.1063  0.4450
  406TMC3    C5 6062   3.330   2.715  14.068  0.3931  0.3505  0.0054
  406TMC3    C6 6063   3.235   2.641  13.997  0.1098 -0.4566 -0.0624
  406TMC3     C 6064   3.219   2.701  14.400  0.5595 -0.2179 -0.6957
  406TMC3     O 6065   3.331   2.689  14.442 -0.3939  0.1600 -0.3142
  406TMC3     H 6066   3.034   2.588  14.258 -1.3439  2.2635  0.0816
  406TMC3    H1 6067   3.401   2.803  14.251 -1.0332  1.2259 -0.3429
  406TMC3    H2 6068   3.233   2.625  13.890  0.0033 -0.4634 -0.0589
  406TMC3    C7 6069   3.469   2.714  14.010 -0.1986 -0.5735 -0.5841
  406TMC3    C8 6070   3.022   2.525  14.011  0.1153  0.4508 -0.0753
  406TMC3    O1 6071   3.555   2.778  14.069 -0.2823  0.4427 -0.2297
  406TMC3    O2 6072   2.909   2.557  14.027  0.2169  0.1502 -0.3304
  407MPD2     C 6073   1.191   4.398   9.551 -0.1761 -0.7120  0.5900
  407MPD2    C1 6074   1.207   4.316   9.663 -0.4017  0.0754  0.3776
  407MPD2    C2 6075   1.273   4.365   9.776 -0.2164 -0.2043 -0.5174
  407MPD2    C3 6076   1.325   4.492   9.776 -0.8308 -0.3743 -0.1431
  407MPD2    C4 6077   1.326   4.567   9.659 -0.0123  0.0876  0.4427
  407MPD2    C5 6078   1.252   4.521   9.549  0.8197 -0.4162 -0.0329
  407MPD2     H 6079   1.277   4.307   9.867 -0.4752  0.4412 -0.0932
  407MPD2    H1 6080   1.376   4.663   9.656  0.3120 -0.0963 -0.0380
  407MPD2    H2 6081   1.131   4.369   9.465 -0.2320  0.0547  0.3742
  407MPD2    H3 6082   1.261   4.582   9.460  0.0555  2.4288  1.8467
  407MPD2     N 6083   1.379   4.547   9.895  0.1424  0.4441  0.5612
  407MPD2    H5 6084   1.402   4.645   9.888 -0.5127  0.6642  1.4635
  407MPD2    N1 6085   1.165   4.181   9.657  0.5574 -0.3425  0.4116
  407MPD2    H7 6086   1.200   4.124   9.733 -1.1005  0.2764  1.6507
  408TMC3    C1 6087   1.097   3.985   9.575 -0.0015 -0.3227 -0.5901
  408TMC3    C2 6088   1.226   3.934   9.566  0.5644  0.5780 -0.7108
  408TMC3    C3 6089   1.242   3.797   9.573 -0.1115  0.1248  0.3348
  408TMC3    C4 6090   0.987   3.907   9.582 -0.0933 -0.4437 -0.1795
  408TMC3    C5 6091   1.008   3.771   9.575 -0.1459  0.3658 -0.1499
  408TMC3    C6 6092   1.135   3.717   9.568 -0.2478  0.2342 -0.2798
  408TMC3     C 6093   1.095   4.124   9.559 -0.3382 -0.0751 -0.3142
  408TMC3     O 6094   1.016   4.170   9.478 -0.0357 -0.3666  0.2208
  408TMC3     H 6095   1.306   4.008   9.563 -0.0027  1.2427  0.4562
  408TMC3    H1 6096   0.889   3.951   9.595  0.7441  1.0303  1.1982
  408TMC3    H2 6097   1.141   3.609   9.554  0.3352  0.1454  0.6315
  408TMC3    C7 6098   0.897   3.692   9.625 -0.1104  0.7660  0.2817
  408TMC3    C8 6099   1.372   3.735   9.560 -0.5718  0.4992 -0.1793
  408TMC3    O1 6100   0.783   3.735   9.609 -0.0610 -0.1490 -0.5888
  408TMC3    O2 6101   1.369   3.613   9.543 -0.1006  0.6603  0.4200
  409MPD2     C 6102   1.290   4.641  17.292 -0.1784 -0.0703  0.3979
  409MPD2    C1 6103   1.373   0.019  17.347  0.4390  0.2984  0.2082
  409MPD2    C2 6104   1.356   0.148  17.316  0.0692  0.3334 -0.5328
  409MPD2    C3 6105   1.251   0.188  17.228 -0.2145  0.4388 -0.2671
  409MPD2    C4 6106   1.166   0.084  17.173 -0.2103 -0.5458  0.3151
  409MPD2    C5 6107   1.189   4.671  17.205 -0.1216 -0.3048 -0.0244
  409MPD2     H 6108   1.418   0.229  17.352 -0.6601 -0.2551  2.0431
  409MPD2    H1 6109   1.082   0.109  17.110  0.5724  0.0424 -0.4890
  409MPD2    H2 6110   1.305   4.534  17.304 -1.9613 -0.0070  3.3394
  409MPD2    H3 6111   1.125   4.591  17.171 -0.8423  0.0133  0.5692
  409MPD2     N 6112   1.227   0.319  17.186  0.0411  0.6872  0.2470
  409MPD2    H5 6113   1.201   0.329  17.089 -3.3446 -0.0633  1.0683
  409MPD2    N1 6114   1.474   0.003  17.444  0.0462  0.4134 -0.1347
  409MPD2    H7 6115   1.513   0.083  17.494 -0.3661 -0.1125  1.0410
  410TMC3    C1 6116   1.367   0.519  17.171  0.1586 -0.1726 -0.0021
  410TMC3    C2 6117   1.498   0.519  17.219  0.2404 -0.3860  0.3306
  410TMC3    C3 6118   1.596   0.526  17.129  0.2706 -0.0314  0.8648
  410TMC3    C4 6119   1.335   0.538  17.038 -0.7456 -0.2543  0.0323
  410TMC3    C5 6120   1.438   0.548  16.946 -0.0771  0.8819  0.7351
  410TMC3    C6 6121   1.569   0.542  16.994 -0.4863 -0.2550  0.3133
  410TMC3     C 6122   1.285   0.425  17.253  0.3632  0.2294  0.0830
  410TMC3     O 6123   1.317   0.425  17.370  0.1282  0.1438  0.9225
  410TMC3     H 6124   1.520   0.498  17.323 -0.0034 -1.5544  0.1533
  410TMC3    H1 6125   1.232   0.538  17.003 -0.8493  1.9984  0.3582
  410TMC3    H2 6126   1.656   0.545  16.929 -0.5375 -2.4164  0.1649
  410TMC3    C7 6127   1.410   0.598  16.818  0.2376  0.3950 -0.2871
  410TMC3    C8 6128   1.717   0.450  17.164  0.1101 -0.1366 -0.3586
  410TMC3    O1 6129   1.295   0.601  16.784  0.1127  0.0384  0.2024
  410TMC3    O2 6130   1.808   0.518  17.213  0.0698 -0.4240 -0.0374
  411MPD2     C 6131   1.744   0.671  14.742 -0.2628 -0.0779 -0.6819
  411MPD2    C1 6132   1.678   0.772  14.684  0.3318 -1.2793 -0.5851
  411MPD2    C2 6133   1.558   0.747  14.611  0.2502 -0.5161 -0.0691
  411MPD2    C3 6134   1.510   0.615  14.605  0.0579  0.4149 -0.3266
  411MPD2    C4 6135   1.585   0.511  14.660 -0.3876  0.3966 -1.2539
  411MPD2    C5 6136   1.703   0.538  14.729 -0.9657 -0.3894 -0.5925
  411MPD2     H 6137   1.507   0.834  14.569  2.0898  2.0126  2.9255
  411MPD2    H1 6138   1.547   0.410  14.661  2.4546 -0.6689  0.5884
  411MPD2    H2 6139   1.835   0.680  14.800 -0.8821  0.5843  0.1788
  411MPD2    H3 6140   1.752   0.463  14.790 -0.4470  0.1380 -0.3654
  411MPD2     N 6141   1.395   0.590  14.535  0.6632 -0.0389  0.2268
  411MPD2    H5 6142   1.376   0.491  14.522 -2.1321  0.4025  0.9134
  411MPD2    N1 6143   1.722   0.910  14.674  0.3098  0.0067 -0.3027
  411MPD2    H7 6144   1.663   0.984  14.636  0.9605  1.6058  1.7802
  412TMC3    C1 6145   1.186   0.611  14.435 -0.1443 -0.0791 -0.2323
  412TMC3    C2 6146   1.122   0.668  14.332  0.3037  0.1334 -0.1638
  412TMC3    C3 6147   1.029   0.601  14.259  0.5126  0.0391 -0.6154
  412TMC3    C4 6148   1.169   0.473  14.464  0.9550  0.6104 -0.0898
  412TMC3    C5 6149   1.058   0.408  14.403 -0.2834 -0.2505 -0.0451
  412TMC3    C6 6150   0.988   0.476  14.301 -0.6832  0.0638  0.1783
  412TMC3     C 6151   1.311   0.678  14.479 -0.3710  0.2721  0.2865
  412TMC3     O 6152   1.302   0.803  14.481  0.1647 -0.0405 -0.1857
  412TMC3     H 6153   1.154   0.768  14.305  0.3529  0.2628  0.3694
  412TMC3    H1 6154   1.227   0.416  14.536  0.7244  0.5747  0.0662
  412TMC3    H2 6155   0.916   0.419  14.244 -0.9430  0.9147 -0.3543
  412TMC3    C7 6156   1.092   0.269  14.380 -0.1926 -0.4406  0.2197
  412TMC3    C8 6157   1.042   0.596  14.114  0.3384  0.5518  0.2444
  412TMC3    O1 6158   1.070   0.183  14.462  0.2826 -1.3205  0.0994
  412TMC3    O2 6159   1.037   0.481  14.068 -0.1199  0.1814  0.2355
  413MPD2     C 6160   3.031   3.828  15.440  0.3771 -0.5587 -0.3726
  413MPD2    C1 6161   3.032   3.796  15.311 -0.1637  0.4497  0.0947
  413MPD2    C2 6162   3.101   3.676  15.270 -0.4243  0.4216  0.4893
  413MPD2    C3 6163   3.166   3.604  15.363  0.5697 -0.0146 -0.0588
  413MPD2    C4 6164   3.162   3.640  15.496  0.6798 -0.0457 -0.1881
  413MPD2    C5 6165   3.092   3.750  15.536  0.2075 -0.5768  0.0238
  413MPD2     H 6166   3.109   3.637  15.169 -0.3820  0.0113  0.6476
  413MPD2    H1 6167   3.220   3.584  15.568 -1.7570 -0.7574  1.2351
  413MPD2    H2 6168   2.978   3.915  15.479  0.8021  0.2857 -1.6657
  413MPD2    H3 6169   3.074   3.769  15.641 -2.2869 -2.1078 -0.1180
  413MPD2     N 6170   3.221   3.479  15.324  0.4337  0.1834 -0.2182
  413MPD2    H5 6171   3.201   3.463  15.225  1.8847 -2.1647 -0.1231
  413MPD2    N1 6172   2.965   3.880  15.213 -0.2744  0.1183  0.4945
  413MPD2    H7 6173   2.931   3.970  15.244  2.2873  1.2810 -0.1150
  414TMC3    C1 6174   3.331   3.283  15.313  0.2320 -0.0406  0.0465
  414TMC3    C2 6175   3.384   3.169  15.376 -0.1145  0.2569  0.0178
  414TMC3    C3 6176   3.398   3.059  15.298  0.5558 -0.1915 -0.3195
  414TMC3    C4 6177   3.312   3.287  15.177  0.5574 -0.3520 -0.1226
  414TMC3    C5 6178   3.315   3.172  15.106 -0.2186  0.7574  0.9875
  414TMC3    C6 6179   3.360   3.063  15.168 -1.3548  0.1979 -0.1717
  414TMC3     C 6180   3.293   3.391  15.397 -0.1327  0.0552 -0.6451
  414TMC3     O 6181   3.347   3.404  15.507 -0.5303  0.0184 -0.1157
  414TMC3     H 6182   3.409   3.181  15.481  2.7862 -1.4876 -0.4816
  414TMC3    H1 6183   3.290   3.378  15.122  0.2940 -1.4263 -1.7844
  414TMC3    H2 6184   3.377   2.973  15.111 -0.3127  0.0244  0.4192
  414TMC3    C7 6185   3.356   3.198  14.972  0.0275 -0.8912 -0.2206
  414TMC3    C8 6186   3.532   3.008  15.302  0.4203 -0.7329  0.1740
  414TMC3    O1 6187   3.319   3.296  14.904 -0.4648 -0.4031 -0.8274
  414TMC3    O2 6188   3.580   2.989  15.188 -0.4966 -0.7435 -0.4176
  415TMC3    C1 6189   3.001   1.851   9.849 -0.7173  1.1812 -0.7385
  415TMC3    C2 6190   3.094   1.931   9.791  0.7551  0.2331 -0.3838
  415TMC3    C3 6191   3.051   2.017   9.692 -0.8384  0.2500  0.5007
  415TMC3    C4 6192   2.877   1.837   9.796 -0.0174  0.4617 -0.3539
  415TMC3    C5 6193   2.843   1.917   9.690  0.3914 -0.9416  0.0771
  415TMC3    C6 6194   2.924   2.020   9.646  0.1063  0.6805 -0.2267
  415TMC3     C 6195   3.035   1.755   9.951 -0.0264  0.6094 -0.1983
  415TMC3     O 6196   2.969   1.651   9.956 -0.2070  0.1985  0.0190
  415TMC3     H 6197   3.197   1.923   9.825 -0.3451 -0.8478  2.7416
  415TMC3    H1 6198   2.796   1.801   9.858  0.8858 -3.0971 -1.2379
  415TMC3    H2 6199   2.886   2.090   9.573  1.1451  2.2247  0.7233
  415TMC3    C7 6200   2.726   1.883   9.610  0.2840  0.6703  0.1180
  415TMC3    C8 6201   3.143   2.070   9.603 -0.0153 -0.6418  0.2655
  415TMC3    O1 6202   2.694   1.948   9.511 -0.6109 -0.1303  0.1323
  415TMC3    O2 6203   3.127   2.049   9.481  0.7883 -0.2179  0.2221
  416MPD2     C 6204   1.009   0.661  11.571 -0.2613 -0.0722 -0.6357
  416MPD2    C1 6205   0.912   0.654  11.480 -0.8838  0.8475  0.3329
  416MPD2    C2 6206   0.922   0.586  11.357  0.6399  0.5009  0.0319
  416MPD2    C3 6207   1.041   0.522  11.333  0.1525 -0.4241  0.4645
  416MPD2    C4 6208   1.149   0.538  11.418  0.0638  0.5391 -0.4790
  416MPD2    C5 6209   1.129   0.606  11.540  0.0270  0.1959  0.2926
  416MPD2     H 6210   0.832   0.571  11.298  0.7559  1.2810 -0.3496
  416MPD2    H1 6211   1.249   0.499  11.400 -0.3216 -0.4747 -0.4381
  416MPD2    H2 6212   0.991   0.709  11.666 -0.1531 -1.6690  0.1926
  416MPD2    H3 6213   1.213   0.600  11.608 -0.8127  0.6653  1.3923
  416MPD2     N 6214   1.062   0.429  11.225 -0.3465 -0.0382  0.2176
  416MPD2    H5 6215   1.154   0.385  11.222  0.4514  1.6115  0.7278
  416MPD2    N1 6216   0.799   0.727  11.523 -0.6122  0.4449  0.0692
  416MPD2    H7 6217   0.807   0.788  11.604  0.9116 -1.0710  1.0604
  417TMC3    C1 6218   0.593   0.830  11.522 -0.7979  0.1268  0.1373
  417TMC3    C2 6219   0.575   0.810  11.655 -0.3802 -0.0393 -0.5291
  417TMC3    C3 6220   0.457   0.866  11.705 -0.7392 -0.0399 -0.1472
  417TMC3    C4 6221   0.501   0.891  11.439  0.0357  0.5256  0.2411
  417TMC3    C5 6222   0.380   0.929  11.489  0.8064  0.0299 -1.3128
  417TMC3    C6 6223   0.360   0.917  11.622  0.0585  0.2522  0.0905
  417TMC3     C 6224   0.688   0.754  11.445 -0.1736 -0.2838 -0.0561
  417TMC3     O 6225   0.643   0.706  11.340  0.5094 -0.0759  0.6089
  417TMC3     H 6226   0.651   0.766  11.718 -2.5287 -1.8053  0.8707
  417TMC3    H1 6227   0.502   0.887  11.331  0.9847  0.2664  0.2587
  417TMC3    H2 6228   0.274   0.965  11.667 -1.1099  1.7142 -3.6729
  417TMC3    C7 6229   0.265   0.919  11.401  0.2645  0.1232  0.4764
  417TMC3    C8 6230   0.431   0.884  11.844  0.5286  0.3995  0.3345
  417TMC3    O1 6231   0.278   0.959  11.285  0.5769  0.2886 -0.7188
  417TMC3    O2 6232   0.358   0.981  11.882  0.2448 -0.1880  0.5457
  418TMC3    C1 6233   4.285   1.504   1.018 -0.0833 -0.1399 -0.3555
  418TMC3    C2 6234   4.194   1.554   0.923  0.6250 -0.6501 -0.0487
  418TMC3    C3 6235   4.096   1.477   0.879  0.0563  0.2094 -0.0332
  418TMC3    C4 6236   4.281   1.372   1.061 -0.1042  0.3857 -0.0544
  418TMC3    C5 6237   4.158   1.311   1.033 -0.4912 -0.0264  0.1527
  418TMC3    C6 6238   4.072   1.352   0.929  0.1225  0.8244  0.4772
  418TMC3     C 6239   4.417   1.538   0.981 -0.2591  0.0437  0.4962
  418TMC3     O 6240   4.443   1.656   0.958 -0.1672 -0.2518 -0.4152
  418TMC3     H 6241   4.208   1.648   0.871 -0.7530  0.0218  0.7882
  418TMC3    H1 6242   4.347   1.328   1.134  0.2590  3.0585  1.2216
  418TMC3    H2 6243   3.992   1.292   0.887  0.6066  1.2094 -0.9766
  418TMC3    C7 6244   4.127   1.178   1.085 -0.0872 -0.6301  0.3922
  418TMC3    C8 6245   4.066   1.503   0.742  0.7600 -0.2847 -0.2632
  418TMC3    O1 6246   4.042   1.120   1.018  0.7846 -0.3414  0.3309
  418TMC3    O2 6247   4.020   1.610   0.711 -0.4294 -0.5996  0.1311
  419MPD2     C 6248   2.565   0.103  12.463 -0.1772 -0.5234  0.1552
  419MPD2    C1 6249   2.526   0.234  12.443  0.1715 -0.2229 -0.0638
  419MPD2    C2 6250   2.556   0.337  12.534 -0.1145  0.0490 -0.0184
  419MPD2    C3 6251   2.625   0.294  12.647  0.6190 -0.3542  0.6350
  419MPD2    C4 6252   2.659   0.161  12.668  0.1452 -0.3447 -0.6400
  419MPD2    C5 6253   2.626   0.067  12.575 -0.0162 -0.2240  0.3116
  419MPD2     H 6254   2.535   0.441  12.512 -1.0458 -0.3609 -1.0801
  419MPD2    H1 6255   2.694   0.125  12.764 -0.4500  0.4592 -0.1150
  419MPD2    H2 6256   2.552   0.023  12.391 -2.1548 -0.0178 -0.0387
  419MPD2    H3 6257   2.660   4.687  12.592  1.5259 -0.1607 -2.3724
  419MPD2     N 6258   2.641   0.395  12.747  0.7039  0.2837  0.2547
  419MPD2    H5 6259   2.612   0.488  12.718  0.6849 -0.4414 -1.9952
  419MPD2    N1 6260   2.471   0.280  12.326 -0.8435  0.5830 -0.4735
  419MPD2    H7 6261   2.464   0.382  12.319 -1.0284  0.5676 -0.5389
  420TMC3    C1 6262   2.685   0.495  12.965 -0.0562  0.3228  0.2451
  420TMC3    C2 6263   2.571   0.574  12.957  0.5809  0.2631 -0.4711
  420TMC3    C3 6264   2.541   0.660  13.058  0.1391 -0.4000  0.0125
  420TMC3    C4 6265   2.776   0.504  13.072  0.2916  0.0560 -0.0411
  420TMC3    C5 6266   2.754   0.603  13.162  0.0773  1.3886 -0.8663
  420TMC3    C6 6267   2.631   0.667  13.162 -0.2533  0.4543 -0.2999
  420TMC3     C 6268   2.695   0.378  12.875  0.0288 -0.4516  0.3070
  420TMC3     O 6269   2.761   0.287  12.918 -0.7267 -0.7318  0.6568
  420TMC3     H 6270   2.493   0.560  12.883 -1.6991  0.3929  1.9322
  420TMC3    H1 6271   2.857   0.433  13.081 -1.1300 -2.0441 -3.4661
  420TMC3    H2 6272   2.617   0.751  13.230  0.7627 -0.0976  0.5975
  420TMC3    C7 6273   2.839   0.614  13.274 -0.1290 -0.1286  0.5986
  420TMC3    C8 6274   2.406   0.684  13.090  0.0542  0.5719  0.3264
  420TMC3    O1 6275   2.790   0.678  13.368 -1.0059 -0.1088 -0.0790
  420TMC3    O2 6276   2.324   0.716  13.005 -0.5510  0.0323 -0.3358
  421TMC3    C1 6277   4.077   2.270  13.438 -0.6556 -0.5613 -0.1367
  421TMC3    C2 6278   4.099   2.343  13.551 -0.3273  0.5525  0.5501
  421TMC3    C3 6279   4.217   2.336  13.613  0.0176 -0.0755 -0.2295
  421TMC3    C4 6280   4.178   2.194  13.387 -0.6595  0.6349 -0.0162
  421TMC3    C5 6281   4.303   2.203  13.450 -0.1072 -0.8684  0.1474
  421TMC3    C6 6282   4.327   2.278  13.561 -0.2921 -0.0501  1.0773
  421TMC3     C 6283   3.952   2.279  13.365 -0.1057  0.4319  0.3172
  421TMC3     O 6284   3.884   2.371  13.405  0.4894  0.8595 -0.6269
  421TMC3     H 6285   4.015   2.393  13.598 -0.7739  2.8995 -2.7385
  421TMC3    H1 6286   4.168   2.147  13.290 -0.5311  1.2397 -0.3270
  421TMC3    H2 6287   4.419   2.265  13.617 -0.9130 -0.8399  1.9195
  421TMC3    C7 6288   4.410   2.104  13.418  0.3850 -0.3633 -0.3468
  421TMC3    C8 6289   4.230   2.423  13.728  0.1197  0.2165  0.6098
  421TMC3    O1 6290   4.528   2.132  13.429 -0.3786 -0.0637  0.4215
  421TMC3    O2 6291   4.123   2.482  13.748 -0.3924  0.0440 -0.4075
  422TMC3    C1 6292   1.609   3.240  12.448 -0.1749 -0.1457 -0.4459
  422TMC3    C2 6293   1.613   3.329  12.553  0.0345  0.1934  0.4276
  422TMC3    C3 6294   1.510   3.331  12.647  0.3442  0.6305 -0.1484
  422TMC3    C4 6295   1.497   3.161  12.433  0.9039  0.4073  0.1782
  422TMC3    C5 6296   1.394   3.167  12.529  0.8515 -0.4752  0.4474
  422TMC3    C6 6297   1.401   3.246  12.640 -0.0475  0.6023 -0.2823
  422TMC3     C 6298   1.696   3.260  12.333 -0.5223  0.3120 -0.6089
  422TMC3     O 6299   1.783   3.346  12.349  0.0452 -0.2148  0.7641
  422TMC3     H 6300   1.701   3.390  12.569  0.0855 -0.0866  1.2608
  422TMC3    H1 6301   1.498   3.081  12.360 -1.9037  0.4445  0.1291
  422TMC3    H2 6302   1.333   3.234  12.724 -0.3868  0.2842 -0.6036
  422TMC3    C7 6303   1.298   3.058  12.529 -1.4030  0.2864 -0.2805
  422TMC3    C8 6304   1.521   3.436  12.748 -0.1239  0.8421  0.1158
  422TMC3    O1 6305   1.334   2.954  12.476  0.4925 -0.2745 -0.1631
  422TMC3    O2 6306   1.633   3.455  12.797  0.1308 -0.9250  0.7743
  423MPD2     C 6307   3.105   4.504   0.571  0.2258  0.0718 -0.2775
  423MPD2    C1 6308   3.001   4.418   0.600 -0.3452 -0.0284 -0.1770
  423MPD2    C2 6309   3.004   4.299   0.529 -0.5329  0.1358 -0.2485
  423MPD2    C3 6310   3.122   4.259   0.465 -0.3847 -0.5156  0.0068
  423MPD2    C4 6311   3.231   4.348   0.448  0.0037 -0.5451  0.2676
  423MPD2    C5 6312   3.215   4.472   0.503  0.1361  0.0478  0.0387
  423MPD2     H 6313   2.911   4.246   0.514 -0.3295 -0.5693  1.0152
  423MPD2    H1 6314   3.321   4.323   0.392 -0.2694 -0.5491 -0.1670
  423MPD2    H2 6315   3.090   4.608   0.599  1.6305  0.0684  0.4410
  423MPD2    H3 6316   3.296   4.543   0.503 -0.2915  0.5207  3.4182
  423MPD2     N 6317   3.136   4.138   0.400  0.6757  0.2726  0.2619
  423MPD2    H5 6318   3.218   4.118   0.344 -0.4076 -2.3864 -0.3662
  423MPD2    N1 6319   2.895   4.454   0.687 -0.2236 -0.0393  0.4737
  423MPD2    H7 6320   2.807   4.405   0.676 -0.8825  0.8576  1.7785
  424TMC3    C1 6321   2.785   4.543   0.865 -0.3628  0.3646 -0.1681
  424TMC3    C2 6322   2.797   4.537   1.001 -0.2159  0.4961 -0.0316
  424TMC3    C3 6323   2.688   4.523   1.081  0.1822 -0.1135 -0.0075
  424TMC3    C4 6324   2.661   4.550   0.805 -0.2306  0.3758 -0.8754
  424TMC3    C5 6325   2.548   4.535   0.889  0.1704 -0.7382  0.5055
  424TMC3    C6 6326   2.560   4.518   1.024 -0.8267  0.2620  0.3725
  424TMC3     C 6327   2.906   4.546   0.790  0.0023  0.0834  0.4460
  424TMC3     O 6328   3.008   4.594   0.842 -0.6095  0.0979 -0.5159
  424TMC3     H 6329   2.897   4.528   1.040 -0.4276  1.4543  0.7317
  424TMC3    H1 6330   2.660   4.586   0.703 -0.3192 -3.2803 -2.1401
  424TMC3    H2 6331   2.475   4.482   1.080  0.6610 -0.5734  2.0988
  424TMC3    C7 6332   2.435   4.607   0.847 -0.7388 -0.0401  0.6499
  424TMC3    C8 6333   2.713   4.415   1.184  0.0306  0.1046  0.1254
  424TMC3    O1 6334   2.399   4.609   0.728  0.2436  0.8894  0.4457
  424TMC3    O2 6335   2.819   4.353   1.171 -0.3948  0.0862 -0.1071
  425MPD2     C 6336   1.760   3.380  16.815  0.3349 -0.3865 -0.0656
  425MPD2    C1 6337   1.819   3.286  16.891  0.6500  1.2578  0.8575
  425MPD2    C2 6338   1.761   3.250  17.006  0.1677 -0.4357  0.3601
  425MPD2    C3 6339   1.647   3.300  17.057  0.1189 -0.4611 -0.7686
  425MPD2    C4 6340   1.576   3.385  16.974 -0.7025 -0.3595 -0.0558
  425MPD2    C5 6341   1.642   3.421  16.858  0.3215  0.0703  0.1318
  425MPD2     H 6342   1.815   3.174  17.061  1.2153  0.6147  0.7721
  425MPD2    H1 6343   1.483   3.437  16.997 -1.5456 -1.9730  0.1325
  425MPD2    H2 6344   1.801   3.430  16.728 -1.6994 -1.9703 -1.9378
  425MPD2    H3 6345   1.593   3.490  16.791  1.6537 -0.6763 -1.6193
  425MPD2     N 6346   1.592   3.254  17.177 -0.3022 -0.0558  0.2745
  425MPD2    H5 6347   1.650   3.183  17.219 -1.4074 -0.0801  1.7671
  425MPD2    N1 6348   1.940   3.230  16.856 -0.0584  0.3689 -0.3487
  425MPD2    H7 6349   1.978   3.173  16.931  1.9493  2.4333  0.2202
  426TMC3    C1 6350   2.128   3.157  16.774 -0.0989 -0.1665 -0.1933
  426TMC3    C2 6351   2.162   3.073  16.673 -0.4867 -0.6958 -0.7081
  426TMC3    C3 6352   2.238   2.967  16.711 -0.3903 -0.5356  0.1215
  426TMC3    C4 6353   2.170   3.154  16.904 -0.1507 -0.1036  0.2836
  426TMC3    C5 6354   2.250   3.047  16.929  0.1179  0.3863  0.2924
  426TMC3    C6 6355   2.287   2.955  16.838 -0.3098 -0.2970 -0.4069
  426TMC3     C 6356   2.016   3.241  16.749  0.3042 -0.3639 -0.2919
  426TMC3     O 6357   1.991   3.294  16.640  0.4148 -0.1293 -0.2517
  426TMC3     H 6358   2.117   3.072  16.574  1.4354  1.3499 -1.5925
  426TMC3    H1 6359   2.155   3.231  16.979  1.3309 -0.0574  0.5232
  426TMC3    H2 6360   2.344   2.868  16.868 -1.3331 -0.6341  0.5617
  426TMC3    C7 6361   2.295   3.022  17.064 -0.1380  0.2721  0.1388
  426TMC3    C8 6362   2.238   2.845  16.633 -0.4775 -0.8491 -0.0791
  426TMC3    O1 6363   2.366   2.921  17.074  0.3590 -0.1888 -0.2523
  426TMC3    O2 6364   2.348   2.789  16.622 -0.0527 -0.7657 -1.1087
  427MPD2     C 6365   0.884   1.072  14.885 -0.1585 -0.2896 -0.1086
  427MPD2    C1 6366   0.836   0.966  14.954  0.3152 -0.0375  0.0639
  427MPD2    C2 6367   0.711   0.922  14.928 -0.4447 -0.2471  0.1856
  427MPD2    C3 6368   0.620   1.003  14.851 -0.4842  0.2727 -0.4922
  427MPD2    C4 6369   0.670   1.121  14.800 -0.4763  0.0306 -0.6233
  427MPD2    C5 6370   0.804   1.150  14.813  0.1912  1.1653 -0.0904
  427MPD2     H 6371   0.674   0.830  14.972  0.7304 -0.6537  0.3136
  427MPD2    H1 6372   0.607   1.191  14.746  0.3179  1.3219  0.1433
  427MPD2    H2 6373   0.989   1.101  14.885 -0.4333  0.7329 -1.1917
  427MPD2    H3 6374   0.839   1.241  14.766 -0.3422  1.9119  0.9617
  427MPD2     N 6375   0.481   0.983  14.845 -0.6255 -0.2884  0.7972
  427MPD2    H5 6376   0.432   1.061  14.803 -1.4156  0.3376  2.8848
  427MPD2    N1 6377   0.914   0.893  15.047 -0.2057 -0.4487  1.0133
  427MPD2    H7 6378   0.878   0.802  15.076 -2.4913 -0.5064 -1.9674
  428TMC3    C1 6379   1.090   0.830  15.202  0.2979 -0.2725  0.5351
  428TMC3    C2 6380   0.995   0.770  15.283 -0.3201 -0.0629 -0.1207
  428TMC3    C3 6381   1.048   0.713  15.394  0.1065 -0.6100  0.4184
  428TMC3    C4 6382   1.221   0.850  15.240  0.4434 -0.3094 -0.6404
  428TMC3    C5 6383   1.265   0.799  15.361 -0.0277 -0.3586 -0.0277
  428TMC3    C6 6384   1.175   0.737  15.442 -0.0244  0.2075 -0.3592
  428TMC3     C 6385   1.037   0.921  15.095  0.0390 -0.5436 -0.2171
  428TMC3     O 6386   1.106   1.019  15.060 -0.8037  0.0723  0.3930
  428TMC3     H 6387   0.889   0.766  15.261 -0.0619 -3.0710 -0.7996
  428TMC3    H1 6388   1.289   0.908  15.178  2.2799 -1.6540  0.1449
  428TMC3    H2 6389   1.207   0.693  15.536 -1.9201 -1.1957 -0.3696
  428TMC3    C7 6390   1.402   0.812  15.412 -0.0080 -0.6778 -0.3339
  428TMC3    C8 6391   0.949   0.665  15.484  0.1372 -0.3180  0.0616
  428TMC3    O1 6392   1.428   0.775  15.528  0.3347 -0.0013 -1.0121
  428TMC3    O2 6393   0.837   0.634  15.438 -0.6437  0.3961  0.0129
  429MPD2     C 6394   2.348   1.288   0.232  0.3377  0.0056  0.4675
  429MPD2    C1 6395   2.320   1.171   0.159 -0.4236 -0.1319  0.3332
  429MPD2    C2 6396   2.333   1.179   0.024 -0.9766 -0.1262 -0.6736
  429MPD2    C3 6397   2.362   1.291  17.640 -0.3344  0.5607  0.0561
  429MPD2    C4 6398   2.386   1.403   0.022 -0.4800  0.1171  0.6314
  429MPD2    C5 6399   2.381   1.403   0.163  0.0067  0.3840 -0.1370
  429MPD2     H 6400   2.325   1.083  17.660  1.9330  0.0784 -1.5585
  429MPD2    H1 6401   2.423   1.493  17.659 -3.3012  1.4312  0.9018
  429MPD2    H2 6402   2.333   1.300   0.339 -0.1253 -2.2753  0.6532
  429MPD2    H3 6403   2.388   1.500   0.209  0.0396  0.1564  0.3378
  429MPD2     N 6404   2.376   1.278  17.507  0.0834 -0.5006 -0.1975
  429MPD2    H5 6405   2.372   1.184  17.471  1.8408 -1.0770  1.0953
  429MPD2    N1 6406   2.292   1.050   0.223 -0.3828 -0.1751 -0.7573
  429MPD2    H7 6407   2.286   0.965   0.167  0.4567 -0.6872 -0.0743
  430TMC3    C1 6408   2.381   1.331  17.285 -0.4865 -0.0652 -0.8516
  430TMC3    C2 6409   2.307   1.394  17.182 -0.2587  0.5952 -0.0188
  430TMC3    C3 6410   2.317   1.336  17.054  0.5254  0.6473  0.6122
  430TMC3    C4 6411   2.458   1.215  17.271  0.9312 -0.4951  0.1260
  430TMC3    C5 6412   2.465   1.162  17.145 -0.0942 -0.3421 -0.0929
  430TMC3    C6 6413   2.393   1.216  17.045  0.3858  0.3043 -0.4988
  430TMC3     C 6414   2.378   1.383  17.418 -0.3395  0.7235 -0.3060
  430TMC3     O 6415   2.329   1.494  17.435  0.7361  0.5440 -0.0870
  430TMC3     H 6416   2.239   1.477  17.196 -1.1730  0.1621 -1.9173
  430TMC3    H1 6417   2.528   1.181  17.346  0.1623 -1.7243  0.2677
  430TMC3    H2 6418   2.412   1.183  16.943  1.4762 -3.8011  1.0275
  430TMC3    C7 6419   2.483   1.020  17.156  0.7847  0.4042  0.2467
  430TMC3    C8 6420   2.225   1.360  16.941 -0.0179  0.4259 -0.2741
  430TMC3    O1 6421   2.418   0.957  17.238 -0.2468  0.1702 -0.1524
  430TMC3    O2 6422   2.247   1.302  16.835  0.2788  0.0516  0.6243
  431MPD2     C 6423   2.179   1.052  12.342 -0.2051 -0.0366 -0.5160
  431MPD2    C1 6424   2.279   1.036  12.261 -0.0712 -0.0281  1.0460
  431MPD2    C2 6425   2.301   0.915  12.201  0.3010 -0.7601 -0.4901
  431MPD2    C3 6426   2.222   0.804  12.217 -0.2283 -0.2608 -0.0971
  431MPD2    C4 6427   2.103   0.829  12.290  0.2980  0.5194  0.6368
  431MPD2    C5 6428   2.083   0.953  12.349  0.5985  0.3141 -0.5041
  431MPD2     H 6429   2.391   0.907  12.140 -0.2688 -1.2934 -1.2654
  431MPD2    H1 6430   2.036   0.746  12.307  0.3324  0.4984  0.6692
  431MPD2    H2 6431   2.146   1.143  12.391  0.1966 -0.3328  0.3064
  431MPD2    H3 6432   1.993   0.968  12.408  2.6325  2.1383  2.1423
  431MPD2     N 6433   2.248   0.684  12.149 -0.0706 -0.5869 -0.0986
  431MPD2    H5 6434   2.183   0.608  12.169  0.1425 -1.0852 -1.3395
  431MPD2    N1 6435   2.370   1.142  12.226 -0.0586  0.6231  0.2906
  431MPD2    H7 6436   2.434   1.121  12.150  0.2985 -1.3508  1.1304
  432TMC3    C1 6437   2.370   0.519  12.040 -0.8148  0.5072  0.8532
  432TMC3    C2 6438   2.421   0.484  11.915 -0.5744 -0.0892  1.2890
  432TMC3    C3 6439   2.415   0.352  11.886 -1.4351  0.2416 -0.6475
  432TMC3    C4 6440   2.344   0.425  12.138  0.3470  0.9205  1.1174
  432TMC3    C5 6441   2.373   0.295  12.113 -0.1648 -0.1624  0.6871
  432TMC3    C6 6442   2.391   0.257  11.982 -0.1411  0.4366 -0.1400
  432TMC3     C 6443   2.350   0.663  12.067 -0.5254 -0.0703  0.6342
  432TMC3     O 6444   2.435   0.736  12.024  0.4303 -0.2127  0.3469
  432TMC3     H 6445   2.443   0.566  11.847  0.0314 -0.4014  1.1163
  432TMC3    H1 6446   2.309   0.458  12.235 -0.3439 -0.5875  1.3800
  432TMC3    H2 6447   2.423   0.154  11.969 -1.3804  0.1462 -0.8962
  432TMC3    C7 6448   2.437   0.215  12.214 -0.4925  0.6209  0.5827
  432TMC3    C8 6449   2.494   0.331  11.772 -0.4494 -0.2858  0.3919
  432TMC3    O1 6450   2.459   0.093  12.194  0.3721 -0.0618 -0.3234
  432TMC3    O2 6451   2.455   0.244  11.696  0.3509 -0.1817 -0.0014
  433MPD2     C 6452   1.604   4.666  10.564  0.4508 -0.4471  0.0390
  433MPD2    C1 6453   1.593   4.565  10.653 -0.0568  0.0582 -0.5973
  433MPD2    C2 6454   1.641   4.588  10.784 -0.6919 -0.0579 -0.3610
  433MPD2    C3 6455   1.712   4.703  10.823 -0.6992  0.3112  0.0713
  433MPD2    C4 6456   1.721   0.081  10.723  0.6542  0.0084 -0.0516
  433MPD2    C5 6457   1.672   0.056  10.598 -0.4548  0.7658  0.6491
  433MPD2     H 6458   1.651   4.507  10.855  2.1656 -0.5605 -1.3540
  433MPD2    H1 6459   1.778   0.172  10.739 -1.2171  1.1168  0.2627
  433MPD2    H2 6460   1.557   4.664  10.467 -0.1169  0.9900  0.2850
  433MPD2    H3 6461   1.690   0.132  10.523  0.3419  1.4683  1.5305
  433MPD2     N 6462   1.774   4.702  10.953  0.0547 -0.4307  0.4168
  433MPD2    H5 6463   1.744   4.627  11.013  1.2437 -1.3652 -0.1713
  433MPD2    N1 6464   1.553   4.442  10.605 -0.1219  0.3165 -0.4695
  433MPD2    H7 6465   1.538   4.431  10.505  0.9040 -0.3419 -0.5478
  434TMC3    C1 6466   1.561   4.206  10.589  0.2790 -0.0746  0.4044
  434TMC3    C2 6467   1.616   4.101  10.651 -0.3268 -0.1708  0.5702
  434TMC3    C3 6468   1.705   4.021  10.586  0.4520  0.6548  0.0184
  434TMC3    C4 6469   1.585   4.227  10.457 -1.0984  0.1648  0.0191
  434TMC3    C5 6470   1.677   4.148  10.390 -0.0538  0.3641  0.4157
  434TMC3    C6 6471   1.741   4.045  10.456  0.8858 -0.4925 -0.5733
  434TMC3     C 6472   1.554   4.322  10.673 -0.4729 -0.0477  0.2320
  434TMC3     O 6473   1.548   4.305  10.794 -0.0812 -0.3517 -0.0541
  434TMC3     H 6474   1.609   4.092  10.759  0.5428 -1.2611  0.5310
  434TMC3    H1 6475   1.533   4.301  10.397 -1.2695  0.4217  0.4822
  434TMC3    H2 6476   1.797   3.986  10.383  1.0023 -2.4751  1.1263
  434TMC3    C7 6477   1.685   4.179  10.247  0.0792  0.3135  0.9133
  434TMC3    C8 6478   1.805   3.950  10.666  0.0603  0.0463  0.2313
  434TMC3    O1 6479   1.760   4.271  10.229 -0.0616  0.3844 -0.0333
  434TMC3    O2 6480   1.778   3.920  10.784 -0.0635 -0.2302 -0.3209
  435MPD2     C 6481   3.352   3.994  15.592 -0.5062 -0.7829  0.2735
  435MPD2    C1 6482   3.342   3.985  15.730 -0.5265  0.2451  0.0847
  435MPD2    C2 6483   3.450   3.930  15.803 -0.0298  0.3092  0.6830
  435MPD2    C3 6484   3.557   3.877  15.737 -0.4023  0.1488 -0.3002
  435MPD2    C4 6485   3.560   3.884  15.596 -0.1388 -0.0002  0.0809
  435MPD2    C5 6486   3.464   3.950  15.525 -0.0077 -0.0308  0.0217
  435MPD2     H 6487   3.465   3.944  15.910  1.2263  2.0467  0.2821
  435MPD2    H1 6488   3.653   3.859  15.547 -1.2250 -1.7377 -1.0880
  435MPD2    H2 6489   3.284   4.050  15.530 -0.4967  0.5880  1.5011
  435MPD2    H3 6490   3.458   3.949  15.416  1.7378  1.7984 -0.0827
  435MPD2     N 6491   3.660   3.824  15.819  0.9821 -0.2204 -0.0623
  435MPD2    H5 6492   3.660   3.840  15.919  2.0520 -1.3877  0.1302
  435MPD2    N1 6493   3.226   4.025  15.801 -0.0153  0.2026  0.3999
  435MPD2    H7 6494   3.234   4.010  15.901 -1.5027  0.6335  0.5897
  436TMC3    C1 6495   2.960   4.120  16.083  0.0253 -0.4793 -0.1163
  436TMC3    C2 6496   3.053   4.108  15.987  0.2881 -0.8385  0.4653
  436TMC3    C3 6497   3.010   4.093  15.859  0.1655 -0.9482  0.6371
  436TMC3    C4 6498   2.822   4.133  16.052  0.0567 -0.3644  0.0859
  436TMC3    C5 6499   2.788   4.115  15.916 -0.0752  0.5423 -0.5657
  436TMC3    C6 6500   2.879   4.092  15.813  0.5522  0.6398  0.5708
  436TMC3     C 6501   3.011   4.181  16.205  0.3669 -0.5093  0.0597
  436TMC3     O 6502   3.131   4.198  16.214 -0.4783 -0.5230 -0.0452
  436TMC3     H 6503   3.156   4.104  16.021 -0.4388 -1.9963  2.4676
  436TMC3    H1 6504   2.744   4.147  16.125 -0.3893 -1.8843 -0.1062
  436TMC3    H2 6505   2.844   4.066  15.715  0.5548  0.3720  0.6415
  436TMC3    C7 6506   2.647   4.101  15.880  0.2829 -0.4325 -0.1605
  436TMC3    C8 6507   3.109   4.080  15.758  0.3972 -0.0522  0.3120
  436TMC3    O1 6508   2.611   4.012  15.802 -0.5558 -0.2462 -0.0549
  436TMC3    O2 6509   3.073   4.114  15.643  0.2339  0.0758 -0.5769
  437TMC3    C1 6510   1.926   1.959  12.543  0.2133  0.4841  0.4730
  437TMC3    C2 6511   1.856   2.076  12.557  0.4966 -0.2464 -0.1005
  437TMC3    C3 6512   1.862   2.169  12.457 -0.2390 -0.9092  0.3187
  437TMC3    C4 6513   1.989   1.917  12.430  0.9581 -0.5381  0.0438
  437TMC3    C5 6514   2.009   2.021  12.342 -0.0893  0.3958  0.0025
  437TMC3    C6 6515   1.948   2.144  12.345 -1.2399  0.3468 -0.7235
  437TMC3     C 6516   1.896   1.870  12.656  0.1954  0.0107 -0.5174
  437TMC3     O 6517   1.786   1.886  12.714  0.2524  0.5415  0.7527
  437TMC3     H 6518   1.801   2.099  12.647  1.0442 -1.9178  0.6662
  437TMC3    H1 6519   2.029   1.817  12.414 -0.0016 -0.9479  0.2295
  437TMC3    H2 6520   1.966   2.220  12.269 -3.0918  0.1739 -1.3220
  437TMC3    C7 6521   2.094   1.992  12.227 -0.0476  0.1314 -0.1431
  437TMC3    C8 6522   1.880   2.306  12.507  0.5128  0.5168 -0.0850
  437TMC3    O1 6523   2.082   2.050  12.118  0.0433  0.3232  0.4552
  437TMC3    O2 6524   1.772   2.354  12.533  0.0742 -0.1204 -0.0920
  438MPD2     C 6525   4.541   1.730  16.668  0.5587 -0.6780 -0.3676
  438MPD2    C1 6526   4.561   1.849  16.734  0.0268 -0.2831 -0.4878
  438MPD2    C2 6527   4.551   1.848  16.869  0.6024  0.2647 -0.1008
  438MPD2    C3 6528   4.520   1.739  16.947 -0.0496  0.1415  0.2552
  438MPD2    C4 6529   4.478   1.629  16.873 -0.1970  0.9568  0.0697
  438MPD2    C5 6530   4.503   1.621  16.736 -0.5946 -0.7046 -0.9874
  438MPD2     H 6531   4.575   1.939  16.924  0.1519  0.2858  0.0694
  438MPD2    H1 6532   4.438   1.540  16.920  1.7860 -0.6262 -1.2050
  438MPD2    H2 6533   4.558   1.707  16.563 -1.5781 -1.9406 -0.4507
  438MPD2    H3 6534   4.488   1.529  16.679  2.4535 -2.1348  0.5246
  438MPD2     N 6535   4.509   1.735  17.091 -0.4910  0.4895 -0.3279
  438MPD2    H5 6536   4.475   1.650  17.133  0.2461  0.6778  0.6514
  438MPD2    N1 6537   4.614   1.965  16.675 -0.3701  0.8607  0.3470
  438MPD2    H7 6538   4.628   2.048  16.731  2.4676  2.3505 -2.5842
  439TMC3    C1 6539   0.038   2.073  16.503 -0.7507  0.5886 -0.6225
  439TMC3    C2 6540   0.094   2.071  16.384 -0.3013  0.3139 -0.2505
  439TMC3    C3 6541   0.221   2.122  16.364 -0.5928  0.5103 -0.6290
  439TMC3    C4 6542   0.101   2.135  16.606 -0.7899 -0.4581 -1.0447
  439TMC3    C5 6543   0.222   2.192  16.592 -0.3241 -0.3832 -0.2196
  439TMC3    C6 6544   0.281   2.186  16.471  0.9450 -0.0674  0.4108
  439TMC3     C 6545   4.656   1.970  16.540  0.2435 -0.6915  0.2498
  439TMC3     O 6546   4.623   1.904  16.443 -0.1884 -0.7702  0.3570
  439TMC3     H 6547   0.032   2.037  16.302  0.4839 -0.1258 -0.6684
  439TMC3    H1 6548   0.058   2.153  16.704  1.7681 -0.6768  0.1238
  439TMC3    H2 6549   0.380   2.221  16.443  1.1858 -0.6898  0.4948
  439TMC3    C7 6550   0.297   2.176  16.710 -0.3771  0.2581  0.2884
  439TMC3    C8 6551   0.307   2.043  16.278 -0.2365 -0.5220 -0.2871
  439TMC3    O1 6552   0.250   2.101  16.794  0.1109 -0.4003  0.2818
  439TMC3    O2 6553   0.428   2.062  16.288 -0.2163  0.3055 -0.7363
  440MPD2     C 6554   3.723   2.569  14.505 -0.2124 -0.1634 -0.8843
  440MPD2    C1 6555   3.691   2.636  14.622  0.8368 -0.3012  0.3360
  440MPD2    C2 6556   3.768   2.604  14.732  0.1520  0.6170 -0.3252
  440MPD2    C3 6557   3.889   2.528  14.719 -0.2499 -0.0652  0.0470
  440MPD2    C4 6558   3.912   2.455  14.602 -0.4973 -0.9707 -0.0328
  440MPD2    C5 6559   3.836   2.488  14.492  0.2690  0.4071  0.8393
  440MPD2     H 6560   3.745   2.656  14.824 -1.7749  0.0976 -0.5099
  440MPD2    H1 6561   3.992   2.383  14.590  1.6776  1.2181  1.3526
  440MPD2    H2 6562   3.656   2.574  14.420 -1.2456 -4.6057 -0.3428
  440MPD2    H3 6563   3.856   2.440  14.397 -0.0657 -0.4248  1.1912
  440MPD2     N 6564   3.980   2.514  14.821  0.2501 -0.3298  0.0793
  440MPD2    H5 6565   4.048   2.441  14.803  3.4834  2.5510  0.6208
  440MPD2    N1 6566   3.583   2.719  14.622 -0.4405 -0.4395 -0.5447
  440MPD2    H7 6567   3.534   2.728  14.534 -0.2190  1.4724 -0.4543
  441TMC3    C1 6568   4.086   2.580  15.023  0.1861 -0.1909 -0.0713
  441TMC3    C2 6569   4.102   2.693  15.089  0.2400  0.4562  0.3636
  441TMC3    C3 6570   4.171   2.678  15.207  0.6168  0.6419 -0.3661
  441TMC3    C4 6571   4.110   2.453  15.066  0.6923  0.9160 -0.3106
  441TMC3    C5 6572   4.183   2.441  15.181  0.5811  0.3385  0.2767
  441TMC3    C6 6573   4.208   2.553  15.253  0.4192 -0.8550 -0.2415
  441TMC3     C 6574   3.986   2.601  14.921  0.2035  0.5986  0.9093
  441TMC3     O 6575   3.931   2.712  14.935 -0.4646  0.1427 -0.9994
  441TMC3     H 6576   4.098   2.793  15.048  0.9731 -0.2291 -1.3633
  441TMC3    H1 6577   4.071   2.368  15.010 -1.4836  0.4398  1.8915
  441TMC3    H2 6578   4.231   2.536  15.357  0.3813  1.2477  0.1122
  441TMC3    C7 6579   4.151   2.319  15.249  0.4879  0.4964 -0.1692
  441TMC3    C8 6580   4.140   2.765  15.309  0.5819 -0.4973  0.6082
  441TMC3    O1 6581   4.046   2.264  15.214 -0.3239  0.5804  0.2477
  441TMC3    O2 6582   4.218   2.778  15.399  0.6443  0.4582 -0.4151
  442MPD2     C 6583   1.655   3.177  16.465  0.6317  0.1896  0.1857
  442MPD2    C1 6584   1.575   3.082  16.523  0.9535 -0.8047 -0.8358
  442MPD2    C2 6585   1.594   2.950  16.484 -0.1919 -0.5491  0.3318
  442MPD2    C3 6586   1.681   2.918  16.381 -0.0667 -0.9216  0.2001
  442MPD2    C4 6587   1.749   3.013  16.316  0.1252  0.0616 -0.8563
  442MPD2    C5 6588   1.741   3.137  16.363 -0.0658  0.0765  0.6840
  442MPD2     H 6589   1.527   2.876  16.525 -1.4773 -0.9220 -2.3950
  442MPD2    H1 6590   1.813   2.992  16.230  1.0350 -2.0986  0.3290
  442MPD2    H2 6591   1.642   3.283  16.483 -0.3281 -0.1977  1.7811
  442MPD2    H3 6592   1.790   3.215  16.306 -0.2037 -0.3935 -0.0788
  442MPD2     N 6593   1.704   2.787  16.337 -0.2061 -0.0123  0.2364
  442MPD2    H5 6594   1.756   2.784  16.250 -0.6498 -1.0701  0.0181
  442MPD2    N1 6595   1.483   3.114  16.624 -0.0124 -0.2897  0.5934
  442MPD2    H7 6596   1.445   3.034  16.674  0.5782  0.1477  1.7711
  443TMC3    C1 6597   1.360   3.255  16.772  0.5307 -0.0873 -0.1192
  443TMC3    C2 6598   1.266   3.355  16.761 -0.2459 -0.0313 -0.1375
  443TMC3    C3 6599   1.166   3.362  16.852  0.3533 -0.0048  0.3590
  443TMC3    C4 6600   1.376   3.175  16.888 -0.0341  0.0680 -0.2645
  443TMC3    C5 6601   1.272   3.190  16.984  0.6385  0.0387 -0.5212
  443TMC3    C6 6602   1.165   3.275  16.962  0.8521  0.0457 -0.1618
  443TMC3     C 6603   1.444   3.244  16.656 -0.5906  0.7462  0.0545
  443TMC3     O 6604   1.455   3.344  16.592  0.7325  0.4452  0.1339
  443TMC3     H 6605   1.254   3.401  16.663  0.5888  0.4397 -0.0192
  443TMC3    H1 6606   1.442   3.089  16.892 -0.8400 -0.4893  0.8373
  443TMC3    H2 6607   1.077   3.271  17.025 -0.9132  0.3858 -2.6151
  443TMC3    C7 6608   1.266   3.101  17.099 -0.3580 -0.5218 -0.8401
  443TMC3    C8 6609   1.049   3.453  16.840  0.1890 -0.0797  0.1331
  443TMC3    O1 6610   1.346   3.009  17.102  0.0473  0.0322  0.6247
  443TMC3    O2 6611   1.012   3.493  16.947  0.2555 -0.3455 -0.2911
  444MPD2     C 6612   2.109   2.173  17.039 -0.3242  0.6622  0.3683
  444MPD2    C1 6613   2.006   2.115  16.982 -1.3763  0.6844 -0.9501
  444MPD2    C2 6614   2.031   2.012  16.890 -0.1961  0.5548 -0.0788
  444MPD2    C3 6615   2.157   1.970  16.863 -0.1127 -0.1405 -0.1174
  444MPD2    C4 6616   2.261   2.036  16.929 -0.0843  0.2393 -0.4561
  444MPD2    C5 6617   2.235   2.137  17.010 -0.0139  0.4565  0.4371
  444MPD2     H 6618   1.950   1.974  16.829  0.4576 -1.2570  0.1779
  444MPD2    H1 6619   2.364   2.014  16.904 -0.1389 -1.1405  0.5897
  444MPD2    H2 6620   2.106   2.253  17.111 -2.1442  0.1377  0.8813
  444MPD2    H3 6621   2.314   2.195  17.057 -0.0502 -0.6458  1.8330
  444MPD2     N 6622   2.179   1.869  16.764 -0.0873  0.6120 -0.5157
  444MPD2    H5 6623   2.111   1.849  16.692  1.3876 -0.3137 -1.6694
  444MPD2    N1 6624   1.872   2.145  17.006 -0.2393 -0.0926  0.1058
  444MPD2    H7 6625   1.801   2.100  16.948 -0.4530  0.2287  0.1193
  445TMC3    C1 6626   2.292   1.687  16.668  0.6101  1.0255  0.4648
  445TMC3    C2 6627   2.186   1.674  16.582 -0.3509 -0.8012  0.0903
  445TMC3    C3 6628   2.194   1.572  16.492  0.0638  0.5088 -0.3275
  445TMC3    C4 6629   2.393   1.600  16.675 -0.3968  0.3065 -0.1728
  445TMC3    C5 6630   2.390   1.487  16.587 -0.0189  0.5925 -0.0431
  445TMC3    C6 6631   2.298   1.487  16.492 -0.5388  0.5265 -0.3319
  445TMC3     C 6632   2.281   1.781  16.777  0.3763  0.1333  0.1601
  445TMC3     O 6633   2.362   1.767  16.868  0.4132 -0.1809  0.0311
  445TMC3     H 6634   2.099   1.737  16.573  1.5555  1.6419 -1.3716
  445TMC3    H1 6635   2.480   1.615  16.737 -1.7749  1.6118  1.4370
  445TMC3    H2 6636   2.313   1.415  16.412  0.8145  0.9323 -0.4439
  445TMC3    C7 6637   2.531   1.453  16.548  0.1482  0.1407  0.3236
  445TMC3    C8 6638   2.128   1.576  16.361  0.5989  0.2606 -0.4813
  445TMC3    O1 6639   2.614   1.536  16.566 -0.1568 -0.1047 -0.0173
  445TMC3    O2 6640   2.136   1.476  16.288  0.2458  0.7040 -0.6972
  446MPD2     C 6641   1.703   3.665  11.243 -0.8199  0.1580 -0.2044
  446MPD2    C1 6642   1.650   3.732  11.141  0.3158  0.4015 -0.6569
  446MPD2    C2 6643   1.723   3.837  11.089 -0.0722  0.7491  0.9149
  446MPD2    C3 6644   1.841   3.882  11.147 -0.5315  0.0486  0.6185
  446MPD2    C4 6645   1.881   3.832  11.263 -0.5588 -0.7461  0.3017
  446MPD2    C5 6646   1.814   3.717  11.307  0.0027  0.9568 -0.8015
  446MPD2     H 6647   1.679   3.893  11.007  0.7873 -0.0170 -0.0451
  446MPD2    H1 6648   1.959   3.869  11.328 -2.0897  1.0690  1.1034
  446MPD2    H2 6649   1.668   3.572  11.286  1.8126 -0.9674 -0.4977
  446MPD2    H3 6650   1.851   3.673  11.399 -1.9027 -1.4061 -1.1567
  446MPD2     N 6651   1.918   3.984  11.078  0.5601 -0.1771  0.6403
  446MPD2    H5 6652   1.879   4.019  10.991 -1.3490 -0.9237  1.1989
  446MPD2    N1 6653   1.539   3.678  11.065 -0.1109  0.4086  0.1893
  446MPD2    H7 6654   1.507   3.738  10.990 -2.0798 -0.0203  0.6755
  447TMC3    C1 6655   2.076   4.152  11.041 -0.3956  0.1155 -0.8518
  447TMC3    C2 6656   2.012   4.181  10.923 -0.1730  0.4307  0.6033
  447TMC3    C3 6657   2.082   4.262  10.843  0.2373 -0.3571 -0.0687
  447TMC3    C4 6658   2.199   4.199  11.074 -0.4344 -0.4467 -0.0274
  447TMC3    C5 6659   2.265   4.276  10.988 -0.1266  0.1730  0.1838
  447TMC3    C6 6660   2.205   4.313  10.870  0.1622 -0.0553 -0.6912
  447TMC3     C 6661   2.019   4.049  11.127 -0.2743  0.3402 -0.1535
  447TMC3     O 6662   2.087   4.020  11.223 -0.5600 -0.4251 -0.6803
  447TMC3     H 6663   1.910   4.151  10.901 -0.0484 -1.3440  2.3937
  447TMC3    H1 6664   2.261   4.153  11.149 -0.9676 -2.9642 -1.1054
  447TMC3    H2 6665   2.254   4.390  10.812 -0.2859 -1.7008 -3.2805
  447TMC3    C7 6666   2.405   4.311  11.001 -0.5879 -0.6232 -0.4381
  447TMC3    C8 6667   2.025   4.295  10.722  0.4793  0.9225  0.1206
  447TMC3    O1 6668   2.462   4.356  10.904  0.0128 -0.1392 -0.0382
  447TMC3    O2 6669   1.905   4.301  10.716 -0.5759  0.0091 -0.3283
  448TMC3    C1 6670   4.362   3.685  16.484 -0.2620 -0.3538  0.5427
  448TMC3    C2 6671   4.416   3.578  16.427  0.3876 -0.1306  0.5614
  448TMC3    C3 6672   4.527   3.526  16.490  0.1495 -0.5234 -0.3751
  448TMC3    C4 6673   4.401   3.727  16.610  0.1203  1.1619  0.4328
  448TMC3    C5 6674   4.501   3.664  16.677  0.4324 -0.6515 -0.2412
  448TMC3    C6 6675   4.574   3.567  16.614  0.6915  0.6243  0.3704
  448TMC3     C 6676   4.259   3.758  16.394  0.0543 -0.0928 -0.9334
  448TMC3     O 6677   4.237   3.702  16.287 -0.5081 -0.3014 -0.2361
  448TMC3     H 6678   4.361   3.515  16.358 -1.3144  3.1869 -1.0839
  448TMC3    H1 6679   4.339   3.805  16.652  0.5845  1.2125  1.0242
  448TMC3    H2 6680   4.650   3.513  16.670  0.5379 -0.3753 -0.3811
  448TMC3    C7 6681   4.538   3.724  16.802 -0.0853  0.1334 -0.5597
  448TMC3    C8 6682   4.577   3.403  16.440  0.5485 -0.1127 -0.2240
  448TMC3    O1 6683   4.520   3.843  16.810 -0.3838 -0.0528 -0.3389
  448TMC3    O2 6684   4.631   3.327  16.519  0.4362  0.1484 -0.8007
  449MPD2     C 6685   1.315   1.985  13.945 -0.4433 -0.0480  0.5323
  449MPD2    C1 6686   1.231   2.087  13.906 -1.0951  0.2498 -0.1700
  449MPD2    C2 6687   1.096   2.066  13.879 -0.5767  0.1166 -0.2884
  449MPD2    C3 6688   1.041   1.944  13.884 -0.2635  0.5879 -0.6338
  449MPD2    C4 6689   1.113   1.837  13.921  0.3680 -0.3872 -0.3497
  449MPD2    C5 6690   1.247   1.859  13.951  0.7850 -0.0743 -0.2219
  449MPD2     H 6691   1.030   2.146  13.849  0.0676  1.3091  1.4798
  449MPD2    H1 6692   1.079   1.734  13.925  0.1203 -0.3636 -1.9034
  449MPD2    H2 6693   1.416   2.002  13.982  0.7271 -2.2166 -1.7116
  449MPD2    H3 6694   1.303   1.770  13.978  0.2819 -0.5336 -0.6880
  449MPD2     N 6695   0.901   1.945  13.856 -0.1659  0.0701 -0.4625
  449MPD2    H5 6696   0.858   2.033  13.828  0.8508  1.8660  3.7045
  449MPD2    N1 6697   1.263   2.221  13.896 -0.0163 -0.5253 -0.6014
  449MPD2    H7 6698   1.183   2.281  13.885  0.0493 -0.3459 -0.0953
  450TMC3    C1 6699   1.368   2.424  13.864  0.0902  0.2165  0.3244
  450TMC3    C2 6700   1.439   2.459  13.752 -0.7135 -0.2265 -0.0218
  450TMC3    C3 6701   1.387   2.558  13.677 -0.4343 -0.1168  0.6466
  450TMC3    C4 6702   1.242   2.475  13.886  0.0335  0.6594 -0.1707
  450TMC3    C5 6703   1.187   2.564  13.800  0.8764 -0.4987 -0.5796
  450TMC3    C6 6704   1.259   2.612  13.697 -0.5203 -0.0469  0.4337
  450TMC3     C 6705   1.383   2.281  13.895  0.1635 -0.2792  0.7640
  450TMC3     O 6706   1.492   2.235  13.885  0.1913 -0.2040  0.0012
  450TMC3     H 6707   1.542   2.431  13.739 -0.4271  0.3420  1.0017
  450TMC3    H1 6708   1.188   2.461  13.978  0.7765 -1.7412 -0.0979
  450TMC3    H2 6709   1.228   2.668  13.609  0.2529  3.1257  2.1769
  450TMC3    C7 6710   1.049   2.535  13.758 -0.2539  0.0299  0.1048
  450TMC3    C8 6711   1.443   2.604  13.556 -0.2963  0.1052  0.0077
  450TMC3    O1 6712   1.000   2.455  13.835  0.3063 -0.1349  0.4681
  450TMC3    O2 6713   1.459   2.722  13.544  0.1431 -0.0694  0.5021
  451MPD2     C 6714   2.557   1.242   2.043  0.0084  0.0791  0.1857
  451MPD2    C1 6715   2.624   1.294   1.931 -0.1333 -0.4186 -0.0582
  451MPD2    C2 6716   2.693   1.206   1.848  0.2511  0.8074  0.2957
  451MPD2    C3 6717   2.691   1.070   1.867  0.1936  0.7266 -0.1299
  451MPD2    C4 6718   2.631   1.021   1.977  0.1837 -0.4787  0.5651
  451MPD2    C5 6719   2.568   1.105   2.067 -0.2580  0.4349  0.7995
  451MPD2     H 6720   2.745   1.246   1.761 -0.9380 -2.4957 -1.9223
  451MPD2    H1 6721   2.625   0.916   2.002  0.4054 -0.7461 -0.5161
  451MPD2    H2 6722   2.498   1.296   2.116  1.1726 -3.1440  3.4885
  451MPD2    H3 6723   2.505   1.071   2.148 -0.0052 -1.3989  0.2290
  451MPD2     N 6724   2.738   0.985   1.758 -0.1062 -0.4304  0.9406
  451MPD2    H5 6725   2.743   0.885   1.777  1.3304 -0.3908  0.7206
  451MPD2    N1 6726   2.608   1.431   1.902  0.2792 -0.2279 -0.1627
  451MPD2    H7 6727   2.519   1.469   1.934 -1.0416 -1.5481 -2.2709
  452TMC3    C1 6728   2.848   0.915   1.556 -0.7167  0.1668 -0.4159
  452TMC3    C2 6729   2.913   0.822   1.629 -0.2492  0.1736 -0.6403
  452TMC3    C3 6730   2.956   0.705   1.562 -0.1177  0.4904  0.0522
  452TMC3    C4 6731   2.827   0.899   1.422 -0.5668 -0.5419 -0.1254
  452TMC3    C5 6732   2.861   0.781   1.364  0.6048  0.3413  0.1014
  452TMC3    C6 6733   2.937   0.693   1.425 -0.0457  0.0992 -0.3784
  452TMC3     C 6734   2.763   1.015   1.623  0.1466 -0.3955  0.0721
  452TMC3     O 6735   2.716   1.108   1.562 -0.5930  0.3632 -0.4596
  452TMC3     H 6736   2.958   0.839   1.726 -3.1087  0.5753  0.6205
  452TMC3    H1 6737   2.784   0.978   1.361  2.2861  0.6448 -0.6047
  452TMC3    H2 6738   2.960   0.604   1.366 -2.3585 -0.0280 -1.0885
  452TMC3    C7 6739   2.808   0.761   1.230 -0.6694 -0.3247 -0.4391
  452TMC3    C8 6740   3.022   0.603   1.642  0.3738  0.7564 -0.1686
  452TMC3    O1 6741   2.832   0.843   1.142  0.3074  0.3374  0.0336
  452TMC3    O2 6742   2.991   0.599   1.761  0.3582  0.4748 -0.4683
  453TMC3    C1 6743   3.874   2.660  11.794  0.3130  0.2845 -0.1754
  453TMC3    C2 6744   3.748   2.614  11.827 -0.0290 -0.4593 -0.2280
  453TMC3    C3 6745   3.686   2.544  11.728  0.9023  0.2244 -0.5532
  453TMC3    C4 6746   3.932   2.631  11.676  0.5196  0.5950  0.1150
  453TMC3    C5 6747   3.860   2.567  11.577 -0.9358 -0.1817 -0.4310
  453TMC3    C6 6748   3.732   2.527  11.603 -0.4087 -0.0267 -0.7473
  453TMC3     C 6749   3.949   2.729  11.893 -0.6464  0.4815  0.2763
  453TMC3     O 6750   4.070   2.734  11.877 -0.2094 -0.8245  0.0150
  453TMC3     H 6751   3.699   2.635  11.922  0.3767  1.5229 -0.4557
  453TMC3    H1 6752   4.030   2.670  11.653  0.2695  0.8959 -0.4391
  453TMC3    H2 6753   3.668   2.464  11.542  2.1235 -0.8707 -2.5473
  453TMC3    C7 6754   3.924   2.492  11.478 -0.2667 -0.0767  0.0224
  453TMC3    C8 6755   3.578   2.448  11.766  0.0618 -0.2581  1.4156
  453TMC3    O1 6756   4.021   2.544  11.427  0.1605 -0.1606 -0.3053
  453TMC3    O2 6757   3.490   2.421  11.685  0.1599  0.1468 -0.4967
  454MPD2     C 6758   2.871   1.732  16.478 -0.1990 -0.0452 -0.2004
  454MPD2    C1 6759   2.832   1.862  16.471  0.0927  0.2089 -0.7436
  454MPD2    C2 6760   2.799   1.928  16.590 -0.1291  0.4630 -0.8562
  454MPD2    C3 6761   2.792   1.851  16.709 -0.0314  0.0864 -0.0032
  454MPD2    C4 6762   2.839   1.724  16.707  0.4916  0.5447 -0.1378
  454MPD2    C5 6763   2.875   1.665  16.598  0.0148 -0.4406  0.7154
  454MPD2     H 6764   2.763   2.030  16.585 -1.7223 -0.0885 -0.9714
  454MPD2    H1 6765   2.842   1.666  16.798  0.4483  0.3813 -0.2410
  454MPD2    H2 6766   2.885   1.667  16.393 -0.2758 -0.7399  0.3247
  454MPD2    H3 6767   2.904   1.561  16.609 -0.5116 -0.8643 -1.7274
  454MPD2     N 6768   2.735   1.897  16.826  0.4083  0.1589 -0.3347
  454MPD2    H5 6769   2.769   1.857  16.913  0.9587  0.9318 -0.1986
  454MPD2    N1 6770   2.803   1.926  16.345 -0.0328 -0.2813 -0.4391
  454MPD2    H7 6771   2.779   2.024  16.357 -0.1632 -0.4684  0.7978
  455TMC3    C1 6772   2.555   2.039  16.728  0.1169 -0.0674  0.1347
  455TMC3    C2 6773   2.490   2.157  16.744 -0.4508  0.1020 -0.0775
  455TMC3    C3 6774   2.400   2.199  16.640 -0.3999 -0.1767  0.2904
  455TMC3    C4 6775   2.513   1.953  16.626 -0.3640 -0.4737  0.0294
  455TMC3    C5 6776   2.432   1.999  16.523  1.1712 -0.0123 -0.6473
  455TMC3    C6 6777   2.370   2.125  16.529 -0.2739 -0.3903  0.1021
  455TMC3     C 6778   2.634   1.991  16.841 -0.6913 -0.2083 -0.9389
  455TMC3     O 6779   2.595   2.024  16.952 -0.4764 -0.9010 -0.1324
  455TMC3     H 6780   2.503   2.216  16.834  1.0822 -3.6102  2.1288
  455TMC3    H1 6781   2.543   1.848  16.633 -2.1170 -0.9257  0.7123
  455TMC3    H2 6782   2.295   2.166  16.463  1.0259  1.0803 -0.4811
  455TMC3    C7 6783   2.379   1.917  16.417 -0.4110 -0.3443 -0.7394
  455TMC3    C8 6784   2.342   2.331  16.667  0.8903  0.0572 -0.9109
  455TMC3    O1 6785   2.265   1.939  16.377  0.1129  0.1259  0.0357
  455TMC3    O2 6786   2.407   2.415  16.726  0.1355 -0.1331 -0.2575
  456MPD2     C 6787   0.242   2.104  15.858 -0.5549 -0.0277 -0.3945
  456MPD2    C1 6788   0.357   2.147  15.922 -0.1851  0.2075  0.1174
  456MPD2    C2 6789   0.339   2.253  16.013  0.5704  0.3852  0.2372
  456MPD2    C3 6790   0.223   2.314  16.040  0.1237  0.1755  0.5198
  456MPD2    C4 6791   0.109   2.278  15.971 -0.1533  0.1202  0.0271
  456MPD2    C5 6792   0.121   2.174  15.878  0.2290  0.3680  0.2367
  456MPD2     H 6793   0.421   2.296  16.070 -0.8875 -0.6500  3.1628
  456MPD2    H1 6794   0.011   2.322  15.983 -0.2212 -0.0427  0.0718
  456MPD2    H2 6795   0.239   2.015  15.796  1.0669  0.7580 -1.6069
  456MPD2    H3 6796   0.030   2.136  15.833 -0.0505  0.5561  0.6395
  456MPD2     N 6797   0.225   2.414  16.140  0.1591 -0.2128  0.6229
  456MPD2    H5 6798   0.307   2.435  16.196  0.2526  1.0719  0.0150
  456MPD2    N1 6799   0.476   2.084  15.899 -0.0578 -0.3256 -0.4971
  456MPD2    H7 6800   0.483   2.015  15.825 -0.3342  2.6481 -3.2466
  457TMC3    C1 6801   0.144   2.585  16.279 -0.5849 -0.0283  0.0443
  457TMC3    C2 6802   0.144   2.719  16.248 -0.2267  0.2921  0.6287
  457TMC3    C3 6803   0.179   2.806  16.346  0.0362  0.8698  0.5383
  457TMC3    C4 6804   0.192   2.537  16.396  0.0173 -0.0881  0.3327
  457TMC3    C5 6805   0.239   2.624  16.486  0.1108 -0.5887  0.7654
  457TMC3    C6 6806   0.224   2.761  16.460  0.1705 -0.0346 -0.0342
  457TMC3     C 6807   0.112   2.489  16.180 -0.2998  0.6019  0.0646
  457TMC3     O 6808   0.012   2.514  16.112 -0.0315 -0.5760 -0.1668
  457TMC3     H 6809   0.089   2.748  16.159  1.1284  0.5352 -0.1311
  457TMC3    H1 6810   0.188   2.432  16.424 -1.4582 -0.1675 -0.1414
  457TMC3    H2 6811   0.243   2.832  16.540  1.2129  0.1056 -0.4094
  457TMC3    C7 6812   0.278   2.583  16.615 -0.0844 -0.5254 -0.7796
  457TMC3    C8 6813   0.125   2.943  16.341  0.6396  0.1726 -0.9228
  457TMC3    O1 6814   0.232   2.476  16.654  0.0892 -0.3885  0.2744
  457TMC3    O2 6815   0.099   2.998  16.443 -0.6930  0.5715  0.0066
  458MPD2     C 6816   2.549   1.833  12.028  0.3974 -0.3086 -0.2170
  458MPD2    C1 6817   2.543   1.826  12.167  0.4213 -0.0650  0.7642
  458MPD2    C2 6818   2.430   1.853  12.244  0.1828 -0.6759 -0.2475
  458MPD2    C3 6819   2.319   1.897  12.184 -0.0376 -0.8412  0.0863
  458MPD2    C4 6820   2.318   1.905  12.043  0.7581 -0.7646  0.0868
  458MPD2    C5 6821   2.432   1.877  11.968 -0.0208  0.1400 -0.7091
  458MPD2     H 6822   2.423   1.839  12.352 -1.9198  1.1794 -0.1591
  458MPD2    H1 6823   2.226   1.927  11.988 -0.6813 -1.0581  2.3985
  458MPD2    H2 6824   2.637   1.820  11.966  1.6466  0.7642  1.3530
  458MPD2    H3 6825   2.426   1.897  11.861 -0.7439  2.3764 -0.2428
  458MPD2     N 6826   2.204   1.921  12.268  0.7446 -0.0693 -0.3606
  458MPD2    H5 6827   2.203   1.885  12.363  2.0865 -0.0236 -0.3245
  458MPD2    N1 6828   2.668   1.785  12.229 -0.1710  0.0453  0.0540
  458MPD2    H7 6829   2.755   1.780  12.176 -1.4495  1.5937 -2.2201
  459TMC3    C1 6830   2.803   1.769  12.424 -0.4161  0.0093 -1.0000
  459TMC3    C2 6831   2.907   1.846  12.375 -0.4573 -0.5143 -0.3156
  459TMC3    C3 6832   3.005   1.882  12.465  0.2569 -0.2187  0.4347
  459TMC3    C4 6833   2.810   1.716  12.557  0.2374 -0.4522  0.7153
  459TMC3    C5 6834   2.908   1.762  12.643  0.1857 -0.7733  0.6454
  459TMC3    C6 6835   3.007   1.845  12.596  0.0969  0.4412  0.0757
  459TMC3     C 6836   2.673   1.748  12.362  0.2582 -0.5416 -0.5270
  459TMC3     O 6837   2.582   1.689  12.425  0.3923 -0.6440  0.2174
  459TMC3     H 6838   2.894   1.878  12.273 -1.5570 -2.5604 -0.8355
  459TMC3    H1 6839   2.732   1.651  12.594  0.9925 -1.1141  1.1446
  459TMC3    H2 6840   3.093   1.880  12.652  0.2037  0.4720 -0.1064
  459TMC3    C7 6841   2.936   1.681  12.763 -0.6149  0.5253  0.3807
  459TMC3    C8 6842   3.115   1.952  12.412  0.4648  0.6518  0.8757
  459TMC3    O1 6843   2.909   1.563  12.767 -0.0242  0.1534  0.4705
  459TMC3    O2 6844   3.218   1.953  12.479 -0.4508  0.0375 -0.0132
  460MPD2     C 6845   2.180   4.370  10.405 -0.2948 -0.2546 -0.1712
  460MPD2    C1 6846   2.083   4.367  10.492  0.2757  0.5184 -0.1564
  460MPD2    C2 6847   1.971   4.440  10.467 -0.5365 -0.2053  0.1724
  460MPD2    C3 6848   1.945   4.503  10.349 -0.1793  0.4664  0.0528
  460MPD2    C4 6849   2.045   4.497  10.248  0.2556  0.0310  0.0156
  460MPD2    C5 6850   2.157   4.427  10.284  0.0545 -0.9267 -0.1749
  460MPD2     H 6851   1.896   4.458  10.544  0.6246 -0.3457  1.3299
  460MPD2    H1 6852   2.032   4.533  10.147 -1.1038 -1.2235 -0.2621
  460MPD2    H2 6853   2.277   4.323  10.420 -0.1207 -0.1946 -1.1263
  460MPD2    H3 6854   2.230   4.433  10.204  0.7052  0.7541  0.5502
  460MPD2     N 6855   1.822   4.569  10.323  0.2430  0.6668  0.3145
  460MPD2    H5 6856   1.752   4.568  10.397 -0.8607 -0.9517 -0.7642
  460MPD2    N1 6857   2.111   4.315  10.616  0.2164 -0.0166 -0.1636
  460MPD2    H7 6858   2.206   4.280  10.622 -0.4136 -1.5978  0.5056
  461TMC3    C1 6859   1.650   4.672  10.212 -0.0322 -0.7959 -0.6050
  461TMC3    C2 6860   1.577   4.559  10.168 -0.5543 -0.2346  0.6906
  461TMC3    C3 6861   1.456   4.578  10.106 -0.4471 -0.6075 -0.9755
  461TMC3    C4 6862   1.604   0.081  10.197 -0.0179  0.4772  0.6318
  461TMC3    C5 6863   1.481   0.098  10.132  0.0537 -0.6435 -0.8892
  461TMC3    C6 6864   1.407   4.706  10.097 -0.2140 -0.4037  0.5485
  461TMC3     C 6865   1.793   4.655  10.221  0.0264  0.2184 -0.1862
  461TMC3     O 6866   1.866   4.692  10.131 -0.3159  0.2754 -0.0036
  461TMC3     H 6867   1.611   4.460  10.197  0.9578  1.0857  3.3685
  461TMC3    H1 6868   1.672   0.161  10.224 -0.3549  0.8035  0.4997
  461TMC3    H2 6869   1.316   4.717  10.040 -0.2544 -1.7642  0.3453
  461TMC3    C7 6870   1.442   0.226  10.082  0.1195 -0.8592  0.9584
  461TMC3    C8 6871   1.417   4.482  10.009 -0.2337  0.1440  0.5339
  461TMC3    O1 6872   1.343   0.223  10.009 -0.8572  0.2474  0.2728
  461TMC3    O2 6873   1.464   4.372  10.030 -0.0236 -0.6375 -0.1763
  462TMC3    C1 6874   2.253   4.228   0.559 -0.9993  0.1447  0.0107
  462TMC3    C2 6875   2.345   4.158   0.481 -0.0680 -0.3394 -0.6428
  462TMC3    C3 6876   2.298   4.131   0.351 -0.7267 -0.3749 -0.5476
  462TMC3    C4 6877   2.130   4.268   0.523  1.1316 -0.1773  0.2710
  462TMC3    C5 6878   2.093   4.238   0.392 -0.6327  0.8038  0.0689
  462TMC3    C6 6879   2.172   4.170   0.307  0.0949 -0.4123  1.1047
  462TMC3     C 6880   2.307   4.262   0.690  0.4673 -0.1257 -0.5746
  462TMC3     O 6881   2.425   4.234   0.705 -0.1363  0.0149 -0.1779
  462TMC3     H 6882   2.433   4.108   0.518  0.2587 -0.1036 -1.1150
  462TMC3    H1 6883   2.056   4.301   0.594  1.4449  2.5386 -0.6801
  462TMC3    H2 6884   2.141   4.149   0.205  3.7525 -0.0978 -0.0439
  462TMC3    C7 6885   1.961   4.271   0.335 -0.6542  0.2746  0.2105
  462TMC3    C8 6886   2.352   4.014   0.286 -0.0981 -0.1785  0.0966
  462TMC3    O1 6887   1.894   4.182   0.284 -0.1234 -0.0043  0.7619
  462TMC3    O2 6888   2.412   3.935   0.353  0.1368 -0.0529 -0.0960
  463MPD2     C 6889   2.862   4.256   1.747  1.4453 -0.0766 -0.1967
  463MPD2    C1 6890   2.744   4.309   1.788  0.2358 -0.2793 -0.0002
  463MPD2    C2 6891   2.712   4.440   1.753  0.3925 -0.5666 -0.2513
  463MPD2    C3 6892   2.800   4.513   1.672  0.5447  0.6223 -0.0284
  463MPD2    C4 6893   2.910   4.447   1.626 -0.9138  0.3763  0.4706
  463MPD2    C5 6894   2.951   4.322   1.678  0.0949  0.2088  0.1757
  463MPD2     H 6895   2.619   4.487   1.782  1.4779  1.3766  0.1698
  463MPD2    H1 6896   2.973   4.487   1.548 -0.0705 -1.6111  0.1304
  463MPD2    H2 6897   2.888   4.153   1.768 -1.8495 -0.7025  0.7727
  463MPD2    H3 6898   3.041   4.271   1.648  1.2222  3.6378 -2.3301
  463MPD2     N 6899   2.769   4.632   1.603 -0.3001  0.0307  0.6033
  463MPD2    H5 6900   2.825   4.664   1.525  0.9260 -1.8190  0.7263
  463MPD2    N1 6901   2.639   4.231   1.849  0.1650  0.3921  0.4409
  463MPD2    H7 6902   2.553   4.282   1.861 -0.6108 -0.5299 -1.1339
  464TMC3    C1 6903   2.522   4.044   1.900 -0.7215  0.1795  0.2136
  464TMC3    C2 6904   2.403   4.104   1.857  0.2671  0.6500 -0.2062
  464TMC3    C3 6905   2.284   4.036   1.859 -1.1147  0.2520 -1.0114
  464TMC3    C4 6906   2.514   3.914   1.946 -0.5080  0.0068  0.2089
  464TMC3    C5 6907   2.402   3.851   1.938 -0.3792 -0.2453 -0.6630
  464TMC3    C6 6908   2.284   3.903   1.888 -0.8356  0.3101  0.0488
  464TMC3     C 6909   2.652   4.101   1.882  0.2420 -0.4724  0.2018
  464TMC3     O 6910   2.753   4.033   1.906 -0.5977 -0.3670 -0.2997
  464TMC3     H 6911   2.402   4.203   1.812 -1.5739  0.3743 -0.7779
  464TMC3    H1 6912   2.602   3.868   1.991 -2.0866 -1.6087  1.6882
  464TMC3    H2 6913   2.191   3.846   1.889 -0.1659 -0.8021 -1.1828
  464TMC3    C7 6914   2.428   3.717   1.881  0.8384  0.8303  0.5249
  464TMC3    C8 6915   2.177   4.077   1.770  0.2458  0.1215 -0.3725
  464TMC3    O1 6916   2.538   3.671   1.898  0.2671 -0.8619  0.1099
  464TMC3    O2 6917   2.132   3.994   1.699  0.7397  0.0487 -0.5985
  465MPD2     C 6918   4.118   1.692  17.003 -0.2101 -0.2149 -0.1681
  465MPD2    C1 6919   4.022   1.727  17.094  0.0087  0.7511  0.8490
  465MPD2    C2 6920   3.912   1.793  17.043  0.4736  0.3425  0.0035
  465MPD2    C3 6921   3.899   1.836  16.913 -0.5945 -0.5089  0.4663
  465MPD2    C4 6922   4.004   1.818  16.826 -0.3031  0.1731  0.3909
  465MPD2    C5 6923   4.117   1.745  16.872  0.6811 -0.7270 -0.0252
  465MPD2     H 6924   3.827   1.800  17.109 -0.1740  0.3107 -0.8178
  465MPD2    H1 6925   3.993   1.856  16.725 -1.7606  1.6413  1.1006
  465MPD2    H2 6926   4.206   1.630  17.013 -1.1704 -1.2726  1.7938
  465MPD2    H3 6927   4.202   1.748  16.805 -1.0367 -0.6367 -2.2312
  465MPD2     N 6928   3.776   1.899  16.873 -0.2970 -0.1766  0.3248
  465MPD2    H5 6929   3.710   1.916  16.947 -0.2805 -1.1026  0.5521
  465MPD2    N1 6930   4.030   1.690  17.229  0.0743 -0.0690 -0.3389
  465MPD2    H7 6931   3.942   1.701  17.280  0.0845 -1.5425  0.0021
  466TMC3    C1 6932   3.453   2.118  16.885  0.2556  0.9705 -0.3612
  466TMC3    C2 6933   3.450   2.231  16.809  0.0203  0.3020  0.9315
  466TMC3    C3 6934   3.530   2.235  16.696  0.3382  0.1099 -0.4664
  466TMC3    C4 6935   3.529   2.010  16.853  0.5760  0.4622  0.6838
  466TMC3    C5 6936   3.607   2.019  16.740  0.0803  0.0216  0.5869
  466TMC3    C6 6937   3.605   2.132  16.660 -0.5377  0.2693  0.6422
  466TMC3     C 6938   3.483   2.145  17.024 -0.0681 -0.3465  0.0666
  466TMC3     O 6939   3.588   2.098  17.065 -0.3672 -0.3658  0.2115
  466TMC3     H 6940   3.402   2.324  16.839  0.2606  1.2753 -1.7300
  466TMC3    H1 6941   3.535   1.918  16.911  0.7115 -0.2886 -0.5154
  466TMC3    H2 6942   3.673   2.136  16.575 -0.6771  2.9520  0.6502
  466TMC3    C7 6943   3.740   1.949  16.752 -0.2020  0.3033  0.5420
  466TMC3    C8 6944   3.557   2.349  16.617  0.2379  0.9492  0.1715
  466TMC3    O1 6945   3.814   1.968  16.658  0.1392  0.1361  0.5979
  466TMC3    O2 6946   3.603   2.333  16.504  0.1218  0.5507 -0.1213
  467TMC3    C1 6947   0.018   1.248  13.440  0.6690  0.4249 -0.2889
  467TMC3    C2 6948   0.073   1.269  13.318  0.3028  0.5915  0.5566
  467TMC3    C3 6949   4.703   1.257  13.214  0.0307  0.0569 -0.1749
  467TMC3    C4 6950   4.603   1.235  13.460  0.1100 -0.2396  0.1205
  467TMC3    C5 6951   4.525   1.232  13.348  0.5920  0.5931  0.2499
  467TMC3    C6 6952   4.568   1.245  13.221 -0.8499  0.0272  0.0007
  467TMC3     C 6953   0.101   1.219  13.548 -0.0431  0.3015 -0.8044
  467TMC3     O 6954   0.210   1.269  13.549 -0.3830 -0.0628  0.2180
  467TMC3     H 6955   0.177   1.245  13.299 -0.0651 -1.9331  1.7942
  467TMC3    H1 6956   4.554   1.234  13.556  0.8973  0.3764  0.5292
  467TMC3    H2 6957   4.500   1.258  13.137 -0.7043 -0.6510 -0.2222
  467TMC3    C7 6958   4.380   1.248  13.357  0.0514 -0.2286  0.8359
  467TMC3    C8 6959   0.028   1.321  13.099 -0.5813  0.4932 -0.3305
  467TMC3    O1 6960   4.332   1.316  13.265 -0.0853  0.6174  0.3676
  467TMC3    O2 6961   4.693   1.300  12.991 -0.0264  0.1493 -0.4572
  468MPD2     C 6962   3.669   3.639  10.274  0.0204  0.5035 -0.1003
  468MPD2    C1 6963   3.788   3.671  10.347  0.2202  0.3653 -0.0374
  468MPD2    C2 6964   3.840   3.572  10.425 -0.9085  0.4049 -0.4017
  468MPD2    C3 6965   3.772   3.453  10.457 -0.5260 -0.5786  1.1274
  468MPD2    C4 6966   3.650   3.429  10.392 -0.4760 -0.6672  0.1352
  468MPD2    C5 6967   3.601   3.518  10.295 -0.7522  0.0127 -0.0819
  468MPD2     H 6968   3.932   3.593  10.480  0.4610  0.5771 -2.7412
  468MPD2    H1 6969   3.586   3.347  10.419  0.6433 -1.1311  1.3628
  468MPD2    H2 6970   3.635   3.699  10.191  0.3420  3.6189  2.0085
  468MPD2    H3 6971   3.509   3.487  10.247 -0.1182 -0.7361 -0.8156
  468MPD2     N 6972   3.811   3.366  10.555  0.2807  0.0758  0.1142
  468MPD2    H5 6973   3.763   3.277  10.554  1.9559 -0.7846 -1.7899
  468MPD2    N1 6974   3.851   3.800  10.338 -0.6032 -0.2842  0.1004
  468MPD2    H7 6975   3.936   3.819  10.391 -1.2813  0.1669  1.0436
  469TMC3    C1 6976   3.860   4.042  10.304 -0.1831 -0.0146  0.1141
  469TMC3    C2 6977   3.970   4.042  10.388 -0.4265 -0.2261 -0.0827
  469TMC3    C3 6978   4.019   4.165  10.422 -0.4668  0.3304 -0.0165
  469TMC3    C4 6979   3.798   4.157  10.268 -0.9614 -0.2908 -0.3254
  469TMC3    C5 6980   3.858   4.275  10.302  1.1413  0.6177 -0.4632
  469TMC3    C6 6981   3.968   4.285  10.382  0.0442 -0.6253 -0.2781
  469TMC3     C 6982   3.784   3.916  10.291  0.1997  0.3627  0.3426
  469TMC3     O 6983   3.675   3.924  10.235  0.6739 -0.4793 -0.7213
  469TMC3     H 6984   4.030   3.953  10.401  0.8442  0.5094 -0.9537
  469TMC3    H1 6985   3.699   4.159  10.225 -0.8245  4.2386 -0.3577
  469TMC3    H2 6986   4.006   4.377  10.423 -2.4493  0.4679 -0.4292
  469TMC3    C7 6987   3.780   4.395  10.260  0.5775 -0.5057  0.4477
  469TMC3    C8 6988   4.146   4.166  10.502  0.3287 -0.8427 -0.0716
  469TMC3    O1 6989   3.704   4.378  10.166 -0.1357  0.1784  0.2892
  469TMC3    O2 6990   4.222   4.072  10.489 -0.2200 -0.1474 -0.0753
  470TMC3    C1 6991   1.805   0.730   0.926 -0.0674 -0.7354  0.5237
  470TMC3    C2 6992   1.788   0.860   0.892  0.5609 -0.1112 -0.3319
  470TMC3    C3 6993   1.780   0.951   0.990 -0.1715  0.4677  0.3105
  470TMC3    C4 6994   1.813   0.688   1.052  0.7445 -0.6011  0.7198
  470TMC3    C5 6995   1.810   0.781   1.155 -0.5982  0.5973  0.2081
  470TMC3    C6 6996   1.789   0.921   1.125  0.0396  0.4804 -0.0200
  470TMC3     C 6997   1.755   0.623   0.836  0.1120  0.6050 -1.1484
  470TMC3     O 6998   1.728   0.517   0.894 -0.3242 -0.5741 -0.3832
  470TMC3     H 6999   1.756   0.894   0.794 -0.4100 -1.2745 -0.4196
  470TMC3    H1 7000   1.838   0.585   1.074 -0.8043 -0.8341  1.3860
  470TMC3    H2 7001   1.808   0.993   1.205  0.6422  0.0797  0.1987
  470TMC3    C7 7002   1.864   0.731   1.278  0.2923  0.0291 -0.0212
  470TMC3    C8 7003   1.754   1.088   0.955 -0.4330  0.3433 -0.4563
  470TMC3    O1 7004   1.922   0.623   1.268 -0.6647 -0.2077  0.0098
  470TMC3    O2 7005   1.760   1.166   1.046  0.1372 -0.0581  0.0512
  471MPD2     C 7006   1.839   1.582  16.696 -0.0493  0.5015 -0.2312
  471MPD2    C1 7007   1.915   1.468  16.677  1.0036 -0.7010 -1.1379
  471MPD2    C2 7008   2.007   1.437  16.769  0.0350  0.1455  0.4695
  471MPD2    C3 7009   2.029   1.503  16.885  0.3290 -0.3266  0.3229
  471MPD2    C4 7010   1.945   1.609  16.918  0.1973 -0.1255 -0.4931
  471MPD2    C5 7011   1.850   1.641  16.822  0.7867 -0.2678  0.8409
  471MPD2     H 7012   2.060   1.343  16.754  0.2263  0.0011  2.0269
  471MPD2    H1 7013   1.949   1.661  17.013 -0.2098  0.1673 -0.6393
  471MPD2    H2 7014   1.767   1.615  16.622  0.9984 -1.3430 -2.0742
  471MPD2    H3 7015   1.780   1.722  16.839  2.9974  2.3333 -2.5759
  471MPD2     N 7016   2.140   1.473  16.972 -0.4297  0.5073  0.5911
  471MPD2    H5 7017   2.157   1.542  17.045  0.3838 -1.2454  2.0443
  471MPD2    N1 7018   1.903   1.378  16.569  0.0249 -0.1338  0.4425
  471MPD2    H7 7019   1.978   1.309  16.563  1.2207  1.0296  1.9106
  472TMC3    C1 7020   1.814   1.281  16.374 -0.1802  0.1507 -0.4788
  472TMC3    C2 7021   1.724   1.287  16.270 -0.2868 -0.4043  0.4047
  472TMC3    C3 7022   1.719   1.184  16.183 -0.1430 -0.1930 -0.3294
  472TMC3    C4 7023   1.883   1.165  16.394  0.3506 -0.1688  0.1471
  472TMC3    C5 7024   1.858   1.051  16.323 -0.6707  0.1083 -0.1874
  472TMC3    C6 7025   1.786   1.070  16.213  0.5524  0.6289 -0.2163
  472TMC3     C 7026   1.809   1.389  16.468 -0.4041  0.1899 -0.3153
  472TMC3     O 7027   1.721   1.470  16.453  0.1085 -0.0773  0.0026
  472TMC3     H 7028   1.664   1.377  16.261  1.6128  0.6170 -1.9174
  472TMC3    H1 7029   1.928   1.149  16.490  1.1842 -0.7821 -0.3510
  472TMC3    H2 7030   1.782   0.980  16.152  1.2708  0.3304  0.1790
  472TMC3    C7 7031   1.795   0.953  16.410  0.2752  0.6832 -0.1074
  472TMC3    C8 7032   1.576   1.161  16.152 -0.1582  0.3231  0.0658
  472TMC3    O1 7033   1.839   0.952  16.523 -0.4118 -0.4015 -0.0897
  472TMC3    O2 7034   1.544   1.046  16.142 -0.1079 -0.2002 -0.2140
  473MPD2     C 7035   1.821   3.300  13.963  0.7264 -0.6349 -0.3206
  473MPD2    C1 7036   1.735   3.408  13.943 -0.2172  0.0247  0.2883
  473MPD2    C2 7037   1.744   3.519  14.026 -0.2804 -0.1785  0.4286
  473MPD2    C3 7038   1.847   3.519  14.121  0.0154  0.9823  0.5613
  473MPD2    C4 7039   1.932   3.409  14.140  0.2600  0.2100  0.7602
  473MPD2    C5 7040   1.915   3.298  14.063  0.5805 -0.5992 -0.5452
  473MPD2     H 7041   1.680   3.606  14.009  2.0715  1.6274  0.7789
  473MPD2    H1 7042   1.996   3.409  14.227  0.8461 -0.3560  0.3267
  473MPD2    H2 7043   1.827   3.213  13.899 -0.3823 -0.6708 -0.3900
  473MPD2    H3 7044   1.981   3.212  14.072  1.3037 -0.0561 -0.6820
  473MPD2     N 7045   1.866   3.646  14.190 -0.7044  0.0085  0.0726
  473MPD2    H5 7046   1.815   3.725  14.153  0.4496  0.4489 -0.5738
  473MPD2    N1 7047   1.631   3.410  13.846 -0.3556  0.0710 -0.0526
  473MPD2    H7 7048   1.567   3.488  13.858 -0.6587 -0.5502  2.3262
  474TMC3    C1 7049   1.962   3.803  14.328  0.4344 -0.3056  0.3245
  474TMC3    C2 7050   1.838   3.859  14.360  0.4741  0.2835  0.1873
  474TMC3    C3 7051   1.832   3.986  14.411  0.1147 -0.4472  0.1704
  474TMC3    C4 7052   2.076   3.863  14.369  0.0781  0.5139 -0.7373
  474TMC3    C5 7053   2.063   3.985  14.427  0.6370 -0.2895 -0.0262
  474TMC3    C6 7054   1.947   4.056  14.439 -0.1600 -0.6197 -0.9599
  474TMC3     C 7055   1.963   3.665  14.285  0.3963 -0.3887 -0.2170
  474TMC3     O 7056   2.070   3.609  14.307  0.3674  0.2570  0.2933
  474TMC3     H 7057   1.739   3.815  14.357  0.9294 -0.6153 -1.8284
  474TMC3    H1 7058   2.174   3.821  14.348  0.1934  1.4272 -2.0566
  474TMC3    H2 7059   1.939   4.158  14.475 -0.3865 -0.8723 -0.2991
  474TMC3    C7 7060   2.184   4.030  14.484  0.5301  0.3658  0.6129
  474TMC3    C8 7061   1.692   4.043  14.427 -0.1340  0.2865  0.0249
  474TMC3    O1 7062   2.290   3.964  14.454  0.2372  0.1324  0.4435
  474TMC3    O2 7063   1.594   3.973  14.442 -0.2457  0.7013  0.0799
  475MPD2     C 7064   4.566   1.752  10.444  0.1752 -0.2536 -0.1894
  475MPD2    C1 7065   4.545   1.866  10.524  0.0661  0.3356 -0.3528
  475MPD2    C2 7066   4.423   1.925  10.544  0.4881 -0.5423 -0.2289
  475MPD2    C3 7067   4.316   1.852  10.504  0.3795 -0.0360 -0.6541
  475MPD2    C4 7068   4.332   1.735  10.435  0.5521  0.5910 -0.3872
  475MPD2    C5 7069   4.453   1.689  10.402 -0.3654 -0.4935 -0.1312
  475MPD2     H 7070   4.408   2.009  10.610 -0.2565  0.0579 -1.1757
  475MPD2    H1 7071   4.244   1.681  10.401  0.0262  1.7606 -0.8953
  475MPD2    H2 7072   4.661   1.704  10.421  0.1643 -0.6743  0.6494
  475MPD2    H3 7073   4.465   1.604  10.335  2.0803 -0.8950  0.8448
  475MPD2     N 7074   4.187   1.911  10.524  0.0498  0.0618 -0.0345
  475MPD2    H5 7075   4.187   2.003  10.567  4.9186  0.7646 -1.5477
  475MPD2    N1 7076   4.661   1.930  10.572  0.1147 -0.1706 -0.2633
  475MPD2    H7 7077   0.028   1.900  10.530  1.6461  2.9557  0.7517
  476TMC3    C1 7078   0.097   2.076  10.672 -0.4896 -0.0554  0.4635
  476TMC3    C2 7079   0.179   2.080  10.561  0.2477  0.0412  0.4663
  476TMC3    C3 7080   0.229   2.200  10.526  0.3180  0.5911 -0.8527
  476TMC3    C4 7081   0.101   2.181  10.756 -0.8175 -0.2674  0.0420
  476TMC3    C5 7082   0.179   2.286  10.737  0.4712 -0.1271 -0.4211
  476TMC3    C6 7083   0.239   2.305  10.619  0.3363  0.1179 -0.2918
  476TMC3     C 7084   4.678   2.032  10.663 -0.5453 -0.4851 -0.1865
  476TMC3     O 7085   4.590   2.088  10.725  0.1414  0.1013 -0.3923
  476TMC3     H 7086   0.173   2.002  10.486 -1.2981 -1.0810  1.7730
  476TMC3    H1 7087   0.043   2.175  10.848 -1.1232  1.7626 -0.0282
  476TMC3    H2 7088   0.294   2.395  10.593 -2.3863  1.8005 -0.2276
  476TMC3    C7 7089   0.222   2.355  10.845 -0.0785 -0.0401  0.4004
  476TMC3    C8 7090   0.160   2.265  10.417 -0.3777 -0.1511 -0.7275
  476TMC3    O1 7091   0.140   2.388  10.927  0.6226  0.5690 -0.0976
  476TMC3    O2 7092   0.163   2.387  10.406 -0.0873  0.3388 -0.6851
  477MPD2     C 7093   1.861   3.289  11.187  0.5657  0.2583 -0.1265
  477MPD2    C1 7094   1.951   3.332  11.287 -0.5051  0.1398 -0.1682
  477MPD2    C2 7095   1.983   3.248  11.387 -0.1072  0.4671 -0.1268
  477MPD2    C3 7096   1.910   3.128  11.401 -0.1567  0.3791 -0.2402
  477MPD2    C4 7097   1.814   3.093  11.311 -0.3217 -0.2913 -0.3489
  477MPD2    C5 7098   1.799   3.166  11.194  0.0976  0.2183  0.2793
  477MPD2     H 7099   2.070   3.260  11.452  0.1680 -0.5316 -0.3202
  477MPD2    H1 7100   1.755   3.004  11.332 -2.1809  1.0387  0.0270
  477MPD2    H2 7101   1.843   3.345  11.096  0.1298  0.1617 -0.1019
  477MPD2    H3 7102   1.719   3.131  11.129  0.1962  1.0660 -0.3002
  477MPD2     N 7103   1.945   3.060  11.518  0.1219 -0.2497 -0.0022
  477MPD2    H5 7104   1.997   3.106  11.592  0.8214  2.1393 -1.9950
  477MPD2    N1 7105   2.029   3.448  11.260  0.3486 -0.5706  0.1663
  477MPD2    H7 7106   2.020   3.502  11.175 -0.8816  0.7943  1.1673
  478TMC3    C1 7107   2.190   3.626  11.316  1.3752 -0.1596  0.1687
  478TMC3    C2 7108   2.227   3.705  11.424  0.2451  0.3525  0.0798
  478TMC3    C3 7109   2.318   3.800  11.395 -0.0910 -0.5579  0.6011
  478TMC3    C4 7110   2.215   3.660  11.184  0.1659  0.3891 -0.9195
  478TMC3    C5 7111   2.307   3.756  11.165 -0.1937 -0.1744  0.0138
  478TMC3    C6 7112   2.353   3.832  11.269  0.3313 -0.2966 -0.7151
  478TMC3     C 7113   2.116   3.500  11.357 -0.4320  0.3687 -0.8306
  478TMC3     O 7114   2.124   3.477  11.473 -0.0825 -0.2077  0.1769
  478TMC3     H 7115   2.215   3.689  11.531 -0.3125 -0.5677 -0.1180
  478TMC3    H1 7116   2.190   3.596  11.101  0.6934 -0.1203 -0.6875
  478TMC3    H2 7117   2.425   3.910  11.249 -2.6829  2.4789 -0.7145
  478TMC3    C7 7118   2.330   3.805  11.032  0.4471 -0.5048 -0.2873
  478TMC3    C8 7119   2.332   3.912  11.491  0.2219  0.6234 -0.0692
  478TMC3    O1 7120   2.424   3.883  11.015  0.1826  0.5036  0.5758
  478TMC3    O2 7121   2.395   3.888  11.592  0.2957 -0.3257 -0.8504
  479MPD2     C 7122   1.679   0.970  15.245  0.2327  0.6248 -0.3623
  479MPD2    C1 7123   1.626   0.890  15.340 -0.2990  0.3238  0.0529
  479MPD2    C2 7124   1.698   0.850  15.447 -0.1294 -0.4642  0.3632
  479MPD2    C3 7125   1.826   0.904  15.462  0.9633 -0.3658  0.0959
  479MPD2    C4 7126   1.879   0.977  15.364 -0.8044  0.2758 -0.6254
  479MPD2    C5 7127   1.804   1.015  15.256  0.4791  0.1946  0.1963
  479MPD2     H 7128   1.657   0.780  15.518  2.3616 -1.9941  0.3083
  479MPD2    H1 7129   1.981   1.016  15.364 -0.4355 -0.6961 -0.0928
  479MPD2    H2 7130   1.629   1.002  15.155  0.2785  0.5012 -0.4313
  479MPD2    H3 7131   1.844   1.076  15.176  1.2064  0.0784  0.4634
  479MPD2     N 7132   1.895   0.898  15.585  0.1863 -0.3721 -0.8283
  479MPD2    H5 7133   1.995   0.915  15.580  0.0746  0.4702 -0.3613
  479MPD2    N1 7134   1.487   0.864  15.321 -0.1100  0.5636  0.3267
  479MPD2    H7 7135   1.453   0.899  15.232 -0.3610 -3.0896 -0.9978
  480TMC3    C1 7136   1.503   0.906  15.865  0.0739  0.3342  0.1988
  480TMC3    C2 7137   1.432   1.004  15.804  0.5429  0.0149 -0.3995
  480TMC3    C3 7138   1.502   1.078  15.707 -1.1202 -0.1347 -0.0022
  480TMC3    C4 7139   1.631   0.867  15.821 -0.0396  0.1071 -0.2383
  480TMC3    C5 7140   1.699   0.934  15.727 -0.0011  0.2287 -0.2502
  480TMC3    C6 7141   1.639   1.050  15.670  0.6079  0.0344 -0.4116
  480TMC3     C 7142   1.425   0.806  15.934 -0.0969  0.3584  0.3537
  480TMC3     O 7143   1.473   0.699  15.924  0.1981  0.0935 -0.1025
  480TMC3     H 7144   1.331   1.027  15.835  1.2194  1.7403  0.5281
  480TMC3    H1 7145   1.687   0.801  15.885 -1.1044  0.1395  0.7197
  480TMC3    H2 7146   1.701   1.111  15.605 -0.4924  2.1572  0.5224
  480TMC3    C7 7147   1.842   0.896  15.712 -0.5332 -0.3588  0.6732
  480TMC3    C8 7148   1.423   1.115  15.590 -1.1812 -0.4036 -0.1245
  480TMC3    O1 7149   1.895   0.836  15.803 -0.0596  0.2395  0.3045
  480TMC3    O2 7150   1.314   1.060  15.589  0.1103  0.2457  0.2554
  481MPD2     C 7151   3.437   0.409  14.402 -0.3415 -0.5696  0.3151
  481MPD2    C1 7152   3.299   0.398  14.417  0.1879 -0.0290 -0.0289
  481MPD2    C2 7153   3.253   0.346  14.527 -0.2637  0.3417  0.1355
  481MPD2    C3 7154   3.332   0.305  14.634 -0.2319  0.5584  0.1871
  481MPD2    C4 7155   3.470   0.315  14.617  0.5525  0.8481 -0.3189
  481MPD2    C5 7156   3.522   0.366  14.500 -0.6896  0.7398 -0.2850
  481MPD2     H 7157   3.151   0.309  14.536  0.0245 -0.8086 -1.2128
  481MPD2    H1 7158   3.538   0.275  14.691  0.9936 -0.1999 -1.2920
  481MPD2    H2 7159   3.483   0.436  14.308 -1.2849 -2.2626 -0.6373
  481MPD2    H3 7160   3.624   0.403  14.502 -0.6489  0.4988  1.7405
  481MPD2     N 7161   3.295   0.235  14.745  0.1968  0.0399  0.5659
  481MPD2    H5 7162   3.363   0.181  14.797 -1.8380 -0.3506  2.8673
  481MPD2    N1 7163   3.223   0.440  14.310 -0.0564  0.3306  0.0800
  481MPD2    H7 7164   3.264   0.487  14.231  1.0944 -0.1809  0.3859
  482TMC3    C1 7165   3.040   0.441  14.166 -0.1330  0.3718  0.2431
  482TMC3    C2 7166   2.952   0.343  14.123  0.7150  0.0686  0.3544
  482TMC3    C3 7167   2.905   0.357  13.997 -0.6038 -0.3622  0.3397
  482TMC3    C4 7168   3.093   0.536  14.087  0.0510  0.0637 -0.2177
  482TMC3    C5 7169   3.046   0.541  13.957 -0.3558  0.2067  0.3052
  482TMC3    C6 7170   2.952   0.451  13.908 -0.4422 -0.6681 -0.1432
  482TMC3     C 7171   3.087   0.412  14.297 -0.2661  0.0432 -0.0869
  482TMC3     O 7172   3.014   0.348  14.370 -0.2056 -0.0942 -0.2260
  482TMC3     H 7173   2.918   0.259  14.183 -1.5185 -0.8692 -2.2135
  482TMC3    H1 7174   3.168   0.608  14.119 -0.2703 -0.0966  0.9254
  482TMC3    H2 7175   2.916   0.435  13.807 -1.8141  0.0312  0.2459
  482TMC3    C7 7176   3.140   0.587  13.854  1.2381 -0.3507  0.1062
  482TMC3    C8 7177   2.836   0.248  13.935 -0.1086 -0.0561  0.0911
  482TMC3    O1 7178   3.258   0.565  13.863 -0.8883 -0.4526 -0.4284
  482TMC3    O2 7179   2.894   0.142  13.917 -0.8184 -0.3811  0.9372
  483TMC3    C1 7180   0.325   3.729   0.302  0.3068 -0.5836  0.0600
  483TMC3    C2 7181   0.321   3.861   0.265  0.0980 -0.0936  0.0444
  483TMC3    C3 7182   0.345   3.954   0.362 -0.0755 -0.1105  0.3560
  483TMC3    C4 7183   0.339   3.693   0.437 -0.6524 -0.3975  0.0403
  483TMC3    C5 7184   0.372   3.794   0.527 -0.3770  0.0378 -0.1838
  483TMC3    C6 7185   0.361   3.926   0.495 -0.0878  0.1884  0.0284
  483TMC3     C 7186   0.390   3.647   0.203  0.3281  0.1690  0.1847
  483TMC3     O 7187   0.361   3.650   0.083  0.1049 -0.0386 -0.0024
  483TMC3     H 7188   0.322   3.891   0.161  1.5913  2.6121  0.8263
  483TMC3    H1 7189   0.351   3.591   0.471 -1.3872 -0.8026 -0.9315
  483TMC3    H2 7190   0.402   4.000   0.562  1.6761 -0.4147 -0.4017
  483TMC3    C7 7191   0.468   3.758   0.629 -0.1078 -0.5317 -0.2009
  483TMC3    C8 7192   0.433   4.069   0.313  0.8599  0.4982 -1.0701
  483TMC3    O1 7193   0.555   3.676   0.605 -0.3838  0.0787 -0.1919
  483TMC3    O2 7194   0.548   4.072   0.360 -0.2177 -0.2977  0.5040
  484MPD2     C 7195   3.109   2.224  12.152  0.2113 -0.9138 -0.4519
  484MPD2    C1 7196   3.157   2.150  12.257 -0.6135  0.4328  0.0991
  484MPD2    C2 7197   3.284   2.181  12.311  0.5570  0.9593  0.4764
  484MPD2    C3 7198   3.348   2.288  12.258  0.3557  0.4026 -0.9192
  484MPD2    C4 7199   3.297   2.371  12.163  0.4969 -0.1233  0.4928
  484MPD2    C5 7200   3.177   2.335  12.111  0.7719  0.7598 -0.5543
  484MPD2     H 7201   3.321   2.138  12.403 -0.5413 -2.0656 -0.5217
  484MPD2    H1 7202   3.357   2.444  12.110 -1.7919  1.1427 -0.3894
  484MPD2    H2 7203   3.018   2.192  12.102  0.1018 -0.7497 -0.3571
  484MPD2    H3 7204   3.147   2.390  12.023  0.5240  1.9057  0.2369
  484MPD2     N 7205   3.486   2.315  12.283 -0.8731 -0.2947  0.2447
  484MPD2    H5 7206   3.520   2.405  12.251  2.5775 -1.5909  0.2941
  484MPD2    N1 7207   3.082   2.044  12.308  0.0127 -0.5336  0.4051
  484MPD2    H7 7208   2.990   2.040  12.265 -0.0457  2.1766  0.2814
  485TMC3    C1 7209   3.711   2.273  12.346 -0.2886 -0.7779 -0.8450
  485TMC3    C2 7210   3.797   2.210  12.432  0.1590 -0.1740  0.6428
  485TMC3    C3 7211   3.933   2.237  12.431 -0.1856 -0.4080  0.8034
  485TMC3    C4 7212   3.750   2.373  12.263 -0.2118 -1.0952 -0.6521
  485TMC3    C5 7213   3.887   2.393  12.256  0.4921  0.0690  0.1566
  485TMC3    C6 7214   3.976   2.335  12.339 -0.4618  0.6424 -0.1864
  485TMC3     C 7215   3.574   2.234  12.355 -0.2330  0.2376 -0.2869
  485TMC3     O 7216   3.559   2.127  12.407  0.3745  0.7306 -0.2638
  485TMC3     H 7217   3.762   2.130  12.496 -1.1695 -0.5325 -0.5335
  485TMC3    H1 7218   3.679   2.415  12.193 -0.4303 -0.6255 -0.1426
  485TMC3    H2 7219   4.080   2.361  12.326 -0.4563  0.4380 -0.5419
  485TMC3    C7 7220   3.929   2.396  12.118  0.7637 -0.0483  0.1038
  485TMC3    C8 7221   4.019   2.125  12.419 -0.1462 -0.0432  0.1746
  485TMC3    O1 7222   3.859   2.460  12.044 -0.0973 -0.1019 -0.2609
  485TMC3    O2 7223   4.112   2.135  12.339 -0.3807  0.0642  0.1163
  486MPD2     C 7224   0.801   0.922  12.975 -0.1193 -0.0291  0.0943
  486MPD2    C1 7225   0.767   0.877  12.854  0.7019 -0.7590 -0.3101
  486MPD2    C2 7226   0.710   0.967  12.763 -0.5872  0.4122 -0.1128
  486MPD2    C3 7227   0.695   1.102  12.791  0.5926 -0.1360 -0.2128
  486MPD2    C4 7228   0.729   1.145  12.914 -0.2927  1.0476  0.4657
  486MPD2    C5 7229   0.773   1.050  13.006  0.0398  0.1702 -0.4081
  486MPD2     H 7230   0.687   0.937  12.662  1.9070  2.3839 -1.2575
  486MPD2    H1 7231   0.707   1.244  12.952  2.0343  1.3323  1.0339
  486MPD2    H2 7232   0.863   0.858  13.037 -2.0848 -0.1387  1.9490
  486MPD2    H3 7233   0.784   1.075  13.111 -1.1640  0.0831 -0.2644
  486MPD2     N 7234   0.642   1.183  12.690  0.3073  0.5277  0.1343
  486MPD2    H5 7235   0.610   1.127  12.611 -1.1382  1.1907  0.2512
  486MPD2    N1 7236   0.785   0.736  12.827 -0.3694 -0.0713  0.3593
  486MPD2    H7 7237   0.827   0.679  12.900  0.7470 -1.0700 -1.0564
  487TMC3    C1 7238   0.750   0.523  12.738  0.9509 -0.4769 -0.4656
  487TMC3    C2 7239   0.648   0.442  12.699  0.9642  0.8210 -0.2607
  487TMC3    C3 7240   0.660   0.312  12.730  0.3994 -0.5905 -0.4862
  487TMC3    C4 7241   0.858   0.483  12.809  0.1380  0.3717  0.2012
  487TMC3    C5 7242   0.877   0.348  12.821 -0.7518 -0.5539 -0.0358
  487TMC3    C6 7243   0.779   0.256  12.783 -0.4530 -0.3287  0.8672
  487TMC3     C 7244   0.732   0.665  12.720 -0.2370 -0.1891 -0.1994
  487TMC3     O 7245   0.658   0.716  12.638 -0.0918 -0.7129  0.0118
  487TMC3     H 7246   0.555   0.487  12.666  1.4060  1.0521 -1.1743
  487TMC3    H1 7247   0.940   0.549  12.837  0.5917  0.0111 -0.2590
  487TMC3    H2 7248   0.762   0.155  12.819 -1.0044 -0.8660 -0.9074
  487TMC3    C7 7249   0.958   0.301  12.933 -0.3996  0.2660 -0.7775
  487TMC3    C8 7250   0.542   0.243  12.772  0.3007  0.0359  0.2632
  487TMC3    O1 7251   0.987   0.382  13.025 -0.3660  0.4465 -0.1333
  487TMC3    O2 7252   0.522   0.138  12.718  0.4882  0.1113  0.2235
  488MPD2     C 7253   1.196   2.314  16.587  0.4389  0.1097 -0.7023
  488MPD2    C1 7254   1.198   2.441  16.649 -0.1137  0.0147 -0.1825
  488MPD2    C2 7255   1.192   2.443  16.793  0.3198  0.0290 -0.2997
  488MPD2    C3 7256   1.198   2.328  16.871  0.3921  0.1731 -0.1630
  488MPD2    C4 7257   1.212   2.206  16.811  0.8425 -0.4691  0.0100
  488MPD2    C5 7258   1.200   2.200  16.670 -0.0855  0.0251  0.9719
  488MPD2     H 7259   1.204   2.538  16.844 -0.4537  0.0343 -0.1366
  488MPD2    H1 7260   1.227   2.113  16.866  2.2464 -0.5149 -0.4422
  488MPD2    H2 7261   1.205   2.291  16.482 -0.6889  0.8931 -0.9809
  488MPD2    H3 7262   1.212   2.107  16.616 -0.0683  1.0121 -0.7278
  488MPD2     N 7263   1.185   2.341  17.009  0.0384  0.0509  0.0593
  488MPD2    H5 7264   1.172   2.437  17.039 -0.6059 -0.5011  1.5311
  488MPD2    N1 7265   1.213   2.570  16.581 -0.2756 -0.3027 -0.1832
  488MPD2    H7 7266   1.204   2.659  16.629 -1.9856  0.1808 -1.4109
  489TMC3    C1 7267   1.191   2.312  17.245  0.0814 -0.1056  1.0380
  489TMC3    C2 7268   1.210   2.448  17.249 -0.3505 -0.2648  0.5555
  489TMC3    C3 7269   1.152   2.514  17.359  0.1891  0.5685  0.2071
  489TMC3    C4 7270   1.130   2.244  17.347 -0.1372  0.4901 -0.0939
  489TMC3    C5 7271   1.084   2.317  17.456  0.1439  0.1470 -0.7724
  489TMC3    C6 7272   1.087   2.454  17.462 -0.2698 -0.0448  0.0890
  489TMC3     C 7273   1.180   2.243  17.113 -0.2622 -0.3260 -0.0087
  489TMC3     O 7274   1.193   2.120  17.114 -0.2876 -0.0058  0.9104
  489TMC3     H 7275   1.269   2.490  17.168 -0.6753 -0.1185  0.3948
  489TMC3    H1 7276   1.131   2.136  17.357 -0.2978  0.2844 -2.2503
  489TMC3    H2 7277   1.047   2.508  17.548  2.4931  1.0516  0.6942
  489TMC3    C7 7278   1.033   2.255  17.577  0.3136 -0.6442  0.3838
  489TMC3    C8 7279   1.153   2.660  17.336 -0.0802 -0.1526  0.3456
  489TMC3    O1 7280   0.950   2.315  17.634 -0.1543  0.7158 -0.1809
  489TMC3    O2 7281   1.172   2.692  17.217  0.0183  0.3650  0.4136
  490MPD2     C 7282   2.117   1.801   0.091 -0.0254  0.2310  0.6610
  490MPD2    C1 7283   2.147   1.745  17.659  0.5929  0.2578  0.0693
  490MPD2    C2 7284   2.186   1.828  17.553  0.0613  0.3759 -0.1624
  490MPD2    C3 7285   2.180   1.965  17.566 -0.5648  0.6501 -0.5245
  490MPD2    C4 7286   2.149   2.028   0.000  0.1407 -0.0656  0.2295
  490MPD2    C5 7287   2.120   1.942   0.101  0.4303  0.6369  0.3993
  490MPD2     H 7288   2.207   1.783  17.456  0.4459  1.5698 -0.6296
  490MPD2    H1 7289   2.148   2.137   0.004  0.3125 -0.1407  2.2924
  490MPD2    H2 7290   2.095   1.750   0.184 -0.1237 -1.3123 -0.2114
  490MPD2    H3 7291   2.102   1.997   0.192 -1.6527  1.1858 -0.3438
  490MPD2     N 7292   2.232   2.051  17.461  0.4881 -0.8502  0.0030
  490MPD2    H5 7293   2.216   2.151  17.475  1.3512 -1.1025  2.8550
  490MPD2    N1 7294   2.139   1.602  17.636  0.2343  0.2937  0.3380
  490MPD2    H7 7295   2.188   1.576  17.551 -3.4424 -0.8829 -1.4505
  491TMC3    C1 7296   2.060   1.373  17.656 -0.3272 -0.1597 -0.0804
  491TMC3    C2 7297   2.013   1.274   0.049 -1.1011 -0.6147  0.6929
  491TMC3    C3 7298   1.961   1.160  17.682  0.3192 -0.7302 -0.5345
  491TMC3    C4 7299   2.045   1.370  17.514  0.3399  0.0069 -0.7054
  491TMC3    C5 7300   1.972   1.262  17.469 -0.3115 -0.5007 -0.0165
  491TMC3    C6 7301   1.926   1.156  17.554  0.4165  0.2524 -0.3041
  491TMC3     C 7302   2.079   1.509   0.034  0.0895 -0.2433  0.4525
  491TMC3     O 7303   2.024   1.526   0.142 -0.1120  0.5538 -0.0446
  491TMC3     H 7304   2.038   1.279   0.154 -0.3144 -0.4202  0.4907
  491TMC3    H1 7305   2.070   1.459  17.457 -0.0496 -1.7251 -3.5827
  491TMC3    H2 7306   1.857   1.078  17.524 -1.7286  1.4312  1.5113
  491TMC3    C7 7307   1.915   1.266  17.338  0.0681 -0.2969 -0.1159
  491TMC3    C8 7308   1.884   1.070   0.086  0.0602  0.0906  0.1508
  491TMC3    O1 7309   1.864   1.367  17.303  0.3965 -0.2032 -0.1086
  491TMC3    O2 7310   1.912   0.953   0.090  0.2763 -0.3153 -0.1318
  492MPD2     C 7311   2.010   1.879  10.929 -0.2415  0.1908 -0.3359
  492MPD2    C1 7312   1.879   1.907  10.894  0.2374  0.1876  0.0736
  492MPD2    C2 7313   1.776   1.873  10.983 -0.3329 -0.2931 -0.0665
  492MPD2    C3 7314   1.804   1.806  11.101 -0.5559  0.2135  0.6387
  492MPD2    C4 7315   1.927   1.749  11.118 -0.4502  0.1105  0.7152
  492MPD2    C5 7316   2.027   1.790  11.029  0.2113 -0.2131  0.0332
  492MPD2     H 7317   1.676   1.906  10.958  0.2420  1.2060 -0.3963
  492MPD2    H1 7318   1.945   1.690  11.207  0.4874 -1.8016 -0.7670
  492MPD2    H2 7319   2.082   1.912  10.856 -1.1258  0.5407 -1.0524
  492MPD2    H3 7320   2.129   1.765  11.056 -0.3245 -1.8906  0.4734
  492MPD2     N 7321   1.709   1.793  11.201 -0.5052 -0.1301 -0.2553
  492MPD2    H5 7322   1.746   1.749  11.284  0.1309  0.7377 -0.0823
  492MPD2    N1 7323   1.875   1.985  10.780 -0.5844 -0.1962 -0.1075
  492MPD2    H7 7324   1.964   2.016  10.742 -0.2877 -2.4447 -1.2461
  493TMC3    C1 7325   1.806   2.165  10.654 -0.2758 -0.3589  0.2912
  493TMC3    C2 7326   1.923   2.232  10.697 -0.3716  0.6149 -0.4720
  493TMC3    C3 7327   1.950   2.358  10.644  0.2852  0.1847 -0.5440
  493TMC3    C4 7328   1.721   2.209  10.560 -0.2649 -0.4009 -0.4401
  493TMC3    C5 7329   1.758   2.329  10.500 -0.5425 -0.0703 -0.1290
  493TMC3    C6 7330   1.870   2.404  10.545  0.6294 -0.1264 -0.5374
  493TMC3     C 7331   1.767   2.041  10.723 -0.8822  0.1973  0.3847
  493TMC3     O 7332   1.648   2.024  10.741 -0.2967  0.2373  0.1257
  493TMC3     H 7333   1.989   2.190  10.772 -0.5502  0.0259 -0.6476
  493TMC3    H1 7334   1.641   2.141  10.533 -0.8780  0.5583 -1.0051
  493TMC3    H2 7335   1.911   2.483  10.484  0.5534  0.1111 -0.2830
  493TMC3    C7 7336   1.707   2.370  10.369 -0.2360  0.1646 -0.6279
  493TMC3    C8 7337   2.092   2.398  10.642  0.9219 -0.3395 -0.3452
  493TMC3    O1 7338   1.778   2.448  10.308 -0.4544  0.0058  1.0764
  493TMC3    O2 7339   2.171   2.309  10.668  0.1030  0.2952 -0.7624
  494TMC3    C1 7340   2.553   3.828   0.765  0.5567  0.3381  0.6367
  494TMC3    C2 7341   2.604   3.727   0.839 -0.6017 -0.2368  0.5935
  494TMC3    C3 7342   2.675   3.625   0.779  0.4533 -0.4980 -0.1799
  494TMC3    C4 7343   2.593   3.849   0.634 -0.4026  0.3748 -0.0010
  494TMC3    C5 7344   2.678   3.752   0.589 -0.2273 -0.4106 -0.4166
  494TMC3    C6 7345   2.714   3.634   0.655 -0.3907  0.0392 -0.5206
  494TMC3     C 7346   2.422   3.874   0.802  0.1382 -0.3662 -0.3456
  494TMC3     O 7347   2.381   3.895   0.917 -0.2799  0.4373 -0.1821
  494TMC3     H 7348   2.565   3.720   0.939  0.2440  2.4501  1.1098
  494TMC3    H1 7349   2.560   3.939   0.584 -2.1504  0.9029  2.0831
  494TMC3    H2 7350   2.769   3.553   0.608  0.2761  0.4846 -0.5198
  494TMC3    C7 7351   2.705   3.753   0.446 -0.2346  0.9996 -0.0616
  494TMC3    C8 7352   2.681   3.489   0.835 -0.5824 -0.0304  0.1680
  494TMC3    O1 7353   2.689   3.649   0.387  0.1649 -0.0217 -0.1204
  494TMC3    O2 7354   2.724   3.473   0.949 -0.5427  0.0494 -0.1623
  495TMC3    C1 7355   1.811   1.102  14.766  0.8185  0.7105  0.5793
  495TMC3    C2 7356   1.768   1.178  14.660  0.5178 -0.0987 -0.0291
  495TMC3    C3 7357   1.717   1.309  14.682  0.0994  0.2979 -0.0633
  495TMC3    C4 7358   1.830   1.157  14.891 -0.7683 -0.4082  0.0497
  495TMC3    C5 7359   1.776   1.279  14.908  0.4035 -0.4209 -0.2477
  495TMC3    C6 7360   1.720   1.358  14.805  0.8975  0.0737  0.9099
  495TMC3     C 7361   1.825   0.957  14.747 -0.1465  0.7214  0.5458
  495TMC3     O 7362   1.898   0.902  14.826 -0.7789  1.0963 -0.2969
  495TMC3     H 7363   1.757   1.137  14.560 -0.7156 -0.5606  0.2930
  495TMC3    H1 7364   1.841   1.096  14.980  3.4604  0.1392 -0.1084
  495TMC3    H2 7365   1.671   1.452  14.829 -2.6520 -1.0330 -2.1077
  495TMC3    C7 7366   1.720   1.311  15.036 -0.1379  0.3759 -0.1352
  495TMC3    C8 7367   1.604   1.345  14.598 -0.3107 -0.7082 -0.9897
  495TMC3    O1 7368   1.797   1.306  15.128 -0.2241  0.4360  1.2023
  495TMC3    O2 7369   1.546   1.249  14.548  0.0409 -1.1036  0.1173
  496MPD2     C 7370   3.254   0.589  15.098 -0.6157  0.0112 -0.8843
  496MPD2    C1 7371   3.297   0.464  15.124 -0.1031 -0.5194 -0.0611
  496MPD2    C2 7372   3.223   0.384  15.209 -0.0822  0.1698 -0.2663
  496MPD2    C3 7373   3.118   0.447  15.281 -0.3325 -0.2030 -0.3192
  496MPD2    C4 7374   3.068   0.574  15.244  0.3147 -0.5543 -0.2770
  496MPD2    C5 7375   3.142   0.645  15.152  0.3014 -0.1606 -0.7784
  496MPD2     H 7376   3.253   0.281  15.218 -0.3344  0.2228  1.1283
  496MPD2    H1 7377   2.991   0.618  15.305  1.4419 -0.5052  1.0936
  496MPD2    H2 7378   3.302   0.640  15.015  1.6802 -0.9353 -0.1328
  496MPD2    H3 7379   3.118   0.748  15.126  0.9747  0.2167  0.0850
  496MPD2     N 7380   3.060   0.385  15.399  0.3465 -0.5777  0.2041
  496MPD2    H5 7381   3.007   0.444  15.463 -0.8690 -1.9973  0.5131
  496MPD2    N1 7382   3.417   0.419  15.060  0.0458 -0.0181 -0.3175
  496MPD2    H7 7383   3.472   0.479  14.999  0.2353 -0.8423 -0.9480
  497TMC3    C1 7384   3.031   0.244  15.574 -0.3624 -0.7085  0.4566
  497TMC3    C2 7385   2.977   0.121  15.578 -0.5537 -0.3620 -0.9584
  497TMC3    C3 7386   2.918   0.074  15.692  0.6684  0.4260 -0.0623
  497TMC3    C4 7387   3.062   0.317  15.690 -0.1770 -0.4891 -0.1405
  497TMC3    C5 7388   3.023   0.253  15.805  0.8625  0.0932  0.2500
  497TMC3    C6 7389   2.950   0.130  15.813  0.2694 -0.4358 -0.1790
  497TMC3     C 7390   3.101   0.262  15.445  0.3541 -0.8398 -0.0689
  497TMC3     O 7391   3.146   0.176  15.374  0.2071  0.1540 -0.8782
  497TMC3     H 7392   2.955   0.083  15.479 -2.6473  2.7874 -1.6676
  497TMC3    H1 7393   3.127   0.404  15.680 -0.4496  0.0699  2.8166
  497TMC3    H2 7394   2.920   0.080  15.905  1.4844 -1.1583 -0.1722
  497TMC3    C7 7395   3.056   0.301  15.939 -0.0143  0.3175 -0.3199
  497TMC3    C8 7396   2.825   4.686  15.692  0.2682  0.4338 -0.5995
  497TMC3    O1 7397   3.029   0.234  16.040 -0.5936 -0.2422  0.3533
  497TMC3    O2 7398   2.777   4.655  15.800 -0.1914  1.0866 -0.1790
  498MPD2     C 7399   3.606   2.260   9.504  0.1919 -0.2863  0.2462
  498MPD2    C1 7400   3.585   2.286   9.633  0.1918  0.0767  0.4985
  498MPD2    C2 7401   3.457   2.253   9.684  0.0655 -0.1632  0.7992
  498MPD2    C3 7402   3.363   2.186   9.604 -0.2147  1.0972  0.0383
  498MPD2    C4 7403   3.401   2.151   9.477  0.0073 -0.4756 -0.2990
  498MPD2    C5 7404   3.518   2.196   9.425  0.2427  0.2450  0.0322
  498MPD2     H 7405   3.431   2.269   9.789 -0.9260 -0.2932  0.5759
  498MPD2    H1 7406   3.336   2.088   9.418 -1.2222  0.7399 -0.2472
  498MPD2    H2 7407   3.700   2.282   9.456 -0.1224 -1.3409 -0.8601
  498MPD2    H3 7408   3.543   2.162   9.325  1.5800 -0.4057  0.5817
  498MPD2     N 7409   3.251   2.132   9.675  0.2485  0.0556  0.0824
  498MPD2    H5 7410   3.233   2.169   9.767  0.3782  0.2260  0.0376
  498MPD2    N1 7411   3.686   2.340   9.721  0.4864  0.7179  0.3819
  498MPD2    H7 7412   3.662   2.374   9.814 -1.5760 -1.6923  0.7336
  499TMC3    C1 7413   3.892   2.406   9.800  0.4995 -0.3627 -0.2552
  499TMC3    C2 7414   4.003   2.332   9.821  0.0934 -0.5400 -0.7084
  499TMC3    C3 7415   4.123   2.399   9.832 -0.5891 -0.2556  0.3311
  499TMC3    C4 7416   3.892   2.545   9.801  0.2250 -0.5467 -0.5385
  499TMC3    C5 7417   4.011   2.608   9.822  0.3253 -0.2598  0.1092
  499TMC3    C6 7418   4.129   2.539   9.842 -0.0667  0.5021 -0.4380
  499TMC3     C 7419   3.818   2.354   9.688 -0.2861 -0.2339 -0.6270
  499TMC3     O 7420   3.885   2.306   9.595 -0.5221  0.4034 -0.1314
  499TMC3     H 7421   4.000   2.224   9.821  0.3984 -0.5637  1.9583
  499TMC3    H1 7422   3.801   2.591   9.764 -0.2756 -1.5343 -0.5369
  499TMC3    H2 7423   4.220   2.588   9.873  0.8480 -0.9511 -0.8199
  499TMC3    C7 7424   4.022   2.752   9.804  0.0210  0.0041  0.1957
  499TMC3    C8 7425   4.245   2.322   9.830 -0.1847 -0.0591 -0.2031
  499TMC3    O1 7426   4.139   2.785   9.798  0.1571 -0.2748 -0.0381
  499TMC3    O2 7427   4.346   2.393   9.822 -0.5110 -0.5511  0.6224
  500MPD2     C 7428   1.126   3.246  10.769  0.1806 -0.1772  0.3998
  500MPD2    C1 7429   1.136   3.316  10.647  0.4615 -0.4151  0.1578
  500MPD2    C2 7430   1.021   3.323  10.567  0.5166 -0.1207 -1.0961
  500MPD2    C3 7431   0.897   3.274  10.605 -0.7666 -0.8751 -0.4546
  500MPD2    C4 7432   0.892   3.209  10.727 -1.1158 -0.1244  0.4160
  500MPD2    C5 7433   1.004   3.199  10.802  0.1096 -0.1135  0.1503
  500MPD2     H 7434   1.025   3.373  10.471  0.7640 -0.5820 -1.3263
  500MPD2    H1 7435   0.800   3.167  10.768 -3.2265  2.1097 -2.0282
  500MPD2    H2 7436   1.205   3.249  10.843  1.0903  0.9219 -0.6147
  500MPD2    H3 7437   0.996   3.155  10.901 -0.2945 -1.4300 -0.4821
  500MPD2     N 7438   0.781   3.273  10.522 -0.5593 -0.8494 -0.1756
  500MPD2    H5 7439   0.696   3.234  10.562 -2.0625  2.9113  0.3130
  500MPD2    N1 7440   1.254   3.376  10.607 -0.2836 -0.6860 -0.7537
  500MPD2    H7 7441   1.254   3.422  10.516 -5.1883  1.5534  0.4040
  501TMC3    C1 7442   1.488   3.435  10.624  0.5474 -0.1479 -0.7633
  501TMC3    C2 7443   1.497   3.490  10.497 -0.1547  0.8607 -0.0927
  501TMC3    C3 7444   1.615   3.555  10.458 -0.0140  0.1359  0.2998
  501TMC3    C4 7445   1.589   3.450  10.710 -0.6184 -0.5706  0.0887
  501TMC3    C5 7446   1.699   3.516  10.669  0.3720 -0.0167 -0.0483
  501TMC3    C6 7447   1.719   3.565  10.544  0.1767 -0.2409  0.4468
  501TMC3     C 7448   1.369   3.370  10.678 -0.4628  0.1935  0.5996
  501TMC3     O 7449   1.390   3.333  10.791  0.3686 -0.3886 -0.6869
  501TMC3     H 7450   1.421   3.466  10.424  0.6293 -2.2908  0.1103
  501TMC3    H1 7451   1.576   3.420  10.814  2.1346 -0.3849  0.4855
  501TMC3    H2 7452   1.809   3.617  10.517  0.1533 -0.7483 -0.6318
  501TMC3    C7 7453   1.812   3.498  10.761  0.2636 -0.2713  0.2074
  501TMC3    C8 7454   1.597   3.655  10.354 -0.1789  0.1711  0.2736
  501TMC3    O1 7455   1.794   3.473  10.882 -0.5045  0.8558  0.0073
  501TMC3    O2 7456   1.704   3.712  10.333  0.8134 -0.4693 -0.5438
  502TMC3    C1 7457   0.855   2.125  15.001 -0.1029 -0.4417  0.1925
  502TMC3    C2 7458   0.798   2.236  14.947 -0.7896  0.7552  0.0538
  502TMC3    C3 7459   0.669   2.220  14.887 -0.2277  0.0088 -0.8209
  502TMC3    C4 7460   0.799   1.998  14.973  1.0281  0.2465 -0.0954
  502TMC3    C5 7461   0.680   1.990  14.909 -0.4110 -1.0914  0.0253
  502TMC3    C6 7462   0.616   2.097  14.863 -0.9024 -0.3613  0.4098
  502TMC3     C 7463   0.972   2.142  15.085  0.1599  0.3709 -0.3365
  502TMC3     O 7464   1.046   2.240  15.070  0.4459  0.4703 -0.4883
  502TMC3     H 7465   0.849   2.331  14.960 -1.4632  1.4607 -2.4435
  502TMC3    H1 7466   0.838   1.907  15.015  1.7474  0.8523  0.5561
  502TMC3    H2 7467   0.527   2.090  14.801  0.0738  0.7275 -1.1240
  502TMC3    C7 7468   0.600   1.875  14.917  0.0411  0.2888  0.0717
  502TMC3    C8 7469   0.582   2.339  14.908  0.4929 -0.4488 -0.0970
  502TMC3    O1 7470   0.668   1.776  14.948  0.2813  0.5005 -0.1743
  502TMC3    O2 7471   0.649   2.444  14.925  0.1550 -0.3363  1.0769
  503MPD2     C 7472   2.759   2.434  17.113  0.0523 -0.7763  0.8845
  503MPD2    C1 7473   2.826   2.472  17.226  0.0951 -0.0390 -0.4055
  503MPD2    C2 7474   2.929   2.391  17.262 -0.1476  1.2865  0.0733
  503MPD2    C3 7475   2.940   2.261  17.225 -0.0652 -0.1813  0.0194
  503MPD2    C4 7476   2.857   2.213  17.124  0.0573  0.1881  0.2545
  503MPD2    C5 7477   2.769   2.307  17.076  0.3792  0.0119 -0.0986
  503MPD2     H 7478   2.986   2.429  17.346  1.3257 -1.1336  0.1660
  503MPD2    H1 7479   2.860   2.110  17.090  1.6349  0.8105 -1.4874
  503MPD2    H2 7480   2.685   2.493  17.060  0.0414 -1.5488  0.0338
  503MPD2    H3 7481   2.711   2.283  16.988  1.8333 -0.8912 -0.8107
  503MPD2     N 7482   3.047   2.190  17.281 -0.7645  0.6953 -0.2978
  503MPD2    H5 7483   3.098   2.238  17.354 -2.2732  1.1654  0.4579
  503MPD2    N1 7484   2.823   2.606  17.278  0.2779 -0.2003  0.1681
  503MPD2    H7 7485   2.897   2.632  17.341  0.1600 -2.3771  1.2099
  504TMC3    C1 7486   3.225   2.026  17.308 -0.8658  0.4093  0.4267
  504TMC3    C2 7487   3.217   2.040  17.443  0.7775 -0.8908 -0.1056
  504TMC3    C3 7488   3.311   1.979  17.516 -0.4209  0.1043  0.3033
  504TMC3    C4 7489   3.303   1.933  17.249 -0.0578  0.0832  0.1926
  504TMC3    C5 7490   3.404   1.884  17.324  0.0343 -0.2362 -0.1364
  504TMC3    C6 7491   3.410   1.911  17.452 -0.4313  0.4431  1.3052
  504TMC3     C 7492   3.105   2.070  17.229 -0.3804  0.0884 -0.4964
  504TMC3     O 7493   3.060   1.994  17.143 -0.2029 -0.2616 -0.0316
  504TMC3     H 7494   3.142   2.100  17.493  0.4525 -1.5689  0.2087
  504TMC3    H1 7495   3.287   1.896  17.149  2.1049  2.2435 -0.9548
  504TMC3    H2 7496   3.493   1.870  17.508 -0.2802  0.6659  1.2425
  504TMC3    C7 7497   3.489   1.794  17.253 -0.7213  0.4468 -0.1803
  504TMC3    C8 7498   3.298   2.008  17.659 -0.1894  0.1303  0.7796
  504TMC3    O1 7499   3.497   1.808  17.132  0.1004 -0.0569 -0.0365
  504TMC3    O2 7500   3.233   2.105   0.005  0.2626 -0.3050 -0.1525
  505MPD2     C 7501   2.421   1.009  10.236 -0.0681 -1.0404 -0.8661
  505MPD2    C1 7502   2.497   0.984  10.121 -0.3464 -0.1130  0.5448
  505MPD2    C2 7503   2.631   0.957  10.138 -0.5021 -0.1354 -0.1305
  505MPD2    C3 7504   2.694   0.975  10.261 -0.9059  0.3209 -0.2945
  505MPD2    C4 7505   2.619   1.015  10.376 -0.3110  0.9131 -0.2216
  505MPD2    C5 7506   2.485   1.024  10.355  0.4322  0.5140 -0.4203
  505MPD2     H 7507   2.690   0.921  10.055  0.4457 -0.0148  0.4930
  505MPD2    H1 7508   2.662   1.047  10.470  1.2416  1.0715 -0.9930
  505MPD2    H2 7509   2.313   1.014  10.232 -0.0594 -1.1285 -1.2111
  505MPD2    H3 7510   2.423   1.062  10.435  3.1865  0.9881  1.5022
  505MPD2     N 7511   2.833   0.965  10.259 -0.6186 -0.0129  0.0982
  505MPD2    H5 7512   2.878   0.945  10.170 -0.6018  0.0069  0.1021
  505MPD2    N1 7513   2.435   0.979   9.993  0.0723 -0.2306  0.3733
  505MPD2    H7 7514   2.334   0.993   9.991 -0.0186 -0.9164  0.2040
  506TMC3    C1 7515   2.407   0.960   9.756  0.6356 -0.2252  0.7564
  506TMC3    C2 7516   2.358   1.088   9.731  0.2006 -0.9242  0.9387
  506TMC3    C3 7517   2.352   1.127   9.597  0.0811 -0.2933 -0.3160
  506TMC3    C4 7518   2.456   0.883   9.647 -0.1730  0.6837  0.6640
  506TMC3    C5 7519   2.460   0.929   9.525  0.1660 -0.7122  0.1050
  506TMC3    C6 7520   2.395   1.042   9.499 -0.5579  0.3177 -0.4568
  506TMC3     C 7521   2.490   0.943   9.870  0.0117  0.2205 -0.0688
  506TMC3     O 7522   2.597   0.882   9.855 -0.0325  0.5436  0.0132
  506TMC3     H 7523   2.332   1.154   9.812 -1.6492 -0.0095 -0.4043
  506TMC3    H1 7524   2.486   0.780   9.664 -1.6361 -0.2728 -2.5219
  506TMC3    H2 7525   2.406   1.085   9.400 -0.1499 -2.8240 -1.7930
  506TMC3    C7 7526   2.599   0.949   9.483 -0.2280  0.3325  0.1655
  506TMC3    C8 7527   2.331   1.267   9.555 -0.6377 -1.2100  0.5594
  506TMC3    O1 7528   2.621   0.960   9.367 -0.0018 -0.3696  0.3524
  506TMC3    O2 7529   2.270   1.287   9.453 -0.1641  0.0584  0.2542
  507TMC3    C1 7530   3.511   2.049  13.429  0.7409 -0.1784 -0.3652
  507TMC3    C2 7531   3.379   2.024  13.399 -0.9827  0.3260  0.1493
  507TMC3    C3 7532   3.298   2.125  13.356  0.4050  0.4412  0.8366
  507TMC3    C4 7533   3.557   2.172  13.406  0.3936  0.6047  0.2466
  507TMC3    C5 7534   3.472   2.276  13.376  0.1693 -0.0827  0.1073
  507TMC3    C6 7535   3.337   2.255  13.363 -0.3806  0.6239  0.2999
  507TMC3     C 7536   3.591   1.930  13.453  0.0586  0.4585 -0.0398
  507TMC3     O 7537   3.538   1.818  13.454 -0.0733 -0.1036  0.7903
  507TMC3     H 7538   3.334   1.927  13.416 -1.7274  0.5361 -0.6694
  507TMC3    H1 7539   3.659   2.200  13.430  0.0888  1.0823  0.9523
  507TMC3    H2 7540   3.260   2.328  13.342 -0.3201  1.2046  2.0879
  507TMC3    C7 7541   3.497   2.394  13.458 -0.0579 -0.4813  0.6078
  507TMC3    C8 7542   3.166   2.126  13.420 -0.6240 -1.1072 -0.2122
  507TMC3    O1 7543   3.398   2.461  13.477  0.5617 -0.0229 -0.0823
  507TMC3    O2 7544   3.070   2.114  13.344  0.8776 -0.0458 -0.1123
  508MPD2     C 7545   4.628   4.269  16.157  0.4617 -0.2407  0.0521
  508MPD2    C1 7546   0.032   4.334  16.171 -0.1330  0.1077  0.1044
  508MPD2    C2 7547   0.069   4.425  16.076 -0.5726 -0.1234 -0.1001
  508MPD2    C3 7548   4.714   4.453  15.965  0.3617  0.5648  0.0715
  508MPD2    C4 7549   4.592   4.386  15.945 -0.0907  0.2977  0.0330
  508MPD2    C5 7550   4.548   4.300  16.046 -0.4734  0.4155 -0.2886
  508MPD2     H 7551   0.168   4.468  16.072  0.2896 -2.1971 -0.5670
  508MPD2    H1 7552   4.528   4.416  15.863 -0.0779 -0.6154 -0.3025
  508MPD2    H2 7553   4.596   4.188  16.221  1.1314  1.1141  2.1088
  508MPD2    H3 7554   4.452   4.251  16.030 -0.3428 -0.3725  1.3790
  508MPD2     N 7555   0.048   4.551  15.878 -0.0753  0.1380  0.1358
  508MPD2    H5 7556   0.140   4.588  15.898 -0.6726  0.6087  1.9732
  508MPD2    N1 7557   0.106   4.293  16.280 -0.5611 -0.2527  0.3887
  508MPD2    H7 7558   0.063   4.228  16.345 -0.2564 -0.1185  0.7295
  509TMC3    C1 7559   0.019   0.151  15.534  0.1810 -0.1090  0.2726
  509TMC3    C2 7560   0.078   0.249  15.608 -0.3169 -0.1209  0.0362
  509TMC3    C3 7561   0.119   0.211  15.737 -0.0799 -0.8760 -0.2109
  509TMC3    C4 7562   4.719   0.020  15.580  0.6922  0.4349  0.4446
  509TMC3    C5 7563   0.054   4.708  15.699  0.0654  0.1803  0.9590
  509TMC3    C6 7564   0.110   0.087  15.781  0.1146  0.9684  0.2675
  509TMC3     C 7565   4.642   0.186  15.438  0.3709 -0.2612 -0.3157
  509TMC3     O 7566   4.545   0.116  15.430  0.2042 -0.1554 -0.0026
  509TMC3     H 7567   0.082   0.352  15.573 -3.5138 -0.0782 -0.1863
  509TMC3    H1 7568   4.690   4.662  15.512  0.1239  0.7316  0.3513
  509TMC3    H2 7569   0.133   0.056  15.882  1.6305 -2.3174 -1.0660
  509TMC3    C7 7570   4.713   4.591  15.759  0.9166  0.4100  0.0887
  509TMC3    C8 7571   0.181   0.308  15.841  0.5842 -0.9104  0.0824
  509TMC3    O1 7572   4.617   4.539  15.706 -0.4464  0.1747 -0.3958
  509TMC3    O2 7573   0.169   0.281  15.959  0.5525 -0.9475 -0.1666
  510MPD2     C 7574   3.022   1.598  14.378  0.0815  0.7470 -0.2895
  510MPD2    C1 7575   3.074   1.483  14.444  0.2144  0.1159 -0.0169
  510MPD2    C2 7576   3.180   1.413  14.383  0.0296  0.3923  0.0077
  510MPD2    C3 7577   3.224   1.453  14.262  0.0015  0.4217  0.1706
  510MPD2    C4 7578   3.183   1.571  14.202 -0.4976 -0.3090 -0.1311
  510MPD2    C5 7579   3.074   1.632  14.262  0.0630  0.0268 -0.0885
  510MPD2     H 7580   3.217   1.324  14.433  0.6349  1.4910  1.5223
  510MPD2    H1 7581   3.235   1.617  14.119  1.1234  1.8741  2.0920
  510MPD2    H2 7582   2.953   1.669  14.422 -0.9486 -0.4969  0.1062
  510MPD2    H3 7583   3.045   1.727  14.220 -0.7272 -1.5244 -3.0761
  510MPD2     N 7584   3.321   1.374  14.201 -0.0537  0.2608 -0.1248
  510MPD2    H5 7585   3.364   1.299  14.255  0.3918 -0.7492 -1.8876
  510MPD2    N1 7586   3.010   1.426  14.559 -0.2432  0.4381  0.8273
  510MPD2    H7 7587   3.054   1.337  14.577 -2.6522 -0.9884 -0.3819
  511TMC3    C1 7588   2.836   1.369  14.709  0.7110  0.2765 -0.5639
  511TMC3    C2 7589   2.714   1.411  14.763  0.1440  0.1984  0.5296
  511TMC3    C3 7590   2.644   1.316  14.821 -0.0839  0.1532 -0.9450
  511TMC3    C4 7591   2.874   1.236  14.705 -0.2733 -0.2815  0.5603
  511TMC3    C5 7592   2.807   1.148  14.787 -0.1316 -0.0247  0.3710
  511TMC3    C6 7593   2.688   1.186  14.843  0.3603  0.3069  0.4317
  511TMC3     C 7594   2.910   1.472  14.637  0.6885 -0.1909 -0.2804
  511TMC3     O 7595   2.862   1.588  14.643  0.9630 -0.1500 -0.6539
  511TMC3     H 7596   2.680   1.513  14.754  0.0428 -0.0150 -1.5883
  511TMC3    H1 7597   2.969   1.204  14.665  0.5943  2.0445  0.8126
  511TMC3    H2 7598   2.610   1.127  14.890  0.2786  1.3085  1.5486
  511TMC3    C7 7599   2.823   1.012  14.732  1.1511  0.0924  0.5636
  511TMC3    C8 7600   2.529   1.369  14.898  0.0156  0.5907  0.4401
  511TMC3    O1 7601   2.925   0.992  14.671 -0.5874 -0.2691 -0.4540
  511TMC3    O2 7602   2.517   1.488  14.926 -0.1599 -0.0160 -0.3834
  512TMC3    C1 7603   1.471   0.688  13.004  0.2779 -1.0113  1.2941
  512TMC3    C2 7604   1.533   0.675  13.122 -0.6056 -0.1905  0.1120
  512TMC3    C3 7605   1.521   0.549  13.180 -0.1127  0.6185 -1.4616
  512TMC3    C4 7606   1.397   0.589  12.951  0.0032 -0.1039 -0.6049
  512TMC3    C5 7607   1.401   0.465  13.004  0.6121  0.0249 -0.1642
  512TMC3    C6 7608   1.468   0.441  13.118 -0.5017  0.2523  0.5258
  512TMC3     C 7609   1.473   0.816  12.944 -0.0617  0.4174  0.2075
  512TMC3     O 7610   1.585   0.872  12.933  0.2893 -0.5812 -0.4801
  512TMC3     H 7611   1.597   0.755  13.159  0.1226 -1.0474  0.7244
  512TMC3    H1 7612   1.344   0.600  12.857 -1.1116 -1.7165 -0.1504
  512TMC3    H2 7613   1.454   0.348  13.172  0.1352  0.9185  1.8399
  512TMC3    C7 7614   1.391   0.361  12.909 -0.8854 -0.1442 -1.3106
  512TMC3    C8 7615   1.591   0.530  13.301 -0.8519 -0.1661  0.4962
  512TMC3    O1 7616   1.364   0.383  12.793 -0.6699 -0.3647 -0.1525
  512TMC3    O2 7617   1.619   0.414  13.330 -0.2161  0.0528 -0.4477
  513MPD2     C 7618   3.501   0.707  13.283 -0.0468 -0.0672 -0.1778
  513MPD2    C1 7619   3.541   0.691  13.153 -0.5261  0.1967 -0.4573
  513MPD2    C2 7620   3.675   0.694  13.125 -0.1199 -1.0223  0.7030
  513MPD2    C3 7621   3.763   0.723  13.225 -0.7991  0.2758 -0.3732
  513MPD2    C4 7622   3.721   0.728  13.354  0.0783 -0.3213  0.3483
  513MPD2    C5 7623   3.587   0.717  13.385 -0.9708 -0.4131 -0.5869
  513MPD2     H 7624   3.712   0.699  13.023 -0.6145  1.3597  0.6289
  513MPD2    H1 7625   3.784   0.738  13.442  0.7747  3.2354 -0.5526
  513MPD2    H2 7626   3.394   0.699  13.300 -0.4811  1.4620 -2.2558
  513MPD2    H3 7627   3.546   0.709  13.485  0.5857  0.6423  0.1333
  513MPD2     N 7628   3.903   0.732  13.182  0.2200 -0.3036  0.3199
  513MPD2    H5 7629   3.915   0.720  13.081 -1.9135  0.6697 -0.0478
  513MPD2    N1 7630   3.438   0.680  13.057  0.1424  0.0438 -0.2582
  513MPD2    H7 7631   3.343   0.706  13.082 -0.5441 -1.7997 -0.9357
  514TMC3    C1 7632   3.354   0.635  12.837  0.4853 -0.1873 -0.9313
  514TMC3    C2 7633   3.304   0.758  12.804  0.7593 -0.6374  0.0032
  514TMC3    C3 7634   3.276   0.787  12.672  0.3541 -0.2575 -0.4810
  514TMC3    C4 7635   3.392   0.547  12.738 -0.6643 -0.8009 -0.1913
  514TMC3    C5 7636   3.358   0.576  12.613 -1.2356  0.1051  0.3832
  514TMC3    C6 7637   3.304   0.697  12.573 -0.0562 -0.4282  0.3729
  514TMC3     C 7638   3.467   0.636  12.924 -0.2460 -0.1723  0.2556
  514TMC3     O 7639   3.570   0.589  12.879  0.2110  0.7988 -0.0299
  514TMC3     H 7640   3.281   0.836  12.874  0.1857 -1.7314  1.0223
  514TMC3    H1 7641   3.408   0.444  12.766  0.7540 -1.1016 -2.1232
  514TMC3    H2 7642   3.312   0.720  12.467  0.4721 -1.2526  0.2341
  514TMC3    C7 7643   3.475   0.554  12.526 -0.4849  0.3517  0.0302
  514TMC3    C8 7644   3.274   0.925  12.621 -0.0371  0.2357  0.8997
  514TMC3    O1 7645   3.458   0.550  12.402 -0.2489 -0.2764  0.1368
  514TMC3    O2 7646   3.312   1.014  12.694 -0.3265  0.5867 -0.1494
  515MPD2     C 7647   1.322   2.916  14.951 -0.1692  0.2106  0.8231
  515MPD2    C1 7648   1.377   2.798  14.911  0.1791  0.4141  0.5349
  515MPD2    C2 7649   1.498   2.769  14.969  0.3749  0.5154  0.5602
  515MPD2    C3 7650   1.574   2.848  15.060  0.0937 -0.5056 -0.0405
  515MPD2    C4 7651   1.508   2.964  15.104  0.0021  0.2113  0.1025
  515MPD2    C5 7652   1.385   2.994  15.040 -0.2277  0.2631 -0.4913
  515MPD2     H 7653   1.540   2.677  14.930  0.7592  1.6050 -1.5905
  515MPD2    H1 7654   1.556   3.033  15.173  0.7681 -1.7658  1.5585
  515MPD2    H2 7655   1.227   2.955  14.917 -0.4418 -1.0155  0.1803
  515MPD2    H3 7656   1.330   3.085  15.058 -0.0654  0.2685 -0.0188
  515MPD2     N 7657   1.700   2.818  15.117 -0.1806  0.7685  0.3102
  515MPD2    H5 7658   1.725   2.872  15.199  1.8930  1.4268 -0.7434
  515MPD2    N1 7659   1.327   2.713  14.811 -0.2337  0.6945  0.5139
  515MPD2    H7 7660   1.368   2.620  14.802  0.6993  1.1908 -0.3569
  516TMC3    C1 7661   1.182   2.648  14.642 -0.4426  0.2244  0.0457
  516TMC3    C2 7662   1.123   2.670  14.518  0.0566 -0.1041  0.1028
  516TMC3    C3 7663   1.082   2.560  14.447  0.6547 -0.2591  0.2327
  516TMC3    C4 7664   1.188   2.525  14.699 -0.5329 -0.2480  0.5365
  516TMC3    C5 7665   1.141   2.421  14.627 -0.7588 -0.3827 -0.3933
  516TMC3    C6 7666   1.087   2.433  14.501 -0.8916  0.0366  0.6772
  516TMC3     C 7667   1.230   2.747  14.721  0.3433  0.0064  0.8820
  516TMC3     O 7668   1.178   2.856  14.696 -0.8538 -0.3411  0.1764
  516TMC3     H 7669   1.110   2.774  14.492  2.4781  0.4051  0.8908
  516TMC3    H1 7670   1.223   2.508  14.800 -1.0599 -0.7007  0.6472
  516TMC3    H2 7671   1.078   2.352  14.429  1.6454 -1.4443  2.0609
  516TMC3    C7 7672   1.172   2.293  14.678 -0.2523 -0.0712 -0.3936
  516TMC3    C8 7673   1.021   2.572  14.315 -0.1939  0.2305  0.2230
  516TMC3    O1 7674   1.284   2.278  14.727 -0.1173 -0.8026 -0.0776
  516TMC3    O2 7675   0.928   2.493  14.286  0.3843  0.1157  0.7412
  517MPD2     C 7676   1.053   3.477   0.110 -0.4436 -0.2483  0.3539
  517MPD2    C1 7677   1.167   3.520   0.042 -0.0349  0.0535 -0.0220
  517MPD2    C2 7678   1.194   3.657   0.029 -0.1416  0.1491  1.1780
  517MPD2    C3 7679   1.102   3.747   0.079  0.3273  0.0572  0.2546
  517MPD2    C4 7680   0.985   3.701   0.141  0.6243  0.3747  0.2802
  517MPD2    C5 7681   0.966   3.565   0.163  0.4751 -0.3115  0.1957
  517MPD2     H 7682   1.266   3.682  17.637  1.0794 -2.6495  1.4264
  517MPD2    H1 7683   0.921   3.770   0.194 -1.7016 -1.9771  0.5688
  517MPD2    H2 7684   1.043   3.371   0.127 -0.9321 -0.0902  1.1006
  517MPD2    H3 7685   0.883   3.533   0.226  0.3470 -2.0875 -0.8588
  517MPD2     N 7686   1.116   3.880   0.076  0.6681 -0.3857 -0.7878
  517MPD2    H5 7687   1.040   3.933   0.118 -0.0816 -1.7488 -0.4314
  517MPD2    N1 7688   1.259   3.433  17.660  0.1644  0.4817 -0.2064
  517MPD2    H7 7689   1.339   3.478  17.617  1.7838  0.7676  3.0782
  518TMC3    C1 7690   1.342   3.242  17.571  0.3004 -0.5877  1.0238
  518TMC3    C2 7691   1.380   3.107  17.594  0.2408  1.0584  0.5124
  518TMC3    C3 7692   1.461   3.043  17.503 -0.0600  1.0269 -1.0364
  518TMC3    C4 7693   1.361   3.301  17.450 -0.2073 -0.0453  0.1983
  518TMC3    C5 7694   1.450   3.234  17.367  0.2015 -0.4821  0.1737
  518TMC3    C6 7695   1.496   3.105  17.386  0.3147 -0.2355 -0.4722
  518TMC3     C 7696   1.248   3.294  17.661  0.1547 -0.0653 -0.2027
  518TMC3     O 7697   1.202   3.219   0.062  0.1427  0.4302  0.0689
  518TMC3     H 7698   1.365   3.066   0.008  1.4924 -1.0991 -0.1958
  518TMC3    H1 7699   1.326   3.399  17.420  0.6499 -0.0882 -0.9570
  518TMC3    H2 7700   1.556   3.053  17.312 -1.3820  1.1477 -2.7836
  518TMC3    C7 7701   1.481   3.298  17.241 -0.1749 -0.4802 -0.2850
  518TMC3    C8 7702   1.489   2.901  17.504 -0.0766 -0.1004 -0.1951
  518TMC3    O1 7703   1.411   3.390  17.206  0.4202  0.4703  0.8015
  518TMC3    O2 7704   1.581   2.868  17.434 -0.4581 -0.1751 -0.0520
  519MPD2     C 7705   2.915   2.390  14.429  0.5251  0.2621  0.0642
  519MPD2    C1 7706   2.836   2.295  14.367 -0.5039 -0.1483  0.3585
  519MPD2    C2 7707   2.901   2.203  14.282  0.6336 -0.3171  0.1159
  519MPD2    C3 7708   3.040   2.200  14.264  0.2824 -0.0922  0.3659
  519MPD2    C4 7709   3.113   2.280  14.346 -0.1713  0.7629  0.0155
  519MPD2    C5 7710   3.054   2.372  14.431 -0.6506  0.5059  0.9876
  519MPD2     H 7711   2.832   2.144  14.222 -0.5544  1.7950 -0.5878
  519MPD2    H1 7712   3.222   2.281  14.343 -0.1923  0.5129 -0.9419
  519MPD2    H2 7713   2.879   2.456  14.506 -0.1899  2.7826 -2.4071
  519MPD2    H3 7714   3.121   2.437  14.486  2.2075 -1.9179  0.3938
  519MPD2     N 7715   3.102   2.129  14.159 -0.2855 -0.5572 -1.0328
  519MPD2    H5 7716   3.203   2.126  14.160 -0.2572  0.7919  1.5533
  519MPD2    N1 7717   2.696   2.304  14.379  0.2262  0.1806  0.0138
  519MPD2    H7 7718   2.651   2.389  14.412  2.0102  1.1739 -0.0803
  520TMC3    C1 7719   3.110   1.997  13.951  0.4406  0.3754 -0.3054
  520TMC3    C2 7720   3.031   1.977  13.834 -0.4357  0.3155  0.1499
  520TMC3    C3 7721   3.076   1.885  13.744  0.0482 -0.2084  0.0736
  520TMC3    C4 7722   3.225   1.931  13.973  0.1047 -0.3723  0.6592
  520TMC3    C5 7723   3.263   1.841  13.876  0.0342  0.3809  0.1674
  520TMC3    C6 7724   3.194   1.820  13.757 -0.1891 -0.1018 -0.0881
  520TMC3     C 7725   3.035   2.072  14.052  0.0774  0.8560  0.0945
  520TMC3     O 7726   2.914   2.072  14.031 -0.5056  0.3424  0.6979
  520TMC3     H 7727   2.933   2.022  13.825 -0.5800  0.0989  0.6094
  520TMC3    H1 7728   3.281   1.937  14.065 -0.8993 -2.0690  1.3878
  520TMC3    H2 7729   3.235   1.751  13.684 -0.2846 -0.6147  0.3411
  520TMC3    C7 7730   3.386   1.758  13.910  0.2220 -0.2077 -0.3254
  520TMC3    C8 7731   2.994   1.856  13.621  0.0283 -0.2442 -0.1261
  520TMC3    O1 7732   3.426   1.767  14.022  0.3064  0.5495  0.2092
  520TMC3    O2 7733   3.050   1.794  13.530  0.2993 -0.1518 -0.1652
  521MPD2     C 7734   3.556   0.077  17.497 -0.3481  0.2787  0.5076
  521MPD2    C1 7735   3.538   0.018  17.373  0.0573  0.5336 -0.0929
  521MPD2    C2 7736   3.655   4.705  17.298 -0.0530 -0.7744 -0.4891
  521MPD2    C3 7737   3.783   4.718  17.357  0.2227  0.0043  0.2976
  521MPD2    C4 7738   3.789   0.045  17.482  0.7514  0.5781  0.1876
  521MPD2    C5 7739   3.677   0.082  17.554 -0.0599  0.1759  0.4383
  521MPD2     H 7740   3.647   4.672  17.196 -0.4484  0.2473 -0.7916
  521MPD2    H1 7741   3.883   0.056  17.535 -0.4023  2.2107  1.8789
  521MPD2    H2 7742   3.472   0.099  17.562 -0.5360 -1.0575  0.7203
  521MPD2    H3 7743   3.681   0.120  17.655 -1.6919 -2.6940  1.6023
  521MPD2     N 7744   3.895   4.667  17.281 -0.6742 -0.1410 -0.1374
  521MPD2    H5 7745   3.871   4.627  17.191  0.7103  0.0460 -0.5891
  521MPD2    N1 7746   3.400   0.020  17.322  0.0203  0.8388 -0.4639
  521MPD2    H7 7747   3.323   0.041  17.384 -1.3596 -0.4520 -1.7498
  522TMC3    C1 7748   4.110   4.592  17.233 -0.0347  0.1288 -0.2705
  522TMC3    C2 7749   4.216   4.519  17.284 -0.9471  0.0521 -0.1949
  522TMC3    C3 7750   4.295   4.447  17.196  0.0960  0.1905 -1.4027
  522TMC3    C4 7751   4.087   4.611  17.101  0.1004 -0.5341 -0.2004
  522TMC3    C5 7752   4.173   4.542  17.017  0.3066  0.3598  0.2788
  522TMC3    C6 7753   4.279   4.461  17.058  0.4185 -0.0676 -0.6127
  522TMC3     C 7754   4.024   4.657  17.327  0.4546  0.2475  0.2232
  522TMC3     O 7755   4.064   4.686  17.434  0.0764 -0.4426  1.0640
  522TMC3     H 7756   4.222   4.504  17.391 -2.0646 -0.0656 -0.1502
  522TMC3    H1 7757   4.013   4.679  17.060  0.7849  1.9480  2.7484
  522TMC3    H2 7758   4.329   4.393  16.990  0.3647  1.4082 -2.1111
  522TMC3    C7 7759   4.168   4.566  16.873  0.2628  0.5044 -0.3280
  522TMC3    C8 7760   4.416   4.401  17.247 -0.6508  0.3882 -0.2575
  522TMC3    O1 7761   4.279   4.542  16.820 -0.3724  0.3584 -0.0074
  522TMC3    O2 7762   4.425   4.373  17.362  0.0204 -0.0359 -0.3606
  523MPD2     C 7763   1.556   0.562  10.152  0.2437 -0.2583 -0.5126
  523MPD2    C1 7764   1.484   0.469  10.094  0.2908 -0.3387 -0.3708
  523MPD2    C2 7765   1.390   0.505   9.999 -0.6155  0.4288  0.7419
  523MPD2    C3 7766   1.376   0.639   9.961  0.6622 -0.2682  0.5989
  523MPD2    C4 7767   1.448   0.737  10.032 -0.3205 -0.4862 -0.2867
  523MPD2    C5 7768   1.544   0.693  10.118 -0.1593 -0.2823 -1.1115
  523MPD2     H 7769   1.333   0.429   9.947  1.2286  1.5401 -2.9693
  523MPD2    H1 7770   1.435   0.842  10.012  0.7577 -0.2877  0.0475
  523MPD2    H2 7771   1.621   0.541  10.236 -2.4445 -0.4293  1.5336
  523MPD2    H3 7772   1.593   0.772  10.173  0.2133  0.4895 -2.5494
  523MPD2     N 7773   1.285   0.682   9.861 -0.3090  0.0236 -0.1175
  523MPD2    H5 7774   1.275   0.781   9.842  1.0844  0.2790  0.4799
  523MPD2    N1 7775   1.504   0.333  10.134 -0.4269  0.2698 -0.4176
  523MPD2    H7 7776   1.574   0.316  10.205 -1.9014 -0.4988  0.8355
  524TMC3    C1 7777   1.161   0.667   9.661  0.4460  0.1802  0.0789
  524TMC3    C2 7778   1.147   0.605   9.547  0.9504  0.7055  0.1915
  524TMC3    C3 7779   1.024   0.616   9.490 -0.0593 -0.1155 -0.4288
  524TMC3    C4 7780   1.067   0.762   9.709 -0.0740 -0.1090 -0.6453
  524TMC3    C5 7781   0.951   0.784   9.631 -0.9566  0.1837 -0.3250
  524TMC3    C6 7782   0.924   0.708   9.522  0.4996 -0.1787  0.1471
  524TMC3     C 7783   1.252   0.599   9.758 -0.7731 -0.1742  0.3046
  524TMC3     O 7784   1.296   0.491   9.721 -0.3242 -0.1987  0.4947
  524TMC3     H 7785   1.214   0.534   9.501 -1.5905 -1.1106 -0.7016
  524TMC3    H1 7786   1.070   0.817   9.802 -0.5186 -0.9594 -0.1248
  524TMC3    H2 7787   0.823   0.708   9.483  1.3324  2.7480 -1.9746
  524TMC3    C7 7788   0.855   0.881   9.673 -0.2529  0.5397 -0.0779
  524TMC3    C8 7789   0.994   0.509   9.399 -0.5018 -0.0075  0.0500
  524TMC3    O1 7790   0.867   0.921   9.789 -0.0957  0.0266 -0.7897
  524TMC3    O2 7791   1.035   0.395   9.421 -0.8105 -0.0274  0.1558
  525MPD2     C 7792   4.180   1.925  14.344  0.0314  0.7270 -0.1185
  525MPD2    C1 7793   4.313   1.966  14.367 -0.6362 -0.4929  0.0652
  525MPD2    C2 7794   4.337   2.105  14.350  0.5655 -0.2372 -0.1141
  525MPD2    C3 7795   4.239   2.188  14.297 -0.4264 -0.5233  0.1819
  525MPD2    C4 7796   4.117   2.136  14.267 -0.2811 -0.1789  0.3935
  525MPD2    C5 7797   4.086   2.008  14.296  0.7714 -0.6066 -0.0951
  525MPD2     H 7798   4.430   2.143  14.390 -0.5830  1.2152  1.1320
  525MPD2    H1 7799   4.034   2.192  14.226  0.2874 -1.6510 -2.7287
  525MPD2    H2 7800   4.152   1.821  14.354  0.9809  0.3814 -1.0301
  525MPD2    H3 7801   3.991   1.961  14.274  1.1157 -1.2720 -0.1542
  525MPD2     N 7802   4.257   2.327  14.278 -0.5023  0.3737  0.1170
  525MPD2    H5 7803   4.175   2.382  14.254 -0.4458  0.9885  1.3092
  525MPD2    N1 7804   4.412   1.885  14.428  0.6861  0.4125  0.1545
  525MPD2    H7 7805   4.503   1.927  14.446  0.2381  1.4219  0.0290
  526TMC3    C1 7806   4.507   1.714  14.554  0.2243  0.8127  0.1844
  526TMC3    C2 7807   4.480   1.640  14.666  0.1532  0.4622 -0.9676
  526TMC3    C3 7808   4.584   1.615  14.750 -0.3933 -0.0644  0.1158
  526TMC3    C4 7809   4.629   1.772  14.531 -0.0968 -0.6728  0.1065
  526TMC3    C5 7810   0.005   1.751  14.625  0.9305  0.3023  0.0976
  526TMC3    C6 7811   4.702   1.679  14.735  0.4231 -0.4035 -0.0193
  526TMC3     C 7812   4.390   1.764  14.490 -0.5160  0.0724  0.0345
  526TMC3     O 7813   4.289   1.700  14.503  0.3699  0.2214 -0.9851
  526TMC3     H 7814   4.379   1.603  14.681  0.0167  1.5463  0.8019
  526TMC3    H1 7815   4.646   1.821  14.436  0.5550 -0.5701  0.2768
  526TMC3    H2 7816   0.058   1.684  14.813  1.5518  1.5638 -1.2523
  526TMC3    C7 7817   0.122   1.839  14.617 -0.0790 -0.5071  0.0504
  526TMC3    C8 7818   4.568   1.527  14.859  0.4770  0.3705  0.2956
  526TMC3    O1 7819   0.114   1.936  14.546  0.5038 -0.0397  0.0350
  526TMC3    O2 7820   4.673   1.509  14.918  0.2137  0.5304  0.3925
  527MPD2     C 7821   2.003   0.124   0.995  0.4703 -0.0675  0.3689
  527MPD2    C1 7822   2.098   0.136   1.096  0.0930 -0.7734 -0.1381
  527MPD2    C2 7823   2.223   0.083   1.076 -0.3090 -0.4196  0.1800
  527MPD2    C3 7824   2.257   0.022   0.953  0.6495  0.6305 -0.5515
  527MPD2    C4 7825   2.164   0.013   0.852 -1.4834 -0.0385 -0.2351
  527MPD2    C5 7826   2.039   0.058   0.876 -0.6877 -0.0003 -0.2218
  527MPD2     H 7827   2.290   0.077   1.161  0.1239 -0.6037 -0.1744
  527MPD2    H1 7828   2.181   4.665   0.769  2.4070 -0.1916  0.7162
  527MPD2    H2 7829   1.901   0.159   0.999  0.0355 -1.2411 -0.6408
  527MPD2    H3 7830   1.969   0.038   0.795 -0.1899  0.9609 -0.8955
  527MPD2     N 7831   2.384   4.678   0.951 -0.3980 -0.2032 -0.5146
  527MPD2    H5 7832   2.423   4.672   1.044 -1.4287 -0.7974 -0.1155
  527MPD2    N1 7833   2.072   0.194   1.223 -0.1353  0.8761 -0.4419
  527MPD2    H7 7834   2.139   0.177   1.297 -3.1085 -0.0741  2.0114
  528TMC3    C1 7835   1.967   0.272   1.411  0.0759  0.0144 -1.1824
  528TMC3    C2 7836   2.025   0.174   1.480  0.2864 -0.0344 -0.7027
  528TMC3    C3 7837   1.997   0.168   1.614  0.0744  0.2380  0.0459
  528TMC3    C4 7838   1.884   0.358   1.470  0.0262  0.1381 -0.3087
  528TMC3    C5 7839   1.869   0.366   1.603  0.0008  0.2359 -0.1576
  528TMC3    C6 7840   1.923   0.268   1.682 -0.2713  0.4666  0.1337
  528TMC3     C 7841   1.960   0.262   1.267 -0.0701 -0.1554 -0.6250
  528TMC3     O 7842   1.870   0.318   1.204  0.3980  0.4841  0.7020
  528TMC3     H 7843   2.068   0.083   1.439  0.2046 -0.6301  0.5365
  528TMC3    H1 7844   1.830   0.435   1.415 -1.0365  2.2574  3.7251
  528TMC3    H2 7845   1.924   0.276   1.790 -1.3260  1.2419  0.0829
  528TMC3    C7 7846   1.803   0.475   1.667 -0.1315  0.1299  0.3998
  528TMC3    C8 7847   2.092   0.092   1.689 -0.1869  0.3453 -0.0796
  528TMC3    O1 7848   1.816   0.485   1.791 -0.2743 -0.0304 -0.0985
  528TMC3    O2 7849   2.189   0.060   1.618  0.0680  0.1958 -0.4362
  529MPD2     C 7850   0.235   3.367   0.572 -0.4095  0.2326 -0.7608
  529MPD2    C1 7851   0.328   3.276   0.514 -0.7663  0.1799  0.5277
  529MPD2    C2 7852   0.328   3.261   0.375  0.0554  0.2815 -0.2937
  529MPD2    C3 7853   0.235   3.326   0.294 -0.5667  0.2400 -0.3640
  529MPD2    C4 7854   0.145   3.409   0.357 -0.4434  0.5896 -0.1839
  529MPD2    C5 7855   0.144   3.433   0.490  0.3675 -0.2569  0.2909
  529MPD2     H 7856   0.392   3.189   0.324 -0.1948 -0.8346  0.9675
  529MPD2    H1 7857   0.075   3.466   0.297  1.4973  2.1742 -0.9298
  529MPD2    H2 7858   0.243   3.398   0.676  1.6744  0.7972 -1.0804
  529MPD2    H3 7859   0.079   3.513   0.523  1.3083  1.0439 -1.0212
  529MPD2     N 7860   0.227   3.313   0.157  0.1295  0.3845  0.0880
  529MPD2    H5 7861   0.155   3.367   0.109  0.4019  0.7817  0.1298
  529MPD2    N1 7862   0.411   3.191   0.586  0.7443 -0.3433 -0.8585
  529MPD2    H7 7863   0.467   3.120   0.539  2.8312  0.2621  0.7046
  530TMC3    C1 7864   0.495   3.073   0.767  0.2110  0.2508  0.3686
  530TMC3    C2 7865   0.506   3.055   0.904 -0.2206  0.0655  0.2320
  530TMC3    C3 7866   0.533   2.929   0.947  0.8643 -0.1823  0.1066
  530TMC3    C4 7867   0.518   2.967   0.683 -0.4821  0.6830  0.1009
  530TMC3    C5 7868   0.568   2.848   0.730  0.0412 -0.0915 -0.4091
  530TMC3    C6 7869   0.564   2.821   0.859  0.2171 -0.2120  0.1228
  530TMC3     C 7870   0.428   3.194   0.721  0.0197 -0.0678 -0.2509
  530TMC3     O 7871   0.373   3.267   0.803  0.3587  0.1069 -0.9500
  530TMC3     H 7872   0.490   3.143   0.966 -0.0484  0.3758 -0.1627
  530TMC3    H1 7873   0.496   2.965   0.577 -0.5886 -1.7331  0.1719
  530TMC3    H2 7874   0.582   2.717   0.887  0.8411 -0.1704 -0.1271
  530TMC3    C7 7875   0.551   2.731   0.639  0.0580 -0.3439 -0.1020
  530TMC3    C8 7876   0.500   2.901   1.084 -0.3340 -0.3186  0.1438
  530TMC3    O1 7877   0.583   2.756   0.525  0.2242 -0.3241  0.1928
  530TMC3    O2 7878   0.432   2.991   1.136 -0.2107 -0.8650  0.5835
  531MPD2     C 7879   3.993   0.521  12.517  0.2846 -0.0945 -0.1143
  531MPD2    C1 7880   3.951   0.557  12.641 -0.1298  0.0531  0.7016
  531MPD2    C2 7881   3.817   0.558  12.668  0.4643 -0.6010  0.5261
  531MPD2    C3 7882   3.723   0.526  12.563 -0.2936 -0.2546  0.6081
  531MPD2    C4 7883   3.767   0.507  12.435 -0.1636 -0.5046 -0.3313
  531MPD2    C5 7884   3.903   0.507  12.416  0.0667  0.5467 -0.5694
  531MPD2     H 7885   3.783   0.581  12.768  0.5475  1.4309  0.0915
  531MPD2    H1 7886   3.706   0.492  12.346 -1.0222  0.8268  0.0329
  531MPD2    H2 7887   4.096   0.511  12.484 -0.0336  0.7329 -1.3519
  531MPD2    H3 7888   3.938   0.487  12.315  0.6504  1.5587 -0.5678
  531MPD2     N 7889   3.587   0.542  12.607  0.1398  0.3203  0.1846
  531MPD2    H5 7890   3.571   0.559  12.706 -0.2932  1.6673 -0.1220
  531MPD2    N1 7891   4.051   0.609  12.734 -0.6307  0.2946  0.3923
  531MPD2    H7 7892   4.145   0.598  12.697 -0.1121  2.1669  1.1775
  532TMC3    C1 7893   4.145   0.692  12.934 -0.4570  0.3286  0.6828
  532TMC3    C2 7894   4.111   0.767  13.046 -0.4038 -0.7214 -0.8077
  532TMC3    C3 7895   4.129   0.713  13.172  0.6185  0.0758 -0.1881
  532TMC3    C4 7896   4.212   0.573  12.955  0.3975 -0.3850  0.2455
  532TMC3    C5 7897   4.229   0.524  13.088 -0.0519  0.7634 -0.0950
  532TMC3    C6 7898   4.199   0.595  13.194  0.9524  0.4951 -0.3769
  532TMC3     C 7899   4.026   0.660  12.858 -0.1711 -0.5300 -0.3302
  532TMC3     O 7900   3.923   0.655  12.930 -0.2172  0.2878 -0.3538
  532TMC3     H 7901   4.062   0.862  13.031  0.3040  0.0863  1.9155
  532TMC3    H1 7902   4.241   0.519  12.865  1.4412  0.1843  0.2374
  532TMC3    H2 7903   4.203   0.542  13.289 -1.0574  0.0241 -0.5436
  532TMC3    C7 7904   4.296   0.400  13.105  0.1828  0.5258 -0.1124
  532TMC3    C8 7905   4.013   0.728  13.258  0.2231  0.6460  0.2890
  532TMC3    O1 7906   4.375   0.383  13.198  0.6598  0.7578 -0.2352
  532TMC3    O2 7907   4.011   0.693  13.375  0.0339  0.2956  0.0557
  533TMC3    C1 7908   4.352   2.540  14.292 -0.3015  0.7643  0.0319
  533TMC3    C2 7909   4.465   2.618  14.292  0.6067 -0.0236 -0.0892
  533TMC3    C3 7910   4.473   2.726  14.367  0.4910 -0.3825 -0.0547
  533TMC3    C4 7911   4.254   2.564  14.387  0.0481 -0.5823  0.0196
  533TMC3    C5 7912   4.274   2.666  14.478  0.3998 -0.3702 -0.0171
  533TMC3    C6 7913   4.370   2.758  14.448  0.4474 -1.0482 -0.2034
  533TMC3     C 7914   4.375   2.396  14.288  0.5230 -0.8906 -0.6776
  533TMC3     O 7915   4.487   2.355  14.304  0.1688  0.2829 -0.4186
  533TMC3     H 7916   4.547   2.599  14.225  1.4247  0.9347  0.6342
  533TMC3    H1 7917   4.170   2.502  14.415 -0.0726 -0.6736 -0.5330
  533TMC3    H2 7918   4.387   2.843  14.513 -0.3378 -1.0455 -0.0048
  533TMC3    C7 7919   4.293   2.599  14.607  0.1056  0.1265 -0.0387
  533TMC3    C8 7920   4.590   2.810  14.372 -0.0809  0.0813 -0.0045
  533TMC3    O1 7921   4.299   2.475  14.595  0.0540 -0.3427 -0.1283
  533TMC3    O2 7922   4.697   2.742  14.364 -0.2896 -0.1590  0.8560
  534MPD2     C 7923   2.430   3.432   1.786 -0.2775  0.1313 -0.8134
  534MPD2    C1 7924   2.330   3.521   1.754  0.2683 -1.0233  0.2592
  534MPD2    C2 7925   2.231   3.484   1.674  0.0149  0.3962  0.0301
  534MPD2    C3 7926   2.236   3.356   1.614  0.0706  0.4959  0.2324
  534MPD2    C4 7927   2.339   3.271   1.646  0.1783 -0.0661 -0.0260
  534MPD2    C5 7928   2.432   3.306   1.734 -0.2368  0.6365  0.3177
  534MPD2     H 7929   2.157   3.559   1.650 -0.0590  0.4955  0.5739
  534MPD2    H1 7930   2.356   3.181   1.587  0.8518  0.5968 -0.8447
  534MPD2    H2 7931   2.521   3.450   1.843  0.2286  0.1266 -1.6140
  534MPD2    H3 7932   2.506   3.232   1.762 -1.6110 -0.8194  0.1605
  534MPD2     N 7933   2.132   3.303   1.535 -0.0811 -0.0721 -0.4209
  534MPD2    H5 7934   2.138   3.202   1.522 -0.0050  0.0931 -1.6232
  534MPD2    N1 7935   2.323   3.651   1.808 -0.2216  0.2087 -0.2568
  534MPD2    H7 7936   2.238   3.703   1.789  0.1318  1.0204  0.4083
  535TMC3    C1 7937   1.942   3.288   1.400  0.3508  0.3022 -0.3206
  535TMC3    C2 7938   1.811   3.311   1.421  0.3924  0.0849 -0.1212
  535TMC3    C3 7939   1.725   3.221   1.358  0.3621  0.5790  0.0605
  535TMC3    C4 7940   1.995   3.198   1.318  0.3310  0.4584  0.2400
  535TMC3    C5 7941   1.901   3.130   1.244  0.0714 -0.0822  0.1505
  535TMC3    C6 7942   1.767   3.133   1.270  0.2288 -0.9558  0.1907
  535TMC3     C 7943   2.026   3.374   1.487  0.0775 -0.2992 -0.0408
  535TMC3     O 7944   1.991   3.494   1.510 -0.0086  0.4206  0.2477
  535TMC3     H 7945   1.778   3.392   1.484 -0.4783 -0.5538  0.2371
  535TMC3    H1 7946   2.101   3.202   1.294  0.1207  1.5152 -0.5100
  535TMC3    H2 7947   1.694   3.064   1.228  1.2252 -2.8874  1.5906
  535TMC3    C7 7948   1.957   3.027   1.161 -0.2281 -0.1656  0.0408
  535TMC3    C8 7949   1.589   3.223   1.407  0.0238  0.3587  0.2267
  535TMC3    O1 7950   2.069   2.986   1.184 -0.3197  0.7488 -0.4162
  535TMC3    O2 7951   1.522   3.129   1.376 -0.1604  0.4485  0.2865
  536MPD2     C 7952   1.545   1.660  16.309  0.4017  0.0799  0.2545
  536MPD2    C1 7953   1.426   1.597  16.343 -0.4656 -0.0421 -0.3443
  536MPD2    C2 7954   1.315   1.619  16.260  0.0213  0.1892 -1.1783
  536MPD2    C3 7955   1.327   1.704  16.145  0.0515  0.6411 -0.2099
  536MPD2    C4 7956   1.440   1.770  16.120 -0.7087  0.6556  0.2944
  536MPD2    C5 7957   1.541   1.755  16.210 -0.0077  0.2538  0.2777
  536MPD2     H 7958   1.222   1.568  16.282 -0.7560  2.3136  0.4667
  536MPD2    H1 7959   1.450   1.831  16.031  1.8753 -1.2635 -0.7295
  536MPD2    H2 7960   1.636   1.653  16.368  1.0245 -1.3664 -0.8787
  536MPD2    H3 7961   1.633   1.804  16.183  1.6405 -3.1243 -0.2853
  536MPD2     N 7962   1.217   1.718  16.053  0.1568  0.1666  0.1862
  536MPD2    H5 7963   1.234   1.778  15.972 -1.3889  0.2295 -0.0835
  536MPD2    N1 7964   1.436   1.509  16.453  0.0137 -0.0200 -0.3237
  536MPD2    H7 7965   1.527   1.489  16.492  0.0703  0.4964 -0.1855
  537TMC3    C1 7966   1.372   1.387  16.643  0.1900  0.7344 -0.1901
  537TMC3    C2 7967   1.497   1.407  16.698 -0.6009 -0.4198 -0.2391
  537TMC3    C3 7968   1.498   1.398  16.831  0.5100 -0.1167  0.7333
  537TMC3    C4 7969   1.256   1.375  16.718 -0.2089 -0.0481 -0.2499
  537TMC3    C5 7970   1.270   1.356  16.855  0.3367  0.6479 -0.0742
  537TMC3    C6 7971   1.392   1.368  16.910 -0.8587 -0.1641  0.3357
  537TMC3     C 7972   1.336   1.443  16.514 -0.3319 -0.1013 -0.1678
  537TMC3     O 7973   1.221   1.443  16.483  0.1942  0.1329 -0.0894
  537TMC3     H 7974   1.590   1.443  16.655 -0.9292  1.3747  0.5122
  537TMC3    H1 7975   1.164   1.351  16.667 -0.9789  1.6184  0.3723
  537TMC3    H2 7976   1.414   1.330  17.009  0.2027 -0.9800 -0.2158
  537TMC3    C7 7977   1.165   1.286  16.924 -0.0927  0.1310  0.3861
  537TMC3    C8 7978   1.628   1.392  16.896  0.3377  0.7269  0.8040
  537TMC3    O1 7979   1.080   1.232  16.850 -0.1041  0.1265  0.6465
  537TMC3    O2 7980   1.627   1.439  17.010  0.3248  0.2959 -0.6780
  538TMC3    C1 7981   2.247   0.017  10.735  0.3394  0.8358  0.5418
  538TMC3    C2 7982   2.318   4.668  10.647 -0.3927  0.2573 -0.3272
  538TMC3    C3 7983   2.301   4.684  10.512  0.0891  0.4445  0.6864
  538TMC3    C4 7984   2.164   0.120  10.692  1.0661  0.4583  0.1262
  538TMC3    C5 7985   2.157   0.130  10.555 -0.7256 -0.1010  0.0613
  538TMC3    C6 7986   2.209   0.045  10.463 -0.7073 -0.0719  0.0095
  538TMC3     C 7987   2.251   4.718  10.882  0.5030  0.1431  0.5092
  538TMC3     O 7988   2.183   0.073  10.947  0.4794  0.3120 -0.1658
  538TMC3     H 7989   2.392   4.599  10.687  0.0294  0.5850 -0.5465
  538TMC3    H1 7990   2.128   0.197  10.758 -2.6809 -2.3452  1.3414
  538TMC3    H2 7991   2.179   0.067  10.361  1.2154 -0.6601 -0.6758
  538TMC3    C7 7992   2.059   0.225  10.501  0.1276 -0.8705  0.2127
  538TMC3    C8 7993   2.395   4.617  10.425  0.7725  0.6880 -0.1140
  538TMC3    O1 7994   1.982   0.179  10.414  0.2373  0.5456  0.1061
  538TMC3    O2 7995   2.447   4.518  10.473 -0.6648 -0.2352 -0.6012
  539MPD2     C 7996   2.384   4.182  11.588 -0.0709  0.5529 -0.8228
  539MPD2    C1 7997   2.299   4.152  11.486  0.1098  0.3578 -0.2492
  539MPD2    C2 7998   2.226   4.263  11.434 -0.8261  0.2715  0.0538
  539MPD2    C3 7999   2.235   4.389  11.469 -0.6647  0.9710  0.5301
  539MPD2    C4 8000   2.321   4.417  11.575  0.0956 -0.5369 -0.0385
  539MPD2    C5 8001   2.393   4.315  11.629  0.2385 -0.8096  0.6905
  539MPD2     H 8002   2.163   4.245  11.348 -0.0325 -0.0090 -0.4652
  539MPD2    H1 8003   2.327   4.517  11.617  0.8387 -0.0469 -1.3205
  539MPD2    H2 8004   2.446   4.105  11.633 -1.9167 -0.1106  0.5682
  539MPD2    H3 8005   2.451   4.331  11.719  0.8326  1.6698 -0.1403
  539MPD2     N 8006   2.162   4.500  11.421  0.0956  0.0364  0.4984
  539MPD2    H5 8007   2.180   4.587  11.469 -0.2193  0.1561  0.4042
  539MPD2    N1 8008   2.274   4.027  11.433 -0.1875 -0.6796 -0.2914
  539MPD2    H7 8009   2.209   4.017  11.356 -3.8172  2.6765  2.3276
  540TMC3    C1 8010   2.026   4.629  11.281 -0.2779  0.3290 -0.3954
  540TMC3    C2 8011   1.964   4.643  11.162 -0.0098  0.3491  0.4455
  540TMC3    C3 8012   1.905   0.046  11.140  0.3437 -0.1040 -0.3784
  540TMC3    C4 8013   2.029   0.001  11.378 -0.0932 -0.1548 -0.3051
  540TMC3    C5 8014   1.969   0.125  11.348  0.5801  1.0960  0.5642
  540TMC3    C6 8015   1.917   0.157  11.223 -0.2707 -0.2873  0.7055
  540TMC3     C 8016   2.081   4.496  11.312  0.2123  0.8287  0.4668
  540TMC3     O 8017   2.059   4.411  11.230  0.1169  0.2920 -0.3220
  540TMC3     H 8018   1.941   4.556  11.101  2.2403  0.9156 -1.2163
  540TMC3    H1 8019   2.062   4.704  11.480 -0.1876 -0.9184 -0.4119
  540TMC3    H2 8020   1.874   0.254  11.203 -0.5675 -0.1778  1.8809
  540TMC3    C7 8021   1.926   0.208  11.457 -0.1246 -0.3639  0.3490
  540TMC3    C8 8022   1.856   0.079  11.008  0.3149 -0.0283 -0.4708
  540TMC3    O1 8023   1.832   0.284  11.432  0.2966 -0.6297  0.1971
  540TMC3    O2 8024   1.869   0.196  10.973 -0.2726 -0.3834  0.0325
  541MPD2     C 8025   0.307   1.003  13.183 -0.0766 -0.4077  0.4888
  541MPD2    C1 8026   0.187   0.943  13.160  0.0688  0.6172  0.3382
  541MPD2    C2 8027   0.132   0.960  13.035 -0.4179  0.3568  0.5690
  541MPD2    C3 8028   0.187   1.036  12.936 -0.2092 -0.3455  0.2966
  541MPD2    C4 8029   0.302   1.105  12.967 -0.5236 -0.3401  0.5003
  541MPD2    C5 8030   0.362   1.081  13.087  0.1146 -0.3366  0.1981
  541MPD2     H 8031   0.045   0.898  13.013  0.2953  0.0616 -1.4087
  541MPD2    H1 8032   0.359   1.153  12.889 -0.7709  0.0720  0.5751
  541MPD2    H2 8033   0.355   0.991  13.280 -1.7281  1.2192  1.5191
  541MPD2    H3 8034   0.456   1.134  13.103  0.7468 -1.4177  0.0598
  541MPD2     N 8035   0.137   1.036  12.799 -0.0705  0.0002  0.3966
  541MPD2    H5 8036   0.188   1.093  12.732  3.2530 -1.3088  1.8431
  541MPD2    N1 8037   0.126   0.858  13.251 -0.6673  0.4262  0.4420
  541MPD2    H7 8038   0.050   0.803  13.214  1.0622 -0.4880 -1.7457
  542TMC3    C1 8039   4.711   0.992  12.623 -0.0426 -0.1103  0.1701
  542TMC3    C2 8040   0.092   0.960  12.538 -1.0134  0.3446 -0.0725
  542TMC3    C3 8041   0.058   0.956  12.405  0.1891 -0.3597 -0.4553
  542TMC3    C4 8042   4.584   1.004  12.585  0.5716 -0.5341 -0.1198
  542TMC3    C5 8043   4.552   1.023  12.454 -0.3877 -0.1886  1.0445
  542TMC3    C6 8044   4.652   0.992  12.366 -0.3391  0.0694  0.0704
  542TMC3     C 8045   0.010   0.993  12.764 -0.5161  0.0136  0.0792
  542TMC3     O 8046   4.634   0.972  12.837  0.1624 -0.1970 -0.1841
  542TMC3     H 8047   0.192   0.938  12.575 -1.0206  1.5896  0.6846
  542TMC3    H1 8048   4.509   1.003  12.663  0.5509  1.6902 -0.1110
  542TMC3    H2 8049   4.622   0.978  12.263  0.7254  0.2259 -0.2671
  542TMC3    C7 8050   4.421   1.080  12.416  0.1564 -0.2558 -0.4422
  542TMC3    C8 8051   0.160   0.931  12.307  0.2994  0.8962  0.2846
  542TMC3    O1 8052   4.388   1.055  12.302  0.5715  0.0276 -0.2321
  542TMC3    O2 8053   0.130   0.970  12.194 -0.3317  0.1352 -0.8010
  543TMC3    C1 8054   4.523   1.793  17.329 -0.4778 -0.2168 -0.0855
  543TMC3    C2 8055   4.566   1.666  17.362  0.3133 -0.1568  0.2902
  543TMC3    C3 8056   4.527   1.617  17.481  0.0525  0.4863 -0.1637
  543TMC3    C4 8057   4.428   1.862  17.397  0.3808 -0.6946 -0.2151
  543TMC3    C5 8058   4.379   1.804  17.505  0.2045 -0.1529  0.4769
  543TMC3    C6 8059   4.427   1.686  17.550 -0.3693  0.5015  0.2254
  543TMC3     C 8060   4.541   1.833  17.185  0.1459 -0.5045 -0.5553
  543TMC3     O 8061   4.553   1.951  17.162  0.0089 -0.3162  0.4213
  543TMC3     H 8062   4.652   1.619  17.316  0.2466 -1.1406  1.1480
  543TMC3    H1 8063   4.381   1.948  17.352 -1.0836 -1.1452  0.4533
  543TMC3    H2 8064   4.397   1.635  17.641  0.8788 -0.0668  0.3199
  543TMC3    C7 8065   4.305   1.869  17.607 -0.6051  0.9676  0.2671
  543TMC3    C8 8066   4.581   1.488  17.511  0.2393 -0.0206  0.4784
  543TMC3    O1 8067   4.257   1.801   0.014 -0.0739 -0.2995 -0.0443
  543TMC3    O2 8068   4.612   1.409  17.418 -0.3385 -0.0334  0.2658
  544MPD2     C 8069   4.661   1.093   0.149 -1.0132 -0.2852  0.0666
  544MPD2    C1 8070   4.647   1.096   0.013  0.6329 -1.0251  0.1659
  544MPD2    C2 8071   4.619   1.220  17.637  0.2931 -0.1192 -0.6804
  544MPD2    C3 8072   4.589   1.335   0.022 -0.0771  0.2794 -1.2265
  544MPD2    C4 8073   4.590   1.325   0.159  0.0833 -0.3331 -0.0568
  544MPD2    C5 8074   4.624   1.212   0.222  0.6729 -0.1257 -0.2620
  544MPD2     H 8075   4.598   1.217  17.531  0.7623  2.7077 -0.8449
  544MPD2    H1 8076   4.558   1.412   0.215  1.6887  0.1886  0.0528
  544MPD2    H2 8077   4.695   1.009   0.208  0.9462  0.7223  0.3562
  544MPD2    H3 8078   4.624   1.215   0.330  1.1374 -0.8503 -0.2364
  544MPD2     N 8079   4.563   1.461  17.645 -0.2545  0.3670  0.1164
  544MPD2    H5 8080   4.535   1.535   0.023  2.9324  0.9784  0.8192
  544MPD2    N1 8081   4.653   0.969  17.632  0.9867 -0.1458  0.0725
  544MPD2    H7 8082   4.655   0.897   0.018 -0.9572  0.7345  1.0102
  545TMC3    C1 8083   4.603   0.803  17.456  0.1049  0.0116 -0.2999
  545TMC3    C2 8084   4.503   0.787  17.358 -1.1728 -0.4976 -0.1687
  545TMC3    C3 8085   4.451   0.667  17.336  0.2099 -0.3088  0.1564
  545TMC3    C4 8086   4.662   0.696  17.526 -0.5164  0.3236 -0.0890
  545TMC3    C5 8087   4.604   0.574  17.498 -0.4325 -0.0361  0.2311
  545TMC3    C6 8088   4.504   0.555  17.406  0.1202  0.1749  0.1026
  545TMC3     C 8089   4.626   0.949  17.491 -0.0534 -0.7215  0.0735
  545TMC3     O 8090   4.613   1.036  17.404 -0.7471 -0.1475 -0.2424
  545TMC3     H 8091   4.466   0.873  17.304 -0.1708  0.7536  1.1408
  545TMC3    H1 8092   0.014   0.716  17.604 -0.7476 -1.5161  0.6080
  545TMC3    H2 8093   4.437   0.471  17.418 -1.9676  1.4572 -2.5748
  545TMC3    C7 8094   4.631   0.464  17.591 -0.0124 -0.1647 -0.0206
  545TMC3    C8 8095   4.328   0.647  17.266 -0.0408  0.6379 -0.3279
  545TMC3    O1 8096   4.544   0.381  17.616 -0.1584 -0.1896  0.4670
  545TMC3    O2 8097   4.295   0.533  17.239  0.0701 -0.2304 -0.2246
  546MPD2     C 8098   1.221   1.692  16.739 -0.0378  0.1102  0.6167
  546MPD2    C1 8099   1.189   1.692  16.867 -0.2425 -0.1403 -0.4711
  546MPD2    C2 8100   1.271   1.761  16.952 -0.0558 -0.9508  0.0071
  546MPD2    C3 8101   1.394   1.809  16.910  0.1173  0.3801  0.2542
  546MPD2    C4 8102   1.432   1.797  16.778  0.4681  0.0010  0.0831
  546MPD2    C5 8103   1.342   1.738  16.695  0.5524  0.2543  0.2951
  546MPD2     H 8104   1.231   1.789  17.049  0.7463  0.4528 -0.0594
  546MPD2    H1 8105   1.525   1.842  16.744 -0.3716  0.9060 -1.0248
  546MPD2    H2 8106   1.152   1.643  16.671  0.3922  1.7380 -0.9831
  546MPD2    H3 8107   1.360   1.724  16.589  1.7783 -2.6023  0.8737
  546MPD2     N 8108   1.472   1.889  16.992 -0.6444  0.2026  1.1334
  546MPD2    H5 8109   1.551   1.935  16.946 -0.8278 -0.4606  0.1485
  546MPD2    N1 8110   1.058   1.650  16.899 -0.2603  0.1479 -0.0625
  546MPD2    H7 8111   0.984   1.636  16.831 -1.7885  2.8250  1.0374
  547TMC3    C1 8112   0.879   1.615  17.043  0.7242 -0.2240 -0.5118
  547TMC3    C2 8113   0.796   1.713  16.990  0.0457 -0.5842  0.4887
  547TMC3    C3 8114   0.679   1.746  17.055  0.0665 -0.5326  0.7495
  547TMC3    C4 8115   0.840   1.545  17.153  0.0663 -0.3597  0.0060
  547TMC3    C5 8116   0.716   1.568  17.205 -0.2537  0.3471 -0.4193
  547TMC3    C6 8117   0.633   1.668  17.157 -0.1742 -0.4202 -0.0631
  547TMC3     C 8118   1.027   1.623  17.032 -0.6103  0.0068  0.0258
  547TMC3     O 8119   1.100   1.601  17.126  0.1458  0.1802 -0.0106
  547TMC3     H 8120   0.821   1.760  16.895  0.7569 -1.6296  0.1547
  547TMC3    H1 8121   0.910   1.470  17.189 -0.5897  0.0552  2.1690
  547TMC3    H2 8122   0.543   1.702  17.207  0.2948  0.5013  0.1542
  547TMC3    C7 8123   0.688   1.517  17.334  0.3236 -0.3992  1.2558
  547TMC3    C8 8124   0.602   1.863  17.011  0.8361 -0.1187 -0.4184
  547TMC3    O1 8125   0.572   1.532  17.369 -0.3734 -0.0973 -0.5731
  547TMC3    O2 8126   0.481   1.872  17.027  0.2662  0.9136 -0.2345
  548MPD2     C 8127   0.932   2.653  12.140  0.1400 -0.0546  0.6690
  548MPD2    C1 8128   0.902   2.552  12.228  0.4012 -0.3737  0.5964
  548MPD2    C2 8129   0.989   2.439  12.231 -0.0545 -0.5041 -0.0715
  548MPD2    C3 8130   1.091   2.421  12.135  0.1943 -0.4347  0.0678
  548MPD2    C4 8131   1.097   2.510  12.033 -0.2574 -1.1559 -0.4597
  548MPD2    C5 8132   1.023   2.623  12.048  0.3482  0.0227 -0.5404
  548MPD2     H 8133   0.965   2.352  12.292 -1.1496 -0.4396 -0.4183
  548MPD2    H1 8134   1.163   2.497  11.948  0.0553  2.0431 -0.7057
  548MPD2    H2 8135   0.868   2.740  12.125  1.5186  0.8967  0.2474
  548MPD2    H3 8136   1.042   2.698  11.972 -1.0982  1.9112  0.9491
  548MPD2     N 8137   1.181   2.315  12.145 -0.2125 -0.4032  0.0046
  548MPD2    H5 8138   1.182   2.250  12.224  0.0434  0.2290  0.5226
  548MPD2    N1 8139   0.776   2.559  12.297 -0.4296 -0.6617 -0.5081
  548MPD2    H7 8140   0.714   2.636  12.273 -1.4060 -1.4305 -0.4260
  549TMC3    C1 8141   0.602   2.495  12.443 -0.8748  0.3485 -0.5781
  549TMC3    C2 8142   0.545   2.620  12.444 -0.0381 -0.0519 -0.4657
  549TMC3    C3 8143   0.415   2.634  12.494 -0.5305 -0.6190 -0.4255
  549TMC3    C4 8144   0.533   2.386  12.467 -0.6461 -0.2887 -0.6729
  549TMC3    C5 8145   0.397   2.401  12.496  0.7413  0.0385 -0.7433
  549TMC3    C6 8146   0.345   2.522  12.518  0.1948  0.6761  0.0402
  549TMC3     C 8147   0.732   2.471  12.399 -0.1047  0.0901  0.8370
  549TMC3     O 8148   0.789   2.379  12.452 -0.1760 -0.5093 -0.1398
  549TMC3     H 8149   0.603   2.707  12.416  1.8027 -0.8938  0.8309
  549TMC3    H1 8150   0.588   2.293  12.473  0.4472  0.3925 -0.2181
  549TMC3    H2 8151   0.245   2.541  12.554  0.5549  0.1381  1.3438
  549TMC3    C7 8152   0.309   2.295  12.529  0.0766 -0.1644 -0.0441
  549TMC3    C8 8153   0.333   2.747  12.461  0.0512 -0.2672  0.1382
  549TMC3    O1 8154   0.215   2.322  12.606 -0.2497 -0.1139 -0.1187
  549TMC3    O2 8155   0.213   2.746  12.480 -0.0439 -0.0076  0.0964
  550TMC3    C1 8156   4.201   0.758  12.252  0.5703 -0.4306 -0.4109
  550TMC3    C2 8157   4.198   0.818  12.378 -0.9315 -0.0433 -0.3054
  550TMC3    C3 8158   4.099   0.905  12.404 -0.5673 -0.2687 -0.3139
  550TMC3    C4 8159   4.107   0.786  12.152  0.2989 -0.2967 -0.0439
  550TMC3    C5 8160   4.012   0.870  12.186 -0.3094  0.0606 -0.1558
  550TMC3    C6 8161   3.997   0.928  12.312 -0.2911 -0.1771  0.1065
  550TMC3     C 8162   4.289   0.649  12.236  0.3510 -0.1135 -0.3585
  550TMC3     O 8163   4.382   0.637  12.317  0.1265 -0.3579 -0.5485
  550TMC3     H 8164   4.274   0.805  12.454 -1.2568  0.5042  0.1247
  550TMC3    H1 8165   4.119   0.734  12.057 -0.4653  0.6142 -0.6342
  550TMC3    H2 8166   3.922   1.003  12.329 -0.8320 -1.3094  2.7283
  550TMC3    C7 8167   3.904   0.887  12.086 -0.6650 -0.2644  0.0189
  550TMC3    C8 8168   4.062   0.922  12.545 -0.3530  0.6030 -0.1966
  550TMC3    O1 8169   3.794   0.869  12.137  0.5999 -0.2895  0.4262
  550TMC3    O2 8170   4.153   0.918  12.627 -0.5438 -0.3020 -0.3248
  551TMC3    C1 8171   1.814   3.161  13.235  0.2275 -0.4461 -0.3100
  551TMC3    C2 8172   1.946   3.133  13.197 -0.5697 -0.4105  0.3655
  551TMC3    C3 8173   2.042   3.214  13.242  0.8296 -0.1494  0.9045
  551TMC3    C4 8174   1.773   3.255  13.325  0.4779 -0.7123  0.3065
  551TMC3    C5 8175   1.880   3.326  13.369 -0.5977 -0.9305 -0.5948
  551TMC3    C6 8176   2.010   3.311  13.333  0.4487  0.3588 -0.0552
  551TMC3     C 8177   1.712   3.100  13.157 -0.0910  0.1714  0.0617
  551TMC3     O 8178   1.759   3.006  13.091  0.1103 -0.1081  0.3525
  551TMC3     H 8179   1.970   3.053  13.128 -0.9449  0.0720 -0.3317
  551TMC3    H1 8180   1.670   3.282  13.341  0.2262 -2.1900  1.1613
  551TMC3    H2 8181   2.080   3.382  13.374  0.6293  0.7563 -1.0601
  551TMC3    C7 8182   1.848   3.422  13.471 -0.2417 -0.1174 -0.0091
  551TMC3    C8 8183   2.158   3.230  13.164  0.0587  0.1148  0.5185
  551TMC3    O1 8184   1.744   3.485  13.448 -0.0374 -0.0456 -0.1219
  551TMC3    O2 8185   2.204   3.139  13.097 -0.1100  0.4217 -0.2332
  552MPD2     C 8186   4.341   0.697  13.824 -0.1523  0.0900 -0.3259
  552MPD2    C1 8187   4.381   0.572  13.866  0.1094 -0.2136 -0.5749
  552MPD2    C2 8188   4.466   0.551  13.968 -0.0353 -0.0276  0.4488
  552MPD2    C3 8189   4.496   0.662  14.048  1.1166  0.1364 -0.1822
  552MPD2    C4 8190   4.459   0.788  14.009 -0.0057  0.9286 -0.8821
  552MPD2    C5 8191   4.389   0.803  13.899  0.2066  0.2705 -0.2392
  552MPD2     H 8192   4.507   0.451  13.982 -2.4685 -0.9087  1.2759
  552MPD2    H1 8193   4.496   0.868  14.072  1.5571  0.4864 -1.2166
  552MPD2    H2 8194   4.282   0.717  13.736 -0.0061 -0.1002 -0.4678
  552MPD2    H3 8195   4.372   0.906  13.870 -1.0096 -0.2059 -1.2035
  552MPD2     N 8196   4.577   0.652  14.160 -0.3403  0.1263  0.5731
  552MPD2    H5 8197   4.601   0.737  14.210 -2.6119  0.5292  0.9505
  552MPD2    N1 8198   4.336   0.460  13.795 -0.1671 -0.6557  0.4859
  552MPD2    H7 8199   4.371   0.371  13.828  0.6537  0.1500  1.7999
  553TMC3    C1 8200   4.203   0.319  13.658  0.0264 -0.4354  0.6930
  553TMC3    C2 8201   4.146   0.295  13.530 -0.4119 -0.4453  0.4567
  553TMC3    C3 8202   4.125   0.164  13.493  0.4358  0.0479  0.4833
  553TMC3    C4 8203   4.236   0.216  13.743  0.0569 -0.1451  0.0324
  553TMC3    C5 8204   4.221   0.090  13.696  0.6807  0.0532  0.3027
  553TMC3    C6 8205   4.157   0.062  13.574  0.2134 -0.4226  0.0592
  553TMC3     C 8206   4.256   0.458  13.680 -0.3658 -0.2150 -0.2179
  553TMC3     O 8207   4.212   0.542  13.606 -0.0007 -0.0240 -0.3460
  553TMC3     H 8208   4.114   0.377  13.466 -0.7000 -0.7202  0.2475
  553TMC3    H1 8209   4.269   0.232  13.845  1.0318 -0.8735 -0.1635
  553TMC3    H2 8210   4.131   4.681  13.547 -2.9927  0.2632  0.5939
  553TMC3    C7 8211   4.227   4.708  13.799 -0.4090 -0.1059 -0.0452
  553TMC3    C8 8212   4.076   0.124  13.359  0.2077 -0.5447  0.3489
  553TMC3    O1 8213   4.130   4.635  13.809 -0.2323 -0.1070  0.0181
  553TMC3    O2 8214   4.090   0.008  13.328 -0.0924 -0.3175  0.7136
  554TMC3    C1 8215   1.081   4.118  11.327 -0.4381 -0.2291  0.3584
  554TMC3    C2 8216   1.016   4.053  11.227 -0.1371  0.7472 -0.1662
  554TMC3    C3 8217   1.080   4.059  11.102 -0.3161  0.0458 -0.4836
  554TMC3    C4 8218   1.188   4.207  11.306 -1.3369 -0.1792  0.8063
  554TMC3    C5 8219   1.238   4.220  11.181 -0.1154 -0.7846 -1.1206
  554TMC3    C6 8220   1.189   4.140  11.084  0.3230 -0.5323 -0.8043
  554TMC3     C 8221   1.062   4.073  11.464  1.1460  0.0639  0.0505
  554TMC3     O 8222   1.158   4.076  11.533 -0.2534 -0.4092  0.4889
  554TMC3     H 8223   0.935   3.983  11.242  1.0369 -0.3925  0.8872
  554TMC3    H1 8224   1.215   4.274  11.387 -2.9263 -0.5316  1.6247
  554TMC3    H2 8225   1.247   4.143  10.993  0.4563 -1.9699 -0.7774
  554TMC3    C7 8226   1.269   4.347  11.119 -0.0723 -0.4444 -0.1226
  554TMC3    C8 8227   1.023   4.029  10.979  0.3058  0.4291  0.1168
  554TMC3    O1 8228   1.272   4.358  10.996 -0.3921  0.8325 -0.6309
  554TMC3    O2 8229   1.061   4.075  10.877 -0.3284  0.1706  0.7415
  555TMC3    C1 8230   4.601   3.756  15.086 -0.6784  0.6606 -0.0128
  555TMC3    C2 8231   4.673   3.846  15.164  0.0026 -0.0007 -0.3089
  555TMC3    C3 8232   0.018   3.799  15.275 -0.1146  0.6827  0.0691
  555TMC3    C4 8233   4.602   3.623  15.117  0.7439  0.1170  0.5157
  555TMC3    C5 8234   4.681   3.580  15.218 -0.1867 -0.8953 -0.2122
  555TMC3    C6 8235   0.029   3.667  15.304  0.0813 -0.4755  0.3464
  555TMC3     C 8236   4.557   3.797  14.949 -0.1190  0.3948 -0.2179
  555TMC3     O 8237   4.465   3.746  14.893  0.0690 -0.4431  0.5818
  555TMC3     H 8238   4.687   3.951  15.141 -0.3753  0.1004 -0.0727
  555TMC3    H1 8239   4.543   3.548  15.064  0.1587  0.4565  0.6868
  555TMC3    H2 8240   0.079   3.626  15.391 -0.1302  1.6093  1.4479
  555TMC3    C7 8241   4.717   3.443  15.218 -0.2217  0.0788 -0.6852
  555TMC3    C8 8242   0.029   3.898  15.380  0.2239 -0.3041  0.7573
  555TMC3    O1 8243   4.632   3.358  15.192 -0.2370 -0.0307 -0.3084
  555TMC3    O2 8244   4.689   4.001  15.356  0.6089  0.3422  0.4856
  556MPD2     C 8245   2.299   0.745  10.405 -0.5572 -0.2979 -0.0281
  556MPD2    C1 8246   2.404   0.651  10.392 -0.0478 -0.0565  0.0361
  556MPD2    C2 8247   2.421   0.586  10.276  0.8129 -0.4399  0.5878
  556MPD2    C3 8248   2.336   0.621  10.166 -1.3151 -0.3345  0.0315
  556MPD2    C4 8249   2.241   0.720  10.178 -0.4126  0.0213  0.0058
  556MPD2    C5 8250   2.214   0.779  10.301  0.8324  0.2757 -0.4107
  556MPD2     H 8251   2.496   0.508  10.263  0.9054 -0.5228  1.6016
  556MPD2    H1 8252   2.173   0.740  10.096 -0.7599  1.4701  0.6343
  556MPD2    H2 8253   2.282   0.788  10.503 -0.6798  1.2466 -0.7303
  556MPD2    H3 8254   2.140   0.857  10.315 -0.4960 -1.1196  0.3427
  556MPD2     N 8255   2.368   0.559  10.044  0.3242 -0.5487  0.1285
  556MPD2    H5 8256   2.437   0.485  10.044  0.6517 -0.2414  1.2153
  556MPD2    N1 8257   2.503   0.632  10.492 -0.1188 -0.1419  0.2747
  556MPD2    H7 8258   2.574   0.562  10.473  0.2033  0.7608 -1.8716
  557TMC3    C1 8259   2.427   0.552   9.829 -0.1724 -0.0095 -0.8829
  557TMC3    C2 8260   2.381   0.508   9.699 -0.6708  0.4318 -0.1290
  557TMC3    C3 8261   2.428   0.392   9.647  0.2397 -0.5061  0.3503
  557TMC3    C4 8262   2.520   0.471   9.896  0.0494 -0.5889 -0.1264
  557TMC3    C5 8263   2.557   0.353   9.833  0.3108  0.5033  0.5037
  557TMC3    C6 8264   2.511   0.312   9.714  0.0891 -0.6379  0.6218
  557TMC3     C 8265   2.336   0.608   9.921  0.7109  0.4930 -0.3955
  557TMC3     O 8266   2.255   0.690   9.875 -0.2850  0.3030  0.0559
  557TMC3     H 8267   2.298   0.553   9.646 -1.9551 -2.2431 -0.3873
  557TMC3    H1 8268   2.590   0.515   9.966 -0.3610 -0.5121  0.2359
  557TMC3    H2 8269   2.557   0.220   9.678  0.1626 -0.3939  0.0950
  557TMC3    C7 8270   2.550   0.253   9.939 -0.8723  0.5143  0.3764
  557TMC3    C8 8271   2.327   0.331   9.563  0.3102 -1.0208 -0.0020
  557TMC3    O1 8272   2.499   0.301  10.041  0.4644  0.6155 -0.0493
  557TMC3    O2 8273   2.263   0.395   9.482 -0.1525 -0.3423  0.5457
  558TMC3    C1 8274   0.655   3.276  10.323 -0.2030  0.4657  0.3393
  558TMC3    C2 8275   0.575   3.179  10.377 -0.5222 -0.1424  0.2194
  558TMC3    C3 8276   0.444   3.170  10.325 -0.6058 -0.1072 -1.2406
  558TMC3    C4 8277   0.611   3.363  10.227  0.3429  0.1636  0.0479
  558TMC3    C5 8278   0.485   3.341  10.168  0.3803 -0.1397 -0.0489
  558TMC3    C6 8279   0.398   3.248  10.218 -0.2977 -0.2108  0.7183
  558TMC3     C 8280   0.778   3.321  10.395 -0.9777 -0.1053  0.4496
  558TMC3     O 8281   0.851   3.396  10.333  0.4539  0.2054 -0.3131
  558TMC3     H 8282   0.617   3.113  10.451  0.2461 -0.9163 -0.9112
  558TMC3    H1 8283   0.666   3.448  10.187 -1.1944  1.3266  0.3636
  558TMC3    H2 8284   0.295   3.241  10.184  0.0818  2.9943 -1.0819
  558TMC3    C7 8285   0.427   3.458  10.094 -0.4303 -0.7260  0.4615
  558TMC3    C8 8286   0.355   3.074  10.379 -0.1473 -0.1259 -0.1516
  558TMC3    O1 8287   0.490   3.562  10.108 -0.4264  0.1319 -0.2172
  558TMC3    O2 8288   0.267   3.039  10.300 -0.6840  0.0235  0.2318
  559MPD2     C 8289   0.802   3.788  10.358  0.1753  0.2686  0.8503
  559MPD2    C1 8290   0.742   3.699  10.447  0.0222 -0.2055 -0.1762
  559MPD2    C2 8291   0.820   3.636  10.544  0.0891  0.6316  0.2856
  559MPD2    C3 8292   0.948   3.684  10.573  0.0764  0.2637  0.6351
  559MPD2    C4 8293   0.994   3.790  10.493  0.0354  0.5100 -0.4170
  559MPD2    C5 8294   0.930   3.837  10.381  0.8311  0.3597  0.2261
  559MPD2     H 8295   0.785   3.559  10.612  0.6266 -0.6122 -0.8373
  559MPD2    H1 8296   1.084   3.840  10.527  0.3511 -1.2002  1.2858
  559MPD2    H2 8297   0.741   3.832  10.281 -1.4436 -1.9811  0.8406
  559MPD2    H3 8298   0.974   3.929  10.344  1.0821  0.9583  1.9911
  559MPD2     N 8299   1.026   3.630  10.677 -0.2791 -0.0208  0.0952
  559MPD2    H5 8300   0.981   3.552  10.722 -0.7460  0.8346  1.1031
  559MPD2    N1 8301   0.606   3.671  10.436  0.0425 -0.3873  0.3747
  559MPD2    H7 8302   0.562   3.726  10.363 -0.0138 -0.3780  0.4154
  560TMC3    C1 8303   1.181   3.612  10.851  0.3196 -0.4583  0.0381
  560TMC3    C2 8304   1.082   3.545  10.922 -0.3096 -0.3416  0.2203
  560TMC3    C3 8305   1.119   3.479  11.035 -0.0696  0.4845  0.7706
  560TMC3    C4 8306   1.306   3.629  10.903  0.1686  0.0063  0.7784
  560TMC3    C5 8307   1.334   3.561  11.028 -0.2460  0.1260  0.1088
  560TMC3    C6 8308   1.240   3.486  11.090  0.0637  0.3001  0.9136
  560TMC3     C 8309   1.143   3.681  10.729  0.4985 -0.0388  0.4608
  560TMC3     O 8310   1.223   3.762  10.686  0.1093 -0.6158 -0.3500
  560TMC3     H 8311   0.979   3.557  10.891  0.0756 -0.8771 -1.2724
  560TMC3    H1 8312   1.378   3.693  10.853 -0.1674  1.1325  1.7159
  560TMC3    H2 8313   1.266   3.441  11.185  1.3212  1.4296  1.1175
  560TMC3    C7 8314   1.459   3.581  11.110 -0.1240  0.1649  0.9297
  560TMC3    C8 8315   1.019   3.398  11.099  0.6639  0.7099  0.1400
  560TMC3    O1 8316   1.479   3.492  11.191 -0.5149 -0.1084  0.5650
  560TMC3    O2 8317   0.906   3.402  11.054  0.0861 -0.5925  0.0551
  561TMC3    C1 8318   3.051   3.032  11.434  0.4848 -0.7710  0.7345
  561TMC3    C2 8319   2.961   3.044  11.541  0.0184  0.4161  0.1946
  561TMC3    C3 8320   3.003   3.124  11.644  0.0926 -0.3230 -0.4168
  561TMC3    C4 8321   3.178   3.087  11.432 -0.4030  0.6465  0.1793
  561TMC3    C5 8322   3.213   3.154  11.548 -0.1841  0.2379 -0.0228
  561TMC3    C6 8323   3.130   3.174  11.655  0.0717  0.4566 -0.4411
  561TMC3     C 8324   3.002   2.945  11.327 -0.6163  0.0019 -0.0538
  561TMC3     O 8325   2.913   2.863  11.353  0.2585  0.3700 -0.3525
  561TMC3     H 8326   2.862   3.001  11.535  0.0277  0.4902 -0.4298
  561TMC3    H1 8327   3.253   3.054  11.360 -1.2131 -0.2166 -0.2754
  561TMC3    H2 8328   3.164   3.238  11.736 -2.3572  1.6526 -0.3545
  561TMC3    C7 8329   3.344   3.213  11.560  0.1664 -0.4495 -0.4064
  561TMC3    C8 8330   2.922   3.142  11.757  0.3541 -1.0608  0.1399
  561TMC3    O1 8331   3.387   3.229  11.674  0.4708 -0.3534  0.2535
  561TMC3    O2 8332   2.967   3.197  11.855  0.5776  0.3685  0.1052
  562TMC3    C1 8333   4.354   3.963  16.040  0.0838 -0.3181  0.8024
  562TMC3    C2 8334   4.246   4.008  15.970  1.3462  0.4894  0.9253
  562TMC3    C3 8335   4.248   3.983  15.835 -0.6519 -0.1798 -1.1804
  562TMC3    C4 8336   4.448   3.883  15.976  0.0346  0.3404  0.5740
  562TMC3    C5 8337   4.455   3.871  15.840  0.2964  0.2103  0.3275
  562TMC3    C6 8338   4.355   3.922  15.769 -0.5860 -0.0456  0.4731
  562TMC3     C 8339   4.373   4.020  16.168  0.3292 -0.6174  0.4680
  562TMC3     O 8340   4.304   4.118  16.201  0.8096 -0.1017 -0.0138
  562TMC3     H 8341   4.171   4.079  16.004  0.0211 -0.0440 -0.9259
  562TMC3    H1 8342   4.528   3.834  16.032 -0.6088 -3.5521 -1.9810
  562TMC3    H2 8343   4.345   3.906  15.662  1.1175 -1.8543  0.5766
  562TMC3    C7 8344   4.554   3.789  15.769  0.2006 -0.1062 -0.4454
  562TMC3    C8 8345   4.131   4.014  15.757  0.0130 -0.1466  0.4885
  562TMC3    O1 8346   4.530   3.757  15.651 -0.0973 -0.3218 -0.3853
  562TMC3    O2 8347   4.028   4.004  15.815  0.2352  0.1573 -0.1085
  563MPD2     C 8348   1.883   0.267  15.921  0.1097 -0.2217  0.4203
  563MPD2    C1 8349   1.956   0.369  15.981  0.0043  0.6861 -0.4615
  563MPD2    C2 8350   2.082   0.336  16.034 -0.3971  0.4603 -0.4075
  563MPD2    C3 8351   2.129   0.200  16.027  0.3531  0.1408 -0.3917
  563MPD2    C4 8352   2.053   0.100  15.968 -0.0653 -0.0591  0.7680
  563MPD2    C5 8353   1.935   0.137  15.909  0.2458 -0.1968 -0.9043
  563MPD2     H 8354   2.145   0.413  16.076  0.7144 -1.0305  0.6381
  563MPD2    H1 8355   2.089   0.000  15.946 -1.5499 -0.0924 -1.5056
  563MPD2    H2 8356   1.782   0.279  15.884  0.2729 -0.7465 -0.2038
  563MPD2    H3 8357   1.874   0.065  15.856  0.3787 -1.8218  1.1506
  563MPD2     N 8358   2.258   0.172  16.071 -0.3879 -0.0242 -0.1331
  563MPD2    H5 8359   2.317   0.244  16.113 -0.6865  0.6614 -0.8821
  563MPD2    N1 8360   1.883   0.484  16.005 -0.3080 -0.6706 -0.3003
  563MPD2    H7 8361   1.786   0.478  15.975 -0.4667  0.3758 -0.0135
  564TMC3    C1 8362   1.825   0.644  16.171  0.0472  0.6628 -0.3996
  564TMC3    C2 8363   1.698   0.608  16.129  0.0690 -0.4155 -0.0332
  564TMC3    C3 8364   1.620   0.539  16.216  0.4506  0.0983  0.1904
  564TMC3    C4 8365   1.856   0.632  16.303  0.1789  0.2915  0.4157
  564TMC3    C5 8366   1.775   0.572  16.390  0.8521 -0.3420  0.1422
  564TMC3    C6 8367   1.656   0.530  16.351  0.2962  0.0495  0.2424
  564TMC3     C 8368   1.925   0.592  16.085  0.5003 -0.2645  0.8794
  564TMC3     O 8369   2.044   0.610  16.112 -0.5018  0.1082 -0.1904
  564TMC3     H 8370   1.665   0.617  16.026 -2.5676 -1.9075  0.6701
  564TMC3    H1 8371   1.960   0.654  16.324 -0.1261  0.6286  1.5795
  564TMC3    H2 8372   1.588   0.490  16.425  1.2020 -2.5963 -0.3617
  564TMC3    C7 8373   1.849   0.468  16.452 -0.2063  0.2411  0.6190
  564TMC3    C8 8374   1.541   0.422  16.186 -0.5146 -0.2223 -0.4946
  564TMC3    O1 8375   1.952   0.500  16.505 -0.1254  0.0083 -0.2264
  564TMC3    O2 8376   1.501   0.360  16.283 -0.5084 -0.1167  0.0661
  565TMC3    C1 8377   2.299   1.780  10.201  1.0265 -0.1388  0.1121
  565TMC3    C2 8378   2.305   1.690  10.304  0.3853 -0.4499  0.0948
  565TMC3    C3 8379   2.210   1.589  10.316  0.3671  0.2308  0.6265
  565TMC3    C4 8380   2.184   1.787  10.117  0.1386  0.1311 -0.1252
  565TMC3    C5 8381   2.083   1.698  10.148 -0.0593 -0.9285 -0.4420
  565TMC3    C6 8382   2.094   1.599  10.246  0.1147  0.3757  0.2531
  565TMC3     C 8383   2.369   1.909  10.219 -0.3999  0.3254  0.4162
  565TMC3     O 8384   2.371   1.988  10.125 -0.0872  0.1376  0.3234
  565TMC3     H 8385   2.399   1.670  10.355  1.2345  0.5919 -1.0538
  565TMC3    H1 8386   2.181   1.858  10.035 -1.0396 -0.9885 -1.0471
  565TMC3    H2 8387   2.030   1.511  10.244 -2.4170  2.1362  2.2668
  565TMC3    C7 8388   1.960   1.704  10.081 -0.7891 -0.0799  0.3714
  565TMC3    C8 8389   2.229   1.496  10.422  0.0402  0.5213  0.2897
  565TMC3    O1 8390   1.887   1.602  10.087 -0.4846 -0.2766  0.2783
  565TMC3    O2 8391   2.328   1.527  10.494  0.0185  0.0443 -0.0320
  566MPD2     C 8392   4.045   3.689  14.520 -0.1961  0.7057 -0.5431
  566MPD2    C1 8393   4.113   3.693  14.408 -0.5634  0.8157 -0.4517
  566MPD2    C2 8394   4.071   3.612  14.305 -0.2905  0.2864  0.0012
  566MPD2    C3 8395   3.959   3.537  14.312 -0.3893 -0.1605  0.2742
  566MPD2    C4 8396   3.891   3.529  14.434 -0.3210 -0.3610 -0.1740
  566MPD2    C5 8397   3.939   3.606  14.537 -0.2998 -0.3926  0.2614
  566MPD2     H 8398   4.133   3.606  14.217 -0.2771 -2.4018  0.1864
  566MPD2    H1 8399   3.806   3.465  14.454 -0.1904 -0.0846  1.2698
  566MPD2    H2 8400   4.074   3.765  14.592  0.8438 -1.4188  1.2780
  566MPD2    H3 8401   3.888   3.611  14.632  0.8922  0.4290  0.8540
  566MPD2     N 8402   3.927   3.464  14.196  0.0185 -0.0548 -0.1993
  566MPD2    H5 8403   3.999   3.457  14.124 -0.2749 -0.7357 -0.4307
  566MPD2    N1 8404   4.228   3.767  14.408 -0.4591  0.2054  0.0308
  566MPD2    H7 8405   4.250   3.809  14.497 -1.6377  0.7135  0.0833
  567TMC3    C1 8406   4.421   3.866  14.329  0.4403 -0.1171 -0.1562
  567TMC3    C2 8407   4.473   3.968  14.254 -0.2609 -0.2297 -0.1458
  567TMC3    C3 8408   4.602   3.997  14.273  0.4064  0.7923 -0.2844
  567TMC3    C4 8409   4.496   3.809  14.427 -0.7543  0.0974  0.2833
  567TMC3    C5 8410   4.629   3.844  14.449  0.3414  0.2613  0.1360
  567TMC3    C6 8411   4.688   3.937  14.366  0.1575  0.3640  0.3979
  567TMC3     C 8412   4.295   3.803  14.293 -0.3377  0.0226  0.6176
  567TMC3     O 8413   4.263   3.784  14.177 -0.6923  1.0880 -0.1385
  567TMC3     H 8414   4.412   3.999  14.170 -1.3662 -1.5956  0.1630
  567TMC3    H1 8415   4.451   3.749  14.504 -1.2308  1.4295  1.0448
  567TMC3    H2 8416   0.071   3.965  14.382  0.2095  2.2154 -3.1803
  567TMC3    C7 8417   4.709   3.758  14.530  0.4462  0.4791  0.8872
  567TMC3    C8 8418   4.665   4.094  14.186  0.4244  0.9147 -0.6500
  567TMC3    O1 8419   0.105   3.794  14.547 -0.0534 -0.1486  0.3193
  567TMC3    O2 8420   0.061   4.118  14.200 -0.1361 -0.4689 -0.0603
  568MPD2     C 8421   2.188   4.069  16.439  0.5952 -0.0895 -0.0954
  568MPD2    C1 8422   2.079   4.049  16.519  0.2613 -0.2597  0.3699
  568MPD2    C2 8423   1.961   4.109  16.492 -0.2052  1.1040 -0.8351
  568MPD2    C3 8424   1.942   4.184  16.373 -0.0565  0.3957 -0.8120
  568MPD2    C4 8425   2.045   4.188  16.291 -0.2093  0.1185 -0.3854
  568MPD2    C5 8426   2.169   4.139  16.320  0.4090 -0.5546  0.3527
  568MPD2     H 8427   1.875   4.097  16.557  0.6412 -1.9948 -0.2736
  568MPD2    H1 8428   2.033   4.241  16.197 -1.2982  0.5141 -0.0172
  568MPD2    H2 8429   2.287   4.025  16.447 -0.2592 -2.1205 -0.6648
  568MPD2    H3 8430   2.249   4.145  16.247 -0.8431  1.8166 -0.8111
  568MPD2     N 8431   1.812   4.240  16.353  0.4981 -0.4245 -0.1511
  568MPD2    H5 8432   1.747   4.241  16.430  1.7140 -0.5040  0.8835
  568MPD2    N1 8433   2.100   3.971  16.629 -0.1722  0.0551 -0.1522
  568MPD2    H7 8434   2.184   3.915  16.634 -2.4943 -3.3192  1.5278
  569TMC3    C1 8435   1.650   4.377  16.263 -0.1236 -0.7577 -0.2112
  569TMC3    C2 8436   1.635   4.451  16.380 -0.1052 -0.0291  0.7182
  569TMC3    C3 8437   1.514   4.501  16.411 -0.0947 -0.3228  0.2407
  569TMC3    C4 8438   1.559   4.362  16.165  0.4169 -0.6226  0.0591
  569TMC3    C5 8439   1.443   4.421  16.185  0.1010  0.1012 -1.0242
  569TMC3    C6 8440   1.417   4.480  16.309 -0.2393 -0.1062  0.0909
  569TMC3     C 8441   1.778   4.311  16.240 -0.3117  0.2225  0.5063
  569TMC3     O 8442   1.844   4.335  16.142  0.2960 -0.2110 -0.3702
  569TMC3     H 8443   1.719   4.464  16.447  0.8623 -0.9257 -0.2957
  569TMC3    H1 8444   1.578   4.311  16.071  1.8227  0.2481 -0.1323
  569TMC3    H2 8445   1.321   4.526  16.327  0.6553  1.6573  0.3698
  569TMC3    C7 8446   1.420   4.515  16.078  0.1798 -0.0766  0.8914
  569TMC3    C8 8447   1.518   4.641  16.457 -0.3563  0.3879  0.0695
  569TMC3    O1 8448   1.410   4.464  15.967  0.7080  0.1955 -0.2538
  569TMC3    O2 8449   1.455   4.717  16.385  0.2765  0.0471  0.3176
  570TMC3    C1 8450   1.229   2.709  16.381  0.0156 -0.1652  0.2776
  570TMC3    C2 8451   1.302   2.736  16.269  0.8740  0.4851 -0.0244
  570TMC3    C3 8452   1.315   2.867  16.236 -0.5177 -0.3913  0.7986
  570TMC3    C4 8453   1.188   2.811  16.458  0.3182 -0.6855 -0.0825
  570TMC3    C5 8454   1.217   2.937  16.421  0.2742 -0.3031  0.5525
  570TMC3    C6 8455   1.281   2.972  16.309 -0.2952 -0.4220 -0.3587
  570TMC3     C 8456   1.236   2.578  16.443 -0.4952  0.5924 -0.5038
  570TMC3     O 8457   1.233   2.492  16.351  0.3448  0.7043  0.0272
  570TMC3     H 8458   1.324   2.651  16.207  1.3398  0.3515  0.3311
  570TMC3    H1 8459   1.115   2.804  16.538 -0.6910 -0.3796 -0.9724
  570TMC3    H2 8460   1.305   3.069  16.267  1.3767  0.1638  1.9451
  570TMC3    C7 8461   1.162   3.052  16.490 -0.0236 -0.0082 -0.8508
  570TMC3    C8 8462   1.376   2.904  16.107 -0.2228  0.4007 -0.0335
  570TMC3    O1 8463   1.140   3.039  16.607  0.1281 -0.8304  0.3035
  570TMC3    O2 8464   1.448   3.003  16.107  0.2798  0.2253  0.6560
  571MPD2     C 8465   0.136   4.696  17.386  0.1497 -0.0585 -0.1054
  571MPD2    C1 8466   0.129   4.657  17.520  0.0563 -0.0184 -0.4393
  571MPD2    C2 8467   0.004   4.656  17.588 -0.2138  0.0911  0.4143
  571MPD2    C3 8468   4.611   4.713  17.529  0.1172 -0.2423  0.2687
  571MPD2    C4 8469   4.623   0.031  17.395 -0.6149  0.3410  0.7073
  571MPD2    C5 8470   0.021   0.014  17.327 -0.6658 -0.4464  0.3209
  571MPD2     H 8471   4.704   4.614  17.685 -1.1926  3.9942  1.9149
  571MPD2    H1 8472   4.547   0.096  17.353 -0.1259 -0.5145 -1.4678
  571MPD2    H2 8473   0.227   4.696  17.327 -0.4171  0.6806 -0.9679
  571MPD2    H3 8474   0.018   0.051  17.225  1.9396 -0.4149  0.2567
  571MPD2     N 8475   4.484   0.020  17.591 -0.6349  0.3559 -0.0803
  571MPD2    H5 8476   4.415   0.063  17.531 -0.2875  1.9532  0.6722
  571MPD2    N1 8477   0.251   4.625  17.590  0.4668 -0.0952  0.1159
  571MPD2    H7 8478   0.337   4.651  17.542 -1.5156  0.7186 -3.0266
  572TMC3    C1 8479   4.324   0.034   0.052  0.1729 -0.2302  1.1483
  572TMC3    C2 8480   4.219   4.660   0.053 -0.0640 -0.5767  0.3782
  572TMC3    C3 8481   4.099   4.715   0.079 -0.4363  0.0779 -1.0132
  572TMC3    C4 8482   4.302   0.163   0.026 -0.3214 -1.2364 -0.7572
  572TMC3    C5 8483   4.168   0.201   0.014  0.2190  0.5120  0.1272
  572TMC3    C6 8484   4.059   0.122   0.049  0.3087  0.2359 -0.1454
  572TMC3     C 8485   4.450   4.703   0.033  0.4627  0.0077  1.0205
  572TMC3     O 8486   4.504   4.625   0.112 -0.6482 -0.3453  0.0941
  572TMC3     H 8487   4.241   4.557   0.079 -0.5635 -1.3900 -2.4081
  572TMC3    H1 8488   4.385   0.222  17.676 -0.0167 -1.3970 -0.2972
  572TMC3    H2 8489   3.964   0.167   0.075  0.5974  0.3635  0.6650
  572TMC3    C7 8490   4.131   0.335  17.658 -0.8887  0.4919 -0.1666
  572TMC3    C8 8491   3.995   4.616   0.102 -0.4455  0.2700 -0.2434
  572TMC3    O1 8492   4.011   0.347  17.654 -0.3400 -0.1748 -0.0618
  572TMC3    O2 8493   4.020   4.497   0.087  0.3905 -0.3211  0.0413
  573MPD2     C 8494   0.966   0.652   0.996  0.2039 -0.0869  0.3101
  573MPD2    C1 8495   0.965   0.755   0.898 -0.2920  1.3740  0.0414
  573MPD2    C2 8496   0.917   0.729   0.773  0.5596 -0.4026  0.1709
  573MPD2    C3 8497   0.874   0.598   0.745 -0.1520 -0.1159 -0.2640
  573MPD2    C4 8498   0.898   0.501   0.831 -0.2437  0.3665  0.3781
  573MPD2    C5 8499   0.942   0.526   0.957  0.2058 -0.5406  0.7703
  573MPD2     H 8500   0.909   0.806   0.697 -0.7482  0.6502  1.3619
  573MPD2    H1 8501   0.869   0.398   0.810 -0.4694 -0.0353  2.7177
  573MPD2    H2 8502   0.993   0.678   1.098  2.3082 -0.4487 -0.1452
  573MPD2    H3 8503   0.946   0.441   1.024  0.9564 -0.2459  1.0957
  573MPD2     N 8504   0.816   0.557   0.621 -0.1010  0.4012 -0.1324
  573MPD2    H5 8505   0.785   0.461   0.611 -0.9433  0.7632 -1.0251
  573MPD2    N1 8506   0.985   0.888   0.947 -0.4782  0.1258  0.0989
  573MPD2    H7 8507   0.990   0.888   1.049  2.3846  0.5141 -0.0372
  574TMC3    C1 8508   0.756   0.560   0.386 -1.0713  0.1925 -0.2036
  574TMC3    C2 8509   0.669   0.458   0.402  0.7327 -0.0377 -0.6867
  574TMC3    C3 8510   0.631   0.388   0.291 -0.2064 -0.0330  0.4147
  574TMC3    C4 8511   0.813   0.599   0.267 -0.2829  0.0479  0.5865
  574TMC3    C5 8512   0.766   0.528   0.157 -0.1997  0.5866 -0.5042
  574TMC3    C6 8513   0.677   0.418   0.162  0.6006  0.2587 -0.0355
  574TMC3     C 8514   0.816   0.629   0.506  0.3989 -0.1599  0.0748
  574TMC3     O 8515   0.865   0.736   0.482  0.2886 -0.1757  0.3320
  574TMC3     H 8516   0.620   0.438   0.497 -1.2018  1.9495 -1.2813
  574TMC3    H1 8517   0.895   0.670   0.273 -2.2036  2.1509  1.9400
  574TMC3    H2 8518   0.639   0.365   0.076  0.2764  1.7508 -0.8204
  574TMC3    C7 8519   0.824   0.564   0.026 -0.5129 -0.2789  0.4740
  574TMC3    C8 8520   0.508   0.312   0.305 -0.2159 -0.1192  0.5549
  574TMC3    O1 8521   0.920   0.639   0.026  0.0490  0.0536 -0.6520
  574TMC3    O2 8522   0.471   0.277   0.416  0.2366 -0.5595 -0.5079
  575TMC3    C1 8523   2.771   1.278  11.060 -0.4674  0.2509  1.1915
  575TMC3    C2 8524   2.713   1.234  11.175  0.4518 -0.5201 -0.2019
  575TMC3    C3 8525   2.587   1.185  11.171  0.8082 -0.6896  0.8995
  575TMC3    C4 8526   2.705   1.293  10.944 -0.4198  0.3698  0.5032
  575TMC3    C5 8527   2.581   1.236  10.944  0.2149 -0.7473 -0.1843
  575TMC3    C6 8528   2.520   1.172  11.050  0.0846  0.9918 -0.9341
  575TMC3     C 8529   2.903   1.339  11.070  0.4002  0.4858  0.2204
  575TMC3     O 8530   2.948   1.356  11.181 -0.0306 -0.1300  0.1548
  575TMC3     H 8531   2.772   1.227  11.266  2.9392 -1.0675 -1.8467
  575TMC3    H1 8532   2.738   1.340  10.852  1.6083 -0.3340  0.8817
  575TMC3    H2 8533   2.416   1.141  11.053  0.6735 -0.7199  1.7602
  575TMC3    C7 8534   2.490   1.264  10.832 -0.4303 -0.5188 -0.2839
  575TMC3    C8 8535   2.557   1.073  11.270 -0.4985  0.5091  0.0415
  575TMC3    O1 8536   2.501   1.380  10.782 -0.0668 -0.0433  0.3106
  575TMC3    O2 8537   2.478   0.985  11.237 -0.0830 -0.6572 -0.2307
  576MPD2     C 8538   1.730   2.835  12.305  0.7666  1.0622 -0.1327
  576MPD2    C1 8539   1.839   2.899  12.261 -0.0500 -0.4263  0.5466
  576MPD2    C2 8540   1.896   2.991  12.346 -0.2043  0.2002 -0.1487
  576MPD2    C3 8541   1.858   3.008  12.477  0.6557 -0.0017  0.4680
  576MPD2    C4 8542   1.753   2.929  12.523  0.1957 -0.2686 -0.3225
  576MPD2    C5 8543   1.692   2.848  12.438  0.3561 -0.2698 -0.6530
  576MPD2     H 8544   1.979   3.049  12.308  2.8420 -3.0280  1.6094
  576MPD2    H1 8545   1.715   2.941  12.624 -1.3491  3.5465 -1.3469
  576MPD2    H2 8546   1.684   2.755  12.247  1.5855 -0.7671  1.7448
  576MPD2    H3 8547   1.607   2.787  12.468 -0.4671  0.2713 -1.8861
  576MPD2     N 8548   1.922   3.104  12.555  0.0752 -0.1545  0.0880
  576MPD2    H5 8549   1.990   3.165  12.511  0.5612 -0.4126  0.4787
  576MPD2    N1 8550   1.901   2.876  12.131 -0.1103 -0.1642 -0.4968
  576MPD2    H7 8551   1.993   2.914  12.112  0.1349 -1.1751 -1.3511
  577TMC3    C1 8552   1.918   2.821  11.908  0.1839  0.1708  0.8771
  577TMC3    C2 8553   2.058   2.827  11.934  0.4633  0.6721 -0.1088
  577TMC3    C3 8554   2.132   2.892  11.842  0.0840 -0.1823 -0.2768
  577TMC3    C4 8555   1.862   2.860  11.789 -0.1455 -0.0648 -0.2740
  577TMC3    C5 8556   1.944   2.919  11.693  0.0671  0.3216  0.5313
  577TMC3    C6 8557   2.077   2.934  11.722  0.4063 -0.4334 -0.6030
  577TMC3     C 8558   1.835   2.817  12.024 -0.2846  0.4414  0.3170
  577TMC3     O 8559   1.721   2.772  12.007 -0.0768 -0.0520  0.4889
  577TMC3     H 8560   2.103   2.769  12.014 -1.8513 -1.1852 -0.1407
  577TMC3    H1 8561   1.756   2.857  11.766 -0.0884  2.0209 -0.7949
  577TMC3    H2 8562   2.141   2.982  11.649  0.3086  0.0501 -0.3704
  577TMC3    C7 8563   1.877   2.956  11.574 -0.4156 -0.0495  0.1497
  577TMC3    C8 8564   2.250   2.948  11.902  0.3535 -0.5271 -0.3371
  577TMC3    O1 8565   1.774   2.896  11.534  0.0149 -0.1403 -0.0479
  577TMC3    O2 8566   2.241   2.951  12.022 -0.3971  0.6058  0.5815
  578MPD2     C 8567   0.664   3.384   1.008  0.1023 -0.0582  0.1369
  578MPD2    C1 8568   0.769   3.292   1.007 -0.5799 -0.2731  0.2281
  578MPD2    C2 8569   0.787   3.218   1.121  0.0598  0.2028 -0.5514
  578MPD2    C3 8570   0.701   3.217   1.222  0.1190  0.0081 -0.5230
  578MPD2    C4 8571   0.595   3.297   1.224 -0.5550 -0.1584 -0.7165
  578MPD2    C5 8572   0.579   3.388   1.118  0.4722  0.0606 -0.1060
  578MPD2     H 8573   0.872   3.152   1.134 -0.4105 -0.2302  0.2725
  578MPD2    H1 8574   0.525   3.294   1.306  0.1567 -0.9199 -0.1443
  578MPD2    H2 8575   0.642   3.445   0.921  2.2614 -1.1893 -1.2073
  578MPD2    H3 8576   0.500   3.462   1.110 -0.5344 -1.0187 -0.1137
  578MPD2     N 8577   0.730   3.130   1.324  0.1648 -0.1021 -0.4204
  578MPD2    H5 8578   0.820   3.084   1.312 -0.6591 -2.2339  1.5573
  578MPD2    N1 8579   0.847   3.298   0.891  0.2073  0.2515  0.4452
  578MPD2    H7 8580   0.818   3.365   0.821  0.0746 -1.6300 -1.2810
  579TMC3    C1 8581   0.751   3.041   1.523 -0.1714 -0.2972 -0.6249
  579TMC3    C2 8582   0.801   3.112   1.630  0.2164  0.3321  0.0096
  579TMC3    C3 8583   0.921   3.069   1.688  0.2271  0.3090  0.1563
  579TMC3    C4 8584   0.813   2.936   1.468  0.1114  0.4897  0.3661
  579TMC3    C5 8585   0.926   2.890   1.534 -0.1262 -0.1481 -0.1538
  579TMC3    C6 8586   0.979   2.954   1.639  0.7508 -0.3441 -0.2223
  579TMC3     C 8587   0.661   3.112   1.439  0.1669  0.5908 -0.6226
  579TMC3     O 8588   0.571   3.172   1.496 -0.2959  0.3962 -0.3123
  579TMC3     H 8589   0.769   3.215   1.642  0.4251  0.2359  1.3986
  579TMC3    H1 8590   0.764   2.890   1.383 -0.3149 -0.7164  1.2629
  579TMC3    H2 8591   1.067   2.925   1.695  0.8668  2.0062  0.8277
  579TMC3    C7 8592   0.999   2.780   1.471  0.2501  0.6400  0.3841
  579TMC3    C8 8593   1.015   3.169   1.715 -0.1846 -0.6154  0.7313
  579TMC3    O1 8594   1.080   2.724   1.544  0.3236 -0.7598 -0.1761
  579TMC3    O2 8595   0.977   3.251   1.802  0.0739 -0.5273  0.0819
  580TMC3    C1 8596   4.450   2.174  12.323  0.0796 -0.5994 -0.0868
  580TMC3    C2 8597   4.562   2.253  12.359 -0.3965  0.0415 -0.4053
  580TMC3    C3 8598   4.690   2.216  12.322 -0.4619 -1.1278 -0.0368
  580TMC3    C4 8599   4.468   2.042  12.306 -0.1773  0.3330  0.2682
  580TMC3    C5 8600   4.598   2.002  12.298 -0.3743 -0.7011 -0.4125
  580TMC3    C6 8601   4.710   2.082  12.294  0.4869  0.7808 -1.2397
  580TMC3     C 8602   4.384   2.230  12.212  0.4281 -0.2644 -0.2634
  580TMC3     O 8603   4.436   2.214  12.101  0.2107 -0.5138 -0.8078
  580TMC3     H 8604   4.539   2.359  12.367 -0.5347  0.0416 -0.8031
  580TMC3    H1 8605   4.386   1.975  12.285 -1.7916  1.7471  2.1022
  580TMC3    H2 8606   0.085   2.042  12.262  1.1270  2.1220 -0.9794
  580TMC3    C7 8607   4.621   1.858  12.282  0.1025 -0.1559  0.8944
  580TMC3    C8 8608   0.049   2.334  12.289 -0.2956 -0.0553 -0.3325
  580TMC3    O1 8609   4.721   1.827  12.223 -0.1432 -0.0323 -0.4451
  580TMC3    O2 8610   0.011   2.436  12.341 -0.5179 -0.8858  0.0880
  581MPD2     C 8611   3.320   1.668  14.984  0.1248 -0.2290 -0.3800
  581MPD2    C1 8612   3.225   1.576  14.946 -0.1802 -0.2225 -0.0024
  581MPD2    C2 8613   3.110   1.624  14.889  0.0415  0.4942  0.5536
  581MPD2    C3 8614   3.092   1.763  14.864 -1.0378  0.4284  0.6367
  581MPD2    C4 8615   3.184   1.853  14.918 -0.5630 -0.7221  0.3998
  581MPD2    C5 8616   3.295   1.801  14.976  0.2600  0.3844  0.0762
  581MPD2     H 8617   3.046   1.548  14.848 -2.0292  2.5892 -0.1104
  581MPD2    H1 8618   3.177   1.959  14.898 -1.0357 -1.2421 -2.1554
  581MPD2    H2 8619   3.417   1.649  15.028  0.0867 -0.3869 -0.3656
  581MPD2    H3 8620   3.362   1.870  15.026  1.4431 -0.9269  0.3008
  581MPD2     N 8621   2.980   1.815  14.789  0.4867  0.3203  0.4646
  581MPD2    H5 8622   2.920   1.742  14.751  1.1675 -0.4919  0.9668
  581MPD2    N1 8623   3.250   1.439  14.955  0.3842  0.2103 -0.4724
  581MPD2    H7 8624   3.346   1.405  14.955 -0.1329 -1.3044  2.1236
  582TMC3    C1 8625   3.223   1.216  15.002 -0.0906  0.0303 -0.3195
  582TMC3    C2 8626   3.298   1.227  15.116  0.8418 -0.2384  0.2513
  582TMC3    C3 8627   3.301   1.124  15.211  0.1579  0.1591 -0.7768
  582TMC3    C4 8628   3.129   1.119  14.999  0.3687  0.4865 -0.6440
  582TMC3    C5 8629   3.110   1.036  15.104  0.0534  0.2826 -0.8062
  582TMC3    C6 8630   3.195   1.039  15.202  0.0871  0.4217  0.1043
  582TMC3     C 8631   3.163   1.343  14.959  0.5881  0.3736 -0.4035
  582TMC3     O 8632   3.043   1.356  14.982 -1.0890  0.4619  0.1226
  582TMC3     H 8633   3.376   1.301  15.130  0.2519  0.6307 -1.0638
  582TMC3    H1 8634   3.059   1.133  14.918 -1.1187  0.9491  0.7372
  582TMC3    H2 8635   3.165   0.972  15.282  2.7864  1.2629  1.8278
  582TMC3    C7 8636   2.977   1.029  15.152 -0.2528  0.5441 -0.1997
  582TMC3    C8 8637   3.323   1.165  15.344 -0.0698  0.2209  0.1462
  582TMC3    O1 8638   2.944   0.931  15.218  0.0914 -0.4994  0.4608
  582TMC3    O2 8639   3.240   1.135  15.430 -0.3526  0.1097  0.1989
  583MPD2     C 8640   3.181   2.970  17.056 -0.1307 -0.6230 -0.0049
  583MPD2    C1 8641   3.178   3.081  16.972 -0.7198 -0.4595  0.4807
  583MPD2    C2 8642   3.136   3.201  17.015 -0.1844 -0.2131 -0.2925
  583MPD2    C3 8643   3.079   3.217  17.141  0.8497 -0.2978 -0.2566
  583MPD2    C4 8644   3.070   3.101  17.221  0.1541 -0.1461  0.0912
  583MPD2    C5 8645   3.123   2.980  17.181  0.2626  0.4706  0.6195
  583MPD2     H 8646   3.139   3.290  16.954 -0.2817 -0.2678 -0.3766
  583MPD2    H1 8647   3.020   3.097  17.317  2.4414 -0.1496  1.2692
  583MPD2    H2 8648   3.199   2.870  17.021  1.9683 -0.6290  1.1071
  583MPD2    H3 8649   3.114   2.892  17.244 -1.5200  0.7486  0.7347
  583MPD2     N 8650   3.022   3.342  17.174  0.0479  0.2803 -0.9563
  583MPD2    H5 8651   3.019   3.409  17.098  1.3739 -0.7065 -1.8757
  583MPD2    N1 8652   3.224   3.083  16.844 -0.1661  0.9526  0.1341
  583MPD2    H7 8653   3.225   3.175  16.802 -0.2402  0.7248 -0.3580
  584TMC3    C1 8654   2.916   3.513  17.307 -0.1019  0.6966 -0.2869
  584TMC3    C2 8655   2.881   3.588  17.195  1.0133 -0.0346  0.7709
  584TMC3    C3 8656   2.830   3.715  17.218  0.0647 -0.1988 -0.6514
  584TMC3    C4 8657   2.900   3.563  17.435 -0.7254 -0.2261  0.2958
  584TMC3    C5 8658   2.849   3.690  17.454  0.1270  0.0173 -0.4094
  584TMC3    C6 8659   2.813   3.768  17.346 -0.4620  0.0698  0.2381
  584TMC3     C 8660   2.970   3.378  17.294 -0.2049  0.2901 -0.1068
  584TMC3     O 8661   2.987   3.323  17.404 -0.2549  0.3198 -0.0578
  584TMC3     H 8662   2.894   3.553  17.094  0.0778 -0.1618  0.6964
  584TMC3    H1 8663   2.926   3.494  17.515  0.3831 -1.1815 -0.8914
  584TMC3    H2 8664   2.749   3.853  17.366  1.4935  1.8681 -1.0782
  584TMC3    C7 8665   2.812   3.722  17.594 -0.5755  0.2133  0.6798
  584TMC3    C8 8666   2.786   3.797  17.113 -0.8553  0.1684 -0.3020
  584TMC3    O1 8667   2.820   3.632  17.677  0.0933 -0.0729 -0.0975
  584TMC3    O2 8668   2.743   3.755  17.004  0.2217 -0.7117  0.1265
  585MPD2     C 8669   2.882   2.237   0.322 -0.7625 -0.0365  0.7568
  585MPD2    C1 8670   2.749   2.283   0.310 -0.1837 -0.0347 -0.5132
  585MPD2    C2 8671   2.693   2.277   0.187  0.1445 -1.1616  1.3359
  585MPD2    C3 8672   2.749   2.206   0.080 -0.1512 -0.4223 -0.2413
  585MPD2    C4 8673   2.872   2.150   0.099 -0.2768 -1.1055 -0.2936
  585MPD2    C5 8674   2.942   2.163   0.222 -0.2454 -0.0488  0.1373
  585MPD2     H 8675   2.593   2.317   0.180  0.4255 -0.7309 -0.2125
  585MPD2    H1 8676   2.924   2.097   0.020  2.6173  0.1441  0.7595
  585MPD2    H2 8677   2.934   2.239   0.417  0.8233  0.2357 -0.1154
  585MPD2    H3 8678   3.043   2.127   0.237 -0.1094 -0.1126 -0.8864
  585MPD2     N 8679   2.692   2.195  17.639 -0.2254  0.0578  0.3660
  585MPD2    H5 8680   2.744   2.138  17.572  0.5818 -0.5153  1.4749
  585MPD2    N1 8681   2.687   2.345   0.419  0.9444  0.5182  0.2062
  585MPD2    H7 8682   2.749   2.365   0.497 -1.6106 -0.4503  2.5025
  586TMC3    C1 8683   2.556   2.180  17.458  0.4364  0.9106 -0.2103
  586TMC3    C2 8684   2.644   2.089  17.402  0.2990 -0.3356  0.3317
  586TMC3    C3 8685   2.610   2.020  17.291 -0.1970 -0.1915  0.3608
  586TMC3    C4 8686   2.427   2.187  17.411  0.8895  0.2796 -0.4132
  586TMC3    C5 8687   2.387   2.101  17.304  0.5611  0.0851 -0.1786
  586TMC3    C6 8688   2.483   2.029  17.237 -0.4419 -0.1011  0.6858
  586TMC3     C 8689   2.576   2.239  17.591  0.1871  0.0082  0.4661
  586TMC3     O 8690   2.483   2.300  17.638  0.4234 -0.1412 -0.3051
  586TMC3     H 8691   2.746   2.076  17.438  1.0905  1.5547 -1.2475
  586TMC3    H1 8692   2.357   2.246  17.470  0.3259 -1.0087  0.2173
  586TMC3    H2 8693   2.454   1.971  17.150  0.5950  1.7265 -0.8674
  586TMC3    C7 8694   2.281   2.012  17.343 -0.7323  0.3957 -0.1239
  586TMC3    C8 8695   2.678   1.893  17.274  0.4135  0.3851 -0.5197
  586TMC3    O1 8696   2.272   1.905  17.282  0.0870  0.1863  0.2452
  586TMC3    O2 8697   2.765   1.857  17.356 -0.2036 -0.0347 -0.0138
  587TMC3    C1 8698   4.624   1.147  15.900  0.0834  0.7202 -0.3167
  587TMC3    C2 8699   4.596   1.118  16.029  0.4044  0.5448  0.5057
  587TMC3    C3 8700   4.710   1.103  16.105 -0.6151 -0.2311 -0.4563
  587TMC3    C4 8701   0.025   1.182  15.850 -0.2299  0.4740  0.3431
  587TMC3    C5 8702   0.130   1.164  15.935 -0.1215 -0.3355 -0.1193
  587TMC3    C6 8703   0.114   1.114  16.060 -0.4612  0.0951 -0.3194
  587TMC3     C 8704   4.509   1.138  15.806  0.2433  0.1789  0.3352
  587TMC3     O 8705   4.528   1.135  15.682 -0.0225  0.0074  0.4353
  587TMC3     H 8706   4.497   1.102  16.070  0.1862  0.7022  0.0406
  587TMC3    H1 8707   0.037   1.226  15.751  0.0162 -0.6025 -0.1120
  587TMC3    H2 8708   0.191   1.077  16.126 -0.3414  0.1652 -0.4196
  587TMC3    C7 8709   0.266   1.181  15.884  0.7365 -0.0896 -0.1622
  587TMC3    C8 8710   4.703   1.078  16.249  0.3906 -0.2109 -0.2734
  587TMC3    O1 8711   0.282   1.145  15.770  0.0973 -0.0692  0.5419
  587TMC3    O2 8712   0.081   1.056  16.321 -0.0488 -0.2214 -0.7057
  588TMC3    C1 8713   1.665   4.066   9.776  0.4560  0.3220  0.2139
  588TMC3    C2 8714   1.608   3.968   9.847 -0.4083  0.4084 -0.4573
  588TMC3    C3 8715   1.680   3.894   9.935 -0.4701 -0.0631  0.6611
  588TMC3    C4 8716   1.793   4.098   9.795  0.0534 -0.0531 -0.0017
  588TMC3    C5 8717   1.870   4.030   9.882  0.0690  0.1617  0.1277
  588TMC3    C6 8718   1.813   3.925   9.956 -0.4368  0.5734 -0.0659
  588TMC3     C 8719   1.587   4.156   9.701  0.4279 -0.0327  0.4331
  588TMC3     O 8720   1.506   4.102   9.629 -0.1575 -0.0275  0.5660
  588TMC3     H 8721   1.503   3.947   9.835 -0.9693  2.5192  0.7575
  588TMC3    H1 8722   1.839   4.168   9.727  0.4463 -0.5972 -0.2987
  588TMC3    H2 8723   1.868   3.874  10.034 -0.5323  1.0118  0.2868
  588TMC3    C7 8724   1.994   4.084   9.932 -0.3975 -0.6540  0.0515
  588TMC3    C8 8725   1.643   3.753   9.953 -0.4263  0.0782  0.8844
  588TMC3    O1 8726   2.079   4.006   9.962  0.2910 -0.4514 -0.2956
  588TMC3    O2 8727   1.525   3.735   9.964 -0.5202 -0.0401 -0.5022
  589TMC3    C1 8728   1.387   1.791   1.166 -0.0387 -0.2680 -0.5095
  589TMC3    C2 8729   1.438   1.811   1.287 -0.4820  0.6780  0.2044
  589TMC3    C3 8730   1.568   1.800   1.313 -0.2666  0.2576 -0.2761
  589TMC3    C4 8731   1.472   1.751   1.065 -0.0551  0.5332  1.2363
  589TMC3    C5 8732   1.603   1.723   1.092  0.5408  0.2913 -0.1592
  589TMC3    C6 8733   1.658   1.760   1.216 -0.0020 -0.0750 -0.7358
  589TMC3     C 8734   1.248   1.748   1.141 -0.4942  0.1948  0.0281
  589TMC3     O 8735   1.229   1.644   1.074 -0.6831 -0.2886  0.2391
  589TMC3     H 8736   1.374   1.826   1.374 -2.3526  0.6103 -1.1617
  589TMC3    H1 8737   1.424   1.715   0.975  1.1226 -0.8418  1.1492
  589TMC3    H2 8738   1.760   1.727   1.232 -1.5656 -3.7981  1.2852
  589TMC3    C7 8739   1.644   1.592   1.049 -0.2152  0.4173 -0.0532
  589TMC3    C8 8740   1.613   1.814   1.448 -0.1937 -0.3295  0.0918
  589TMC3    O1 8741   1.708   1.528   1.132  0.0866  0.0964 -0.1637
  589TMC3    O2 8742   1.541   1.868   1.532 -0.1736 -0.2344  0.2738
  590MPD2     C 8743   0.811   4.417  16.859 -0.5848 -0.2267 -0.2079
  590MPD2    C1 8744   0.751   4.458  16.741  0.4986 -0.2318  0.1120
  590MPD2    C2 8745   0.823   4.557  16.665 -0.0259  0.1595  0.4166
  590MPD2    C3 8746   0.939   4.620  16.710 -0.2929  0.3905 -0.6167
  590MPD2    C4 8747   0.988   4.583  16.834  0.5780  0.6462  0.4869
  590MPD2    C5 8748   0.927   4.484  16.907 -0.4913 -0.0928  0.6020
  590MPD2     H 8749   0.785   4.577  16.565  0.5551  2.5533  0.6634
  590MPD2    H1 8750   1.073   4.625  16.886 -0.3797  1.9742  0.9573
  590MPD2    H2 8751   0.770   4.332  16.912 -1.6714  1.1158  1.1208
  590MPD2    H3 8752   0.965   4.460  17.006  3.7634 -0.9749 -1.2400
  590MPD2     N 8753   1.001   4.712  16.625 -0.1695 -0.4823  0.2393
  590MPD2    H5 8754   0.964   0.003  16.531 -0.0765 -2.4278 -0.0429
  590MPD2    N1 8755   0.632   4.390  16.702  0.0667 -0.0393  0.4771
  590MPD2    H7 8756   0.593   4.314  16.755 -1.4191  0.1647 -0.2982
  591TMC3    C1 8757   1.172   0.096  16.509  0.4272  0.6605  0.5448
  591TMC3    C2 8758   1.128   0.024  16.409  0.1415  0.3530 -0.8848
  591TMC3    C3 8759   1.135   0.072  16.283 -0.3780  0.0173  0.7256
  591TMC3    C4 8760   1.193   0.232  16.494  1.2627 -0.2124 -0.2379
  591TMC3    C5 8761   1.197   0.286  16.371 -0.3394  0.5189 -0.0161
  591TMC3    C6 8762   1.172   0.200  16.264 -0.3738 -0.1131  0.3886
  591TMC3     C 8763   1.120   0.057  16.645  0.0704 -0.8360  0.5616
  591TMC3     O 8764   1.177   0.100  16.745 -0.3169  0.0729 -0.7024
  591TMC3     H 8765   1.116   4.638  16.426 -2.2891  0.5350 -1.4816
  591TMC3    H1 8766   1.223   0.288  16.582  1.7766 -0.4719 -0.2470
  591TMC3    H2 8767   1.174   0.240  16.163 -4.8855  1.2227  0.8144
  591TMC3    C7 8768   1.150   0.425  16.368  0.3058 -0.5155  0.2888
  591TMC3    C8 8769   1.098   4.702  16.176  0.7306 -0.1782  0.5891
  591TMC3    O1 8770   1.107   0.481  16.468  0.1690  0.7015 -0.0320
  591TMC3    O2 8771   1.120   4.585  16.197 -0.0814 -0.0548  0.2286
  592MPD2     C 8772   1.124   2.038  11.199  0.3247 -0.6871 -0.5689
  592MPD2    C1 8773   1.130   2.034  11.340 -0.1963 -0.1666  0.1297
  592MPD2    C2 8774   1.044   1.949  11.411 -0.0521  0.8861 -0.4896
  592MPD2    C3 8775   0.938   1.891  11.343 -0.4053 -0.4410  0.3243
  592MPD2    C4 8776   0.926   1.900  11.211 -0.0182 -0.0750  0.5200
  592MPD2    C5 8777   1.024   1.972  11.138  0.1780 -0.0464  0.3352
  592MPD2     H 8778   1.066   1.924  11.515  0.8731  0.7390 -0.7228
  592MPD2    H1 8779   0.845   1.855  11.155 -1.1615  1.1639  1.1837
  592MPD2    H2 8780   1.203   2.076  11.135 -0.2409  1.6840  0.1440
  592MPD2    H3 8781   1.024   1.967  11.030 -1.7722 -3.0532  0.4876
  592MPD2     N 8782   0.854   1.808  11.423  0.7015 -0.4853 -0.2866
  592MPD2    H5 8783   0.884   1.804  11.520  2.7766 -0.0496 -0.9042
  592MPD2    N1 8784   1.245   2.100  11.397 -0.1683  0.6094  0.7119
  592MPD2    H7 8785   1.293   2.160  11.331  0.2776 -0.8449 -0.2851
  593TMC3    C1 8786   1.402   2.186  11.551  0.4133 -0.7268 -0.2743
  593TMC3    C2 8787   1.454   2.169  11.676  0.1597  0.8005 -0.4331
  593TMC3    C3 8788   1.584   2.219  11.692  0.9523  0.2156  0.3042
  593TMC3    C4 8789   1.474   2.233  11.445 -0.0283  0.0965  0.3059
  593TMC3    C5 8790   1.600   2.279  11.464  0.0688  0.1934 -0.8190
  593TMC3    C6 8791   1.657   2.277  11.589  0.0920 -0.8314  0.3210
  593TMC3     C 8792   1.274   2.118  11.534  0.5624  0.0042  1.1691
  593TMC3     O 8793   1.218   2.077  11.633 -0.0286  0.0980 -0.2298
  593TMC3     H 8794   1.404   2.132  11.764 -0.2739  1.2393 -0.4977
  593TMC3    H1 8795   1.435   2.254  11.345  0.4791  0.4993  0.1919
  593TMC3    H2 8796   1.753   2.324  11.605 -0.0684  0.3360 -2.2141
  593TMC3    C7 8797   1.666   2.372  11.381  0.2476  0.5838 -0.0049
  593TMC3    C8 8798   1.625   2.254  11.827 -0.2403 -0.2560 -0.5490
  593TMC3    O1 8799   1.786   2.378  11.383  0.2691 -0.6682  0.0393
  593TMC3    O2 8800   1.534   2.279  11.904 -0.4868  0.4088 -0.2199
  594MPD2     C 8801   0.555   0.561  14.515  0.2048  0.0813 -0.1781
  594MPD2    C1 8802   0.465   0.666  14.530 -0.6336  0.7111  0.0602
  594MPD2    C2 8803   0.511   0.793  14.526 -0.0768  0.2414 -0.8596
  594MPD2    C3 8804   0.636   0.815  14.489  0.6975  0.6720 -0.1587
  594MPD2    C4 8805   0.727   0.711  14.464  0.4358  0.1699  0.2212
  594MPD2    C5 8806   0.682   0.585  14.473  0.5427  0.0324 -0.1790
  594MPD2     H 8807   0.446   0.880  14.533  2.6983  2.4569 -2.6293
  594MPD2    H1 8808   0.831   0.733  14.444  0.6159 -1.1468 -0.2714
  594MPD2    H2 8809   0.526   0.456  14.509  2.0844 -0.4629  0.0151
  594MPD2    H3 8810   0.744   0.501  14.447 -2.4359 -1.8256 -1.2260
  594MPD2     N 8811   0.676   0.947  14.493  0.4403  0.2798 -0.8240
  594MPD2    H5 8812   0.607   1.016  14.523 -0.8830 -1.6014  0.4527
  594MPD2    N1 8813   0.324   0.637  14.532  0.3398 -0.1802  0.1483
  594MPD2    H7 8814   0.312   0.536  14.537  0.0095  0.0279  3.8058
  595TMC3    C1 8815   0.960   1.318  14.493  0.3578  0.4900 -1.0267
  595TMC3    C2 8816   0.941   1.181  14.472 -0.6872 -0.1490 -0.5332
  595TMC3    C3 8817   0.812   1.138  14.449  0.4663 -0.3783 -1.3521
  595TMC3    C4 8818   0.854   1.399  14.512  0.0061  0.3639  0.5795
  595TMC3    C5 8819   0.725   1.353  14.493  0.0369  0.5015  0.2893
  595TMC3    C6 8820   0.708   1.222  14.455 -0.2729 -0.2530 -0.3281
  595TMC3     C 8821   1.088   1.359  14.525 -0.2424 -0.3061 -0.1984
  595TMC3     O 8822   1.156   1.268  14.569 -0.0788 -0.1285  0.5875
  595TMC3     H 8823   1.026   1.114  14.483  0.5674  1.4301 -0.5834
  595TMC3    H1 8824   0.866   1.503  14.543 -0.5811  1.3731 -2.6314
  595TMC3    H2 8825   0.605   1.188  14.443 -0.2933  0.5208 -2.2315
  595TMC3    C7 8826   0.608   1.431  14.513 -0.2563  0.2998 -0.6533
  595TMC3    C8 8827   0.795   0.994  14.445 -0.0480 -0.3201  0.5381
  595TMC3    O1 8828   0.504   1.366  14.532  0.4986  0.0884  0.0473
  595TMC3    O2 8829   0.895   0.935  14.406  0.3503  0.2978  0.3286
  596MPD2     C 8830   3.969   2.998  16.937 -0.5777 -0.0403 -0.1085
  596MPD2    C1 8831   3.951   3.123  16.876  0.5093 -0.0166  0.2466
  596MPD2    C2 8832   3.936   3.121  16.737  0.6146  0.5837  0.2967
  596MPD2    C3 8833   3.946   3.006  16.662  0.4403  0.0959 -0.1675
  596MPD2    C4 8834   3.987   2.894  16.721  0.6119 -0.1359  0.5508
  596MPD2    C5 8835   3.993   2.890  16.861  0.7963 -0.1635 -0.0793
  596MPD2     H 8836   3.915   3.216  16.689  2.2409  0.6193 -0.3477
  596MPD2    H1 8837   4.005   2.802  16.668 -1.9422 -1.6239  2.2396
  596MPD2    H2 8838   3.983   2.980  17.043 -0.6013 -2.0027 -0.4389
  596MPD2    H3 8839   4.020   2.795  16.907 -1.3574 -0.1600  1.2044
  596MPD2     N 8840   3.931   2.994  16.525  0.0061  0.1289  0.2303
  596MPD2    H5 8841   3.942   2.898  16.494  1.1979 -0.0035  1.0558
  596MPD2    N1 8842   3.923   3.240  16.949  0.0109 -0.2943 -0.1785
  596MPD2    H7 8843   3.914   3.328  16.900 -0.8357 -0.9763 -1.2541
  597TMC3    C1 8844   3.915   3.392  17.131 -0.3267 -0.0584  0.3433
  597TMC3    C2 8845   3.976   3.483  17.055 -0.1045  0.7685  0.2526
  597TMC3    C3 8846   3.935   3.617  17.065  0.5750  0.4590  0.2456
  597TMC3    C4 8847   3.810   3.427  17.213  0.4345 -0.4399  0.5925
  597TMC3    C5 8848   3.759   3.553  17.217 -0.3177 -0.1205 -0.1838
  597TMC3    C6 8849   3.825   3.657  17.143  0.3238 -0.6122 -0.0510
  597TMC3     C 8850   3.914   3.253  17.086 -0.0961 -0.8427 -0.2809
  597TMC3     O 8851   3.872   3.174  17.165  0.1230 -0.0839 -0.2055
  597TMC3     H 8852   4.063   3.461  16.996 -1.3381  0.1283 -1.3332
  597TMC3    H1 8853   3.758   3.357  17.276 -1.3664 -0.0765 -0.5080
  597TMC3    H2 8854   3.808   3.763  17.159  3.0390 -0.3222  1.0023
  597TMC3    C7 8855   3.629   3.579  17.276  0.2576  0.1262 -0.0668
  597TMC3    C8 8856   4.033   3.721  17.026 -0.3016  0.4650  0.3045
  597TMC3    O1 8857   3.581   3.496  17.349  0.0463  0.1461  0.1964
  597TMC3    O2 8858   4.145   3.679  17.008  0.0966  0.2466  0.3646
  598TMC3    C1 8859   2.284   0.449  15.188 -0.6973  0.2153  0.3605
  598TMC3    C2 8860   2.157   0.400  15.170  0.1678  0.2772  0.5620
  598TMC3    C3 8861   2.121   0.362  15.046 -0.8288  0.7626 -0.2418
  598TMC3    C4 8862   2.371   0.458  15.081  0.1344  0.7640  0.5970
  598TMC3    C5 8863   2.327   0.412  14.960  0.1364  0.6452  0.6099
  598TMC3    C6 8864   2.202   0.364  14.941 -0.0892  0.2165  0.3698
  598TMC3     C 8865   2.326   0.510  15.313 -0.4169  0.2047 -0.1017
  598TMC3     O 8866   2.444   0.543  15.324 -0.0580 -0.2325  0.0978
  598TMC3     H 8867   2.083   0.394  15.249  1.1235 -1.5322  1.3237
  598TMC3    H1 8868   2.470   0.501  15.092  0.0644  0.9580  0.4596
  598TMC3    H2 8869   2.173   0.316  14.849 -0.3791  1.1034 -0.0027
  598TMC3    C7 8870   2.415   0.429  14.844 -0.5329  0.4975  0.1151
  598TMC3    C8 8871   1.979   0.344  15.029  0.6193 -0.6514 -0.2036
  598TMC3    O1 8872   2.386   0.368  14.742 -0.3041  0.1134 -0.0404
  598TMC3    O2 8873   1.943   0.392  14.923 -0.0049 -0.0358 -0.1111
  599MPD2     C 8874   2.490   2.453  16.282  0.4530 -0.0619 -0.4698
  599MPD2    C1 8875   2.423   2.353  16.217 -0.2303 -0.0156 -0.6174
  599MPD2    C2 8876   2.290   2.361  16.208 -0.3683  0.3627  0.5411
  599MPD2    C3 8877   2.217   2.474  16.248  0.0621  0.3173  0.5758
  599MPD2    C4 8878   2.287   2.572  16.320  0.5657  0.6687  0.4082
  599MPD2    C5 8879   2.422   2.561  16.330  0.8004  0.3015 -0.0748
  599MPD2     H 8880   2.237   2.283  16.154 -0.9070  3.1504 -2.8988
  599MPD2    H1 8881   2.239   2.665  16.352 -0.0768  0.4866 -0.0230
  599MPD2    H2 8882   2.598   2.451  16.281  0.4656  0.8742  0.3064
  599MPD2    H3 8883   2.472   2.638  16.387  0.5705 -1.1724  2.1449
  599MPD2     N 8884   2.074   2.484  16.256  0.4248  0.6034  0.0041
  599MPD2    H5 8885   2.032   2.565  16.302 -0.8666 -0.1852  0.1854
  599MPD2    N1 8886   2.507   2.245  16.172  0.1652 -0.0284 -0.1313
  599MPD2    H7 8887   2.607   2.254  16.190  0.2530  2.0489 -1.5927
  600TMC3    C1 8888   1.852   2.413  16.247  0.1167  0.8594  0.5131
  600TMC3    C2 8889   1.772   2.301  16.258  0.6068  0.8927 -1.2539
  600TMC3    C3 8890   1.641   2.326  16.287 -0.5141 -0.0550 -0.4057
  600TMC3    C4 8891   1.803   2.543  16.259  0.1966  0.4998  0.5908
  600TMC3    C5 8892   1.671   2.554  16.308  0.1596 -0.0555 -0.1978
  600TMC3    C6 8893   1.589   2.447  16.319  1.0059  0.9524  0.0180
  600TMC3     C 8894   1.988   2.390  16.216 -0.0055  0.1280  0.1871
  600TMC3     O 8895   2.018   2.283  16.162  0.4567  0.6349  0.3061
  600TMC3     H 8896   1.822   2.205  16.250 -0.9218  0.1574 -1.8925
  600TMC3    H1 8897   1.870   2.628  16.257  0.3684  0.3592  0.4059
  600TMC3    H2 8898   1.494   2.456  16.371  1.5326  0.4158  1.0540
  600TMC3    C7 8899   1.648   2.671  16.393 -0.6576  0.7941  0.6085
  600TMC3    C8 8900   1.571   2.216  16.341 -0.5439  0.4438 -0.8274
  600TMC3    O1 8901   1.587   2.658  16.502 -0.2844  0.3118 -0.5120
  600TMC3    O2 8902   1.630   2.118  16.386 -0.1914 -0.2696  0.1618
  601MPD2     C 8903   4.201   0.842  17.619 -0.2849  0.6246 -0.6361
  601MPD2    C1 8904   4.093   0.765  17.581  0.1401  0.0342  0.4677
  601MPD2    C2 8905   4.104   0.627  17.585 -0.3222  0.3327 -0.2777
  601MPD2    C3 8906   4.218   0.566  17.633  0.1223 -0.1196  0.9513
  601MPD2    C4 8907   4.325   0.644  17.673  0.6755 -0.4184 -0.1761
  601MPD2    C5 8908   4.319   0.780  17.660 -0.0555 -0.1004  0.3975
  601MPD2     H 8909   4.024   0.562  17.552  0.7640 -1.6741  1.0583
  601MPD2    H1 8910   4.418   0.599   0.021  0.0567 -1.3702  0.2564
  601MPD2    H2 8911   4.194   0.949  17.604  0.3410  1.0143  1.8581
  601MPD2    H3 8912   4.403   0.841   0.006  0.5250  0.0374 -1.4656
  601MPD2     N 8913   4.234   0.430  17.653  0.1657  0.4237 -0.0198
  601MPD2    H5 8914   4.328   0.398  17.674 -0.5101 -0.6649  1.3041
  601MPD2    N1 8915   3.963   0.809  17.542 -0.1928  0.7036  0.2738
  601MPD2    H7 8916   3.890   0.738  17.538 -1.3074  1.9947 -2.4261
  602TMC3    C1 8917   3.776   0.941  17.532 -0.1517 -0.1357  0.3887
  602TMC3    C2 8918   3.713   1.059  17.568 -0.0624  0.1062  0.0039
  602TMC3    C3 8919   3.577   1.060  17.551  0.3859 -0.4960 -0.0713
  602TMC3    C4 8920   3.711   0.838  17.461 -0.0730 -0.8563  0.4150
  602TMC3    C5 8921   3.576   0.853  17.434 -0.2955  0.5825  0.6404
  602TMC3    C6 8922   3.511   0.960  17.481 -0.4219  0.2088  0.6644
  602TMC3     C 8923   3.914   0.937  17.558 -0.7951  0.0875 -0.5314
  602TMC3     O 8924   3.977   1.041  17.582  0.0961 -0.2423  0.4199
  602TMC3     H 8925   3.768   1.136  17.621 -1.4667  2.2256 -1.5839
  602TMC3    H1 8926   3.765   0.761  17.407 -0.0429 -2.2618  2.4565
  602TMC3    H2 8927   3.403   0.961  17.466 -0.4691 -0.7519  1.0078
  602TMC3    C7 8928   3.516   0.768  17.334  0.6383  0.7754  0.2448
  602TMC3    C8 8929   3.515   1.186  17.593  0.6745 -0.0582 -1.1473
  602TMC3    O1 8930   3.562   0.654  17.311 -0.1437  0.4112 -0.1346
  602TMC3    O2 8931   3.586   1.271  17.636  0.7517  0.2116  0.0473
  603TMC3    C1 8932   1.944   1.260  10.738  0.1699 -0.4938 -0.4430
  603TMC3    C2 8933   2.031   1.222  10.836 -0.0478 -0.9926  0.8702
  603TMC3    C3 8934   2.105   1.324  10.897 -0.2435  0.2386 -0.3302
  603TMC3    C4 8935   1.942   1.383  10.688  0.0951  0.3579  0.2313
  603TMC3    C5 8936   2.021   1.477  10.750 -0.4723 -0.3208  0.2749
  603TMC3    C6 8937   2.111   1.448  10.844  0.1654 -0.0518  0.6265
  603TMC3     C 8938   1.865   1.154  10.681 -0.1241 -0.5947  0.1990
  603TMC3     O 8939   1.892   1.035  10.705 -0.0220 -0.8989 -0.0997
  603TMC3     H 8940   2.022   1.121  10.873 -1.3068 -1.5329 -0.9303
  603TMC3    H1 8941   1.887   1.411  10.599  0.5605 -1.4058 -0.6121
  603TMC3    H2 8942   2.161   1.531  10.894  0.9293 -0.6645  0.8773
  603TMC3    C7 8943   2.039   1.603  10.691 -0.8794  0.1191 -0.7129
  603TMC3    C8 8944   2.168   1.284  11.023  0.1603 -0.4013  0.2029
  603TMC3    O1 8945   2.148   1.661  10.708  0.4117 -0.7422 -0.2821
  603TMC3    O2 8946   2.171   1.161  11.044  0.3875 -0.0909 -0.2046
  604MPD2     C 8947   2.957   4.538  16.570  0.1694  0.3473 -0.1407
  604MPD2    C1 8948   2.832   4.482  16.557 -0.0380  0.5405  0.7450
  604MPD2    C2 8949   2.828   4.370  16.466  0.6511 -0.0872 -0.1435
  604MPD2    C3 8950   2.939   4.323  16.398 -0.4642  0.3554  0.0389
  604MPD2    C4 8951   3.055   4.388  16.412  0.0986  0.0294 -0.1558
  604MPD2    C5 8952   3.067   4.494  16.499 -0.3315  0.6373 -0.1948
  604MPD2     H 8953   2.732   4.331  16.436 -0.3957  1.1396  1.6328
  604MPD2    H1 8954   3.141   4.373  16.348 -1.0140 -0.7854 -1.4415
  604MPD2    H2 8955   2.981   4.620  16.638 -1.9294  0.8862 -0.0605
  604MPD2    H3 8956   3.164   4.541  16.508 -0.0080 -0.2273  0.9191
  604MPD2     N 8957   2.914   4.236  16.288 -0.0982  0.4314  0.0210
  604MPD2    H5 8958   2.826   4.186  16.280 -1.5904  2.8995  1.0020
  604MPD2    N1 8959   2.720   4.536  16.634  0.0568 -0.3282 -0.2682
  604MPD2    H7 8960   2.749   4.613  16.693  1.1679  1.3073 -2.9604
  605TMC3    C1 8961   2.501   4.591  16.690  0.3175  0.8486  0.7246
  605TMC3    C2 8962   2.553   4.662  16.792  0.5608 -0.3637 -0.0504
  605TMC3    C3 8963   2.523   0.072  16.818 -0.1759  0.0650  0.0518
  605TMC3    C4 8964   2.395   4.647  16.614  0.1196 -0.6951  0.6249
  605TMC3    C5 8965   2.363   0.054  16.648 -0.5162  0.3459  0.2090
  605TMC3    C6 8966   2.424   0.126  16.747 -0.4774  0.4942  0.1095
  605TMC3     C 8967   2.592   4.496  16.627  0.2963 -0.2626 -0.9841
  605TMC3     O 8968   2.541   4.419  16.550  0.4507  0.1991  0.5311
  605TMC3     H 8969   2.623   4.621  16.865 -0.8968 -2.0033  0.4337
  605TMC3    H1 8970   2.358   4.597  16.525 -0.9215  2.9861 -1.0027
  605TMC3    H2 8971   2.398   0.231  16.755 -0.9131  0.3848  0.0888
  605TMC3    C7 8972   2.239   0.118  16.590  0.4975  0.3030 -0.3369
  605TMC3    C8 8973   2.629   0.171  16.860 -0.0061  0.0656  0.4729
  605TMC3    O1 8974   2.224   0.238  16.601 -0.2099  0.1827  0.5870
  605TMC3    O2 8975   2.592   0.256  16.941 -0.5404  0.2490  0.1189
  606TMC3    C1 8976   4.609   2.641  16.669  0.4071  0.0182  0.1591
  606TMC3    C2 8977   4.688   2.709  16.762  0.3118 -0.4517 -0.3387
  606TMC3    C3 8978   4.718   2.629  16.872  1.1536  0.0307  0.0067
  606TMC3    C4 8979   4.570   2.515  16.683  0.6629  0.3920  0.2777
  606TMC3    C5 8980   4.594   2.452  16.796  0.0691 -0.9248 -0.1336
  606TMC3    C6 8981   4.671   2.505  16.894 -0.5469  0.2179 -0.0051
  606TMC3     C 8982   4.575   2.729  16.558  0.0690  0.4499 -0.1369
  606TMC3     O 8983   4.544   2.845  16.590 -0.5131 -0.3760  0.9232
  606TMC3     H 8984   4.713   2.812  16.739 -3.0270  1.1978  3.4887
  606TMC3    H1 8985   4.497   2.467  16.619  1.2020 -0.6046  0.4134
  606TMC3    H2 8986   4.689   2.452  16.987  0.7907  1.4792  0.4509
  606TMC3    C7 8987   4.526   2.333  16.827 -0.2759 -0.0949  0.2607
  606TMC3    C8 8988   0.073   2.698  16.966  0.2963 -0.0933 -0.1020
  606TMC3    O1 8989   4.536   2.243  16.745  0.7338  0.0209  0.2908
  606TMC3    O2 8990   0.062   2.820  16.973 -0.1451  0.1511 -0.7717
  607MPD2     C 8991   1.049   1.474  11.652 -0.2305  0.0187 -0.4698
  607MPD2    C1 8992   1.161   1.530  11.708  0.5320  0.6305  0.6562
  607MPD2    C2 8993   1.202   1.491  11.832 -0.2740 -0.0753 -0.1091
  607MPD2    C3 8994   1.133   1.392  11.901  0.4080  0.2244  0.1949
  607MPD2    C4 8995   1.023   1.332  11.846  0.2332  0.3110  0.7517
  607MPD2    C5 8996   0.987   1.373  11.720  0.3383 -0.0540  0.2055
  607MPD2     H 8997   1.287   1.533  11.883  1.9959 -2.6130 -1.8245
  607MPD2    H1 8998   0.960   1.266  11.905 -0.7951  0.0401 -0.6447
  607MPD2    H2 8999   1.021   1.494  11.550  1.0525 -1.8659 -1.1853
  607MPD2    H3 9000   0.902   1.320  11.679  0.7147  1.0522 -1.9793
  607MPD2     N 9001   1.179   1.368  12.033  0.5029 -0.3695 -0.1427
  607MPD2    H5 9002   1.252   1.434  12.059  1.9981 -1.5465 -1.2853
  607MPD2    N1 9003   1.247   1.628  11.645 -0.2267  0.3352 -0.7663
  607MPD2    H7 9004   1.322   1.668  11.701  0.1432  0.3919 -1.3003
  608TMC3    C1 9005   1.348   1.752  11.482  0.0574  0.5101  0.8410
  608TMC3    C2 9006   1.424   1.801  11.588  0.6482 -0.6035  0.2912
  608TMC3    C3 9007   1.549   1.860  11.560  0.3717  0.1483  1.1560
  608TMC3    C4 9008   1.395   1.759  11.353 -0.7956  0.1471 -0.1671
  608TMC3    C5 9009   1.519   1.821  11.339  0.1111  0.4569  0.3365
  608TMC3    C6 9010   1.589   1.881  11.437 -0.0523  0.0887  0.2236
  608TMC3     C 9011   1.235   1.673  11.518 -0.1293 -0.1278 -0.0440
  608TMC3     O 9012   1.147   1.648  11.439  0.1983 -0.1941  0.5934
  608TMC3     H 9013   1.391   1.822  11.689 -0.2453  2.4575 -0.6569
  608TMC3    H1 9014   1.338   1.716  11.271 -0.0313  2.8832 -2.1022
  608TMC3    H2 9015   1.691   1.915  11.425  0.1065 -0.9754 -1.3704
  608TMC3    C7 9016   1.574   1.822  11.207  0.2584 -0.3809 -0.8639
  608TMC3    C8 9017   1.635   1.887  11.671 -0.4503 -0.0886 -0.5352
  608TMC3    O1 9018   1.499   1.850  11.112  0.0078 -0.0270  0.1113
  608TMC3    O2 9019   1.736   1.954  11.661  0.5989  0.1892 -0.1369
  609TMC3    C1 9020   4.392   0.515   9.217  0.0055 -0.2813 -0.5645
  609TMC3    C2 9021   4.319   0.526   9.109 -0.5776  0.3380  1.0489
  609TMC3    C3 9022   4.354   0.450   9.003  0.0907  0.0625 -0.1748
  609TMC3    C4 9023   4.497   0.425   9.226 -0.4657  0.3135  0.1163
  609TMC3    C5 9024   4.531   0.347   9.116  0.3530 -0.2879 -0.3457
  609TMC3    C6 9025   4.460   0.361   9.002 -0.2925 -0.8539 -0.5547
  609TMC3     C 9026   4.351   0.596   9.330  0.9446  0.4976 -0.0527
  609TMC3     O 9027   4.250   0.666   9.318  0.1073  0.1799  0.7658
  609TMC3     H 9028   4.237   0.597   9.105 -2.2817 -1.7011 -0.6855
  609TMC3    H1 9029   4.546   0.403   9.320  0.5947  3.8429  0.4021
  609TMC3    H2 9030   4.482   0.300   8.915 -0.9194 -0.2529 -1.1278
  609TMC3    C7 9031   4.667   0.299   9.107 -0.1818  0.0514 -0.1914
  609TMC3    C8 9032   4.254   0.423   8.896  0.3411  0.0706 -0.2719
  609TMC3    O1 9033   0.013   0.353   9.193  0.0084  0.5041 -0.4708
  609TMC3    O2 9034   4.280   0.332   8.820  0.4548  0.0498  0.1520
  610TMC3    C1 9035   1.600   1.083  13.160 -0.2482  0.4547 -0.9426
  610TMC3    C2 9036   1.589   1.171  13.054 -0.0585  0.3714  0.0387
  610TMC3    C3 9037   1.694   1.171  12.964 -0.0086  0.3917 -0.0731
  610TMC3    C4 9038   1.716   1.014  13.182 -0.0764 -0.7963 -0.2864
  610TMC3    C5 9039   1.826   1.025  13.094 -0.6349  0.1988  0.3425
  610TMC3    C6 9040   1.815   1.105  12.984  0.8422  0.3281  0.6756
  610TMC3     C 9041   1.488   1.042  13.234 -0.3225  0.1798 -0.1275
  610TMC3     O 9042   1.497   0.935  13.284 -0.6634  0.2019  0.0784
  610TMC3     H 9043   1.495   1.210  13.018 -0.6320 -1.1389 -0.0853
  610TMC3    H1 9044   1.712   0.959  13.276  0.0476  0.2666  0.3323
  610TMC3    H2 9045   1.893   1.093  12.910 -0.2351 -0.4532 -0.3306
  610TMC3    C7 9046   1.952   0.958  13.119 -0.7907 -0.1959  0.6586
  610TMC3    C8 9047   1.674   1.254  12.845  0.0817  0.2061 -0.1168
  610TMC3    O1 9048   2.038   0.961  13.031  0.1504 -0.3400 -0.1464
  610TMC3    O2 9049   1.592   1.341  12.843  0.6287 -0.2269 -0.2859
  611MPD2     C 9050   0.933   1.532  10.476 -0.0413 -0.4173 -0.0188
  611MPD2    C1 9051   0.911   1.545  10.341  0.2782  0.2965  0.0977
  611MPD2    C2 9052   1.005   1.625  10.272  0.0762 -0.5082 -0.0713
  611MPD2    C3 9053   1.108   1.688  10.336 -0.1487 -0.4257  0.5830
  611MPD2    C4 9054   1.138   1.665  10.465  0.1669  0.4157  0.3389
  611MPD2    C5 9055   1.048   1.590  10.534  0.9534  0.2414  0.4502
  611MPD2     H 9056   0.994   1.633  10.164 -0.7392 -0.1721  0.0322
  611MPD2    H1 9057   1.217   1.721  10.512  0.8142 -0.7548  0.6608
  611MPD2    H2 9058   0.866   1.470  10.534 -0.8969 -0.5907 -1.1825
  611MPD2    H3 9059   1.075   1.574  10.638 -1.4553  1.5500  1.2734
  611MPD2     N 9060   1.200   1.779  10.269 -0.0103 -0.5720  0.3486
  611MPD2    H5 9061   1.261   1.828  10.334  0.4625  0.7175 -1.0781
  611MPD2    N1 9062   0.804   1.480  10.283  0.1307 -0.0767 -0.0117
  611MPD2    H7 9063   0.758   1.404  10.332  1.7624 -0.1678  1.3355
  612TMC3    C1 9064   1.313   1.910  10.102 -0.0009  0.4912  0.3317
  612TMC3    C2 9065   1.426   1.906  10.177  0.3860 -0.0815 -0.2940
  612TMC3    C3 9066   1.526   1.992  10.135 -0.0182  0.1453 -0.2830
  612TMC3    C4 9067   1.301   1.978   9.987  0.3633 -0.2856  0.4509
  612TMC3    C5 9068   1.402   2.061   9.949  0.4890 -0.3701 -0.8671
  612TMC3    C6 9069   1.521   2.060  10.014  0.1091  0.6356 -0.5781
  612TMC3     C 9070   1.205   1.813  10.132  0.8350 -0.2161  0.3774
  612TMC3     O 9071   1.150   1.769  10.035 -0.2503  0.0077  0.2508
  612TMC3     H 9072   1.425   1.852  10.272  0.7817 -0.5591 -0.5651
  612TMC3    H1 9073   1.221   1.967   9.915  1.8540  0.3828 -1.2914
  612TMC3    H2 9074   1.606   2.114   9.973  0.5803  0.5611  0.2833
  612TMC3    C7 9075   1.393   2.139   9.824 -0.3581 -0.0862  0.4427
  612TMC3    C8 9076   1.660   2.001  10.200  0.4704 -0.5562 -0.2323
  612TMC3    O1 9077   1.287   2.129   9.763  0.1870  0.1438  0.2417
  612TMC3    O2 9078   1.738   2.090  10.162 -0.1708  0.4209 -0.4673
  613MPD2     C 9079   0.614   3.721  16.738  0.3193 -0.0531  0.3026
  613MPD2    C1 9080   0.557   3.736  16.615 -0.5197  0.4167  0.1086
  613MPD2    C2 9081   0.478   3.636  16.580  0.3952 -0.4334 -0.1120
  613MPD2    C3 9082   0.449   3.522  16.652  0.0128 -0.0325 -0.1132
  613MPD2    C4 9083   0.500   3.509  16.775  0.0445 -0.2347  0.0511
  613MPD2    C5 9084   0.587   3.610  16.818 -0.1411 -0.2848  0.0436
  613MPD2     H 9085   0.434   3.641  16.481 -1.8874  1.7614  1.0330
  613MPD2    H1 9086   0.492   3.417  16.830  3.4194 -0.0933  0.7842
  613MPD2    H2 9087   0.681   3.796  16.777 -0.0922  1.7613 -2.4903
  613MPD2    H3 9088   0.638   3.596  16.912 -0.3557 -0.7137  0.0976
  613MPD2     N 9089   0.393   3.409  16.596  0.3641 -0.6890 -0.0549
  613MPD2    H5 9090   0.408   3.319  16.641 -1.0502 -0.1273  1.5356
  613MPD2    N1 9091   0.583   3.844  16.533  0.3047 -0.2394  0.3440
  613MPD2    H7 9092   0.665   3.902  16.548 -0.1714  0.7642 -0.9284
  614TMC3    C1 9093   0.574   3.941  16.323  0.2249 -0.5094 -1.0512
  614TMC3    C2 9094   0.669   3.855  16.276 -0.0190  0.2808 -0.5833
  614TMC3    C3 9095   0.648   3.801  16.156  0.4623  0.9171  0.3478
  614TMC3    C4 9096   0.470   3.977  16.234  0.2828 -0.3966 -0.2060
  614TMC3    C5 9097   0.458   3.925  16.108  0.1290 -0.2914  0.0660
  614TMC3    C6 9098   0.550   3.832  16.065 -0.5919 -0.3128  0.4761
  614TMC3     C 9099   0.505   3.878  16.433 -0.0841  0.4341 -0.0464
  614TMC3     O 9100   0.385   3.857  16.411  0.6131  0.7926  0.4383
  614TMC3     H 9101   0.742   3.808  16.341  0.4228  1.2465 -0.3778
  614TMC3    H1 9102   0.393   4.047  16.266  0.4957 -1.1852  2.0308
  614TMC3    H2 9103   0.533   3.767  15.980  1.5670  1.3138 -1.1918
  614TMC3    C7 9104   0.333   3.964  16.037  0.5828 -0.2906 -0.2655
  614TMC3    C8 9105   0.668   3.659  16.170  0.2205 -0.0479 -0.5546
  614TMC3    O1 9106   0.241   4.018  16.098 -0.6352  0.6538  0.1850
  614TMC3    O2 9107   0.660   3.615  16.286 -0.2973  0.3739 -0.2262
  615MPD2     C 9108   4.613   4.549  16.527 -0.5239 -0.5302 -0.6890
  615MPD2    C1 9109   4.701   4.617  16.454  0.1503 -0.8125  0.3231
  615MPD2    C2 9110   4.674   4.653  16.328 -0.2033 -0.7640 -0.5071
  615MPD2    C3 9111   4.550   4.633  16.274  0.1698  0.2319 -1.0181
  615MPD2    C4 9112   4.454   4.570  16.345  0.0562  0.0665 -0.0971
  615MPD2    C5 9113   4.488   4.529  16.475  0.0630 -0.0146  0.0867
  615MPD2     H 9114   0.027   4.705  16.267 -1.0559  0.5259 -0.4371
  615MPD2    H1 9115   4.355   4.551  16.307  0.3457  0.1867 -0.9097
  615MPD2    H2 9116   4.630   4.514  16.629 -2.6626  0.5773  0.0480
  615MPD2    H3 9117   4.414   4.473  16.530 -0.8887 -0.9503 -2.1649
  615MPD2     N 9118   4.511   4.690  16.150 -0.5472  0.2022  0.2123
  615MPD2    H5 9119   4.412   4.681  16.129 -0.2772  0.5802 -1.2406
  615MPD2    N1 9120   0.106   4.660  16.494 -0.2213 -0.4073  0.2362
  615MPD2    H7 9121   0.179   4.678  16.427  1.0129 -2.0514  1.1208
  616TMC3    C1 9122   0.277   4.707  16.648 -0.2761  0.0437  0.1067
  616TMC3    C2 9123   0.337   0.072  16.557 -0.1450 -0.0403 -0.2065
  616TMC3    C3 9124   0.456   0.132  16.589 -0.1808  0.0221  0.4109
  616TMC3    C4 9125   0.346   4.682  16.766  0.3471 -0.3339  0.0888
  616TMC3    C5 9126   0.465   0.016  16.785  0.6777  0.6668 -0.4536
  616TMC3    C6 9127   0.531   0.101  16.697 -0.2544  0.5218  0.2089
  616TMC3     C 9128   0.144   4.655  16.624  0.8090  0.5222 -0.2501
  616TMC3     O 9129   0.089   4.611  16.724 -0.1309  0.4355  0.1722
  616TMC3     H 9130   0.285   0.121  16.476 -0.6415  0.5590  0.4762
  616TMC3    H1 9131   0.303   4.611  16.836 -0.8051  0.7826  0.5099
  616TMC3    H2 9132   0.635   0.132  16.701  0.4733 -1.8036 -0.4274
  616TMC3    C7 9133   0.542   4.680  16.893 -1.0895  0.4513 -0.1697
  616TMC3    C8 9134   0.509   0.234  16.500 -0.2015 -0.6367 -0.2159
  616TMC3    O1 9135   0.500   4.574  16.942 -0.7672 -0.1272  0.5356
  616TMC3    O2 9136   0.497   0.215  16.379  0.2166 -0.1434 -0.2451
  617MPD2     C 9137   2.428   3.190  13.978  0.2187  0.0400  0.5314
  617MPD2    C1 9138   2.454   3.134  14.102  0.3487  0.1138 -0.4830
  617MPD2    C2 9139   2.351   3.072  14.164 -0.3761 -0.2875  0.0568
  617MPD2    C3 9140   2.224   3.063  14.099 -0.3230  0.0003 -0.4929
  617MPD2    C4 9141   2.206   3.115  13.970  0.2064 -0.4867 -0.5176
  617MPD2    C5 9142   2.313   3.175  13.910  0.6500 -0.1553 -0.0618
  617MPD2     H 9143   2.364   3.013  14.254  0.8363  2.7357  1.8534
  617MPD2    H1 9144   2.119   3.106  13.906  0.6007  0.0657 -1.1458
  617MPD2    H2 9145   2.511   3.222  13.917 -0.7793  0.7308 -0.4634
  617MPD2    H3 9146   2.313   3.200  13.805  1.6736  0.3505  0.0632
  617MPD2     N 9147   2.118   2.989  14.169 -0.3102  0.2549  0.0097
  617MPD2    H5 9148   2.034   2.992  14.112 -0.3997  2.8178  0.2682
  617MPD2    N1 9149   2.583   3.149  14.150  0.0704 -0.5879  0.3246
  617MPD2    H7 9150   2.655   3.194  14.094 -0.1014  0.6288  1.0827
  618TMC3    C1 9151   2.759   3.133  14.296 -0.3636 -0.2765 -0.1350
  618TMC3    C2 9152   2.836   3.027  14.280 -0.1228  0.8703 -0.4389
  618TMC3    C3 9153   2.966   3.051  14.226 -0.0667 -0.7258 -0.2317
  618TMC3    C4 9154   2.800   3.257  14.296  0.5093 -0.3638 -0.4419
  618TMC3    C5 9155   2.932   3.279  14.258 -0.3239 -0.6419 -0.3760
  618TMC3    C6 9156   3.015   3.174  14.226  0.8750 -0.0915  0.2200
  618TMC3     C 9157   2.619   3.107  14.273  0.1012 -1.2659  0.0721
  618TMC3     O 9158   2.572   3.014  14.339  0.2210 -0.0872  0.1084
  618TMC3     H 9159   2.799   2.926  14.272  0.1104  0.8843 -1.8195
  618TMC3    H1 9160   2.727   3.337  14.302  0.7814  0.0280 -2.5352
  618TMC3    H2 9161   3.108   3.193  14.174  0.2403  1.4154 -0.3976
  618TMC3    C7 9162   2.971   3.416  14.284  0.2382 -0.2088 -0.1859
  618TMC3    C8 9163   2.990   2.978  14.105 -0.6891 -0.2189  0.1686
  618TMC3    O1 9164   2.906   3.465  14.376  0.5944 -0.4088  0.2623
  618TMC3    O2 9165   2.887   2.929  14.060 -0.1978  0.0144  0.3121
  619MPD2     C 9166   3.895   4.013  13.063  1.0156 -0.0304 -0.8215
  619MPD2    C1 9167   3.868   4.150  13.081  0.2586 -0.9384  0.2035
  619MPD2    C2 9168   3.816   4.196  13.203 -0.2643 -0.0897 -0.5891
  619MPD2    C3 9169   3.784   4.103  13.300  0.0584  0.5485 -0.9256
  619MPD2    C4 9170   3.810   3.967  13.285  0.2229  0.5339  0.4485
  619MPD2    C5 9171   3.870   3.924  13.168 -0.5031 -0.1083  0.5196
  619MPD2     H 9172   3.791   4.301  13.216  2.3194  0.5561 -0.7773
  619MPD2    H1 9173   3.803   3.894  13.364 -2.3514 -0.3531 -0.5914
  619MPD2    H2 9174   3.932   3.969  12.971 -2.0605 -1.2466 -1.4756
  619MPD2    H3 9175   3.916   3.826  13.168  0.0374  0.1374  2.3411
  619MPD2     N 9176   3.725   4.152  13.419  0.8335  0.0325  0.2398
  619MPD2    H5 9177   3.689   4.083  13.485  1.6211  1.2376  1.9447
  619MPD2    N1 9178   3.898   4.244  12.978 -0.1850  0.7438  0.5789
  619MPD2    H7 9179   3.863   4.337  12.998 -2.4437  0.2035 -0.7920
  620TMC3    C1 9180   3.987   4.339  12.784 -0.0527  1.0106  0.2344
  620TMC3    C2 9181   3.911   4.455  12.793  0.5888 -0.4804 -0.4383
  620TMC3    C3 9182   3.936   4.557  12.706  1.0785 -0.4544 -0.3979
  620TMC3    C4 9183   4.111   4.347  12.718  0.4059 -0.6414 -0.1041
  620TMC3    C5 9184   4.142   4.460  12.648  0.0572  0.1380 -0.1789
  620TMC3    C6 9185   4.044   4.552  12.624 -0.2932  0.1000 -0.4127
  620TMC3     C 9186   3.966   4.225  12.866  0.7503 -0.4083  0.0609
  620TMC3     O 9187   4.043   4.135  12.842 -0.2958  0.0840 -0.0289
  620TMC3     H 9188   3.823   4.473  12.855  0.6424  1.5589 -0.9394
  620TMC3    H1 9189   4.187   4.272  12.739  1.5213  0.0284 -1.7796
  620TMC3    H2 9190   4.069   4.621  12.544 -0.6141 -1.9834 -2.3337
  620TMC3    C7 9191   4.264   4.513  12.703  0.4026 -0.5475  0.0106
  620TMC3    C8 9192   3.907   4.690  12.746 -0.2908 -0.0347  0.3048
  620TMC3    O1 9193   4.355   4.436  12.724  0.1062 -0.3988 -0.1816
  620TMC3    O2 9194   3.904   0.045  12.647 -0.0172 -0.0503 -0.5340
  621MPD2     C 9195   4.230   0.077   9.906 -0.0184 -0.2002 -0.5626
  621MPD2    C1 9196   4.264   0.090   9.770 -0.0497  0.0254  0.8748
  621MPD2    C2 9197   4.395   0.115   9.751  0.1050  0.0401 -0.9118
  621MPD2    C3 9198   4.493   0.137   9.848 -0.1952 -0.3077 -0.1384
  621MPD2    C4 9199   4.448   0.141   9.977  0.2386  0.4370 -0.0014
  621MPD2    C5 9200   4.318   0.103  10.002  0.1345  0.2380  0.7944
  621MPD2     H 9201   4.414   0.114   9.644  1.8257  1.7745 -0.6192
  621MPD2    H1 9202   4.517   0.152  10.060  1.4282 -0.0292 -0.9169
  621MPD2    H2 9203   4.126   0.054   9.928  0.2493 -0.2626  0.5994
  621MPD2    H3 9204   4.268   0.099  10.098  0.9552 -1.1038  1.1617
  621MPD2     N 9205   4.626   0.167   9.804 -0.0884  0.1890  0.0185
  621MPD2    H5 9206   4.631   0.187   9.704  0.7086  0.3518  0.0899
  621MPD2    N1 9207   4.180   0.066   9.658 -0.3477  0.2808  0.1859
  621MPD2    H7 9208   4.216   0.064   9.563  1.4822  1.2253  0.8522
  622TMC3    C1 9209   3.982   0.066   9.535  0.4007 -0.2822 -1.1156
  622TMC3    C2 9210   3.875   0.144   9.516  0.0311  0.5607  0.1392
  622TMC3    C3 9211   3.819   0.128   9.393  0.7716 -0.1978 -0.5527
  622TMC3    C4 9212   4.043   4.707   9.435  0.1866  0.0596 -0.6832
  622TMC3    C5 9213   3.974   4.683   9.316  0.2555 -0.8309 -0.1158
  622TMC3    C6 9214   3.858   0.040   9.293 -0.1565  0.1340 -0.0232
  622TMC3     C 9215   4.044   0.076   9.665 -0.2923  0.0179  0.8801
  622TMC3     O 9216   3.973   0.101   9.763  0.2751 -0.2949  1.1219
  622TMC3     H 9217   3.836   0.211   9.591  0.1717 -0.9748  1.5993
  622TMC3    H1 9218   4.132   4.647   9.450 -0.0217 -0.7172 -2.6038
  622TMC3    H2 9219   3.802   0.032   9.200 -1.5735 -0.4733  0.9006
  622TMC3    C7 9220   4.007   4.566   9.238 -0.0166  0.5940 -0.7102
  622TMC3    C8 9221   3.704   0.216   9.372  0.2049 -0.1852 -0.2173
  622TMC3    O1 9222   4.127   4.537   9.239  0.0821 -0.2234 -0.1840
  622TMC3    O2 9223   3.643   0.251   9.474 -0.1781 -0.1475  0.0255
  623MPD2     C 9224   2.984   4.478  16.037 -0.2891  0.3387 -0.8276
  623MPD2    C1 9225   2.952   4.570  16.138 -0.0496 -0.3550 -0.2775
  623MPD2    C2 9226   3.047   4.651  16.195  0.2600 -0.0885  0.0259
  623MPD2    C3 9227   3.172   4.633  16.171  0.2034  0.3192 -0.3658
  623MPD2    C4 9228   3.213   4.544  16.072  0.6072  0.8430 -0.1716
  623MPD2    C5 9229   3.118   4.467  16.006  0.9246 -0.0012 -0.0371
  623MPD2     H 9230   3.027   0.005  16.271 -0.0389  0.1881 -0.3270
  623MPD2    H1 9231   3.317   4.537  16.042  0.7554 -1.1820  0.8385
  623MPD2    H2 9232   2.907   4.433  15.976 -2.1363 -0.6210  2.2462
  623MPD2    H3 9233   3.157   4.414  15.919  2.2820  0.9075  0.0264
  623MPD2     N 9234   3.258   0.005  16.227  0.6393 -1.0872 -0.2396
  623MPD2    H5 9235   3.216   0.059  16.302  2.2589  0.3638 -0.3731
  623MPD2    N1 9236   2.823   4.588  16.185  0.1531  0.3440 -0.0240
  623MPD2    H7 9237   2.800   4.661  16.252  1.1536 -1.1405  1.9415
  624TMC3    C1 9238   3.544   0.170  16.455 -0.3524  0.0614 -0.0272
  624TMC3    C2 9239   3.433   0.209  16.527  0.3366 -0.6361  0.1677
  624TMC3    C3 9240   3.322   0.232  16.457 -0.8511 -0.2412  0.5406
  624TMC3    C4 9241   3.533   0.140  16.321 -0.0693  0.8103  0.5780
  624TMC3    C5 9242   3.418   0.167  16.255  0.1580  0.4420 -0.1363
  624TMC3    C6 9243   3.311   0.215  16.320  0.2447  0.4211 -0.5204
  624TMC3     C 9244   3.659   0.110  16.532  0.2141 -0.3147  0.5723
  624TMC3     O 9245   3.628   0.060  16.637  0.6170 -0.2659 -0.1669
  624TMC3     H 9246   3.438   0.196  16.635 -0.2481  2.1586  0.5149
  624TMC3    H1 9247   3.613   0.096  16.263 -0.8139  1.0439 -0.6315
  624TMC3    H2 9248   3.217   0.242  16.273 -0.6920 -0.1255  1.0361
  624TMC3    C7 9249   3.376   0.047  16.180 -0.5384  0.2216 -0.7139
  624TMC3    C8 9250   3.206   0.197  16.524  0.3662  0.2731 -0.1269
  624TMC3    O1 9251   3.437   0.011  16.081 -0.0164  0.2713  0.0392
  624TMC3    O2 9252   3.138   0.109  16.468 -0.3277  0.6870 -0.5635
  625MPD2     C 9253   3.590   0.786   0.463 -0.0610 -0.6087 -0.0663
  625MPD2    C1 9254   3.677   0.855   0.542 -0.3606 -0.5158  0.9154
  625MPD2    C2 9255   3.769   0.778   0.611  0.5712  0.8600 -0.1613
  625MPD2    C3 9256   3.783   0.641   0.591  0.0257 -1.1719 -0.2804
  625MPD2    C4 9257   3.704   0.577   0.501  0.2594  0.0819 -0.2570
  625MPD2    C5 9258   3.601   0.646   0.450  0.1968 -0.7886  0.1075
  625MPD2     H 9259   3.839   0.831   0.674 -0.1924  1.5793  0.0942
  625MPD2    H1 9260   3.708   0.471   0.477  1.1139  0.2264 -0.7362
  625MPD2    H2 9261   3.512   0.832   0.403 -0.8936 -1.2994  0.4785
  625MPD2    H3 9262   3.539   0.601   0.374  1.4349 -1.1397 -0.6883
  625MPD2     N 9263   3.891   0.579   0.660  0.5043  0.2746  0.5316
  625MPD2    H5 9264   3.941   0.635   0.729  0.9516 -1.4427  1.5824
  625MPD2    N1 9265   3.669   0.996   0.556 -0.2018 -0.2012 -0.6294
  625MPD2    H7 9266   3.738   1.045   0.612 -0.6116 -2.4305  1.7812
  626TMC3    C1 9267   3.613   1.215   0.513 -0.1281 -0.2549  0.1355
  626TMC3    C2 9268   3.552   1.302   0.431 -0.2125 -0.5561 -0.5012
  626TMC3    C3 9269   3.538   1.429   0.478  0.0557  0.4970 -0.0711
  626TMC3    C4 9270   3.665   1.250   0.637  0.4704 -0.0214  0.4205
  626TMC3    C5 9271   3.662   1.383   0.675  1.0272 -0.6770  0.2816
  626TMC3    C6 9272   3.601   1.469   0.592 -0.6810 -0.2133  0.2390
  626TMC3     C 9273   3.581   1.076   0.493 -0.3772  0.1854  0.3198
  626TMC3     O 9274   3.493   1.051   0.408  0.5360 -0.1453  0.2496
  626TMC3     H 9275   3.499   1.271   0.342  0.0194 -2.2189 -0.0595
  626TMC3    H1 9276   3.714   1.182   0.705 -0.3222  1.1916  2.2106
  626TMC3    H2 9277   3.620   1.573   0.617 -1.1120 -0.1329  0.2390
  626TMC3    C7 9278   3.678   1.405   0.822  0.3732  0.3844 -0.4286
  626TMC3    C8 9279   3.504   1.526   0.382  0.3094  0.2119  0.0969
  626TMC3    O1 9280   3.674   1.306   0.891 -0.9560 -0.0387  0.3384
  626TMC3    O2 9281   3.505   1.491   0.267  0.4713 -0.3956  0.4805
  627MPD2     C 9282   2.638   1.495  14.440  0.3107  0.3746 -0.5818
  627MPD2    C1 9283   2.542   1.570  14.503  0.1310 -0.7516  0.0972
  627MPD2    C2 9284   2.411   1.524  14.504 -0.3148 -0.3402 -0.1950
  627MPD2    C3 9285   2.380   1.410  14.434 -0.2352  0.9895  0.7149
  627MPD2    C4 9286   2.484   1.354  14.356  0.1536  0.2439  0.9210
  627MPD2    C5 9287   2.614   1.397  14.357 -0.1259  0.0881 -0.1286
  627MPD2     H 9288   2.336   1.576  14.564  0.4455  0.3573  0.1550
  627MPD2    H1 9289   2.460   1.283  14.276  1.2950 -0.4037  1.1595
  627MPD2    H2 9290   2.734   1.543  14.431  1.6087 -1.6855  2.1054
  627MPD2    H3 9291   2.686   1.347  14.294  0.5694  1.6723 -0.5703
  627MPD2     N 9292   2.252   1.361  14.426 -0.9020  0.4936 -0.3759
  627MPD2    H5 9293   2.188   1.415  14.482 -0.3700  1.8570 -1.0846
  627MPD2    N1 9294   2.583   1.678  14.574  0.1030 -0.0344 -0.2099
  627MPD2    H7 9295   2.684   1.688  14.574  0.0255  0.7706 -0.5862
  628TMC3    C1 9296   2.579   1.885  14.690 -0.0850  0.6351 -0.4445
  628TMC3    C2 9297   2.711   1.856  14.714 -0.2141 -0.3442 -0.9269
  628TMC3    C3 9298   2.797   1.962  14.738  0.1701 -0.1344  0.4438
  628TMC3    C4 9299   2.531   2.011  14.694  0.0926 -0.8497 -0.3744
  628TMC3    C5 9300   2.620   2.113  14.713 -0.6179 -0.1634  0.3183
  628TMC3    C6 9301   2.750   2.091  14.716  1.0961 -0.1125 -0.4357
  628TMC3     C 9302   2.503   1.783  14.624  0.6993  0.9317 -0.1411
  628TMC3     O 9303   2.384   1.800  14.605  0.0298  0.3279  0.4176
  628TMC3     H 9304   2.739   1.756  14.745 -1.1215 -0.2190  0.3165
  628TMC3    H1 9305   2.424   2.029  14.696  0.9501  3.9118  1.8010
  628TMC3    H2 9306   2.820   2.167  14.749  4.0317 -1.8040 -2.7214
  628TMC3    C7 9307   2.577   2.250  14.744  0.3105  0.7678  0.0466
  628TMC3    C8 9308   2.939   1.944  14.783  0.3316  0.6028  0.8254
  628TMC3    O1 9309   2.660   2.308  14.808 -0.5137  0.4384 -0.0006
  628TMC3    O2 9310   3.012   2.041  14.784 -0.7316 -0.6158  0.2297
  629MPD2     C 9311   0.721   0.698  16.402 -0.4994  0.1077  0.0774
  629MPD2    C1 9312   0.752   0.662  16.533 -0.1286  0.2528  0.3269
  629MPD2    C2 9313   0.697   0.540  16.586  0.5394  0.1564 -0.4078
  629MPD2    C3 9314   0.625   0.450  16.511  0.2299  0.9503 -0.0655
  629MPD2    C4 9315   0.596   0.492  16.385 -0.2819 -0.5719 -0.8774
  629MPD2    C5 9316   0.650   0.609  16.330 -0.3673  0.5489 -0.5682
  629MPD2     H 9317   0.715   0.513  16.690 -0.2730  0.9289 -0.0676
  629MPD2    H1 9318   0.556   0.428  16.307  0.0768 -0.1760 -1.3865
  629MPD2    H2 9319   0.747   0.796  16.363  1.3246 -0.1254  0.7257
  629MPD2    H3 9320   0.622   0.638  16.229 -1.7994 -1.8208 -0.8482
  629MPD2     N 9321   0.568   0.331  16.574 -0.6344  0.3589 -0.4256
  629MPD2    H5 9322   0.579   0.326  16.674  0.9008 -3.8388 -0.8229
  629MPD2    N1 9323   0.840   0.756  16.590 -0.1225 -1.1514 -0.3267
  629MPD2    H7 9324   0.890   0.821  16.530  0.9348 -1.6215  0.0457
  630TMC3    C1 9325   1.017   0.819  16.733 -0.7960  0.1575  0.3036
  630TMC3    C2 9326   1.062   0.896  16.630 -0.6374 -0.3722 -0.1980
  630TMC3    C3 9327   1.174   0.980  16.652 -0.7241 -0.3514 -0.7577
  630TMC3    C4 9328   1.077   0.814  16.855  0.3301  0.0417  0.2933
  630TMC3    C5 9329   1.184   0.904  16.872 -0.7528  0.4985  0.2304
  630TMC3    C6 9330   1.235   0.985  16.773 -1.1256 -0.0579 -0.4765
  630TMC3     C 9331   0.890   0.750  16.717  0.5408 -0.6089 -0.1434
  630TMC3     O 9332   0.840   0.700  16.817 -0.3300 -0.3817 -0.3458
  630TMC3     H 9333   1.035   0.885  16.526 -0.5760 -0.9706 -0.1474
  630TMC3    H1 9334   1.026   0.779  16.944  1.5550  0.2810  1.0877
  630TMC3    H2 9335   1.310   1.063  16.779 -0.7487 -0.4769  0.2430
  630TMC3    C7 9336   1.257   0.890  16.995 -0.3506  0.2175 -0.4089
  630TMC3    C8 9337   1.240   1.049  16.541  0.4054 -0.7017  0.4881
  630TMC3    O1 9338   1.209   0.844  17.100 -0.4902  0.2262 -0.2307
  630TMC3    O2 9339   1.360   1.077  16.560 -0.0973  0.4476 -0.0369
  631MPD2     C 9340   3.879   4.626  15.404 -0.1377  0.0937 -0.2174
  631MPD2    C1 9341   3.958   0.007  15.353  0.5052  0.8562 -0.2080
  631MPD2    C2 9342   4.085   0.034  15.401  0.2568  0.4564  0.1074
  631MPD2    C3 9343   4.126   4.687  15.519  0.0146 -0.1166  0.3180
  631MPD2    C4 9344   4.045   4.590  15.580  0.6842  0.0128 -0.3153
  631MPD2    C5 9345   3.926   4.561  15.516 -0.6260  0.7299  0.2984
  631MPD2     H 9346   4.151   0.109  15.357 -1.7723  1.6911 -0.8436
  631MPD2    H1 9347   4.074   4.522  15.660  0.1763  1.0256  0.7431
  631MPD2    H2 9348   3.778   4.614  15.367  0.6466  0.9625 -2.6702
  631MPD2    H3 9349   3.861   4.489  15.564  0.4251 -0.5323 -0.1658
  631MPD2     N 9350   4.248   4.714  15.582  0.6483 -0.2949  0.2298
  631MPD2    H5 9351   4.317   0.053  15.539  0.4841  0.2611  0.7292
  631MPD2    N1 9352   3.896   0.081  15.250  0.8158 -0.4236 -0.2734
  631MPD2    H7 9353   3.805   0.046  15.219  1.1227 -0.4017 -1.2088
  632TMC3    C1 9354   3.836   0.227  15.075 -0.0288  0.2765  0.1255
  632TMC3    C2 9355   3.700   0.218  15.108  0.1351 -0.2817  0.7206
  632TMC3    C3 9356   3.611   0.283  15.028 -0.0934 -0.4440 -0.2331
  632TMC3    C4 9357   3.878   0.299  14.963  0.7115  0.1707 -1.3612
  632TMC3    C5 9358   3.781   0.373  14.896 -0.8530  0.3032  0.4596
  632TMC3    C6 9359   3.652   0.369  14.926  0.1833  0.0029  0.4080
  632TMC3     C 9360   3.943   0.186  15.174  0.1245 -0.2672 -0.8681
  632TMC3     O 9361   4.047   0.242  15.157 -0.1098 -0.3128 -0.3575
  632TMC3     H 9362   3.663   0.156  15.189 -0.6643  1.5713  1.7812
  632TMC3    H1 9363   3.982   0.302  14.933  0.9250  0.5735 -0.5804
  632TMC3    H2 9364   3.583   0.416  14.857 -1.0683 -0.7290  1.1566
  632TMC3    C7 9365   3.813   0.462  14.788  0.1225  0.1219  0.5875
  632TMC3    C8 9366   3.480   0.301  15.086 -0.4613  0.1502 -0.4480
  632TMC3    O1 9367   3.723   0.505  14.718  0.0500  0.4178  0.5443
  632TMC3    O2 9368   3.455   0.217  15.171 -0.1484 -0.1929 -0.2764
  633MPD2     C 9369   3.497   2.930  17.621 -0.5323  0.2309 -0.5046
  633MPD2    C1 9370   3.591   2.906  17.523 -0.3176 -0.0309 -0.7517
  633MPD2    C2 9371   3.684   2.805  17.537  0.3440  0.9145  0.7437
  633MPD2    C3 9372   3.674   2.711  17.636 -0.0427  0.1176 -0.4184
  633MPD2    C4 9373   3.575   2.737   0.046 -0.4540 -0.0997 -0.6944
  633MPD2    C5 9374   3.494   2.843   0.043 -0.9197  0.4920  0.1948
  633MPD2     H 9375   3.762   2.784  17.464  0.2946  0.4705  0.8196
  633MPD2    H1 9376   3.561   2.669   0.129 -1.1359  1.5266  0.5280
  633MPD2    H2 9377   3.422   3.007  17.609 -1.0360 -0.5471 -2.3712
  633MPD2    H3 9378   3.415   2.846   0.118 -0.4598 -2.9330  0.8322
  633MPD2     N 9379   3.755   2.595  17.649 -0.8478 -0.5620  0.2899
  633MPD2    H5 9380   3.740   2.536   0.045  0.1583 -0.8601  0.2589
  633MPD2    N1 9381   3.587   2.977  17.402  0.2509 -0.0530 -0.4502
  633MPD2    H7 9382   3.648   2.939  17.331 -2.7773 -1.0675 -2.5194
  634TMC3    C1 9383   3.515   3.105  17.214 -0.8730 -0.5491  0.3610
  634TMC3    C2 9384   3.561   3.008  17.133  0.8569  0.7361 -0.7119
  634TMC3    C3 9385   3.593   3.034  16.999 -0.6805 -0.2530 -0.3584
  634TMC3    C4 9386   3.478   3.231  17.166 -0.0246 -0.0007  0.1499
  634TMC3    C5 9387   3.511   3.251  17.034 -0.3995 -0.1219 -0.2663
  634TMC3    C6 9388   3.569   3.155  16.947 -0.4413  0.2358 -0.3798
  634TMC3     C 9389   3.509   3.077  17.362 -0.0220  0.1144 -0.6029
  634TMC3     O 9390   3.427   3.141  17.428  0.5164  0.1146 -0.2252
  634TMC3     H 9391   3.580   2.908  17.170  0.3802  0.2743 -1.6977
  634TMC3    H1 9392   3.415   3.285  17.237 -0.9658 -0.5215 -0.2847
  634TMC3    H2 9393   3.590   3.175  16.843 -0.6328 -1.5831 -0.7716
  634TMC3    C7 9394   3.445   3.362  16.963  0.1272  1.0029  0.4056
  634TMC3    C8 9395   3.572   2.917  16.917  0.0877 -0.1036  0.5656
  634TMC3    O1 9396   3.439   3.346  16.840  0.1402 -0.1159  0.4909
  634TMC3    O2 9397   3.528   2.823  16.979 -0.2920 -0.2192 -0.0466
  635TMC3    C1 9398   0.386   4.605   0.093  0.5394  0.3419  0.7918
  635TMC3    C2 9399   0.414   4.560   0.220 -0.9858  0.0717 -0.3056
  635TMC3    C3 9400   0.531   4.589   0.277 -0.4154 -0.1306 -0.2304
  635TMC3    C4 9401   0.480   4.668   0.016 -0.0183 -0.5831 -0.1275
  635TMC3    C5 9402   0.600   4.687   0.072 -0.7246  0.2131  0.0789
  635TMC3    C6 9403   0.625   4.663   0.207  0.4134 -0.6252  1.1285
  635TMC3     C 9404   0.260   4.577   0.031 -0.2021  0.4066  0.4932
  635TMC3     O 9405   0.173   4.511   0.085 -0.2844 -0.1923 -0.3753
  635TMC3     H 9406   0.337   4.506   0.275  1.2521 -1.5189  1.2638
  635TMC3    H1 9407   0.448   4.716  17.609 -0.3457  1.1346  0.8637
  635TMC3    H2 9408   0.719   4.692   0.252  1.8225  1.2235 -3.0141
  635TMC3    C7 9409   0.690   0.060   0.012 -0.2654  0.2514 -0.3132
  635TMC3    C8 9410   0.582   4.514   0.388 -0.6458 -0.1542 -0.4007
  635TMC3    O1 9411   0.640   0.157  17.643  0.1438 -0.3360  1.1712
  635TMC3    O2 9412   0.706   4.510   0.391  0.1478  0.0725  0.0059
  636MPD2     C 9413   0.057   3.607  15.691  0.0903  0.0675 -0.3158
  636MPD2    C1 9414   0.022   3.631  15.822 -0.8000  1.1599  0.2464
  636MPD2    C2 9415   0.064   3.558  15.926 -0.2495 -0.2603  0.5929
  636MPD2    C3 9416   0.147   3.453  15.899  0.0514 -0.2049 -0.9121
  636MPD2    C4 9417   0.189   3.425  15.769 -0.6345  0.0726 -0.4815
  636MPD2    C5 9418   0.143   3.507  15.662  0.3520  0.0623  0.7314
  636MPD2     H 9419   0.033   3.580  16.027 -1.9069  1.7069 -0.3603
  636MPD2    H1 9420   0.260   3.347  15.745  0.8322  0.6532  1.9922
  636MPD2    H2 9421   0.022   3.671  15.610 -1.8812 -2.2381 -1.2674
  636MPD2    H3 9422   0.185   3.488  15.564  0.2839  2.2004  0.2976
  636MPD2     N 9423   0.193   3.379  16.014 -0.3683  0.3811  0.4033
  636MPD2    H5 9424   0.158   3.416  16.102 -0.1935  1.3766  0.0510
  636MPD2    N1 9425   4.650   3.738  15.853  0.7655 -0.2679 -1.0671
  636MPD2    H7 9426   4.644   3.755  15.953 -2.7464  0.0157 -1.3370
  637TMC3    C1 9427   0.331   3.258  16.155  0.2708 -0.0262 -0.2008
  637TMC3    C2 9428   0.279   3.311  16.267  0.1127  0.6948  0.0801
  637TMC3    C3 9429   0.349   3.298  16.383 -0.0873  0.2997 -0.1062
  637TMC3    C4 9430   0.448   3.191  16.156 -0.7103  0.1944  0.6174
  637TMC3    C5 9431   0.513   3.179  16.277  0.2093  0.0367  0.4515
  637TMC3    C6 9432   0.460   3.218  16.396  0.0105 -0.3245  0.6830
  637TMC3     C 9433   0.290   3.291  16.014  0.3788 -0.6682  0.0247
  637TMC3     O 9434   0.351   3.240  15.922  0.3670  0.7994 -0.5589
  637TMC3     H 9435   0.188   3.370  16.255  1.3304  2.8111  1.1960
  637TMC3    H1 9436   0.485   3.135  16.071 -0.7207 -0.4158  1.0149
  637TMC3    H2 9437   0.528   3.229  16.480 -0.4199  1.3322  0.7972
  637TMC3    C7 9438   0.644   3.114  16.281 -0.3065  0.3106  0.2938
  637TMC3    C8 9439   0.317   3.408  16.477  0.2595 -0.0572 -0.3845
  637TMC3    O1 9440   0.665   3.049  16.384 -0.1806 -0.0139 -0.1137
  637TMC3    O2 9441   0.248   3.493  16.429 -0.2311  0.4383  0.0595
  638MPD2     C 9442   4.408   2.732  14.930 -0.2547  0.1880 -0.0161
  638MPD2    C1 9443   4.391   2.633  14.829 -0.3165 -0.2338  0.0004
  638MPD2    C2 9444   4.426   2.495  14.856  0.0850  0.1886  0.0371
  638MPD2    C3 9445   4.465   2.461  14.988  0.3444  0.6894  0.4268
  638MPD2    C4 9446   4.475   2.564  15.082  0.6263  0.2475 -0.2149
  638MPD2    C5 9447   4.450   2.698  15.053  0.3952  0.2211  0.2497
  638MPD2     H 9448   4.393   2.419  14.786  1.8674 -2.1645  1.7541
  638MPD2    H1 9449   4.479   2.543  15.188  0.6309 -0.1084 -0.2874
  638MPD2    H2 9450   4.371   2.833  14.919 -0.6105  0.4162  3.2498
  638MPD2    H3 9451   4.462   2.772  15.131  0.7631  1.4833 -1.0233
  638MPD2     N 9452   4.457   2.321  15.022 -0.3507  0.0005  0.9402
  638MPD2    H5 9453   4.417   2.261  14.950  1.3767  1.3843 -1.1947
  638MPD2    N1 9454   4.321   2.679  14.714 -0.0764 -0.0240  0.6733
  638MPD2    H7 9455   4.308   2.778  14.701 -1.5378 -0.1566  1.1551
  639TMC3    C1 9456   4.491   2.122  15.125 -0.1298 -0.4979 -0.3635
  639TMC3    C2 9457   4.380   2.067  15.067 -0.7847  0.8784 -0.1605
  639TMC3    C3 9458   4.351   1.937  15.093  0.2100  0.3761  0.1244
  639TMC3    C4 9459   4.580   2.047  15.195 -0.2717 -0.3843  0.2904
  639TMC3    C5 9460   4.547   1.912  15.210  0.3670 -0.0659  0.3034
  639TMC3    C6 9461   4.432   1.856  15.165 -0.5068  0.6370 -0.3144
  639TMC3     C 9462   4.498   2.263  15.144  0.2401 -0.3683 -0.0332
  639TMC3     O 9463   4.542   2.314  15.247  0.4950  0.4192  0.4029
  639TMC3     H 9464   4.294   2.122  15.034 -1.9755 -0.0217  1.4479
  639TMC3    H1 9465   4.674   2.084  15.236  0.0317  2.0149 -2.5965
  639TMC3    H2 9466   4.422   1.748  15.170 -3.2950  0.7910 -2.4002
  639TMC3    C7 9467   4.655   1.825  15.221 -0.0722  0.7661  0.6796
  639TMC3    C8 9468   4.285   1.873  14.985 -0.2883  0.1598 -0.9384
  639TMC3    O1 9469   4.640   1.732  15.301  0.1961 -0.0433 -0.1319
  639TMC3    O2 9470   4.327   1.904  14.873 -0.5116 -0.0244  0.6206
  640MPD2     C 9471   0.020   1.160  10.142 -0.1194  0.3193  0.0994
  640MPD2    C1 9472   4.715   1.230  10.025  1.1230  0.6059 -0.0940
  640MPD2    C2 9473   4.613   1.322  10.015  0.1632 -0.1299  0.4763
  640MPD2    C3 9474   4.533   1.336  10.122  0.1559  0.2306 -0.1117
  640MPD2    C4 9475   4.546   1.257  10.233  0.6383 -0.4638 -0.1620
  640MPD2    C5 9476   4.661   1.180  10.248  0.9920 -0.1516 -0.5664
  640MPD2     H 9477   4.579   1.374   9.926 -1.5311 -1.4398  0.3602
  640MPD2    H1 9478   4.474   1.274  10.313  0.7289  2.6985 -0.7664
  640MPD2    H2 9479   0.098   1.084  10.145  0.6531  1.1322  0.6874
  640MPD2    H3 9480   4.687   1.118  10.333  0.9174  0.1513 -0.3193
  640MPD2     N 9481   4.431   1.432  10.120 -0.1499 -0.1757  0.0481
  640MPD2    H5 9482   4.352   1.424  10.182  0.9281 -1.4401  1.2665
  640MPD2    N1 9483   0.068   1.191   9.905  0.6353  0.3110 -0.0702
  640MPD2    H7 9484   0.112   1.100   9.905  2.5323  1.2302 -1.7810
  641TMC3    C1 9485   0.097   1.205   9.669 -0.2509  0.1482  0.0194
  641TMC3    C2 9486   0.164   1.082   9.676 -0.1069 -0.0834  0.1896
  641TMC3    C3 9487   0.179   1.004   9.569  0.3904 -0.2375  0.2406
  641TMC3    C4 9488   0.033   1.248   9.557 -0.0813 -0.2600  0.0867
  641TMC3    C5 9489   0.041   1.163   9.451  0.1034  0.0582 -0.2354
  641TMC3    C6 9490   0.115   1.044   9.448  0.6836  0.0678 -0.0750
  641TMC3     C 9491   0.073   1.272   9.792  0.1198 -0.2269 -0.6374
  641TMC3     O 9492   0.030   1.382   9.775 -0.5933  0.4835 -0.2507
  641TMC3     H 9493   0.219   1.052   9.764  1.2078  0.9942 -0.2578
  641TMC3    H1 9494   4.669   1.313   9.575  0.7153  0.6587  0.4988
  641TMC3    H2 9495   0.120   0.988   9.355  2.1736  0.7589 -0.3953
  641TMC3    C7 9496   4.664   1.180   9.341 -0.2620 -0.2384 -0.4156
  641TMC3    C8 9497   0.277   0.906   9.547  0.5514  0.0449 -0.5219
  641TMC3    O1 9498   4.635   1.080   9.277 -0.1507  1.0408 -0.8255
  641TMC3    O2 9499   0.307   0.878   9.430  0.1057  0.0299  0.1543
  642TMC3    C1 9500   1.338   2.165  12.094  0.9981 -0.5327 -0.0144
  642TMC3    C2 9501   1.354   2.159  12.230 -0.1411 -0.3530  0.5680
  642TMC3    C3 9502   1.384   2.037  12.285  0.0886 -0.0828 -0.4431
  642TMC3    C4 9503   1.348   2.053  12.015 -0.3232 -0.0894  0.4682
  642TMC3    C5 9504   1.366   1.932  12.076 -0.1710  0.0708  0.0149
  642TMC3    C6 9505   1.388   1.922  12.212 -0.7022 -0.5816 -0.4139
  642TMC3     C 9506   1.259   2.271  12.044  0.3297  0.2994 -0.7216
  642TMC3     O 9507   1.239   2.285  11.925  0.3924  0.5150 -0.3752
  642TMC3     H 9508   1.360   2.243  12.299 -2.0473  0.3476 -0.1287
  642TMC3    H1 9509   1.299   2.062  11.919 -1.9793  0.2233  1.3439
  642TMC3    H2 9510   1.415   1.835  12.271 -1.1004 -0.4467 -0.0326
  642TMC3    C7 9511   1.258   1.842  12.027  0.4774 -0.0843  0.0872
  642TMC3    C8 9512   1.439   2.027  12.417  0.0234  0.2241 -0.3019
  642TMC3    O1 9513   1.247   1.833  11.906  0.5522  0.3968  0.4681
  642TMC3    O2 9514   1.540   1.954  12.429 -0.5351  0.0178  0.0066
  643TMC3    C1 9515   0.412   1.645   0.437 -0.3708  0.4976 -0.3655
  643TMC3    C2 9516   0.280   1.659   0.429 -0.5028  0.9165 -0.4185
  643TMC3    C3 9517   0.213   1.594   0.331  0.2759  0.0317 -0.3176
  643TMC3    C4 9518   0.482   1.553   0.359  0.1533 -0.7171  0.1084
  643TMC3    C5 9519   0.408   1.486   0.260  0.0466  0.3130 -0.5687
  643TMC3    C6 9520   0.279   1.512   0.241 -0.2699 -0.2498 -1.0943
  643TMC3     C 9521   0.475   1.743   0.522  0.3160  0.3453 -0.1815
  643TMC3     O 9522   0.417   1.850   0.544 -0.2667  0.6882  1.1464
  643TMC3     H 9523   0.237   1.727   0.502 -0.6056  0.1595  0.2335
  643TMC3    H1 9524   0.591   1.547   0.352  0.2047 -2.5220  2.5427
  643TMC3    H2 9525   0.222   1.466   0.161 -1.2447 -0.6618 -0.1730
  643TMC3    C7 9526   0.464   1.449   0.137 -0.6649 -0.4555 -0.1427
  643TMC3    C8 9527   0.141   1.685   0.251 -0.0791  0.6144  0.6278
  643TMC3    O1 9528   0.432   1.510   0.035  0.1393  0.4185  0.4416
  643TMC3    O2 9529   0.055   1.753   0.305 -0.1968  0.3202  0.6927
  644MPD2     C 9530   0.264   1.971   9.335  0.4434 -0.0302 -0.3347
  644MPD2    C1 9531   0.158   1.894   9.290  0.5659 -0.4007 -0.2809
  644MPD2    C2 9532   0.026   1.938   9.292  0.3086 -0.2273  0.7117
  644MPD2    C3 9533   4.720   2.057   9.361  0.0787 -0.5541 -0.1527
  644MPD2    C4 9534   0.104   2.134   9.410  0.6368 -0.1485  0.2829
  644MPD2    C5 9535   0.233   2.092   9.393 -0.0235 -0.7225 -0.0898
  644MPD2     H 9536   4.670   1.871   9.254 -0.2304 -0.0914  1.5618
  644MPD2    H1 9537   0.096   2.227   9.464  0.4183 -0.6324  1.0733
  644MPD2    H2 9538   0.366   1.938   9.321  0.7354  1.2445 -1.1731
  644MPD2    H3 9539   0.310   2.163   9.420  1.0702 -1.4400 -1.2947
  644MPD2     N 9540   4.585   2.095   9.373  0.4910 -0.3111 -0.4982
  644MPD2    H5 9541   4.515   2.023   9.356 -1.5658  1.3016  1.1883
  644MPD2    N1 9542   0.189   1.767   9.234  0.4441  0.2413  0.0580
  644MPD2    H7 9543   0.287   1.741   9.242  1.6243  5.0636  1.5148
  645TMC3    C1 9544   4.397   2.225   9.428 -0.3319 -0.5827  0.4391
  645TMC3    C2 9545   4.335   2.348   9.413  0.1025 -0.0864 -0.4922
  645TMC3    C3 9546   4.200   2.363   9.415  0.5353 -0.0838 -0.1157
  645TMC3    C4 9547   4.322   2.114   9.456  0.1710 -0.4314 -0.2888
  645TMC3    C5 9548   4.188   2.130   9.452  0.6047  0.4625  0.1887
  645TMC3    C6 9549   4.123   2.249   9.423 -0.7589  0.1668 -0.8822
  645TMC3     C 9550   4.539   2.219   9.414 -0.5066  0.1856 -0.0594
  645TMC3     O 9551   4.612   2.313   9.443 -0.3337  0.2113 -0.6545
  645TMC3     H 9552   4.400   2.434   9.404 -0.9576  0.9157  1.3258
  645TMC3    H1 9553   4.370   2.020   9.480  0.1986 -0.5963 -0.9850
  645TMC3    H2 9554   4.020   2.264   9.392 -0.9123 -0.9744 -0.9149
  645TMC3    C7 9555   4.104   2.015   9.439  0.2299  0.2340  0.2866
  645TMC3    C8 9556   4.143   2.494   9.398  0.3362  0.0781 -0.0238
  645TMC3    O1 9557   4.169   1.912   9.433  0.1556 -0.1631  0.2051
  645TMC3    O2 9558   4.215   2.568   9.333 -0.3910  0.2503 -0.7964
  646MPD2     C 9559   0.104   1.329  14.510 -0.0476  0.1504 -0.5619
  646MPD2    C1 9560   0.013   1.238  14.556 -0.6060 -0.0227  0.0298
  646MPD2    C2 9561   4.599   1.244  14.510 -0.7910 -0.2736 -0.3521
  646MPD2    C3 9562   4.562   1.338  14.415  0.4282  0.2387 -0.1297
  646MPD2    C4 9563   4.659   1.426  14.368  0.5601  0.5143  0.1281
  646MPD2    C5 9564   0.065   1.426  14.423 -0.7479 -0.8342 -0.3925
  646MPD2     H 9565   4.522   1.177  14.545 -2.9270  2.2531 -0.2103
  646MPD2    H1 9566   4.638   1.498  14.290  0.5333  1.6404  1.1782
  646MPD2    H2 9567   0.207   1.328  14.545  0.8427  1.1286 -3.1603
  646MPD2    H3 9568   0.130   1.505  14.389 -1.0972  0.0812  1.1008
  646MPD2     N 9569   4.424   1.358  14.379 -0.1990 -0.2531  0.0282
  646MPD2    H5 9570   4.357   1.321  14.446 -0.9494  0.6037 -0.2492
  646MPD2    N1 9571   0.067   1.143  14.649  0.0088  0.1243  0.1424
  646MPD2    H7 9572   0.155   1.168  14.693  0.5900 -1.5606 -0.0819
  647TMC3    C1 9573   0.081   0.942  14.768 -0.3460 -0.1682 -0.9747
  647TMC3    C2 9574   0.006   0.848  14.833 -0.0683  0.1678  1.0737
  647TMC3    C3 9575   0.078   0.771  14.925  0.3628  0.4472  0.3523
  647TMC3    C4 9576   0.213   0.967  14.789  0.4050 -0.4412  0.3933
  647TMC3    C5 9577   0.273   0.891  14.886  0.2748  0.0188 -0.4464
  647TMC3    C6 9578   0.206   0.802  14.960  0.1790  0.9655  0.0516
  647TMC3     C 9579   0.000   1.035  14.693  0.0926  0.0469  0.0094
  647TMC3     O 9580   4.601   1.005  14.689 -0.3199  0.1006 -0.1548
  647TMC3     H 9581   4.619   0.844  14.833 -0.0822  0.5572  0.1425
  647TMC3    H1 9582   0.274   1.029  14.724 -0.6162  2.0457  1.8107
  647TMC3    H2 9583   0.267   0.749  15.032  0.2043  0.8712 -0.0385
  647TMC3    C7 9584   0.416   0.876  14.893 -0.8962  0.5026 -0.7655
  647TMC3    C8 9585   0.011   0.698  15.030 -0.5197 -0.0577  0.7056
  647TMC3    O1 9586   0.463   0.774  14.945  0.4504 -0.6296  0.1571
  647TMC3    O2 9587   0.046   0.720  15.145 -0.7373 -0.2403 -0.4495
  648TMC3    C1 9588   3.884   3.052  16.303  0.1220 -0.2733 -0.1397
  648TMC3    C2 9589   3.927   2.932  16.251 -0.2354  0.7814  0.0006
  648TMC3    C3 9590   3.911   2.914  16.118 -0.0274  0.0008  0.2298
  648TMC3    C4 9591   3.827   3.149  16.226  0.7688 -0.4726  0.4703
  648TMC3    C5 9592   3.812   3.125  16.088 -0.2783 -0.2960 -0.3701
  648TMC3    C6 9593   3.856   3.003  16.036 -0.2604  0.3308 -0.0084
  648TMC3     C 9594   3.903   3.094  16.438  0.3989  0.4974 -0.6347
  648TMC3     O 9595   3.890   3.213  16.462  0.0352  0.3369 -0.5582
  648TMC3     H 9596   3.987   2.860  16.307  0.1428 -0.1097 -1.5413
  648TMC3    H1 9597   3.791   3.234  16.282  0.2596 -1.0185  0.9651
  648TMC3    H2 9598   3.836   2.969  15.935 -0.3462 -1.3901  0.5869
  648TMC3    C7 9599   3.734   3.216  16.000 -0.5835  0.1042  0.5688
  648TMC3    C8 9600   3.956   2.795  16.059 -0.0819  0.3328  0.1392
  648TMC3    O1 9601   3.729   3.186  15.883 -0.3164  0.1193  0.4376
  648TMC3    O2 9602   3.929   2.687  16.104 -0.1932 -0.5655 -0.5293
  649TMC3    C1 9603   2.973   4.507  12.602  0.0279  0.0702 -0.3781
  649TMC3    C2 9604   3.061   4.604  12.554 -0.3970  0.1100 -0.3826
  649TMC3    C3 9605   3.175   4.619  12.627 -0.6456 -0.2059 -0.2916
  649TMC3    C4 9606   2.993   4.437  12.718  0.3937  0.0733  0.1453
  649TMC3    C5 9607   3.110   4.459  12.786  0.5343 -0.0878  0.2362
  649TMC3    C6 9608   3.206   4.542  12.735  0.3850 -0.1109  0.0295
  649TMC3     C 9609   2.847   4.490  12.534 -0.6128  0.5118  0.5351
  649TMC3     O 9610   2.749   4.471  12.599 -0.4415  0.5363 -0.1874
  649TMC3     H 9611   3.037   4.682  12.481  0.6696 -2.0216 -3.0223
  649TMC3    H1 9612   2.927   4.356  12.745  0.3924  0.8909  2.5376
  649TMC3    H2 9613   3.288   4.567  12.801  1.7429 -0.1414 -1.6460
  649TMC3    C7 9614   3.145   4.356  12.880  0.0415 -0.5677 -0.5943
  649TMC3    C8 9615   3.261   0.017  12.609 -0.6010 -0.7070 -0.1700
  649TMC3    O1 9616   3.258   4.309  12.878 -0.0250 -0.3738 -0.1456
  649TMC3    O2 9617   3.330   0.050  12.707 -0.0006  0.0375 -0.1070
  650TMC3    C1 9618   0.554   1.350  12.574 -0.2547 -0.0663  1.0911
  650TMC3    C2 9619   0.578   1.474  12.520 -0.7052  0.6954  0.7097
  650TMC3    C3 9620   0.505   1.523  12.416 -0.1204  0.8652 -0.1849
  650TMC3    C4 9621   0.443   1.279  12.534 -0.1304 -0.5763  0.3457
  650TMC3    C5 9622   0.355   1.338  12.439  0.3209 -0.3409 -0.0171
  650TMC3    C6 9623   0.394   1.455  12.378 -0.6235 -0.1627 -0.0951
  650TMC3     C 9624   0.616   1.313  12.700 -0.5018  0.2877 -0.1807
  650TMC3     O 9625   0.671   1.402  12.765 -0.5486 -1.4260  0.4467
  650TMC3     H 9626   0.649   1.546  12.560  1.0996  1.0112 -3.1020
  650TMC3    H1 9627   0.411   1.185  12.577 -0.4821 -0.1058  1.1091
  650TMC3    H2 9628   0.332   1.485  12.295  2.7326  0.3319 -2.4551
  650TMC3    C7 9629   0.215   1.320  12.468 -0.3645 -0.8327 -0.6270
  650TMC3    C8 9630   0.475   1.666  12.435  0.2701  0.6658 -0.0962
  650TMC3    O1 9631   0.185   1.235  12.551 -0.3233  0.2944  0.0917
  650TMC3    O2 9632   0.568   1.738  12.427  0.2061 -0.2446  0.5938
  651MPD2     C 9633   4.536   3.154  10.973  0.3997  0.0190  0.1554
  651MPD2    C1 9634   4.470   3.244  10.889  0.3190 -0.4649  0.0778
  651MPD2    C2 9635   4.544   3.326  10.804  0.2367 -0.4012 -0.4884
  651MPD2    C3 9636   4.678   3.316  10.799 -0.7982  0.1565 -0.1592
  651MPD2    C4 9637   0.018   3.238  10.894 -0.3972 -0.0282 -0.1201
  651MPD2    C5 9638   4.671   3.151  10.973 -0.8543  0.0504  0.3248
  651MPD2     H 9639   4.493   3.380  10.725 -2.8933 -0.8001  1.2506
  651MPD2    H1 9640   0.125   3.220  10.891 -0.4041 -0.4184  1.9197
  651MPD2    H2 9641   4.480   3.092  11.042 -0.3410  0.8818  0.3223
  651MPD2    H3 9642   0.004   3.085  11.039 -2.5293  1.0694  2.7118
  651MPD2     N 9643   0.028   3.386  10.691 -0.5060 -0.0100  0.0107
  651MPD2    H5 9644   4.692   3.427  10.617  0.9762  0.2238 -0.9978
  651MPD2    N1 9645   4.326   3.255  10.881  0.3046  0.1957 -0.1119
  651MPD2    H7 9646   4.293   3.310  10.802  1.9220 -0.0980 -0.9924
  652TMC3    C1 9647   0.394   3.577  10.475 -0.0876  0.4575 -0.6748
  652TMC3    C2 9648   0.332   3.476  10.533 -0.0534 -0.6751  0.0721
  652TMC3    C3 9649   0.204   3.503  10.584  0.7729 -0.6861  0.0661
  652TMC3    C4 9650   0.329   3.704  10.470 -0.4769  0.2444  0.2311
  652TMC3    C5 9651   0.207   3.730  10.529  0.1525 -0.1797  0.1353
  652TMC3    C6 9652   0.136   3.625  10.581 -0.0928 -0.2599  0.1206
  652TMC3     C 9653   0.536   3.582  10.513  0.2533  1.0630  0.3526
  652TMC3     O 9654   0.566   3.490  10.596  0.0348 -0.8093  0.0651
  652TMC3     H 9655   0.372   3.376  10.542  0.2875 -0.2118  3.9035
  652TMC3    H1 9656   0.383   3.787  10.427 -0.9590  1.6194  2.2969
  652TMC3    H2 9657   0.044   3.644  10.636 -0.8044 -2.5089 -0.2922
  652TMC3    C7 9658   0.161   3.862  10.552 -0.1356 -0.5882 -0.3088
  652TMC3    C8 9659   0.161   3.401  10.677 -0.0735  0.8309  0.2116
  652TMC3    O1 9660   0.039   3.867  10.578  0.4489  0.0470 -0.3323
  652TMC3    O2 9661   0.253   3.360  10.746  0.2196  0.2657 -0.2665
  653MPD2     C 9662   2.921   3.297   0.316 -0.0089  0.3547  0.7455
  653MPD2    C1 9663   2.946   3.378   0.203  0.3359 -0.1954 -0.6965
  653MPD2    C2 9664   2.930   3.320   0.080 -0.3534 -0.0526 -0.1904
  653MPD2    C3 9665   2.899   3.186   0.061  0.0369  0.3112 -0.0241
  653MPD2    C4 9666   2.869   3.109   0.172  0.7344 -0.3472  0.5673
  653MPD2    C5 9667   2.878   3.166   0.298 -0.4228 -0.5229  0.0797
  653MPD2     H 9668   2.954   3.371  17.672  3.3282  2.5087  2.1411
  653MPD2    H1 9669   2.834   3.006   0.164  2.7883 -0.9383 -0.9677
  653MPD2    H2 9670   2.917   3.346   0.413  0.7585 -0.4708  1.1861
  653MPD2    H3 9671   2.854   3.098   0.379 -0.9767 -0.1671  0.2188
  653MPD2     N 9672   2.867   3.137  17.616 -0.2518 -0.3056  0.3933
  653MPD2    H5 9673   2.861   3.209  17.546  0.8327 -0.9573 -0.3624
  653MPD2    N1 9674   2.999   3.510   0.202  0.2354 -0.2888  0.2839
  653MPD2    H7 9675   2.986   3.560   0.116  2.3596 -1.1012 -0.5240
  654TMC3    C1 9676   2.802   2.991  17.446  0.0514 -0.3210 -0.9842
  654TMC3    C2 9677   2.747   3.090  17.376 -0.4597 -0.8096 -0.7743
  654TMC3    C3 9678   2.706   3.071  17.251  0.2023 -0.1198  0.2752
  654TMC3    C4 9679   2.810   2.863  17.397  0.2110 -0.2680 -0.2682
  654TMC3    C5 9680   2.776   2.837  17.265  0.5356  0.0262  0.3341
  654TMC3    C6 9681   2.717   2.944  17.194  0.4743  0.1333  0.4368
  654TMC3     C 9682   2.843   3.007  17.587 -0.0872  0.7873  0.0032
  654TMC3     O 9683   2.876   2.903  17.645  0.1014  0.2648  0.6504
  654TMC3     H 9684   2.727   3.189  17.414  1.1887 -1.3925  1.6054
  654TMC3    H1 9685   2.860   2.789  17.458  0.6799  0.3433  0.0879
  654TMC3    H2 9686   2.684   2.928  17.092 -2.3366 -0.3935  1.4313
  654TMC3    C7 9687   2.736   2.704  17.231 -0.2383  0.4680  0.2622
  654TMC3    C8 9688   2.662   3.192  17.174 -0.0474  0.1508  0.5666
  654TMC3    O1 9689   2.627   2.707  17.173 -0.5220  0.3141  0.2835
  654TMC3    O2 9690   2.664   3.310  17.217  0.1082  0.5651  0.7564
  655MPD2     C 9691   4.416   3.393  15.727  0.3648  0.2988  0.5691
  655MPD2    C1 9692   4.290   3.396  15.673 -0.1244 -0.0358  0.4125
  655MPD2    C2 9693   4.272   3.331  15.551 -0.8468  0.0687 -0.6188
  655MPD2    C3 9694   4.385   3.273  15.489 -0.2025 -0.2675  0.4507
  655MPD2    C4 9695   4.510   3.277  15.545  0.1765  0.4046  0.4601
  655MPD2    C5 9696   4.526   3.340  15.667  0.1032 -0.7530  0.3768
  655MPD2     H 9697   4.173   3.317  15.509  0.9879 -2.7828 -3.9609
  655MPD2    H1 9698   4.598   3.240  15.493 -0.2545  0.0864 -0.0503
  655MPD2    H2 9699   4.437   3.433  15.826  0.8824  1.5425 -0.0475
  655MPD2    H3 9700   4.622   3.354  15.716 -1.0488  0.4144  2.2579
  655MPD2     N 9701   4.387   3.210  15.361  0.5444 -0.4699 -0.0275
  655MPD2    H5 9702   4.479   3.188  15.324  0.1312 -0.4664 -1.0614
  655MPD2    N1 9703   4.177   3.460  15.737  0.3481 -0.7496  0.2839
  655MPD2    H7 9704   4.086   3.440  15.698  0.9158 -2.0832 -0.3650
  656TMC3    C1 9705   4.058   3.586  15.900 -0.5494  0.3982  0.2273
  656TMC3    C2 9706   4.028   3.578  16.033 -0.1870 -0.2819  0.3926
  656TMC3    C3 9707   3.906   3.625  16.074 -0.0654 -0.0576  0.1489
  656TMC3    C4 9708   3.979   3.651  15.811  0.3096 -0.5203  0.1863
  656TMC3    C5 9709   3.857   3.692  15.855  0.6125 -0.0259 -0.7445
  656TMC3    C6 9710   3.818   3.680  15.991 -0.4320  0.3847  0.2043
  656TMC3     C 9711   4.190   3.546  15.849 -1.0371  0.2621 -0.4939
  656TMC3     O 9712   4.285   3.574  15.920  0.5922  0.3273 -0.0393
  656TMC3     H 9713   4.100   3.531  16.099 -0.1872  0.9895  1.2934
  656TMC3    H1 9714   4.014   3.677  15.712 -2.0186  1.9179  0.0065
  656TMC3    H2 9715   3.721   3.712  16.026  0.2893  1.9228  0.7839
  656TMC3    C7 9716   3.767   3.749  15.761 -0.4589  0.2071  0.2050
  656TMC3    C8 9717   3.864   3.598  16.211  0.1137 -0.4977 -0.2762
  656TMC3    O1 9718   3.784   3.711  15.649 -0.0490 -0.5950  0.6475
  656TMC3    O2 9719   3.923   3.509  16.266  0.1125  0.7500 -0.1216
  657TMC3    C1 9720   3.412   2.862  14.702 -1.0597  0.0870  0.8746
  657TMC3    C2 9721   3.320   2.865  14.798 -0.3943  0.2577  0.0543
  657TMC3    C3 9722   3.205   2.937  14.777  0.3061  0.1432  0.5631
  657TMC3    C4 9723   3.399   2.931  14.587  0.0796 -0.0986 -0.0502
  657TMC3    C5 9724   3.299   3.025  14.574 -0.3833 -0.5163 -0.3472
  657TMC3    C6 9725   3.195   3.022  14.666 -0.4755 -0.0412  0.6037
  657TMC3     C 9726   3.543   2.798  14.726  0.4172 -0.7607 -0.6681
  657TMC3     O 9727   3.577   2.795  14.845 -0.6637  0.2638 -0.0563
  657TMC3     H 9728   3.339   2.799  14.882  2.8000  2.3910  0.9946
  657TMC3    H1 9729   3.484   2.942  14.522  1.1177  3.1515  1.8652
  657TMC3    H2 9730   3.105   3.078  14.644 -0.1557  0.7081  1.2044
  657TMC3    C7 9731   3.330   3.143  14.498 -0.9901 -0.4732  0.1414
  657TMC3    C8 9732   3.109   2.946  14.882 -0.6792 -0.0466 -0.0341
  657TMC3    O1 9733   3.415   3.136  14.410  0.2447 -0.1754 -0.2654
  657TMC3    O2 9734   3.152   2.897  14.987  0.8703  0.1838 -0.2730
  658MPD2     C 9735   0.032   3.376  14.882  0.1762  0.4878  0.4060
  658MPD2    C1 9736   4.628   3.376  14.828  0.4839 -0.8368 -0.6036
  658MPD2    C2 9737   4.598   3.462  14.730 -0.3230 -0.0171  0.2458
  658MPD2    C3 9738   4.690   3.563  14.686  0.3058 -0.7148  0.0970
  658MPD2    C4 9739   0.094   3.562  14.740 -0.0250  0.5128 -0.0939
  658MPD2    C5 9740   0.125   3.472  14.846  0.0261  0.2389 -0.3833
  658MPD2     H 9741   4.499   3.474  14.687  0.5428  4.0249 -0.6204
  658MPD2    H1 9742   0.165   3.636  14.705  0.0629  1.3155  1.7226
  658MPD2    H2 9743   0.062   3.298  14.952 -0.5742 -0.3244 -0.1837
  658MPD2    H3 9744   0.227   3.467  14.882 -0.8571 -0.1176  2.1027
  658MPD2     N 9745   4.640   3.651  14.582  0.1797 -0.4850 -0.6303
  658MPD2    H5 9746   4.547   3.636  14.543  0.3961  0.1883 -1.4127
  658MPD2    N1 9747   4.539   3.276  14.879  0.1958  0.2393  0.3954
  658MPD2    H7 9748   4.573   3.227  14.960  0.1721 -0.7660 -0.2085
  659TMC3    C1 9749   4.322   3.203  14.936  0.2945 -0.1327 -0.1778
  659TMC3    C2 9750   4.355   3.202  15.071 -0.5081  0.0578  0.0169
  659TMC3    C3 9751   4.272   3.133  15.155 -0.3526 -0.3788  0.1949
  659TMC3    C4 9752   4.208   3.147  14.884 -0.1388  0.2033  0.3392
  659TMC3    C5 9753   4.126   3.077  14.969  0.1623  0.1325 -0.1941
  659TMC3    C6 9754   4.160   3.076  15.106  0.3133 -0.5515 -0.5546
  659TMC3     C 9755   4.412   3.260  14.839  0.0486  0.5326  0.7557
  659TMC3     O 9756   4.367   3.273  14.726  0.3955  0.1370  0.1481
  659TMC3     H 9757   4.444   3.253  15.104 -1.9280  1.8438  1.0212
  659TMC3    H1 9758   4.184   3.158  14.779  1.4103 -0.6515 -0.0932
  659TMC3    H2 9759   4.087   3.040  15.178  1.7641 -0.2200  1.0607
  659TMC3    C7 9760   3.986   3.073  14.948  0.2649  0.1770  0.2799
  659TMC3    C8 9761   4.268   3.174  15.300 -0.6171  0.5461  0.4351
  659TMC3    O1 9762   3.921   3.016  15.037 -0.5022 -0.0169 -0.3530
  659TMC3    O2 9763   4.157   3.156  15.351 -0.4261  0.4830  0.6201
  660MPD2     C 9764   2.559   1.964  12.663 -0.8727  0.1166  0.1040
  660MPD2    C1 9765   2.440   2.020  12.618  0.2389 -0.7701  0.4195
  660MPD2    C2 9766   2.328   2.023  12.698  0.4542  0.2502  0.4908
  660MPD2    C3 9767   2.334   1.960  12.820  0.1957  0.5736  0.8601
  660MPD2    C4 9768   2.452   1.894  12.863  0.8118  0.2064 -0.6026
  660MPD2    C5 9769   2.563   1.896  12.784 -0.3275 -0.4191 -0.6034
  660MPD2     H 9770   2.234   2.072  12.673 -0.3636 -0.9182  1.2982
  660MPD2    H1 9771   2.455   1.842  12.958 -0.3125 -0.7443 -1.0860
  660MPD2    H2 9772   2.649   1.964  12.603 -0.7118  1.3061  0.3634
  660MPD2    H3 9773   2.656   1.852  12.818  0.0101  0.1976 -0.7305
  660MPD2     N 9774   2.237   1.962  12.925 -0.8452  0.6610  0.1700
  660MPD2    H5 9775   2.260   1.914  13.011 -2.7214  2.7204  1.7907
  660MPD2    N1 9776   2.453   2.089  12.495 -0.0842  0.1049  0.1871
  660MPD2    H7 9777   2.542   2.100  12.447  0.9259 -2.1249  1.5721
  661TMC3    C1 9778   2.400   2.248  12.339  0.0428 -0.4026  0.4237
  661TMC3    C2 9779   2.481   2.199  12.233  0.3747  0.4783  0.4757
  661TMC3    C3 9780   2.473   2.261  12.115 -0.1213  0.8828  0.9071
  661TMC3    C4 9781   2.325   2.357  12.324  0.4067 -0.0857  0.1086
  661TMC3    C5 9782   2.323   2.423  12.202  1.0137  0.7780  0.2454
  661TMC3    C6 9783   2.397   2.380  12.097 -0.3065 -0.5000  0.6950
  661TMC3     C 9784   2.353   2.158  12.442 -0.2057 -0.3142 -0.0910
  661TMC3     O 9785   2.242   2.176  12.482 -0.1083 -0.2151  0.2374
  661TMC3     H 9786   2.515   2.096  12.243 -1.9970 -0.5839 -2.2914
  661TMC3    H1 9787   2.258   2.396  12.400  3.5681  1.1868  2.2827
  661TMC3    H2 9788   2.396   2.440  12.007  2.3647 -0.5252  0.6387
  661TMC3    C7 9789   2.207   2.504  12.183 -0.0502 -0.0405 -0.0911
  661TMC3    C8 9790   2.549   2.208  12.000 -0.8236 -0.0043  0.0965
  661TMC3    O1 9791   2.175   2.585  12.269  0.6849 -0.1613  0.5799
  661TMC3    O2 9792   2.665   2.162  12.017  0.0520 -0.3878  0.7308
  662MPD2     C 9793   2.705   1.406  17.118 -0.2514  0.9377  0.0696
  662MPD2    C1 9794   2.735   1.465  17.240  0.3494  0.3172  0.3978
  662MPD2    C2 9795   2.706   1.598  17.254  0.1869  0.0610 -0.3589
  662MPD2    C3 9796   2.653   1.670  17.157  0.9679 -0.7631 -0.1943
  662MPD2    C4 9797   2.614   1.613  17.041 -0.4870  0.4971 -0.7024
  662MPD2    C5 9798   2.643   1.481  17.021  0.0657  0.0069  0.8391
  662MPD2     H 9799   2.709   1.645  17.352 -1.4308  1.7636 -1.1372
  662MPD2    H1 9800   2.582   1.671  16.955 -0.4285 -0.4456 -1.3599
  662MPD2    H2 9801   2.717   1.302  17.091 -2.2883  0.3661  1.3828
  662MPD2    H3 9802   2.617   1.439  16.924 -2.1203  0.0652  1.3930
  662MPD2     N 9803   2.627   1.814  17.170  0.4580 -0.0020  0.4056
  662MPD2    H5 9804   2.577   1.864  17.098 -0.8018  0.0201  1.2985
  662MPD2    N1 9805   2.790   1.402  17.353  0.0984  0.3138  0.3197
  662MPD2    H7 9806   2.805   1.471  17.426  1.8344  1.5507 -1.2016
  663TMC3    C1 9807   2.868   1.251  17.496  0.0252 -0.2926 -0.5459
  663TMC3    C2 9808   2.919   1.364  17.557  0.4130  0.2864 -0.4422
  663TMC3    C3 9809   2.887   1.409  17.681 -0.2199 -0.3530 -0.3557
  663TMC3    C4 9810   2.798   1.169  17.579 -0.6209 -0.6550 -0.4815
  663TMC3    C5 9811   2.780   1.209   0.026 -0.1434  0.5759  1.3165
  663TMC3    C6 9812   2.800   1.336   0.064 -0.6026  0.5790  0.2588
  663TMC3     C 9813   2.825   1.269  17.365 -0.6925  0.1825  1.0042
  663TMC3     O 9814   2.780   1.178  17.296 -0.2872 -0.3820  0.0462
  663TMC3     H 9815   2.988   1.421  17.496  0.3313 -0.6451 -1.4053
  663TMC3    H1 9816   2.754   1.086  17.525 -0.8208  0.1596 -1.5742
  663TMC3    H2 9817   2.780   1.373   0.164  2.1051 -0.5198  1.2204
  663TMC3    C7 9818   2.709   1.130   0.121  1.0865  0.3723 -0.1118
  663TMC3    C8 9819   2.834   1.550  17.668 -0.4297  0.5944  0.1851
  663TMC3    O1 9820   2.685   1.184   0.228  0.0263 -0.5221  0.1521
  663TMC3    O2 9821   2.853   1.601  17.557 -0.0680  0.3024 -0.0768
  664MPD2     C 9822   1.123   0.489   0.199 -0.9126 -0.7866 -0.1101
  664MPD2    C1 9823   1.176   0.615   0.235  0.3890 -0.3434 -0.1649
  664MPD2    C2 9824   1.187   0.640   0.365  0.1416  0.0335  0.5688
  664MPD2    C3 9825   1.167   0.547   0.464 -0.8200  0.9292  0.3594
  664MPD2    C4 9826   1.130   0.419   0.424 -0.6284  0.5645  0.2202
  664MPD2    C5 9827   1.098   0.393   0.294  0.0392 -0.0320  0.3639
  664MPD2     H 9828   1.232   0.734   0.394  0.4648  0.6066 -1.7473
  664MPD2    H1 9829   1.107   0.344   0.499  1.0977 -1.1534 -0.9693
  664MPD2    H2 9830   1.101   0.463   0.096 -2.7482 -1.8544  0.5426
  664MPD2    H3 9831   1.051   0.299   0.267 -0.9806  0.8122 -0.8105
  664MPD2     N 9832   1.196   0.583   0.593 -0.7384 -0.4272  0.1073
  664MPD2    H5 9833   1.217   0.681   0.607  0.5513 -0.5381 -1.1036
  664MPD2    N1 9834   1.215   0.708   0.140 -0.6780  0.1839 -0.2123
  664MPD2    H7 9835   1.225   0.668   0.047 -0.2974  1.4189 -0.7076
  665TMC3    C1 9836   1.303   0.540   0.796 -0.6033  0.9360  0.1227
  665TMC3    C2 9837   1.272   0.495   0.928 -0.1833  0.1899 -0.0753
  665TMC3    C3 9838   1.319   0.579   1.029 -0.3245 -0.0267  0.2594
  665TMC3    C4 9839   1.387   0.646   0.768 -0.3461  0.2620  0.2449
  665TMC3    C5 9840   1.437   0.719   0.869 -0.4580 -0.3443  0.2300
  665TMC3    C6 9841   1.395   0.694   0.994 -0.0946 -0.1984  0.1256
  665TMC3     C 9842   1.218   0.488   0.696 -0.3638 -0.5902  0.2857
  665TMC3     O 9843   1.198   0.365   0.699 -0.3925 -0.1398  0.0778
  665TMC3     H 9844   1.197   0.417   0.930  0.5641 -0.5975 -2.3246
  665TMC3    H1 9845   1.415   0.671   0.667 -0.4069  0.8087  0.3671
  665TMC3    H2 9846   1.445   0.744   1.076  1.7967 -1.7401 -0.0863
  665TMC3    C7 9847   1.449   0.861   0.831  0.9102 -1.0421  0.7690
  665TMC3    C8 9848   1.277   0.585   1.167  0.4882 -0.0845 -0.9568
  665TMC3    O1 9849   1.504   0.878   0.721  0.5755  0.2919 -0.1265
  665TMC3    O2 9850   1.324   0.673   1.237  0.2230 -0.1278 -0.1476
  666TMC3    C1 9851   0.131   0.240   9.805 -0.3301  0.1537  0.2704
  666TMC3    C2 9852   0.251   0.211   9.860  0.0987 -0.1535  0.1036
  666TMC3    C3 9853   0.337   0.316   9.884  0.5932 -0.7114 -0.3784
  666TMC3    C4 9854   0.094   0.368   9.768 -0.4666  1.0407  0.2155
  666TMC3    C5 9855   0.193   0.472   9.781 -0.0583 -0.1143 -0.3473
  666TMC3    C6 9856   0.314   0.445   9.845  0.3767 -0.3358  0.1847
  666TMC3     C 9857   0.022   0.172   9.879 -0.3334  0.1547 -0.5683
  666TMC3     O 9858   0.041   0.161   9.999 -0.3556  0.3357 -0.1726
  666TMC3     H 9859   0.292   0.111   9.867 -1.3874 -0.7500  0.3877
  666TMC3    H1 9860   4.712   0.394   9.746  0.3977  2.9403 -1.6346
  666TMC3    H2 9861   0.383   0.520   9.884 -0.8790  0.7512  0.3089
  666TMC3    C7 9862   0.139   0.609   9.790  0.3242 -0.3548 -0.5389
  666TMC3    C8 9863   0.441   0.270   9.977  0.1466 -0.2989 -1.0125
  666TMC3    O1 9864   0.164   0.672   9.890 -0.2699  0.2178 -0.2298
  666TMC3    O2 9865   0.422   0.166  10.039  0.0682 -0.2326 -0.2694
  667MPD2     C 9866   1.214   0.773  14.838 -0.2896 -0.1913  0.5216
  667MPD2    C1 9867   1.254   0.644  14.865 -0.2200 -0.3343 -0.0606
  667MPD2    C2 9868   1.176   0.538  14.836 -0.3120  0.7409 -0.7769
  667MPD2    C3 9869   1.046   0.553  14.792 -0.0276 -0.0261 -0.4205
  667MPD2    C4 9870   0.999   0.677  14.766 -0.0309  0.1321 -0.3787
  667MPD2    C5 9871   1.080   0.790  14.789  0.4163  0.9113  0.6707
  667MPD2     H 9872   1.214   0.439  14.855 -1.3067  0.3879 -0.6501
  667MPD2    H1 9873   0.901   0.696  14.724 -0.8366 -0.7111  1.1369
  667MPD2    H2 9874   1.273   0.861  14.864 -1.5408  0.6534  0.4953
  667MPD2    H3 9875   1.039   0.888  14.768  0.0301  1.2489  3.0174
  667MPD2     N 9876   0.956   0.444  14.758 -0.0761 -0.0577 -0.1266
  667MPD2    H5 9877   0.859   0.464  14.739  0.0981  0.2958 -0.6344
  667MPD2    N1 9878   1.370   0.599  14.934 -0.4553 -0.2179 -0.3938
  667MPD2    H7 9879   1.375   0.500  14.956  1.6927  0.4224  1.9342
  668TMC3    C1 9880   1.561   0.629  15.076 -0.1072  0.4160 -0.5700
  668TMC3    C2 9881   1.692   0.670  15.082 -0.8671 -0.4855 -0.5575
  668TMC3    C3 9882   1.763   0.624  15.188  0.4199 -0.0412 -0.0351
  668TMC3    C4 9883   1.498   0.556  15.175  0.5384  0.7630 -0.0689
  668TMC3    C5 9884   1.575   0.533  15.287  0.3808 -0.3053 -0.6535
  668TMC3    C6 9885   1.711   0.547  15.291 -0.0159 -0.3218 -0.0667
  668TMC3     C 9886   1.467   0.687  14.975 -0.4797  0.1410  0.5939
  668TMC3     O 9887   1.469   0.810  14.979 -0.0967  0.2604  0.2854
  668TMC3     H 9888   1.734   0.729  15.002 -1.0524  1.7111  0.9739
  668TMC3    H1 9889   1.390   0.549  15.178  0.4882  1.7751  0.4706
  668TMC3    H2 9890   1.773   0.515  15.373 -1.1741 -2.1894  0.0910
  668TMC3    C7 9891   1.516   0.467  15.402  0.0789  0.6092  0.5332
  668TMC3    C8 9892   1.907   0.658  15.206 -0.2846  0.3455  0.0811
  668TMC3    O1 9893   1.577   0.482  15.505 -0.1217  0.2359  0.2354
  668TMC3    O2 9894   1.960   0.626  15.310 -0.2439 -0.9874 -0.0892
  669TMC3    C1 9895   4.711   0.441  14.554 -0.0698  0.3159  0.6874
  669TMC3    C2 9896   4.638   0.439  14.437  0.2648 -0.4950  0.3157
  669TMC3    C3 9897   4.656   0.547  14.351 -0.4064  0.5164 -0.7676
  669TMC3    C4 9898   0.087   0.534  14.584  1.2362 -0.6692 -0.3475
  669TMC3    C5 9899   0.094   0.640  14.495  0.2084 -0.3502  0.8476
  669TMC3    C6 9900   0.034   0.640  14.372  1.0606 -0.1612 -0.0754
  669TMC3     C 9901   4.665   0.341  14.659 -0.3023 -0.6668  0.4534
  669TMC3     O 9902   4.555   0.288  14.641  0.4546 -0.6635 -0.7453
  669TMC3     H 9903   4.551   0.375  14.428 -0.9334  0.6808  3.3623
  669TMC3    H1 9904   0.132   0.539  14.682 -0.8174  2.5305  0.4620
  669TMC3    H2 9905   0.048   0.723  14.303  0.6059  0.6124  0.7625
  669TMC3    C7 9906   0.216   0.715  14.503  0.1730 -0.1025  0.3274
  669TMC3    C8 9907   4.587   0.533  14.223 -0.0437 -0.7482  0.6393
  669TMC3    O1 9908   0.211   0.837  14.471  0.4062  0.4788  0.0134
  669TMC3    O2 9909   4.539   0.420  14.201  0.0638  0.3381  0.1069
  670MPD2     C 9910   2.267   2.789  13.786  0.3737 -0.2068 -0.3758
  670MPD2    C1 9911   2.384   2.788  13.856 -0.3741 -0.0448  0.8919
  670MPD2    C2 9912   2.401   2.713  13.969 -0.3809  0.2102 -0.0040
  670MPD2    C3 9913   2.308   2.626  14.009 -0.2289 -0.0870  0.6287
  670MPD2    C4 9914   2.185   2.625  13.944  0.0642 -0.2863  0.4777
  670MPD2    C5 9915   2.169   2.705  13.828  0.2807 -0.2393  0.8950
  670MPD2     H 9916   2.488   2.732  14.031  0.2571 -0.8847 -0.5626
  670MPD2    H1 9917   2.107   2.553  13.965  0.3028 -0.6235  0.1982
  670MPD2    H2 9918   2.240   2.852  13.703  0.0266 -0.8753 -0.7742
  670MPD2    H3 9919   2.072   2.707  13.781  0.1782 -1.4977  1.0601
  670MPD2     N 9920   2.330   2.544  14.124 -0.1751  0.3201  0.1844
  670MPD2    H5 9921   2.410   2.573  14.180  0.0787 -1.2581  0.6517
  670MPD2    N1 9922   2.492   2.872  13.821 -0.1151 -0.7028 -0.0594
  670MPD2    H7 9923   2.577   2.863  13.875 -0.7376 -0.6754  0.9343
  671TMC3    C1 9924   2.307   2.372  14.279  0.0918 -0.1744  0.4826
  671TMC3    C2 9925   2.442   2.360  14.292  0.4718  0.0581  0.0965
  671TMC3    C3 9926   2.478   2.240  14.347 -0.3784 -0.3019 -0.6709
  671TMC3    C4 9927   2.213   2.276  14.320  0.1390 -0.6288  0.1535
  671TMC3    C5 9928   2.262   2.148  14.347 -0.7267 -0.1904  0.5769
  671TMC3    C6 9929   2.394   2.135  14.370 -0.4113 -0.4460 -0.5168
  671TMC3     C 9930   2.245   2.449  14.171  0.5296 -0.9053 -0.6215
  671TMC3     O 9931   2.151   2.391  14.120 -0.0032 -0.2363 -0.6841
  671TMC3     H 9932   2.511   2.435  14.254 -0.5854  0.6224 -0.7141
  671TMC3    H1 9933   2.104   2.276  14.312  0.4738 -2.1924 -4.1704
  671TMC3    H2 9934   2.428   2.047  14.423  2.6415 -0.4845 -2.5749
  671TMC3    C7 9935   2.197   2.036  14.280 -0.4136  0.7031 -0.6133
  671TMC3    C8 9936   2.616   2.203  14.340 -0.1325  1.0090  0.4147
  671TMC3    O1 9937   2.082   2.049  14.236  0.0694 -0.0651  0.4204
  671TMC3    O2 9938   2.638   2.083  14.331  0.1968 -0.3931  0.1597
  672MPD2     C 9939   2.715   3.067   1.731  0.1163 -0.5142  0.5779
  672MPD2    C1 9940   2.687   3.116   1.602 -0.2632  0.0152  0.2754
  672MPD2    C2 9941   2.717   3.245   1.567  0.1650 -0.0358  0.3240
  672MPD2    C3 9942   2.786   3.320   1.663 -0.2335  0.1726  0.3680
  672MPD2    C4 9943   2.811   3.276   1.790 -0.1809 -0.6448  0.0913
  672MPD2    C5 9944   2.769   3.153   1.827  0.3059 -0.1863 -0.3268
  672MPD2     H 9945   2.702   3.278   1.465  1.7476  1.1931  0.4840
  672MPD2    H1 9946   2.859   3.332   1.869 -0.6076 -0.3904  0.1745
  672MPD2    H2 9947   2.689   2.964   1.755  3.1142 -2.1404 -3.1061
  672MPD2    H3 9948   2.789   3.110   1.924 -0.9329  0.4604  0.2246
  672MPD2     N 9949   2.856   3.442   1.636 -0.5986  0.3987 -0.0933
  672MPD2    H5 9950   2.921   3.476   1.706 -1.6061  3.4574 -0.6396
  672MPD2    N1 9951   2.623   3.043   1.504 -0.1042 -0.0648  0.0008
  672MPD2    H7 9952   2.589   3.089   1.420  1.8310  1.1813 -0.1009
  673TMC3    C1 9953   2.578   2.838   1.381  0.2946  0.0169 -0.7142
  673TMC3    C2 9954   2.631   2.711   1.370  0.1028 -0.1860  0.1409
  673TMC3    C3 9955   2.617   2.648   1.254  0.5304 -0.7704 -0.3076
  673TMC3    C4 9956   2.502   2.894   1.280 -0.4919  0.3607  0.6126
  673TMC3    C5 9957   2.489   2.820   1.166 -0.1063  0.3004 -0.0067
  673TMC3    C6 9958   2.539   2.692   1.148 -0.7815 -0.4993  0.2884
  673TMC3     C 9959   2.597   2.907   1.511  0.9158 -0.7517  0.2138
  673TMC3     O 9960   2.622   2.830   1.599 -0.0124  0.3142  0.3172
  673TMC3     H 9961   2.686   2.661   1.449 -1.6680 -1.3250  0.6567
  673TMC3    H1 9962   2.462   2.995   1.285 -0.1947  0.4989  0.2722
  673TMC3    H2 9963   2.551   2.630   1.059  1.7557 -3.0056  2.3805
  673TMC3    C7 9964   2.449   2.889   1.053  0.6028  0.1357 -0.0028
  673TMC3    C8 9965   2.715   2.550   1.225 -0.0263  0.1954  0.2165
  673TMC3    O1 9966   2.368   2.822   0.989 -0.3778 -0.1021  0.1313
  673TMC3    O2 9967   2.688   2.443   1.170  0.1761  0.2026  0.4088
  674MPD2     C 9968   3.067   3.103   0.614  0.5835  0.1899 -0.3036
  674MPD2    C1 9969   3.100   2.985   0.557 -0.4200  0.3234 -0.0419
  674MPD2    C2 9970   3.012   2.874   0.568  0.8737 -0.3546  0.2995
  674MPD2    C3 9971   2.892   2.889   0.626 -0.0304  0.7578 -0.1076
  674MPD2    C4 9972   2.862   3.008   0.694 -0.2067  0.3529  0.5304
  674MPD2    C5 9973   2.947   3.115   0.678 -0.1934 -0.5228 -0.1896
  674MPD2     H 9974   3.034   2.786   0.508  0.1124  1.3958 -2.5592
  674MPD2    H1 9975   2.763   3.032   0.731 -0.6511  1.3572 -1.2588
  674MPD2    H2 9976   3.126   3.194   0.619  1.1657 -0.0182 -3.9476
  674MPD2    H3 9977   2.930   3.213   0.721  0.2397 -0.4335 -0.2178
  674MPD2     N 9978   2.807   2.779   0.626  0.2980 -0.1300 -0.1997
  674MPD2    H5 9979   2.831   2.705   0.560 -1.0482 -1.0596  0.3528
  674MPD2    N1 9980   3.226   2.971   0.501  0.6936 -0.0233 -0.3854
  674MPD2    H7 9981   3.275   3.058   0.487 -0.7219  0.7148 -0.7627
  675TMC3    C1 9982   3.421   2.863   0.427  0.1359 -0.5078 -0.5473
  675TMC3    C2 9983   3.498   2.748   0.423 -0.0487  0.0188 -0.3313
  675TMC3    C3 9984   3.617   2.757   0.372  1.1796 -0.3274 -0.3339
  675TMC3    C4 9985   3.451   2.977   0.359  0.6822  0.3231 -0.4026
  675TMC3    C5 9986   3.580   2.983   0.309  0.4804  0.6389 -0.6645
  675TMC3    C6 9987   3.663   2.873   0.316 -0.1568  0.7524  0.5252
  675TMC3     C 9988   3.290   2.850   0.486  0.3756  0.8315 -0.0395
  675TMC3     O 9989   3.266   2.733   0.524  0.1435 -0.4833 -0.3273
  675TMC3     H 9990   3.469   2.654   0.469 -0.4938  0.7524  0.8979
  675TMC3    H1 9991   3.383   3.057   0.332 -1.1104 -1.6577 -1.8442
  675TMC3    H2 9992   3.768   2.883   0.294 -0.3908 -0.3093 -1.0910
  675TMC3    C7 9993   3.632   3.104   0.248  0.1199  0.3113 -0.3720
  675TMC3    C8 9994   3.716   2.651   0.390 -0.5817 -0.4408  0.6046
  675TMC3    O1 9995   3.596   3.214   0.298 -0.1921  0.1111 -0.2321
  675TMC3    O2 9996   3.802   2.638   0.305  0.1412 -0.3266 -0.3882
  676MPD2     C 9997   0.562   1.519  10.895 -0.3875 -0.0301  0.8576
  676MPD2    C1 9998   0.478   1.419  10.937  0.0575 -0.4709  0.1692
  676MPD2    C2 9999   0.514   1.287  10.924 -0.2208 -0.2657 -0.2492
  676MPD2    C310000   0.640   1.255  10.884 -0.8774 -0.3256  0.6728
  676MPD2    C410001   0.726   1.356  10.847 -0.4209 -0.2622 -0.6380
  676MPD2    C510002   0.686   1.487  10.848 -0.1773 -0.5054 -0.1190
  676MPD2     H10003   0.433   1.214  10.929 -0.0906 -0.4451 -0.7295
  676MPD2    H110004   0.826   1.337  10.811  0.1363  0.7674  0.3385
  676MPD2    H210005   0.542   1.625  10.909  0.9274  0.6002 -1.9625
  676MPD2    H310006   0.764   1.559  10.824 -0.5408  0.8615  2.7707
  676MPD2     N10007   0.670   1.117  10.871  0.4203 -0.1391 -0.4564
  676MPD2    H510008   0.761   1.094  10.831  0.6526 -0.1483  0.0851
  676MPD2    N110009   0.348   1.442  10.987  0.2068  0.1922  0.0609
  676MPD2    H710010   0.295   1.360  11.013  1.0351  0.1424  1.5773
  677TMC3    C110011   0.191   1.565  11.102  0.1506 -0.6158 -0.7479
  677TMC3    C210012   0.106   1.459  11.095  0.9378 -0.0686  0.1163
  677TMC3    C310013   0.019   1.440  11.198  0.1655  0.7986 -0.3016
  677TMC3    C410014   0.199   1.639  11.217 -0.8590 -0.2124 -0.7402
  677TMC3    C510015   0.120   1.611  11.319 -0.3167 -0.4529  0.0538
  677TMC3    C610016   0.024   1.512  11.314  0.1925  0.0855 -0.2779
  677TMC3     C10017   0.301   1.565  11.017 -0.0806  0.3065  0.2588
  677TMC3     O10018   0.347   1.670  10.993 -0.3982  0.8745  0.7114
  677TMC3     H10019   0.091   1.401  11.006  2.6874 -1.0714  0.4705
  677TMC3    H110020   0.279   1.711  11.228 -2.4777  1.4312  0.2516
  677TMC3    H210021   4.672   1.499  11.394 -1.7401 -0.7382 -2.1569
  677TMC3    C710022   0.145   1.661  11.454  0.1220  0.5658 -0.6476
  677TMC3    C810023   4.674   1.309  11.202  0.1651  0.0647 -0.6545
  677TMC3    O110024   0.058   1.633  11.533 -0.3097 -0.1042 -0.1979
  677TMC3    O210025   4.652   1.260  11.091  0.3922 -0.4114  0.0961
  678MPD2     C10026   1.989   1.821   1.793  0.5405  0.1081  0.4143
  678MPD2    C110027   2.042   1.762   1.680 -0.4451 -0.4607  0.7340
  678MPD2    C210028   1.953   1.741   1.576  0.1678  0.0232  1.2864
  678MPD2    C310029   1.825   1.779   1.581  0.7068 -0.4580 -0.6357
  678MPD2    C410030   1.772   1.842   1.699 -0.0382  0.0069  0.0165
  678MPD2    C510031   1.858   1.850   1.805 -0.0629  0.4089  0.6649
  678MPD2     H10032   1.983   1.680   1.492  0.8933  3.4037 -0.8886
  678MPD2    H110033   1.674   1.886   1.716  0.5465  0.7656  1.4320
  678MPD2    H210034   2.050   1.845   1.880 -1.7490  1.3421  1.6885
  678MPD2    H310035   1.842   1.898   1.901 -1.7207  0.2099  0.4935
  678MPD2     N10036   1.744   1.764   1.466 -0.3820 -0.4731 -0.8117
  678MPD2    H510037   1.785   1.728   1.380  1.2134 -1.1297  0.2247
  678MPD2    N110038   2.174   1.734   1.662 -0.5142  0.5200 -0.6801
  678MPD2    H710039   2.204   1.684   1.578  1.4388  0.6961 -0.0890
  679TMC3    C110040   2.596   1.589   1.728 -1.3297 -0.1257 -0.8860
  679TMC3    C210041   2.473   1.625   1.785  0.3500 -0.1606  0.4821
  679TMC3    C310042   2.404   1.725   1.714  0.2479 -0.5164 -0.9696
  679TMC3    C410043   2.656   1.659   1.626 -0.2336 -0.8081 -0.2970
  679TMC3    C510044   2.572   1.749   1.557 -0.0556  0.0954  0.8037
  679TMC3    C610045   2.453   1.789   1.603 -0.4231 -0.1906 -0.2609
  679TMC3     C10046   2.672   1.479   1.789  1.0133  0.7336  0.4083
  679TMC3     O10047   2.785   1.462   1.749 -0.2703 -0.2182  0.1479
  679TMC3     H10048   2.418   1.570   1.860  0.7329  1.3769  1.8857
  679TMC3    H110049   2.752   1.630   1.587  1.2791  2.5529  0.9742
  679TMC3    H210050   2.383   1.855   1.554 -0.1467 -0.7828 -1.4301
  679TMC3    C710051   2.612   1.840   1.454  0.6057 -0.0154  0.0759
  679TMC3    C810052   2.269   1.761   1.753  0.2045  0.9875  1.0782
  679TMC3    O110053   2.520   1.912   1.402 -0.7050 -0.3315  0.0876
  679TMC3    O210054   2.269   1.814   1.866  0.3795 -0.4236  0.4404
  680MPD2     C10055   2.429   0.094  13.663  0.2547 -0.4911 -0.2773
  680MPD2    C110056   2.542   0.022  13.689 -0.1675  0.0100 -0.0609
  680MPD2    C210057   2.650   0.082  13.754  0.8285 -0.6209 -0.4504
  680MPD2    C310058   2.632   0.209  13.808 -0.2867  0.3791  0.6153
  680MPD2    C410059   2.518   0.279  13.785  0.6744  0.4074  0.4690
  680MPD2    C510060   2.416   0.223  13.708 -0.0127  0.2724  0.5310
  680MPD2     H10061   2.741   0.027  13.776  0.7932 -0.7783 -0.6903
  680MPD2    H110062   2.499   0.374  13.834 -1.0799  1.4158 -2.1156
  680MPD2    H210063   2.358   0.043  13.600  1.1316 -0.9222 -0.9169
  680MPD2    H310064   2.315   0.261  13.710 -1.5859 -3.8914 -0.9459
  680MPD2     N10065   2.716   0.286  13.885 -0.1092  0.6269 -0.8503
  680MPD2    H510066   2.690   0.383  13.898  1.9794  1.0974 -0.1195
  680MPD2    N110067   2.546   4.610  13.635  0.0882 -0.0849 -0.4035
  680MPD2    H710068   2.465   4.569  13.590 -0.9251  1.2505  0.1996
  681TMC3    C110069   2.619   4.388  13.607  0.4997  0.1049  0.7884
  681TMC3    C210070   2.506   4.346  13.661 -0.2251  0.1904 -0.0899
  681TMC3    C310071   2.490   4.210  13.657  0.3058 -0.2989  0.2483
  681TMC3    C410072   2.705   4.308  13.533  0.8645  0.8925 -0.1498
  681TMC3    C510073   2.680   4.174  13.528 -0.4703 -0.5163 -0.1179
  681TMC3    C610074   2.574   4.121  13.594  0.0697 -0.5221 -0.3042
  681TMC3     C10075   2.659   4.525  13.626  0.4801  0.0814 -0.1020
  681TMC3     O10076   2.776   4.548  13.644  0.0326 -0.1106  0.3214
  681TMC3     H10077   2.444   4.411  13.722 -2.0595  0.9827 -2.7944
  681TMC3    H110078   2.798   4.356  13.505  1.7157 -1.7540 -1.8512
  681TMC3    H210079   2.553   4.014  13.594  0.2224 -0.5533 -0.8553
  681TMC3    C710080   2.763   4.095  13.442  0.8685  0.2750  0.3775
  681TMC3    C810081   2.363   4.167  13.718  0.2293  0.7549 -0.4596
  681TMC3    O110082   2.801   3.989  13.478 -0.1342 -0.3899 -0.2643
  681TMC3    O210083   2.309   4.074  13.663 -1.2520 -0.9014  0.2525
  682MPD2     C10084   4.128   1.447  10.555  0.4812 -0.7894 -0.1956
  682MPD2    C110085   4.074   1.318  10.556  0.0507  0.2849  0.9748
  682MPD2    C210086   3.994   1.282  10.662  0.0448 -0.4710 -1.5764
  682MPD2    C310087   3.973   1.376  10.764 -0.2421 -0.7995  0.0028
  682MPD2    C410088   4.027   1.501  10.761 -0.1071 -0.3373  0.5271
  682MPD2    C510089   4.100   1.535  10.647  1.3322 -0.0355 -0.2749
  682MPD2     H10090   3.961   1.180  10.680 -1.5225  0.6203  1.6389
  682MPD2    H110091   4.004   1.580  10.831 -1.2684  1.5378 -1.9825
  682MPD2    H210092   4.205   1.475  10.485 -0.0227 -0.7205 -0.7163
  682MPD2    H310093   4.145   1.633  10.655 -1.5306  1.3551 -1.1699
  682MPD2     N10094   3.894   1.352  10.877 -0.0122  0.7259  0.3063
  682MPD2    H510095   3.899   1.417  10.955 -2.5118  1.8639 -0.4795
  682MPD2    N110096   4.102   1.215  10.466 -0.2799 -0.0180 -0.0694
  682MPD2    H710097   4.066   1.125  10.497  0.8872 -0.3586  0.2908
  683TMC3    C110098   3.915   1.181  11.235  0.0294 -0.2739 -0.8662
  683TMC3    C210099   3.846   1.062  11.268 -0.3017 -0.4900  0.2459
  683TMC3    C310100   3.744   1.020  11.182 -0.1225  0.0424  0.6773
  683TMC3    C410101   3.879   1.252  11.123 -0.0597 -0.2905 -0.1540
  683TMC3    C510102   3.785   1.209  11.043  0.3790  0.2561 -0.4250
  683TMC3    C610103   3.709   1.090  11.069  0.4812 -0.2221  0.8665
  683TMC3     C10104   4.051   1.205  11.286  0.6896  0.6872 -0.3329
  683TMC3     O10105   4.101   1.313  11.254  0.6609  0.4481 -0.3859
  683TMC3     H10106   3.862   1.011  11.362 -0.2479 -0.2415  0.3728
  683TMC3    H110107   3.931   1.345  11.105 -0.7935  0.4248  1.3487
  683TMC3    H210108   3.642   1.052  10.993  1.8606 -2.5948  0.8209
  683TMC3    C710109   3.812   1.239  10.899 -0.3074  0.0488  0.5750
  683TMC3    C810110   3.669   0.896  11.209  0.7821 -0.1594 -0.3932
  683TMC3    O110111   3.782   1.149  10.821 -0.1631  0.3428 -0.8438
  683TMC3    O210112   3.557   0.891  11.174 -0.2497  0.5231 -0.0330
  684MPD2     C10113   2.765   0.400  16.509 -0.0914  0.0658 -0.5782
  684MPD2    C110114   2.729   0.378  16.381 -1.0250  0.0680 -0.3143
  684MPD2    C210115   2.776   0.461  16.280  0.3166  0.5663 -0.3019
  684MPD2    C310116   2.853   0.572  16.314 -0.6391 -0.6517  0.1402
  684MPD2    C410117   2.906   0.586  16.443  0.2967  0.0439  0.2311
  684MPD2    C510118   2.853   0.504  16.540  0.2457 -0.5104  0.3885
  684MPD2     H10119   2.742   0.433  16.181  0.6503  0.2357 -0.3257
  684MPD2    H110120   2.964   0.671  16.477 -1.9977  1.9188 -0.5373
  684MPD2    H210121   2.737   0.342  16.596  0.5736  0.0609 -0.3653
  684MPD2    H310122   2.899   0.510  16.638 -1.7194 -0.9619  1.3367
  684MPD2     N10123   2.890   0.668  16.219  0.0178  0.2447  0.0995
  684MPD2    H510124   2.953   0.736  16.259  1.8941 -1.6991  0.4801
  684MPD2    N110125   2.642   0.280  16.333  0.4370 -0.3261  0.1885
  684MPD2    H710126   2.627   0.279  16.233  2.0970  1.4709 -0.0689
  685TMC3    C110127   2.552   0.073  16.323 -0.0315 -0.1412 -0.2727
  685TMC3    C210128   2.457   0.114  16.237  0.4483 -0.0509  0.0655
  685TMC3    C310129   2.438   0.028  16.130 -0.1524 -0.0610 -0.3330
  685TMC3    C410130   2.622   4.676  16.313 -0.1403 -0.0223 -0.6816
  685TMC3    C510131   2.596   4.598  16.201  0.6621 -0.0693 -0.5945
  685TMC3    C610132   2.506   4.632  16.107 -0.1376  0.3269  0.7568
  685TMC3     C10133   2.613   0.170  16.411 -0.2088  0.2446 -0.3905
  685TMC3     O10134   2.644   0.125  16.520 -0.6383 -0.8100 -0.4681
  685TMC3     H10135   2.386   0.190  16.267  1.9290  0.7764  1.4986
  685TMC3    H110136   2.693   4.643  16.387  0.1360  0.9797 -0.4935
  685TMC3    H210137   2.486   4.578  16.015  1.0225 -0.5561  1.0176
  685TMC3    C710138   2.708   4.529  16.140  0.7813  0.3286  0.2267
  685TMC3    C810139   2.327   0.053  16.045  0.0162 -0.3343 -0.8334
  685TMC3    O110140   2.689   4.438  16.061  0.0980 -0.2001 -0.4130
  685TMC3    O210141   2.291   4.678  15.975 -0.1380 -0.2997 -0.1330
  686MPD2     C10142   4.043   0.368  15.489 -0.1154  0.1120 -0.2073
  686MPD2    C110143   4.070   0.326  15.618 -0.7294 -0.0675 -0.5337
  686MPD2    C210144   4.188   0.370  15.685  0.2168  0.2258  0.1937
  686MPD2    C310145   4.280   0.439  15.613  0.2788 -0.5786 -0.2890
  686MPD2    C410146   4.255   0.474  15.485 -0.1783  0.6353 -0.8882
  686MPD2    C510147   4.135   0.451  15.430 -0.1541 -0.4891 -0.0746
  686MPD2     H10148   4.208   0.342  15.788 -2.1624 -1.4203  0.2087
  686MPD2    H110149   4.332   0.518  15.422  1.0668  0.6879  0.6736
  686MPD2    H210150   3.947   0.351  15.443 -0.0729  0.2421 -0.3439
  686MPD2    H310151   4.109   0.479  15.329 -0.6064  0.0554  0.1868
  686MPD2     N10152   4.413   0.459  15.644 -0.2481 -0.2032  0.2660
  686MPD2    H510153   4.455   0.540  15.598 -0.2515 -0.0204  0.5868
  686MPD2    N110154   3.975   0.245  15.687  0.0248  0.1992 -0.5543
  686MPD2    H710155   3.903   0.211  15.624  0.3870  0.8573 -1.3207
  687TMC3    C110156   4.465   0.266  15.790  0.4465  0.3627  0.3029
  687TMC3    C210157   4.401   0.171  15.710 -0.4597 -0.0439 -0.1290
  687TMC3    C310158   4.387   0.048  15.772 -0.0184  0.2308  0.2498
  687TMC3    C410159   4.520   0.228  15.915  0.2762 -0.1554 -0.0085
  687TMC3    C510160   4.517   0.101  15.955  0.2153  0.3519 -0.4901
  687TMC3    C610161   4.445   0.004  15.885 -0.3544 -0.0915 -0.5788
  687TMC3     C10162   4.485   0.409  15.751  0.5203 -0.0389 -0.2884
  687TMC3     O10163   4.590   0.459  15.796  0.5988 -0.2164  0.4430
  687TMC3     H10164   4.372   0.192  15.607  1.2790  2.6156 -0.0939
  687TMC3    H110165   4.561   0.310  15.973  0.4234  0.2238 -0.6456
  687TMC3    H210166   4.435   4.622  15.919 -1.7673 -0.4666 -2.1918
  687TMC3    C710167   4.580   0.062  16.076 -0.1546  0.1605 -1.0758
  687TMC3    C810168   4.293   4.673  15.706 -0.2164 -0.8496 -0.6818
  687TMC3    O110169   4.687   0.122  16.096 -0.2727  0.6508 -0.1668
  687TMC3    O210170   4.259   4.585  15.781 -0.1864 -0.4794 -0.4373
  688MPD2     C10171   3.256   3.952  17.372  0.2761  0.2618  0.1051
  688MPD2    C110172   3.288   3.838  17.446  0.1104  0.3694 -0.6280
  688MPD2    C210173   3.389   3.749  17.405 -0.3678 -0.4040  0.0961
  688MPD2    C310174   3.466   3.771  17.289 -0.3526  0.2426 -0.2018
  688MPD2    C410175   3.441   3.884  17.223 -0.3448 -0.0375  0.3011
  688MPD2    C510176   3.329   3.957  17.253  1.0558 -0.4052  0.3149
  688MPD2     H10177   3.412   3.663  17.467 -1.4403 -1.4226 -0.9285
  688MPD2    H110178   3.501   3.922  17.140  0.6343 -1.3773  0.4043
  688MPD2    H210179   3.185   4.030  17.396 -0.6934 -0.3129 -0.8607
  688MPD2    H310180   3.311   4.037  17.183  0.9233 -0.2857  0.4838
  688MPD2     N10181   3.581   3.703  17.240  0.1761 -0.5612  0.3760
  688MPD2    H510182   3.637   3.752  17.172  2.0610 -0.3103  2.1011
  688MPD2    N110183   3.232   3.816  17.577 -0.0766 -0.1529 -0.4188
  688MPD2    H710184   3.277   3.742  17.629  1.9429  2.3298  1.3835
  689TMC3    C110185   3.130   3.866   0.102  0.3776  0.0217  0.0528
  689TMC3    C210186   3.103   3.965   0.192  0.6012 -1.1818  0.6373
  689TMC3    C310187   3.072   3.926   0.315 -0.0751 -0.3492 -0.2548
  689TMC3    C410188   3.124   3.732   0.138  0.0955  0.6510  0.5216
  689TMC3    C510189   3.089   3.700   0.272 -0.3608  0.7257  0.2622
  689TMC3    C610190   3.063   3.800   0.364  0.1119  0.2627 -0.2859
  689TMC3     C10191   3.164   3.905  17.651 -0.3846  0.0174  0.0473
  689TMC3     O10192   3.126   4.014  17.619  0.0509  0.3650 -0.1016
  689TMC3     H10193   3.102   4.070   0.164  1.8105 -1.0151  1.2355
  689TMC3    H110194   3.157   3.655   0.070 -0.9258 -0.2686  1.0732
  689TMC3    H210195   3.024   3.777   0.462  1.1174 -3.5832 -0.7700
  689TMC3    C710196   3.052   3.571   0.309 -0.6448 -0.2987 -0.0714
  689TMC3    C810197   3.049   4.033   0.412  0.5368 -0.0538  0.1140
  689TMC3    O110198   3.062   3.533   0.424 -0.1821 -0.0351  0.4966
  689TMC3    O210199   2.978   4.009   0.505  0.2006  0.0934 -0.4925
  690MPD2     C10200   1.242   1.349  15.767 -0.3608  0.3143  1.4847
  690MPD2    C110201   1.145   1.340  15.671  0.0308  0.5233  1.0945
  690MPD2    C210202   1.166   1.423  15.561 -0.0719  0.3807  0.3734
  690MPD2    C310203   1.281   1.492  15.539 -0.0502  0.0154  1.1292
  690MPD2    C410204   1.376   1.501  15.644 -0.1383  0.1597 -0.3515
  690MPD2    C510205   1.350   1.427  15.756  0.8300  0.5916 -0.5502
  690MPD2     H10206   1.094   1.409  15.481 -1.0770 -0.3156  1.4014
  690MPD2    H110207   1.472   1.551  15.638  0.2336 -0.5437 -0.2018
  690MPD2    H210208   1.217   1.293  15.856  1.6788 -1.6152  0.8631
  690MPD2    H310209   1.415   1.421  15.843  1.1761  1.4141 -0.7512
  690MPD2     N10210   1.305   1.555  15.419  0.5976 -0.4586 -0.6772
  690MPD2    H510211   1.230   1.551  15.351 -0.1340 -2.3272  0.2390
  690MPD2    N110212   1.035   1.247  15.665 -0.2072  0.3531  0.2965
  690MPD2    H710213   0.965   1.254  15.591  1.0753 -0.7719 -1.0289
  691TMC3    C110214   0.929   1.054  15.714  0.2406  0.3729  0.3282
  691TMC3    C210215   0.925   1.037  15.577 -0.5046 -0.4368  0.2268
  691TMC3    C310216   0.815   0.971  15.523  1.0392  0.1413 -0.0959
  691TMC3    C410217   0.837   1.011  15.798  0.1292 -0.4689 -0.1152
  691TMC3    C510218   0.736   0.941  15.745 -0.2557 -0.3890  0.5057
  691TMC3    C610219   0.721   0.922  15.609  0.2982 -0.6208 -0.4937
  691TMC3     C10220   1.025   1.146  15.758 -0.1004 -0.6021  0.3536
  691TMC3     O10221   1.089   1.124  15.864  0.3987  0.3040 -0.8784
  691TMC3     H10222   0.998   1.068  15.503  0.5876 -0.1823  1.4052
  691TMC3    H110223   0.842   1.048  15.900 -1.3227  2.4091 -1.0797
  691TMC3    H210224   0.633   0.876  15.565  0.1322 -0.6469 -0.1367
  691TMC3    C710225   0.638   0.888  15.838  0.2333  0.1557  0.1208
  691TMC3    C810226   0.757   1.034  15.406 -0.6644  1.1336 -0.8583
  691TMC3    O110227   0.641   0.936  15.951 -0.9496 -0.2081 -0.0148
  691TMC3    O210228   0.820   1.041  15.302 -0.3016 -0.6822 -0.3662
  692TMC3    C110229   2.578   2.043  16.063  0.4509  0.5052  0.3168
  692TMC3    C210230   2.698   2.040  16.134  0.3507  0.3269 -0.5539
  692TMC3    C310231   2.790   1.947  16.109 -0.1933 -0.0614 -0.1589
  692TMC3    C410232   2.554   1.954  15.972  1.0853 -0.2877 -0.2171
  692TMC3    C510233   2.655   1.868  15.937  0.8513 -0.6208  0.5089
  692TMC3    C610234   2.770   1.850  16.015  0.1069 -0.2467 -0.3049
  692TMC3     C10235   2.469   2.140  16.089  0.5394 -0.5210 -0.4151
  692TMC3     O10236   2.363   2.109  16.038  0.1216 -0.0140  0.5317
  692TMC3     H10237   2.716   2.121  16.204  0.1449 -1.7523  1.9089
  692TMC3    H110238   2.455   1.951  15.928  0.8342 -1.0165  0.4140
  692TMC3    H210239   2.859   1.802  15.976  0.0128 -0.6176 -0.0519
  692TMC3    C710240   2.616   1.769  15.834 -0.3817  0.2337  0.0496
  692TMC3    C810241   2.831   1.868  16.223 -0.2591 -0.1173  0.8329
  692TMC3    O110242   2.529   1.793  15.749 -0.0577  0.1762  0.9494
  692TMC3    O210243   2.873   1.756  16.198  0.4722 -0.0666  0.0398
  693MPD2     C10244   1.794   0.645  10.581  0.1989  0.1088 -0.4282
  693MPD2    C110245   1.753   0.528  10.530  0.7003  0.4712 -0.3188
  693MPD2    C210246   1.845   0.428  10.506  0.0725 -0.0328  0.1963
  693MPD2    C310247   1.979   0.452  10.544 -0.3778 -0.5795  0.2666
  693MPD2    C410248   2.019   0.573  10.596  0.3006 -0.2302  0.2403
  693MPD2    C510249   1.923   0.673  10.616  0.0474  0.0978  0.4737
  693MPD2     H10250   1.819   0.328  10.475 -1.6453  0.6160 -0.4335
  693MPD2    H110251   2.119   0.585  10.635  1.0259 -2.1243 -1.0090
  693MPD2    H210252   1.718   0.714  10.616 -1.0357 -1.2555 -0.4285
  693MPD2    H310253   1.946   0.771  10.655 -2.5399  0.4321  1.1906
  693MPD2     N10254   2.068   0.349  10.562 -0.8469  0.5725  0.4165
  693MPD2    H510255   2.154   0.368  10.612 -0.6929  1.0366 -0.0357
  693MPD2    N110256   1.614   0.503  10.538  0.1841 -0.8497  0.1483
  693MPD2    H710257   1.558   0.560  10.600 -0.2308  1.6388 -2.4916
  694TMC3    C110258   1.421   0.358  10.542  0.4460  0.0795 -0.7061
  694TMC3    C210259   1.338   0.273  10.464 -0.1439  0.1480 -0.4714
  694TMC3    C310260   1.272   0.167  10.517  0.5517 -0.2186 -0.3392
  694TMC3    C410261   1.422   0.345  10.676 -0.0551  0.0507 -0.5732
  694TMC3    C510262   1.360   0.229  10.724  0.8737 -0.0015  0.1943
  694TMC3    C610263   1.287   0.138  10.652 -0.7517 -0.3261 -0.1918
  694TMC3     C10264   1.554   0.390  10.486 -1.3870 -0.5933  0.0710
  694TMC3     O10265   1.582   0.325  10.388 -0.0031  0.4064  0.4441
  694TMC3     H10266   1.341   0.289  10.356  0.5795  0.8832 -0.3418
  694TMC3    H110267   1.494   0.394  10.740  0.0907 -0.1540 -0.5840
  694TMC3    H210268   1.241   0.048  10.691 -0.4545 -0.2767  0.2666
  694TMC3    C710269   1.384   0.210  10.865  0.6058 -0.1367 -0.0241
  694TMC3    C810270   1.196   0.071  10.435 -0.0138 -0.3619 -0.0948
  694TMC3    O110271   1.425   0.303  10.926  0.3263  0.4416  0.1071
  694TMC3    O210272   1.169   4.677  10.479 -0.4163 -0.0430  0.0172
  695MPD2     C10273   2.805   1.884  13.390  0.0694  0.7134  0.0415
  695MPD2    C110274   2.770   1.896  13.521  0.4088  0.4927 -0.7565
  695MPD2    C210275   2.636   1.891  13.554  0.0650  0.3263 -0.0747
  695MPD2    C310276   2.536   1.894  13.466 -0.6729  0.0835 -0.2545
  695MPD2    C410277   2.569   1.877  13.337  0.6424 -0.1595  0.6055
  695MPD2    C510278   2.699   1.878  13.300 -0.4754  0.2218  0.2384
  695MPD2     H10279   2.620   1.890  13.661 -1.8804  2.3562 -0.3513
  695MPD2    H110280   2.494   1.868  13.259 -0.4997 -0.9453  1.7932
  695MPD2    H210281   2.908   1.891  13.355  0.3086 -0.5233  0.4875
  695MPD2    H310282   2.726   1.868  13.195  1.2644  0.0408  0.7038
  695MPD2     N10283   2.404   1.895  13.511  0.5197  0.0060 -0.0963
  695MPD2    H510284   2.393   1.885  13.611  0.2568  3.2314  0.2100
  695MPD2    N110285   2.860   1.898  13.631 -0.3289 -0.6207 -0.0417
  695MPD2    H710286   2.818   1.920  13.721  2.5318  0.9242  0.9141
  696TMC3    C110287   2.176   1.942  13.512 -0.3794  1.0734 -0.2943
  696TMC3    C210288   2.155   1.867  13.624  0.2491  0.0652  0.1423
  696TMC3    C310289   2.042   1.903  13.694 -0.0499 -0.5607 -0.1798
  696TMC3    C410290   2.107   2.046  13.473 -0.4935  0.4098  0.6504
  696TMC3    C510291   2.014   2.088  13.555  0.0658 -0.5068 -0.4837
  696TMC3    C610292   1.984   2.023  13.668  0.6783  0.6772 -0.6090
  696TMC3     C10293   2.292   1.917  13.434  0.2161 -0.1998 -0.0727
  696TMC3     O10294   2.278   1.946  13.312  0.6357 -0.2407 -0.1505
  696TMC3     H10295   2.214   1.780  13.646 -1.6118 -1.3917 -0.6032
  696TMC3    H110296   2.138   2.108  13.389  0.1272 -0.0001  0.5726
  696TMC3    H210297   1.889   2.045  13.715  0.7018 -0.6058  0.0500
  696TMC3    C710298   1.981   2.233  13.544 -0.1696 -0.6471 -0.3629
  696TMC3    C810299   2.026   1.854  13.833  0.6724  0.8396 -0.5447
  696TMC3    O110300   2.026   2.295  13.451 -0.4414 -0.2280  0.2406
  696TMC3    O210301   1.954   1.923  13.905 -0.3017 -0.1639  0.0713
  697MPD2     C10302   1.815   3.899  15.793 -0.1943 -0.9009  0.5552
  697MPD2    C110303   1.829   3.861  15.660  0.6298 -0.0210  0.6427
  697MPD2    C210304   1.893   3.949  15.579 -0.2495  0.5644  0.0491
  697MPD2    C310305   1.930   4.076  15.620  0.2616 -0.4861  0.0517
  697MPD2    C410306   1.881   4.117  15.742  0.1830  0.3270  0.1860
  697MPD2    C510307   1.823   4.027  15.830 -0.4545 -0.1293 -0.8675
  697MPD2     H10308   1.928   3.909  15.484  0.5581 -2.9081  1.8279
  697MPD2    H110309   1.888   4.222  15.769 -1.2141  0.2577  0.8285
  697MPD2    H210310   1.782   3.834  15.873 -0.2418 -1.4718  0.0717
  697MPD2    H310311   1.789   4.065  15.926  1.4102  2.9694 -1.4209
  697MPD2     N10312   2.008   4.147  15.534  0.0234 -0.5334 -0.0571
  697MPD2    H510313   2.034   4.101  15.447 -1.2474 -0.8615 -0.2665
  697MPD2    N110314   1.799   3.729  15.608  0.2014 -0.4475  0.2481
  697MPD2    H710315   1.795   3.719  15.507  0.8327  0.8056  0.0968
  698TMC3    C110316   2.147   4.314  15.451  0.0753  0.0509  0.3594
  698TMC3    C210317   2.222   4.426  15.480  0.3867  0.3351 -0.1833
  698TMC3    C310318   2.277   4.485  15.371  0.3820  0.4935 -0.1652
  698TMC3    C410319   2.139   4.260  15.320 -0.2783  0.0028  0.6928
  698TMC3    C510320   2.197   4.324  15.215 -0.0341  0.3225 -0.4237
  698TMC3    C610321   2.260   4.444  15.235 -0.1386 -0.3141 -0.1185
  698TMC3     C10322   2.066   4.267  15.560  0.6235  0.2090 -0.3203
  698TMC3     O10323   2.051   4.346  15.649 -0.1066  0.1312  0.2136
  698TMC3     H10324   2.232   4.451  15.585 -0.7448 -1.0400  0.2568
  698TMC3    H110325   2.080   4.174  15.291  0.4898  0.7861 -3.1067
  698TMC3    H210326   2.279   4.517  15.157 -1.1022 -0.8346 -0.8522
  698TMC3    C710327   2.191   4.267  15.080  0.5740  0.4554 -0.1550
  698TMC3    C810328   2.341   4.611  15.401 -0.0767 -0.1438 -0.9372
  698TMC3    O110329   2.101   4.184  15.063  0.2843 -0.8857  0.5735
  698TMC3    O210330   2.310   4.662  15.508 -0.5220 -0.1868 -0.0958
  699TMC3    C110331   2.023   1.993  13.039 -0.8432 -0.0689  0.0903
  699TMC3    C210332   2.032   1.875  13.113 -0.2804 -0.7336 -0.0633
  699TMC3    C310333   1.944   1.867  13.222 -0.3793  0.4087 -0.1363
  699TMC3    C410334   1.938   2.095  13.077 -0.2304  0.9068  0.0805
  699TMC3    C510335   1.843   2.071  13.169 -0.3795 -0.2083  0.7896
  699TMC3    C610336   1.843   1.958  13.244 -0.3704 -0.2057 -0.1973
  699TMC3     C10337   2.112   2.009  12.920 -0.1677  0.6334 -0.0607
  699TMC3     O10338   2.071   2.076  12.823 -0.0672 -0.1081 -0.4465
  699TMC3     H10339   2.095   1.792  13.084  1.8868  0.6301  0.8266
  699TMC3    H110340   1.927   2.180  13.010 -2.2236 -0.2580 -1.0443
  699TMC3    H210341   1.776   1.938  13.327  0.8784 -1.3915  0.5276
  699TMC3    C710342   1.750   2.172  13.214 -0.6645 -0.6772 -0.2882
  699TMC3    C810343   1.953   1.757  13.314 -0.2189 -0.2493 -0.2943
  699TMC3    O110344   1.659   2.129  13.290  0.2403  0.8050 -0.0298
  699TMC3    O210345   1.867   1.751  13.403 -0.1011  0.1237  0.1120
  700TMC3    C110346   1.641   4.595  17.558  0.0894 -0.3684  0.6602
  700TMC3    C210347   1.725   4.489  17.549  0.1629 -0.7072 -0.1543
  700TMC3    C310348   1.848   4.502  17.595 -0.2626  0.7314 -0.2385
  700TMC3    C410349   1.676   4.711  17.617  0.2841  0.0638  0.1303
  700TMC3    C510350   1.807   0.002  17.664  0.3310  0.2996  0.0815
  700TMC3    C610351   1.894   4.620  17.646  0.9819 -0.5472  0.2656
  700TMC3     C10352   1.520   4.595  17.467 -0.5508  0.1864  0.0483
  700TMC3     O10353   1.496   4.490  17.410 -0.2517  0.7044 -0.5683
  700TMC3     H10354   1.679   4.396  17.518 -1.0485 -0.7273  1.6474
  700TMC3    H110355   1.605   0.072  17.617  0.6575  0.3868  1.5001
  700TMC3    H210356   1.993   4.623   0.005 -0.2003 -1.3695  2.9739
  700TMC3    C710357   1.861   0.127   0.021 -0.0481  0.0163 -0.3704
  700TMC3    C810358   1.923   4.383  17.602  0.3701 -0.5921 -0.6749
  700TMC3    O110359   1.969   0.135   0.079 -0.3184 -0.0589 -0.3214
  700TMC3    O210360   2.016   4.379  17.682  0.2246 -0.4626 -0.4319
  701TMC3    C110361   1.145   3.213  15.621 -0.3532  0.9664 -0.0983
  701TMC3    C210362   1.150   3.181  15.485 -0.1544 -0.1210  0.3013
  701TMC3    C310363   1.225   3.260  15.407  0.4252 -0.0678 -0.1754
  701TMC3    C410364   1.212   3.323  15.670 -0.1339 -0.8348  0.1713
  701TMC3    C510365   1.285   3.398  15.581 -0.5837  0.2410 -0.4882
  701TMC3    C610366   1.293   3.370  15.454  0.4415  0.0482  0.2462
  701TMC3     C10367   1.084   3.117  15.714 -0.6210 -0.2073 -0.1267
  701TMC3     O10368   1.100   3.125  15.834  0.1064  0.4615  0.0779
  701TMC3     H10369   1.108   3.089  15.445 -1.1669  1.0438 -1.2857
  701TMC3    H110370   1.198   3.345  15.776 -1.4638 -0.7313 -0.0259
  701TMC3    H210371   1.363   3.423  15.390  1.1625 -2.3281 -0.9584
  701TMC3    C710372   1.367   3.502  15.634  0.3145  0.3120  0.3426
  701TMC3    C810373   1.203   3.270  15.260  0.4446 -0.2649  0.7769
  701TMC3    O110374   1.420   3.567  15.546 -0.1272  0.2057 -0.1490
  701TMC3    O210375   1.293   3.313  15.188 -0.7942 -0.5172 -0.3655
  702MPD2     C10376   0.771   0.711  10.301  0.5028  0.1510  0.2222
  702MPD2    C110377   0.680   0.790  10.370  0.4160 -0.0564  0.5452
  702MPD2    C210378   0.610   0.890  10.305  0.3886  0.6180 -0.1083
  702MPD2    C310379   0.645   0.930  10.177  0.9818  0.5766  0.0568
  702MPD2    C410380   0.745   0.865  10.115  0.0805  0.5177 -0.6188
  702MPD2    C510381   0.810   0.758  10.176  0.8411 -0.9259  0.2115
  702MPD2     H10382   0.534   0.943  10.361  1.9062  2.4043  0.2382
  702MPD2    H110383   0.769   0.876  10.010  1.7729  0.8407 -0.1970
  702MPD2    H210384   0.832   0.638  10.351  0.1713  0.5906  1.2706
  702MPD2    H310385   0.894   0.720  10.119  0.8370 -0.3675 -0.1602
  702MPD2     N10386   0.595   1.045  10.113  0.1095  0.0785 -0.0340
  702MPD2    H510387   0.653   1.097  10.048  0.6881 -1.6096 -0.8898
  702MPD2    N110388   0.661   0.786  10.513  0.0616  0.2637 -0.2478
  702MPD2    H710389   0.606   0.857  10.559 -1.9573 -0.8200 -1.0092
  703TMC3    C110390   0.489   1.259  10.134 -0.3962 -0.1021 -0.3783
  703TMC3    C210391   0.372   1.332  10.160 -0.1052 -0.2361 -0.6693
  703TMC3    C310392   0.387   1.467  10.176  0.5163 -0.5463 -0.3815
  703TMC3    C410393   0.604   1.324  10.122  0.3380  0.0285 -0.2259
  703TMC3    C510394   0.615   1.459  10.136 -0.4605  0.0985 -0.2876
  703TMC3    C610395   0.505   1.535  10.161 -0.1538  0.1616 -0.9807
  703TMC3     C10396   0.483   1.118  10.157 -0.8405 -0.0007  0.4263
  703TMC3     O10397   0.383   1.072  10.217  0.5474  0.1393 -0.6483
  703TMC3     H10398   0.275   1.283  10.157 -0.0195 -0.4577  0.1760
  703TMC3    H110399   0.698   1.271  10.111  0.7174 -0.0076  3.2591
  703TMC3    H210400   0.513   1.635  10.201 -0.4134  0.2838 -1.2396
  703TMC3    C710401   0.744   1.521  10.165 -0.0540  0.5519  0.1983
  703TMC3    C810402   0.307   1.535  10.276  0.1452 -0.3966  1.2952
  703TMC3    O110403   0.768   1.632  10.116 -0.4152 -0.4056 -0.5559
  703TMC3    O210404   0.306   1.661  10.286  0.3358  0.1235 -0.0392
  704TMC3    C110405   3.140   3.832  11.942 -0.2017  0.1959 -0.4607
  704TMC3    C210406   3.254   3.758  11.907 -0.0156  0.2021  0.0926
  704TMC3    C310407   3.293   3.660  11.987 -0.0345 -0.2313 -0.2057
  704TMC3    C410408   3.056   3.790  12.044 -0.2339  0.7472 -0.4693
  704TMC3    C510409   3.088   3.674  12.114  0.2174 -0.2688  0.1700
  704TMC3    C610410   3.212   3.611  12.085 -0.0120 -0.3502 -0.0681
  704TMC3     C10411   3.075   3.894  11.833  0.1145 -0.5293  0.2146
  704TMC3     O10412   2.954   3.893  11.824 -0.0949 -0.3654  0.2843
  704TMC3     H10413   3.324   3.788  11.830 -1.9551  1.9809 -0.9889
  704TMC3    H110414   2.965   3.846  12.061 -0.8656 -1.3416  3.0395
  704TMC3    H210415   3.234   3.521  12.142  0.5247  1.1946  2.1791
  704TMC3    C710416   2.977   3.608  12.179 -0.4172 -0.0311 -0.5529
  704TMC3    C810417   3.402   3.575  11.936  0.7738  0.2371 -0.8330
  704TMC3    O110418   2.883   3.681  12.219  0.0999  0.1666  0.4230
  704TMC3    O210419   3.404   3.568  11.812 -0.1460 -0.0750  0.7186
  705MPD2     C10420   2.847   1.210  16.217 -0.4796 -0.4153 -0.2871
  705MPD2    C110421   2.859   1.335  16.270  0.3117 -0.5942  0.4288
  705MPD2    C210422   2.771   1.373  16.376 -0.6300 -0.3038  0.6840
  705MPD2    C310423   2.666   1.294  16.406 -0.6418 -0.7019 -0.3767
  705MPD2    C410424   2.660   1.172  16.353  0.6755  0.6394  0.2742
  705MPD2    C510425   2.756   1.126  16.274  0.4825 -0.9829  0.5481
  705MPD2     H10426   2.784   1.463  16.434  1.0584 -0.9055  1.2480
  705MPD2    H110427   2.574   1.108  16.370  0.8149  0.3850  0.0173
  705MPD2    H210428   2.921   1.183  16.143  0.0158  2.6309 -0.9363
  705MPD2    H310429   2.744   1.031  16.224 -0.8875  0.7016 -2.3039
  705MPD2     N10430   2.548   1.337  16.477  0.1196  0.0730 -0.3588
  705MPD2    H510431   2.467   1.276  16.474 -1.1243  1.7411 -0.3849
  705MPD2    N110432   2.955   1.429  16.223 -0.2639  0.5139 -0.1345
  705MPD2    H710433   2.979   1.506  16.284 -0.0093  1.8464 -1.9153
  706TMC3    C110434   3.304   1.592  15.963  0.2848  0.0616  0.3566
  706TMC3    C210435   3.332   1.691  16.053 -0.0715 -0.8117 -0.6762
  706TMC3    C310436   3.251   1.704  16.168 -0.3622  0.2379 -0.2440
  706TMC3    C410437   3.204   1.504  15.984 -0.1189  0.0600 -0.3538
  706TMC3    C510438   3.126   1.522  16.092  0.6450 -0.1137 -0.1913
  706TMC3    C610439   3.151   1.616  16.188 -0.0323  0.4969  0.1797
  706TMC3     C10440   3.415   1.542  15.885 -0.4569 -0.2818  0.7219
  706TMC3     O10441   3.531   1.562  15.917  0.1125 -0.2088  0.1663
  706TMC3     H10442   3.420   1.753  16.035 -0.0143 -0.6939  0.0140
  706TMC3    H110443   3.192   1.413  15.926 -4.4892 -0.2110  0.9814
  706TMC3    H210444   3.075   1.647  16.259 -0.6966 -1.2056  0.2145
  706TMC3    C710445   3.025   1.423  16.108 -0.2778 -0.0413  0.2428
  706TMC3    C810446   3.226   1.840  16.190  0.7507 -0.7122  0.1175
  706TMC3    O110447   3.010   1.338  16.023 -0.4894  0.0431  0.2910
  706TMC3    O210448   3.258   1.917  16.102  0.4197  0.1327 -0.0408
  707TMC3    C110449   0.153   1.399   1.346 -0.3769 -0.0396  0.8125
  707TMC3    C210450   0.195   1.389   1.481 -0.6306  0.2253 -0.0487
  707TMC3    C310451   0.092   1.364   1.567 -0.3412  0.0163 -0.2400
  707TMC3    C410452   0.024   1.391   1.305 -0.0435  0.1982  0.3820
  707TMC3    C510453   4.648   1.368   1.401 -0.0023  0.4089  0.2191
  707TMC3    C610454   4.679   1.360   1.532  0.2901 -0.0913 -0.6898
  707TMC3     C10455   0.258   1.397   1.253  0.0621 -0.2059  0.5630
  707TMC3     O10456   0.348   1.318   1.280  0.3299  0.3661 -0.2492
  707TMC3     H10457   0.297   1.407   1.512 -0.7061 -1.2802  1.0768
  707TMC3    H110458   4.720   1.389   1.200  1.1738 -0.2630  0.1066
  707TMC3    H210459   4.593   1.359   1.598  0.3080  0.0423 -0.6645
  707TMC3    C710460   4.513   1.391   1.360 -0.3210 -0.3377  0.2372
  707TMC3    C810461   0.118   1.312   1.694  0.0907  0.3601  0.1099
  707TMC3    O110462   4.503   1.479   1.274 -0.3469  0.2651 -0.0786
  707TMC3    O210463   0.034   1.349   1.773 -0.2112 -0.2966 -0.6955
  708MPD2     C10464   1.314   4.653  14.049  0.3551 -0.8292  0.6265
  708MPD2    C110465   1.318   0.065  14.001 -0.5055 -0.0055  1.1093
  708MPD2    C210466   1.266   0.164  14.069 -0.6634 -0.3533  0.1593
  708MPD2    C310467   1.210   0.144  14.198  0.3534  0.2589  0.2398
  708MPD2    C410468   1.209   0.012  14.242  0.8341 -0.2620 -0.6063
  708MPD2    C510469   1.255   4.625  14.167 -0.3983  0.6890 -0.3969
  708MPD2     H10470   1.255   0.263  14.026  2.4767 -1.3345 -2.8929
  708MPD2    H110471   1.173   4.711  14.342 -1.2000 -0.6654 -1.4231
  708MPD2    H210472   1.368   4.573  14.000  0.2764 -1.4871  1.6169
  708MPD2    H310473   1.257   4.525  14.211 -0.7666  0.7238 -0.2992
  708MPD2     N10474   1.142   0.257  14.253 -0.9103 -0.0516  0.1059
  708MPD2    H510475   1.140   0.345  14.202  0.3960  0.2332  0.5692
  708MPD2    N110476   1.393   0.089  13.885  0.2432 -0.1292  0.6715
  708MPD2    H710477   1.433   0.015  13.829  1.3123 -0.4126  1.8208
  709TMC3    C110478   1.480   0.218  13.698 -0.0705 -0.3890 -0.2596
  709TMC3    C210479   1.426   0.115  13.619 -0.4491  0.4351 -0.7039
  709TMC3    C310480   1.365   0.150  13.502 -0.5697  0.0281 -0.2247
  709TMC3    C410481   1.485   0.346  13.649  0.5911 -0.2674  0.0055
  709TMC3    C510482   1.421   0.377  13.533 -0.4837  0.0295  0.1284
  709TMC3    C610483   1.357   0.281  13.459 -0.1247 -0.3412  0.0015
  709TMC3     C10484   1.433   0.216  13.834 -0.5344 -0.1063  0.2884
  709TMC3     O10485   1.422   0.328  13.889 -0.0522 -0.2604  0.2376
  709TMC3     H10486   1.429   0.010  13.643 -1.2840 -0.0494 -2.7350
  709TMC3    H110487   1.535   0.430  13.697 -1.9438 -0.3178  2.6930
  709TMC3    H210488   1.305   0.318  13.371 -0.8963 -0.3978  0.4322
  709TMC3    C710489   1.350   0.500  13.552 -0.0191 -1.0005  0.0315
  709TMC3    C810490   1.310   0.040  13.421 -0.3144  0.8448 -0.5640
  709TMC3    O110491   1.293   0.547  13.454  0.1804  0.3524  0.0931
  709TMC3    O210492   1.337   4.642  13.439 -0.2979  0.2622  0.3314
  710TMC3    C110493   2.385   2.104   0.674  0.7098  0.5629  0.4373
  710TMC3    C210494   2.456   2.070   0.567  0.0215 -0.1588  0.4884
  710TMC3    C310495   2.575   2.016   0.589 -0.5978  0.4406 -0.0683
  710TMC3    C410496   2.438   2.101   0.802  0.0615  0.2485  0.4050
  710TMC3    C510497   2.567   2.059   0.822  0.3635 -0.0654 -0.4235
  710TMC3    C610498   2.629   2.004   0.718 -0.5638 -0.3749  0.7831
  710TMC3     C10499   2.248   2.144   0.661  0.7245 -0.8999 -0.4834
  710TMC3     O10500   2.197   2.124   0.551  0.2469 -0.1156  0.0267
  710TMC3     H10501   2.395   2.056   0.478  2.2216 -2.7938 -0.6095
  710TMC3    H110502   2.375   2.128   0.886  1.2208 -0.9671  1.6508
  710TMC3    H210503   2.727   1.961   0.734 -0.3690 -0.4119 -0.4556
  710TMC3    C710504   2.608   2.035   0.960 -0.4553 -0.0947  0.3779
  710TMC3    C810505   2.633   1.944   0.475 -0.5071  0.3175 -0.0446
  710TMC3    O110506   2.516   2.026   1.041  0.4138 -0.1466 -0.2028
  710TMC3    O210507   2.725   1.873   0.506  0.1839  0.2624 -0.5888
  711TMC3    C110508   1.913   2.718  15.105  0.3293 -0.2949 -0.0058
  711TMC3    C210509   1.943   2.784  15.222 -0.6792  0.2758  0.0277
  711TMC3    C310510   2.061   2.750  15.289  0.0159 -0.0564 -0.4796
  711TMC3    C410511   1.998   2.623  15.059 -0.2069 -0.3820  0.6290
  711TMC3    C510512   2.125   2.614  15.106  0.1550  0.4205 -0.3225
  711TMC3    C610513   2.152   2.675  15.223 -0.0420  0.1858  0.3349
  711TMC3     C10514   1.785   2.737  15.049 -0.1741  0.4225 -0.2992
  711TMC3     O10515   1.765   2.666  14.951  0.3507 -0.2908 -0.0448
  711TMC3     H10516   1.876   2.846  15.280 -0.8499 -0.9080  1.1060
  711TMC3    H110517   1.966   2.563  14.974 -1.2229  1.2273 -0.1451
  711TMC3    H210518   2.253   2.663  15.263  0.1840  2.4726  0.4812
  711TMC3    C710519   2.210   2.497  15.078 -0.6011 -0.1937 -0.1822
  711TMC3    C810520   2.070   2.763  15.436 -0.2028  0.1246 -0.1041
  711TMC3    O110521   2.313   2.489  15.137  0.0667  0.1469  0.0399
  711TMC3    O210522   1.967   2.780  15.498 -0.1175  0.1018  0.7953
  712MPD2     C10523   3.185   3.628  13.544  0.7526  0.2192 -0.0784
  712MPD2    C110524   3.100   3.740  13.544  0.4833 -0.2857 -0.1421
  712MPD2    C210525   3.148   3.862  13.593  0.5615 -1.2656  0.1142
  712MPD2    C310526   3.280   3.873  13.635 -0.0210  0.2011  0.4395
  712MPD2    C410527   3.355   3.759  13.643 -0.6522  0.2249 -0.3140
  712MPD2    C510528   3.310   3.637  13.598 -0.6954 -0.2010 -0.6405
  712MPD2     H10529   3.087   3.952  13.589 -0.5258 -1.9052  1.8843
  712MPD2    H110530   3.455   3.766  13.683 -1.8588  1.4849  2.4715
  712MPD2    H210531   3.146   3.530  13.517  0.4686  0.4654 -0.5526
  712MPD2    H310532   3.368   3.546  13.596  0.6117  0.6438 -1.0752
  712MPD2     N10533   3.352   3.996  13.655 -0.0917 -0.4327  0.0910
  712MPD2    H510534   3.450   3.986  13.678 -0.6524 -2.5305  1.5706
  712MPD2    N110535   2.972   3.736  13.492 -0.3909 -0.4311 -0.5795
  712MPD2    H710536   2.905   3.808  13.517  0.8450  1.0381 -1.5076
  713TMC3    C110537   3.400   4.219  13.647 -0.7704 -0.6459 -0.2261
  713TMC3    C210538   3.521   4.188  13.588  0.3397 -0.2647 -0.8805
  713TMC3    C310539   3.605   4.293  13.570 -0.6763  0.0582 -0.3223
  713TMC3    C410540   3.364   4.336  13.694  0.1988  0.3808 -0.5153
  713TMC3    C510541   3.454   4.440  13.676 -0.0560 -0.2227 -0.2461
  713TMC3    C610542   3.576   4.421  13.617 -0.5153 -0.5537 -0.1811
  713TMC3     C10543   3.298   4.120  13.640 -0.0927  0.4985  0.3034
  713TMC3     O10544   3.185   4.147  13.603  0.1640  0.5620  0.2082
  713TMC3     H10545   3.522   4.099  13.526 -2.1714  1.3050 -3.1636
  713TMC3    H110546   3.257   4.343  13.710  0.5700  0.2171  2.0131
  713TMC3    H210547   3.636   4.503  13.581 -3.2732  1.2495 -0.6659
  713TMC3    C710548   3.407   4.576  13.694  0.9826 -0.4134 -0.0719
  713TMC3    C810549   3.707   4.286  13.464 -0.3465 -0.4214 -0.0153
  713TMC3    O110550   3.492   4.666  13.706 -0.3928  0.4662  0.1155
  713TMC3    O210551   3.760   4.391  13.430 -0.3094 -0.6349  0.0546
  714MPD2     C10552   0.569   2.644   1.537  0.2784  1.1712  0.2381
  714MPD2    C110553   0.643   2.587   1.434  0.3137  0.3983  0.3724
  714MPD2    C210554   0.636   2.633   1.307 -0.0340  0.0270  0.9664
  714MPD2    C310555   0.560   2.743   1.277 -0.4776 -0.0801 -0.1957
  714MPD2    C410556   0.481   2.806   1.374 -1.0490  0.6895  0.0127
  714MPD2    C510557   0.498   2.757   1.499  0.1241  0.3337 -0.1257
  714MPD2     H10558   0.683   2.578   1.226 -1.0465  0.7475 -0.1137
  714MPD2    H110559   0.422   2.896   1.361 -0.2158  1.3823  1.0897
  714MPD2    H210560   0.573   2.615   1.641  1.0622 -2.1130 -0.6983
  714MPD2    H310561   0.439   2.803   1.578  1.1870  1.5675 -0.0559
  714MPD2     N10562   0.560   2.789   1.139  0.0612 -0.1838 -0.3635
  714MPD2    H510563   0.614   2.731   1.077 -1.0520  1.5243 -2.9218
  714MPD2    N110564   0.737   2.490   1.470 -0.0897  0.2599  0.1979
  714MPD2    H710565   0.760   2.476   1.568  0.6531 -2.0468 -0.2954
  715TMC3    C110566   0.921   2.341   1.437 -0.8545  0.5291  0.8897
  715TMC3    C210567   0.995   2.283   1.337  0.6922 -0.5177 -0.1673
  715TMC3    C310568   1.124   2.259   1.356 -0.0720 -0.8555 -0.4560
  715TMC3    C410569   0.984   2.394   1.543 -0.6155 -0.9695  0.1384
  715TMC3    C510570   1.118   2.372   1.553 -0.3350 -0.3454 -0.1453
  715TMC3    C610571   1.196   2.306   1.462 -0.0163 -0.3128  0.0833
  715TMC3     C10572   0.793   2.395   1.386  0.4228  0.7111  0.1092
  715TMC3     O10573   0.757   2.356   1.278 -0.1700 -0.6979  0.3505
  715TMC3     H10574   0.956   2.239   1.246  0.4100 -1.2240  0.2933
  715TMC3    H110575   0.928   2.464   1.604 -3.2869 -1.8787 -1.3121
  715TMC3    H210576   1.298   2.284   1.494 -0.5703 -4.2231 -0.7736
  715TMC3    C710577   1.191   2.438   1.654 -0.2636 -0.1641  0.0761
  715TMC3    C810578   1.189   2.193   1.244  0.5277 -0.0427 -0.2402
  715TMC3    O110579   1.302   2.492   1.637 -0.2857 -0.5052 -0.0399
  715TMC3    O210580   1.126   2.117   1.175  0.1219 -0.1012 -0.2127
  716MPD2     C10581   0.480   0.774   9.819  0.7995 -0.4430 -0.1276
  716MPD2    C110582   0.427   0.776   9.695 -0.3910  0.4061  0.1078
  716MPD2    C210583   0.478   0.688   9.602  0.4352  0.5101  0.2934
  716MPD2    C310584   0.575   0.596   9.626 -0.0097  0.5551 -0.6045
  716MPD2    C410585   0.634   0.599   9.751 -0.1661 -0.4746 -0.1731
  716MPD2    C510586   0.589   0.691   9.843  0.3031  0.3311  0.1504
  716MPD2     H10587   0.435   0.677   9.503  0.8697  4.3552 -0.3067
  716MPD2    H110588   0.714   0.531   9.776  0.5260  0.3265 -0.1844
  716MPD2    H210589   0.440   0.819   9.909  0.3121 -0.6141 -0.2602
  716MPD2    H310590   0.644   0.692   9.936 -2.5406 -0.5927  1.8066
  716MPD2     N10591   0.605   0.506   9.522 -0.2228 -0.4865  0.3906
  716MPD2    H510592   0.545   0.512   9.439  0.0734 -0.2254  0.1962
  716MPD2    N110593   0.324   0.867   9.670  0.7421 -0.0131  0.0043
  716MPD2    H710594   0.275   0.902   9.752 -0.1593  1.0715 -0.9976
  717TMC3    C110595   0.693   0.300   9.422  0.5873  0.2813 -0.0755
  717TMC3    C210596   0.608   0.319   9.315 -0.5165  0.3382 -0.3647
  717TMC3    C310597   0.598   0.209   9.226  0.0141 -0.3232  0.1693
  717TMC3    C410598   0.783   0.197   9.428 -0.2931  0.0055  0.4998
  717TMC3    C510599   0.772   0.095   9.341 -0.4015 -0.1622 -0.1787
  717TMC3    C610600   0.681   0.097   9.238  0.2436 -0.4302 -0.2594
  717TMC3     C10601   0.694   0.398   9.536 -0.4180 -0.3527  0.0561
  717TMC3     O10602   0.770   0.373   9.628 -0.4341  0.3972  0.0385
  717TMC3     H10603   0.548   0.409   9.304 -1.0200  0.2671  1.8552
  717TMC3    H110604   0.833   0.182   9.523 -1.2680  1.5600  1.2707
  717TMC3    H210605   0.673   0.014   9.168  0.3292 -0.6256 -0.0365
  717TMC3    C710606   0.894   0.030   9.308 -0.3786 -0.1168  0.1875
  717TMC3    C810607   0.464   0.202   9.176  0.2436  0.6208 -0.2427
  717TMC3    O110608   0.885   4.667   9.217 -0.2665 -0.1756 -0.2492
  717TMC3    O210609   0.398   0.305   9.192  0.5039 -0.3117 -0.0411
  718MPD2     C10610   0.305   3.907  12.552 -0.4761 -1.0619 -0.6948
  718MPD2    C110611   0.272   3.963  12.427 -0.4614  0.3936 -0.0065
  718MPD2    C210612   0.141   3.981  12.397  0.1619  0.4493 -0.2784
  718MPD2    C310613   0.040   3.959  12.492  0.3558 -0.1768 -0.7913
  718MPD2    C410614   0.074   3.918  12.617  0.6124 -0.1450  0.2611
  718MPD2    C510615   0.205   3.897  12.646  0.2768  0.1505  0.5244
  718MPD2     H10616   0.107   4.018  12.301 -0.9241 -1.5901 -0.6706
  718MPD2    H110617   0.009   3.903  12.702  2.8541 -0.8884  1.8631
  718MPD2    H210618   0.407   3.892  12.584 -0.5437  2.1132  1.0199
  718MPD2    H310619   0.228   3.852  12.742  0.7562  0.7799  0.7078
  718MPD2     N10620   4.629   3.990  12.457  0.2916 -0.0494 -0.0250
  718MPD2    H510621   4.607   4.031  12.366 -0.6508 -0.7871 -0.1250
  718MPD2    N110622   0.365   4.005  12.328 -0.6685  0.0414  0.6790
  718MPD2    H710623   0.315   4.028  12.243 -1.4032  3.8571  2.1248
  719TMC3    C110624   0.553   4.099  12.242  0.2901  0.0751 -0.1491
  719TMC3    C210625   0.457   4.126  12.147 -0.7718  0.5434 -0.9438
  719TMC3    C310626   0.424   4.253  12.114 -0.2427  0.2267  0.3773
  719TMC3    C410627   0.642   4.199  12.286 -0.3718 -0.3096  0.4315
  719TMC3    C510628   0.607   4.327  12.247  0.0224  0.1949  0.1268
  719TMC3    C610629   0.500   4.356  12.163  0.2530  1.1521  0.2600
  719TMC3     C10630   0.497   4.024  12.349 -0.0637 -0.4800  0.1688
  719TMC3     O10631   0.566   3.992  12.448 -0.4649 -0.4018  0.0619
  719TMC3     H10632   0.407   4.050  12.088 -1.8940  1.5728 -1.3400
  719TMC3    H110633   0.732   4.179  12.343  1.4706  3.4060 -1.1128
  719TMC3    H210634   0.492   4.459  12.128  1.5564  1.6045  1.2993
  719TMC3    C710635   0.708   4.420  12.260  0.4039  0.4146  0.8327
  719TMC3    C810636   0.280   4.270  12.091  0.8519 -0.7160  0.2217
  719TMC3    O110637   0.818   4.380  12.227  0.5257  0.3925 -0.0545
  719TMC3    O210638   0.211   4.171  12.110 -0.1061  0.3492  0.0519
  720MPD2     C10639   3.119   0.936  13.908 -0.0711  0.2173  0.1453
  720MPD2    C110640   3.210   0.921  13.803  0.2039  0.2271 -0.1822
  720MPD2    C210641   3.349   0.900  13.829  0.4713  0.6834 -0.5331
  720MPD2    C310642   3.398   0.919  13.955  0.2178 -0.0159  1.2341
  720MPD2    C410643   3.306   0.938  14.061 -0.2083  0.3250 -0.2299
  720MPD2    C510644   3.172   0.942  14.037 -0.4365 -0.0790 -0.1040
  720MPD2     H10645   3.417   0.879  13.748  0.0706 -0.3425 -0.6106
  720MPD2    H110646   3.344   0.942  14.162 -0.7086  1.0978 -0.0735
  720MPD2    H210647   3.012   0.952  13.901 -0.2526 -0.5602  1.0716
  720MPD2    H310648   3.110   0.938  14.126 -0.1221  0.8697  0.1571
  720MPD2     N10649   3.540   0.903  13.978 -0.0026 -0.6453  0.2979
  720MPD2    H510650   3.600   0.883  13.898 -2.5956 -2.8512 -1.0832
  720MPD2    N110651   3.174   0.928  13.665  0.1473  0.2472  0.2790
  720MPD2    H710652   3.249   0.907  13.600  1.5250  1.6148  1.4637
  721TMC3    C110653   3.746   0.896  14.087 -0.4741  0.8848  0.0258
  721TMC3    C210654   3.817   0.883  14.198 -0.1324 -0.1844  0.1187
  721TMC3    C310655   3.954   0.875  14.195 -0.0768  0.5631 -0.0261
  721TMC3    C410656   3.822   0.923  13.971  0.6373  0.6461 -0.5105
  721TMC3    C510657   3.963   0.923  13.973  0.4210  0.3165  0.5859
  721TMC3    C610658   4.032   0.895  14.083 -0.1640  0.8987 -0.1571
  721TMC3     C10659   3.604   0.917  14.103  0.0216 -0.6790 -0.2930
  721TMC3     O10660   3.558   0.923  14.220 -0.1560  0.1950  0.0730
  721TMC3     H10661   3.757   0.863  14.286 -1.0188  2.6121  0.1317
  721TMC3    H110662   3.771   0.933  13.876  0.5754  2.3834 -0.3013
  721TMC3    H210663   4.140   0.892  14.089 -0.1423  0.3502 -0.8031
  721TMC3    C710664   4.038   0.977  13.860 -0.1097  0.0117  0.5667
  721TMC3    C810665   4.029   0.879  14.318  0.5574 -0.3066 -0.1677
  721TMC3    O110666   4.158   0.997  13.881 -0.1077  0.0781 -0.1562
  721TMC3    O210667   4.147   0.914  14.319  0.5641  0.4034  0.3881
  722MPD2     C10668   2.405   4.227  13.256 -0.5748 -0.4317  0.0769
  722MPD2    C110669   2.348   4.344  13.201  0.0140  0.3705 -0.8095
  722MPD2    C210670   2.212   4.347  13.164 -0.6997  0.1759 -0.4252
  722MPD2    C310671   2.133   4.235  13.193 -0.0951 -0.4056  0.6422
  722MPD2    C410672   2.190   4.118  13.238 -0.3158 -0.5561 -0.1850
  722MPD2    C510673   2.325   4.123  13.276 -0.1865  0.5400 -0.8338
  722MPD2     H10674   2.168   4.439  13.126 -1.1421 -1.1416 -3.0865
  722MPD2    H110675   2.139   4.023  13.246 -0.8577 -0.1409  1.1980
  722MPD2    H210676   2.506   4.208  13.289 -0.5087 -0.7809 -0.3391
  722MPD2    H310677   2.359   4.038  13.336 -2.2511  0.7051  0.5553
  722MPD2     N10678   1.997   4.246  13.153  0.5513  0.9617 -1.1388
  722MPD2    H510679   1.957   4.335  13.126 -1.0202  0.4106 -0.6461
  722MPD2    N110680   2.424   4.460  13.183  0.2049  0.3754 -0.4864
  722MPD2    H710681   2.384   4.529  13.120 -0.5085 -0.8856 -1.4218
  723TMC3    C110682   1.771   4.177  13.128  0.0477 -0.6237  0.0528
  723TMC3    C210683   1.684   4.069  13.119  0.2396  0.3368  0.6212
  723TMC3    C310684   1.546   4.095  13.136  0.8581 -0.0214 -0.5107
  723TMC3    C410685   1.729   4.305  13.159  0.1408  0.4090 -0.2890
  723TMC3    C510686   1.590   4.324  13.163  0.2316 -0.4271 -0.7292
  723TMC3    C610687   1.496   4.220  13.157 -0.1611  0.0885 -1.1597
  723TMC3     C10688   1.910   4.139  13.150 -0.0867 -0.0536  0.4113
  723TMC3     O10689   1.940   4.022  13.152 -0.2129  0.3447  0.1759
  723TMC3     H10690   1.719   3.967  13.126  1.4875  0.7449  0.3123
  723TMC3    H110691   1.786   4.397  13.165  1.0680 -0.0885 -1.2849
  723TMC3    H210692   1.392   4.248  13.150 -1.0065 -2.5551  1.0019
  723TMC3    C710693   1.545   4.452  13.126  0.2088  0.5820 -0.3768
  723TMC3    C810694   1.448   3.994  13.101 -0.5519 -0.8870  0.4696
  723TMC3    O110695   1.603   4.546  13.180 -0.0757  0.5429  0.3696
  723TMC3    O210696   1.333   4.017  13.131 -0.7001 -0.5619  0.3389
  724TMC3    C110697   0.683   3.191   9.453  0.2428 -0.1050 -0.2940
  724TMC3    C210698   0.683   3.295   9.362  0.1630 -0.0137  0.5397
  724TMC3    C310699   0.786   3.385   9.367  0.1388 -0.0546  0.5262
  724TMC3    C410700   0.786   3.162   9.538  0.0231  0.5275  0.2395
  724TMC3    C510701   0.890   3.255   9.529  0.0171 -0.0900 -0.4183
  724TMC3    C610702   0.893   3.369   9.459  0.3299  0.0742 -0.1302
  724TMC3     C10703   0.569   3.108   9.450  0.2842  0.6607 -0.2061
  724TMC3     O10704   0.494   3.128   9.355 -0.0008 -0.1950  0.1412
  724TMC3     H10705   0.585   3.336   9.339  0.1189 -0.3485  0.1362
  724TMC3    H110706   0.782   3.073   9.600 -2.4104 -0.2333 -0.9876
  724TMC3    H210707   0.975   3.440   9.465 -0.8146  1.4397 -0.6662
  724TMC3    C710708   1.016   3.229   9.599 -0.5283  0.5878  0.2333
  724TMC3    C810709   0.758   3.518   9.305  0.3612  0.0021  0.1746
  724TMC3    O110710   1.111   3.305   9.570  0.0832 -0.0216 -0.0309
  724TMC3    O210711   0.646   3.547   9.268  0.0296 -0.0153 -0.1558
  725TMC3    C110712   4.045   1.472  13.074 -0.3427  0.5315 -0.6826
  725TMC3    C210713   3.917   1.506  13.092 -0.1074  0.1033 -0.7975
  725TMC3    C310714   3.829   1.416  13.136 -0.0135 -0.0746 -0.0452
  725TMC3    C410715   4.091   1.349  13.079  0.1765 -0.4404  0.7626
  725TMC3    C510716   4.001   1.253  13.123 -0.0841 -0.5897  0.5892
  725TMC3    C610717   3.875   1.289  13.158 -0.6508 -0.2533  0.3436
  725TMC3     C10718   4.133   1.581  13.035  0.2855  0.1470 -0.2177
  725TMC3     O10719   4.113   1.678  13.104 -0.6440 -0.2926 -0.2151
  725TMC3     H10720   3.884   1.609  13.095  0.1561  0.1993 -1.1920
  725TMC3    H110721   4.188   1.315  13.045  0.2834  1.4013 -0.7526
  725TMC3    H210722   3.815   1.217  13.212 -1.1078 -1.3507 -1.6363
  725TMC3    C710723   3.997   1.146  13.025 -0.5280  0.7480 -0.6260
  725TMC3    C810724   3.725   1.399  13.044  0.2035 -1.1178 -0.0012
  725TMC3    O110725   4.094   1.122  12.955  0.4635  0.1391 -0.0160
  725TMC3    O210726   3.672   1.290  13.054 -1.0539 -0.1368  0.6922
  726MPD2     C10727   1.650   2.723  10.501  0.3321  0.3721 -1.0134
  726MPD2    C110728   1.652   2.817  10.604 -0.2629 -0.7414 -0.7243
  726MPD2    C210729   1.533   2.847  10.666 -0.3203 -0.1364 -0.0057
  726MPD2    C310730   1.412   2.793  10.630  0.1304  0.4545 -0.7427
  726MPD2    C410731   1.410   2.713  10.518 -0.3807  0.3935 -0.2940
  726MPD2    C510732   1.529   2.670  10.452 -0.3954  0.0147 -0.6127
  726MPD2     H10733   1.540   2.908  10.755 -3.4762 -0.0714  0.1774
  726MPD2    H110734   1.315   2.680  10.476 -0.7688  0.9984  0.1081
  726MPD2    H210735   1.731   2.690  10.438  2.1130 -1.4206  2.2670
  726MPD2    H310736   1.531   2.603  10.367 -0.1298  0.0968 -0.6733
  726MPD2     N10737   1.290   2.815  10.699  0.2058  0.3863  0.9258
  726MPD2    H510738   1.200   2.774  10.676  1.4793 -0.7675 -2.0003
  726MPD2    N110739   1.771   2.883  10.650 -0.6115  0.0265  0.1210
  726MPD2    H710740   1.754   2.964  10.710  1.0772  0.3553  0.1766
  727TMC3    C110741   1.991   2.959  10.626 -0.0552 -0.6384  0.1254
  727TMC3    C210742   2.120   2.932  10.664 -0.2303  0.0942  0.8549
  727TMC3    C310743   2.209   3.032  10.656 -0.3057 -0.3389 -0.0329
  727TMC3    C410744   1.956   3.083  10.575  0.5530  0.0276 -0.9912
  727TMC3    C510745   2.055   3.177  10.572 -0.1581  0.8275 -0.2657
  727TMC3    C610746   2.179   3.161  10.618 -0.9060  0.2499 -0.1158
  727TMC3     C10747   1.900   2.844  10.616  0.2614  0.2614 -0.4139
  727TMC3     O10748   1.935   2.729  10.585 -0.0735  0.4833  0.1502
  727TMC3     H10749   2.151   2.829  10.678 -1.6039 -0.4339 -0.0740
  727TMC3    H110750   1.855   3.115  10.551 -0.0104 -3.2909 -3.1088
  727TMC3    H210751   2.257   3.236  10.627  0.3511 -1.0240 -0.2656
  727TMC3    C710752   2.023   3.304  10.503  0.2498  0.3304  0.3231
  727TMC3    C810753   2.333   3.031  10.735  0.8331 -0.5142  0.4045
  727TMC3    O110754   1.905   3.332  10.486  0.5316 -0.0087  0.0287
  727TMC3    O210755   2.415   3.117  10.716 -0.2001 -0.5258 -0.0960
  728TMC3    C110756   1.431   1.632  15.237  0.1312  0.9027 -0.0959
  728TMC3    C210757   1.551   1.664  15.178  0.0661  0.3355 -0.2287
  728TMC3    C310758   1.554   1.682  15.040  0.2710  0.4154  0.9040
  728TMC3    C410759   1.310   1.634  15.165  0.4636 -0.7311  0.3641
  728TMC3    C510760   1.319   1.656  15.027  0.2865 -0.4087  0.1896
  728TMC3    C610761   1.443   1.677  14.964 -1.4091  0.1960  0.1868
  728TMC3     C10762   1.431   1.600  15.379 -0.5516 -0.4899  0.2065
  728TMC3     O10763   1.535   1.610  15.442  0.2754  0.5029  1.0686
  728TMC3     H10764   1.632   1.677  15.249  1.2324 -0.7602 -1.3541
  728TMC3    H110765   1.210   1.618  15.204 -1.2150  2.8391 -2.4386
  728TMC3    H210766   1.449   1.679  14.856  0.3237 -1.6033  0.2533
  728TMC3    C710767   1.197   1.686  14.962  0.7100 -0.4225 -0.5200
  728TMC3    C810768   1.679   1.704  14.966 -0.1715 -0.6172  0.1213
  728TMC3    O110769   1.101   1.615  14.970 -0.1886 -0.5966 -0.2927
  728TMC3    O210770   1.658   1.730  14.849 -0.4187 -0.2494 -0.0450
  729MPD2     C10771   3.295   2.365  17.259 -0.0760 -0.1056 -0.2898
  729MPD2    C110772   3.391   2.273  17.217 -0.2713 -0.3917  0.7385
  729MPD2    C210773   3.482   2.234  17.309  0.2059 -0.2739  0.5309
  729MPD2    C310774   3.487   2.274  17.440  0.7059  0.1664  0.6341
  729MPD2    C410775   3.390   2.355  17.472 -0.1160  0.1196 -0.3374
  729MPD2    C510776   3.296   2.403  17.390  0.8256 -0.1699 -0.3103
  729MPD2     H10777   3.565   2.172  17.276  1.6244  2.0191 -0.2433
  729MPD2    H110778   3.386   2.384  17.577 -0.5054 -0.3526 -0.2250
  729MPD2    H210779   3.214   2.404  17.198  0.2602  1.3375  0.1869
  729MPD2    H310780   3.222   2.471  17.430 -2.3020 -4.8242  1.9232
  729MPD2     N10781   3.586   2.240  17.535 -0.2205  0.2540 -0.2336
  729MPD2    H510782   3.579   2.287  17.625  0.3043 -0.9558  0.4460
  729MPD2    N110783   3.392   2.232  17.088 -0.1475  0.2289 -0.3553
  729MPD2    H710784   3.315   2.270  17.034 -1.5811  0.4026  1.8031
  730TMC3    C110785   3.803   2.191  17.604  0.0785 -0.2209 -0.0445
  730TMC3    C210786   3.909   2.145  17.542  0.1820 -0.0592  0.2035
  730TMC3    C310787   4.010   2.221  17.499  0.0146 -0.3664 -0.2166
  730TMC3    C410788   3.803   2.326  17.631 -0.5647  0.4184 -0.7493
  730TMC3    C510789   3.901   2.411  17.587 -0.6387  0.2081  0.4762
  730TMC3    C610790   4.000   2.358  17.509  0.1289 -0.3999  0.0371
  730TMC3     C10791   3.695   2.158  17.514 -0.2883 -0.3582 -0.1199
  730TMC3     O10792   3.713   2.087  17.416  0.2459 -0.1830  0.5975
  730TMC3     H10793   3.906   2.038  17.522 -0.5149 -0.4560  2.4935
  730TMC3    H110794   3.718   2.362   0.002 -0.3465  0.6237 -0.5514
  730TMC3    H210795   4.072   2.425  17.464 -1.8755  1.7957  0.1330
  730TMC3    C710796   3.848   2.547  17.553  0.0032 -0.2474 -0.2101
  730TMC3    C810797   4.091   2.164  17.385 -0.1772  0.0713 -0.4109
  730TMC3    O110798   3.901   2.599  17.461  0.2159  0.6312  0.2535
  730TMC3    O210799   4.080   2.042  17.380 -0.2462 -0.0671 -0.1933
  731MPD2     C10800   3.238   1.247  12.218 -0.6725  0.5629 -0.0889
  731MPD2    C110801   3.188   1.120  12.186  0.4528  0.5348 -0.2493
  731MPD2    C210802   3.183   1.015  12.274  0.3028 -0.2610  0.4008
  731MPD2    C310803   3.228   1.040  12.404  1.0124  0.4448 -0.9770
  731MPD2    C410804   3.277   1.162  12.439 -0.1326  0.8473 -0.1087
  731MPD2    C510805   3.290   1.267  12.344  0.1055 -0.5683  0.0593
  731MPD2     H10806   3.146   0.918  12.244 -0.9585 -0.1576  1.6212
  731MPD2    H110807   3.322   1.178  12.537  0.2897 -1.8402  0.1324
  731MPD2    H210808   3.223   1.328  12.148 -0.0696  1.2215  0.5473
  731MPD2    H310809   3.323   1.360  12.388  2.2023 -0.5802 -1.5188
  731MPD2     N10810   3.229   0.928  12.490 -0.1378  0.3259  0.8172
  731MPD2    H510811   3.192   0.842  12.451 -0.8211  1.7381 -1.5861
  731MPD2    N110812   3.162   1.096  12.049 -0.5867 -0.6907  0.5741
  731MPD2    H710813   3.213   1.165  11.996  0.0707 -2.5941 -1.2678
  732TMC3    C110814   3.131   0.987  11.857  0.5813  0.0808  0.6913
  732TMC3    C210815   3.047   0.915  11.781 -0.5311  0.6028  0.5277
  732TMC3    C310816   3.097   0.873  11.662 -0.3222 -0.1579  0.0087
  732TMC3    C410817   3.264   1.013  11.822  0.1645  0.0876 -0.1626
  732TMC3    C510818   3.297   0.982  11.696  0.2450  0.2473  0.7632
  732TMC3    C610819   3.218   0.909  11.613 -0.3271  0.7991  0.2228
  732TMC3     C10820   3.098   0.993  11.993 -0.3264 -0.0874 -0.1605
  732TMC3     O10821   3.002   0.931  12.030 -0.0244 -0.1734  0.0111
  732TMC3     H10822   2.952   0.884  11.823 -0.6695  0.4351  0.0919
  732TMC3    H110823   3.329   1.073  11.884  1.7714 -1.9192  0.0843
  732TMC3    H210824   3.259   0.864  11.523  0.0077  0.6385  0.4542
  732TMC3    C710825   3.433   0.991  11.654  0.0274 -0.1676 -0.1945
  732TMC3    C810826   3.024   0.778  11.582  0.9086 -0.4266  0.1804
  732TMC3    O110827   3.448   0.998  11.532 -0.0541 -0.0080 -0.2956
  732TMC3    O210828   3.041   0.793  11.463  0.0811  0.2019  0.0997
  733TMC3    C110829   4.186   4.104  12.447 -0.5537 -0.4734  0.0417
  733TMC3    C210830   4.283   4.029  12.515 -0.2393 -0.1858 -0.0082
  733TMC3    C310831   4.413   4.059  12.480  0.5906  0.0692  0.2970
  733TMC3    C410832   4.216   4.195  12.348 -0.4717 -0.1794 -0.1428
  733TMC3    C510833   4.347   4.223  12.322  0.0144 -0.1710 -0.3853
  733TMC3    C610834   4.442   4.166  12.395 -0.3040  0.1350 -0.1140
  733TMC3     C10835   4.043   4.081  12.463 -0.3782  0.0096  0.1607
  733TMC3     O10836   3.968   4.178  12.444 -1.0276 -0.7933 -0.1208
  733TMC3     H10837   4.260   3.963  12.597  0.6685  0.7369  0.9904
  733TMC3    H110838   4.135   4.252  12.304 -1.1611 -2.5682 -1.9369
  733TMC3    H210839   4.545   4.197  12.387 -0.1046 -0.0635  1.8462
  733TMC3    C710840   4.386   4.350  12.262 -0.1407 -0.3106 -0.0814
  733TMC3    C810841   4.518   3.972  12.533 -0.4957  0.3595 -0.0500
  733TMC3    O110842   4.320   4.450  12.276 -0.4038 -0.3106 -0.1833
  733TMC3    O210843   4.489   3.916  12.642  0.3941  0.1368 -0.3896
  734MPD2     C10844   1.716   1.784  12.165  0.4226 -0.1620 -0.5947
  734MPD2    C110845   1.624   1.699  12.115  0.0090 -0.0030  0.0165
  734MPD2    C210846   1.589   1.699  11.984 -0.7887  0.1294  0.2270
  734MPD2    C310847   1.652   1.786  11.901 -0.3632  0.5323 -0.2935
  734MPD2    C410848   1.740   1.884  11.951 -0.1432  0.1765 -0.1994
  734MPD2    C510849   1.768   1.884  12.083 -0.2868  0.2195 -1.1009
  734MPD2     H10850   1.527   1.619  11.947  0.5385  0.2263 -2.1526
  734MPD2    H110851   1.803   1.952  11.895 -0.1201  1.8746  1.9296
  734MPD2    H210852   1.752   1.779  12.267  1.1764 -1.3043 -0.9210
  734MPD2    H310853   1.836   1.962  12.115  0.0986 -0.8823  0.7729
  734MPD2     N10854   1.610   1.791  11.768  1.2865  0.5150 -0.0203
  734MPD2    H510855   1.542   1.720  11.742  1.0347 -0.0503  2.1100
  734MPD2    N110856   1.562   1.611  12.214  0.2218  0.0001  0.6513
  734MPD2    H710857   1.611   1.597  12.302  1.1996 -0.3948  0.0431
  735TMC3    C110858   1.409   1.440  12.272 -0.2725  0.0609  0.0338
  735TMC3    C210859   1.276   1.408  12.260 -0.0420 -0.0735  0.1803
  735TMC3    C310860   1.242   1.277  12.233 -0.3575 -0.3270  0.0748
  735TMC3    C410861   1.504   1.342  12.286 -0.4316 -0.5878  0.2930
  735TMC3    C510862   1.466   1.212  12.276 -0.0097  0.3772  0.3594
  735TMC3    C610863   1.333   1.173  12.247  0.8623 -0.0158  0.2603
  735TMC3     C10864   1.449   1.540  12.185 -0.1670  0.3463 -0.4175
  735TMC3     O10865   1.366   1.556  12.097  0.4048  1.0781 -0.1855
  735TMC3     H10866   1.201   1.487  12.257 -2.3804 -2.3317 -1.0396
  735TMC3    H110867   1.609   1.370  12.289 -0.5686 -0.3236  2.1759
  735TMC3    H210868   1.308   1.073  12.213  3.6566 -1.5712  2.8110
  735TMC3    C710869   1.568   1.129  12.217  0.0078 -0.7488 -0.1559
  735TMC3    C810870   1.159   1.263  12.115  0.0832 -0.0065  0.3070
  735TMC3    O110871   1.651   1.177  12.141  0.3901  0.3911 -0.3253
  735TMC3    O210872   1.116   1.157  12.077 -0.2096  0.0655 -0.2342
  736MPD2     C10873   1.592   0.760  12.248  0.1715  0.3643 -0.2431
  736MPD2    C110874   1.630   0.888  12.203  0.2208 -0.2981  0.0525
  736MPD2    C210875   1.749   0.898  12.135  0.2176 -0.2675  0.1561
  736MPD2    C310876   1.827   0.785  12.100  0.3759  0.5580  0.2123
  736MPD2    C410877   1.779   0.663  12.141 -0.0584 -1.0291  1.1378
  736MPD2    C510878   1.665   0.650  12.221  0.0394 -0.7720  0.2558
  736MPD2     H10879   1.772   0.996  12.095 -0.1920  0.0637  0.7377
  736MPD2    H110880   1.828   0.572  12.109 -0.1121 -0.1387 -1.4862
  736MPD2    H210881   1.502   0.738  12.305 -1.4350 -0.5400 -3.1485
  736MPD2    H310882   1.630   0.554  12.256 -1.1132 -0.4497 -0.0229
  736MPD2     N10883   1.942   0.785  12.013 -0.6883 -0.0152  0.0030
  736MPD2    H510884   1.979   0.698  11.975 -0.5549 -1.0499  2.4418
  736MPD2    N110885   1.548   0.996  12.239  0.0880 -0.1153 -0.4449
  736MPD2    H710886   1.465   0.968  12.290  0.8353  1.8849  1.9275
  737TMC3    C110887   2.113   0.872  11.876 -0.4807 -0.2412 -0.1613
  737TMC3    C210888   2.172   0.989  11.834  0.4285 -1.4891 -0.6227
  737TMC3    C310889   2.243   0.986  11.717 -0.0202  0.0674  0.8301
  737TMC3    C410890   2.140   0.752  11.814 -0.4433  0.4487 -0.8953
  737TMC3    C510891   2.221   0.753  11.701 -0.1008 -0.7102  0.1036
  737TMC3    C610892   2.263   0.867  11.646 -0.7213  0.3127 -0.5861
  737TMC3     C10893   2.001   0.900  11.971  0.3301  0.2223  0.3903
  737TMC3     O10894   1.969   1.017  11.984  0.3999  0.0723 -0.3050
  737TMC3     H10895   2.137   1.086  11.869  1.2357 -1.9226  1.3503
  737TMC3    H110896   2.105   0.655  11.846  3.1299 -0.4304  0.3898
  737TMC3    H210897   2.315   0.867  11.551 -0.0674  0.8874 -0.2225
  737TMC3    C710898   2.253   0.622  11.639  0.4478 -0.3500 -0.8366
  737TMC3    C810899   2.281   1.119  11.670 -0.0794 -0.3268 -0.1444
  737TMC3    O110900   2.210   0.528  11.696  0.2572 -0.5865  0.0853
  737TMC3    O210901   2.280   1.213  11.745 -0.0116 -0.6335  0.2329
  738MPD2     C10902   2.497   0.147  15.408 -0.2284 -0.2013  0.5806
  738MPD2    C110903   2.516   0.045  15.319 -0.6651  0.5045  0.7578
  738MPD2    C210904   2.626   0.051  15.237 -0.1937 -0.0083  0.1547
  738MPD2    C310905   2.720   0.157  15.245 -0.0809 -0.5214  0.1950
  738MPD2    C410906   2.686   0.272  15.315  0.2086  0.0945 -0.4410
  738MPD2    C510907   2.575   0.264  15.396  0.7377 -0.5846  0.6845
  738MPD2     H10908   2.645   4.685  15.174  0.1650 -0.4773  0.9130
  738MPD2    H110909   2.753   0.358  15.318  0.5811 -0.2487  1.5517
  738MPD2    H210910   2.412   0.152  15.474  0.6686  2.3762  1.5440
  738MPD2    H310911   2.556   0.349  15.460 -1.3918 -1.5633  1.3581
  738MPD2     N10912   2.836   0.155  15.166 -0.2145  0.2024  0.0424
  738MPD2    H510913   2.895   0.237  15.174 -0.4176  0.2853  0.7064
  738MPD2    N110914   2.440   4.646  15.310 -0.1667  0.1209 -0.1437
  738MPD2    H710915   2.460   4.583  15.234 -1.8670 -0.4411 -0.1360
  739TMC3    C110916   3.023   0.054  15.069 -0.5861 -0.2351 -0.2436
  739TMC3    C210917   3.033   0.147  14.964  0.1677  0.2654 -0.1934
  739TMC3    C310918   3.143   0.133  14.890  0.3000  0.1551 -0.5800
  739TMC3    C410919   3.104   4.667  15.081  0.0038  0.4372 -0.1889
  739TMC3    C510920   3.204   4.648  14.987  0.5021  0.6471 -0.1473
  739TMC3    C610921   3.226   0.024  14.896  0.3433  0.1679 -0.9975
  739TMC3     C10922   2.888   0.035  15.118 -0.4098 -0.4582  0.5297
  739TMC3     O10923   2.851   4.639  15.135  0.7233  0.4340  0.3243
  739TMC3     H10924   2.963   0.227  14.943 -0.8454 -0.2586  1.2152
  739TMC3    H110925   3.089   4.588  15.154 -0.2603  1.5922  0.9992
  739TMC3    H210926   3.304   0.006  14.823  0.4128 -1.5060 -0.5013
  739TMC3    C710927   3.298   4.535  15.004  0.8807 -0.6445 -0.3854
  739TMC3    C810928   3.161   0.223  14.776 -0.7389  0.0119 -0.6214
  739TMC3    O110929   3.414   4.561  14.968 -0.0382  0.0979 -0.1491
  739TMC3    O210930   3.074   0.307  14.757  0.2023  0.0662  0.0199
  740TMC3    C110931   3.472   1.316  14.041 -0.3201  0.3479 -0.0791
  740TMC3    C210932   3.582   1.327  14.122  0.1012  0.2120  0.6628
  740TMC3    C310933   3.708   1.288  14.070  0.5432  0.2467 -0.7056
  740TMC3    C410934   3.471   1.263  13.914  0.2003 -0.1873 -0.8985
  740TMC3    C510935   3.591   1.214  13.872 -0.1547 -0.2809  0.2081
  740TMC3    C610936   3.708   1.239  13.939  0.2101 -0.6485 -0.7223
  740TMC3     C10937   3.356   1.388  14.070  0.0752 -0.7421  0.1433
  740TMC3     O10938   3.296   1.434  13.972  0.5698 -0.0787  0.1175
  740TMC3     H10939   3.571   1.369  14.222 -1.0305  0.2693  0.5189
  740TMC3    H110940   3.381   1.234  13.860  0.9099 -1.3377 -1.4556
  740TMC3    H210941   3.792   1.185  13.897 -0.2527  0.0701 -2.5593
  740TMC3    C710942   3.595   1.159  13.736 -0.4374 -0.0552 -0.0951
  740TMC3    C810943   3.817   1.250  14.155 -0.7950  0.0956  0.0849
  740TMC3    O110944   3.668   1.067  13.718  0.1916  0.4266  0.1111
  740TMC3    O210945   3.921   1.198  14.115 -0.0813  0.3424  0.1110
  741TMC3    C110946   1.886   4.343  13.649  0.5901 -0.2770  0.4458
  741TMC3    C210947   1.884   4.384  13.779 -0.1559  0.1055  0.3448
  741TMC3    C310948   1.994   4.451  13.823 -0.3566 -0.3142 -0.4842
  741TMC3    C410949   1.982   4.363  13.562  0.1552 -0.1497 -0.0229
  741TMC3    C510950   2.099   4.426  13.607  0.0828  0.2918 -1.1599
  741TMC3    C610951   2.101   4.472  13.737  0.4801 -0.5654 -0.0192
  741TMC3     C10952   1.774   4.254  13.621  0.1616  1.1096  0.5923
  741TMC3     O10953   1.663   4.295  13.652  0.9580 -0.1921 -0.3759
  741TMC3     H10954   1.800   4.375  13.847 -0.4825  0.8085  0.0297
  741TMC3    H110955   1.970   4.321  13.463 -0.9824  1.6657 -0.6425
  741TMC3    H210956   2.179   4.545  13.754 -0.0571 -0.2575  1.1376
  741TMC3    C710957   2.158   4.522  13.513  0.2253 -0.4555  0.4544
  741TMC3    C810958   1.981   4.547  13.934  0.5044  0.5194  0.1159
  741TMC3    O110959   2.273   4.556  13.536  0.0891 -0.1310  0.7866
  741TMC3    O210960   1.875   4.555  13.993  0.1934 -0.1043  0.3800
  742TMC3    C110961   2.731   4.104  14.973 -0.3097 -0.9028 -0.6482
  742TMC3    C210962   2.766   4.122  14.840 -0.0794 -0.3416 -0.0641
  742TMC3    C310963   2.871   4.054  14.783  0.3146  0.4531  0.0639
  742TMC3    C410964   2.814   4.036  15.056 -0.1712 -0.7974 -0.7479
  742TMC3    C510965   2.913   3.963  15.004  0.0162  0.3743 -0.0589
  742TMC3    C610966   2.946   3.974  14.870  0.9223 -0.0296  0.1995
  742TMC3     C10967   2.587   4.082  14.996 -0.0083  0.6495  0.0522
  742TMC3     O10968   2.556   4.091  15.111  0.0395  0.4415  0.6941
  742TMC3     H10969   2.692   4.159  14.770 -1.3237 -0.4381  1.2121
  742TMC3    H110970   2.780   4.011  15.156  2.2813  1.2500  0.6004
  742TMC3    H210971   3.027   3.910  14.837  0.3777 -1.4993  1.7345
  742TMC3    C710972   2.962   3.851  15.077 -0.4887 -0.2262  0.0897
  742TMC3    C810973   2.839   3.989  14.660 -0.4017 -0.0798  0.2245
  742TMC3    O110974   3.002   3.764  15.005  0.0666 -0.1195 -0.8445
  742TMC3    O210975   2.730   4.001  14.609 -0.5701 -0.1374  0.1774
  743MPD2     C10976   1.133   1.266   2.196 -0.2921  0.0063  0.4848
  743MPD2    C110977   1.183   1.180   2.102 -0.2596 -0.1647  0.5029
  743MPD2    C210978   1.318   1.177   2.077  0.4940  0.3699  0.1569
  743MPD2    C310979   1.406   1.260   2.146 -0.1255 -0.3853  0.6661
  743MPD2    C410980   1.354   1.344   2.242  0.3746 -0.5444  0.0099
  743MPD2    C510981   1.223   1.352   2.264 -0.2599  0.7380  0.1366
  743MPD2     H10982   1.350   1.124   1.989 -0.6512  0.5968 -0.3886
  743MPD2    H110983   1.413   1.400   2.313 -0.1964  0.0814 -0.0076
  743MPD2    H210984   1.025   1.272   2.205 -0.2409 -0.1218  1.1820
  743MPD2    H310985   1.189   1.427   2.334  2.0249  2.3456 -0.4645
  743MPD2     N10986   1.542   1.257   2.116 -0.2305  0.3131 -0.3157
  743MPD2    H510987   1.560   1.194   2.038  1.5492  3.0330 -2.0926
  743MPD2    N110988   1.096   1.097   2.032  0.6968 -0.9745  0.6737
  743MPD2    H710989   1.006   1.082   2.076 -0.6253 -0.1570 -1.7348
  744TMC3    C110990   1.013   0.926   1.898 -0.2627  0.5774  0.3977
  744TMC3    C210991   0.885   0.984   1.905  0.1172  0.2781 -0.3395
  744TMC3    C310992   0.778   0.907   1.860 -0.2560 -0.4376 -0.9871
  744TMC3    C410993   1.031   0.798   1.849 -0.7640  0.3059 -0.0982
  744TMC3    C510994   0.918   0.727   1.814 -0.3605  0.6617  0.3107
  744TMC3    C610995   0.793   0.774   1.817 -0.4679  0.2694  0.4712
  744TMC3     C10996   1.131   0.993   1.950 -0.4373 -0.2420  0.5996
  744TMC3     O10997   1.245   0.955   1.921  0.3233  0.2042  0.3914
  744TMC3     H10998   0.870   1.091   1.911 -0.6033  0.0850  1.2325
  744TMC3    H110999   1.131   0.761   1.829 -0.1952  0.8798  1.6218
  744TMC3    H211000   0.705   0.714   1.795  0.0236  0.2473 -1.3924
  744TMC3    C711001   0.937   0.601   1.742  0.0613  0.2121 -0.3209
  744TMC3    C811002   0.646   0.958   1.840  0.3971 -0.1278  0.5632
  744TMC3    O111003   0.847   0.517   1.766  0.2790 -0.5189 -0.0780
  744TMC3    O211004   0.569   0.896   1.767 -0.0361  0.0938 -0.3092
  745TMC3    C111005   2.790   3.652  13.365 -0.1114  0.6938 -0.0202
  745TMC3    C211006   2.713   3.662  13.471 -0.6307  0.2207  0.3658
  745TMC3    C311007   2.600   3.740  13.464  0.7876  0.6430  0.1520
  745TMC3    C411008   2.763   3.719  13.250  0.4114  0.2930  0.2436
  745TMC3    C511009   2.650   3.800  13.243  0.1926 -0.3779 -0.2631
  745TMC3    C611010   2.568   3.807  13.351 -0.3073 -0.8562  0.4315
  745TMC3     C11011   2.929   3.637  13.401 -0.2799 -0.5168  0.2787
  745TMC3     O11012   3.001   3.576  13.328 -0.4873  0.0034  0.1028
  745TMC3     H11013   2.744   3.605  13.558 -0.7819  0.7707  0.7802
  745TMC3    H111014   2.828   3.712  13.163 -0.2267  0.0701 -0.2140
  745TMC3    H211015   2.473   3.860  13.350 -0.0346 -0.3393  1.9515
  745TMC3    C711016   2.635   3.903  13.142  0.4536 -0.1550  0.4342
  745TMC3    C811017   2.518   3.762  13.586 -0.2787  0.3077  0.7346
  745TMC3    O111018   2.542   3.978  13.169  0.3853  0.0897 -0.2859
  745TMC3    O211019   2.394   3.765  13.580  0.4933  0.0325  0.3767
  746TMC3    C111020   0.671   0.880  10.904 -0.0294 -0.4783 -0.8862
  746TMC3    C211021   0.691   0.851  10.768 -0.9546 -0.2985 -0.3492
  746TMC3    C311022   0.689   0.716  10.733  0.8407 -0.8666  0.7558
  746TMC3    C411023   0.650   0.782  10.998 -0.2644  0.4015  0.9789
  746TMC3    C511024   0.659   0.653  10.961 -0.2062 -0.3472 -0.9019
  746TMC3    C611025   0.682   0.625  10.829 -0.3704  0.9470 -0.3060
  746TMC3     C11026   0.606   1.009  10.926  0.5812 -0.0739  0.4882
  746TMC3     O11027   0.520   1.009  11.013  0.1375  0.5054  0.1444
  746TMC3     H11028   0.717   0.926  10.693 -0.4692  1.0907  1.2178
  746TMC3    H111029   0.640   0.813  11.102 -2.2894  1.4768  0.4642
  746TMC3    H211030   0.669   0.525  10.788  1.9825 -0.5740  2.6744
  746TMC3    C711031   0.559   0.554  11.024 -0.0144  0.2023 -0.2035
  746TMC3    C811032   0.713   0.687  10.594 -0.2648  0.2878 -0.1219
  746TMC3    O111033   0.534   0.458  10.953 -0.6921 -0.3168 -0.0259
  746TMC3    O211034   0.728   0.569  10.569  0.1305  0.1719  0.0674
  747TMC3    C111035   2.618   0.638  10.700 -0.7033  0.0208 -0.2479
  747TMC3    C211036   2.554   0.546  10.782  0.0573  0.0293  0.0879
  747TMC3    C311037   2.619   0.533  10.903 -0.0416 -0.3443 -0.0370
  747TMC3    C411038   2.728   0.714  10.733  0.2948 -0.5498  0.1533
  747TMC3    C511039   2.791   0.692  10.853  0.2248 -0.0280 -0.9278
  747TMC3    C611040   2.736   0.599  10.941  0.4629  0.0167 -0.2498
  747TMC3     C11041   2.525   0.702  10.608  0.8962 -0.3770  0.4675
  747TMC3     O11042   2.469   0.797  10.654 -0.6178  0.5269 -0.5809
  747TMC3     H11043   2.464   0.494  10.753 -0.7967  1.8738 -0.5984
  747TMC3    H111044   2.745   0.792  10.659 -0.7117  1.0052  1.5828
  747TMC3    H211045   2.792   0.570  11.029 -0.4215  0.4327  0.4467
  747TMC3    C711046   2.899   0.782  10.891 -0.4496  0.5023 -0.2496
  747TMC3    C811047   2.562   0.438  10.996 -0.0796  0.3292 -0.4255
  747TMC3    O111048   2.938   0.780  11.005 -0.2088 -0.1797  0.1692
  747TMC3    O211049   2.493   0.346  10.942 -0.3605  0.1001  0.8388
  748MPD2     C11050   4.219   1.734   1.543 -0.0953  0.3818 -0.2635
  748MPD2    C111051   4.299   1.661   1.622 -0.0972 -0.1419 -0.7658
  748MPD2    C211052   4.437   1.681   1.625 -0.0897 -0.3824  0.8198
  748MPD2    C311053   4.493   1.781   1.544  0.1971 -0.2056 -0.1861
  748MPD2    C411054   4.409   1.866   1.477 -0.1315 -1.0642  0.1114
  748MPD2    C511055   4.276   1.834   1.468  0.0916  0.3189  0.0049
  748MPD2     H11056   4.500   1.618   1.686  0.6567  1.0599  1.5181
  748MPD2    H111057   4.450   1.943   1.413  0.6650 -1.9558 -0.4472
  748MPD2    H211058   4.111   1.725   1.537 -0.3008  1.5689  1.9920
  748MPD2    H311059   4.215   1.901   1.409 -1.6426  0.7250  2.2712
  748MPD2     N11060   4.630   1.803   1.527 -0.1351 -0.3840 -0.3550
  748MPD2    H511061   4.653   1.868   1.452  0.5840 -1.1363 -0.7795
  748MPD2    N111062   4.233   1.564   1.698  0.2342 -0.6486  0.5206
  748MPD2    H711063   4.132   1.559   1.696  0.1745 -0.0074  2.6353
  749TMC3    C111064   0.139   1.768   1.541  0.3378 -0.0990 -0.0476
  749TMC3    C211065   0.249   1.733   1.616 -0.9536  0.1619 -0.2609
  749TMC3    C311066   0.372   1.749   1.564  0.0521 -0.0918 -0.0980
  749TMC3    C411067   0.153   1.818   1.411 -0.0063 -0.2446 -0.2582
  749TMC3    C511068   0.287   1.837   1.371 -0.6757  0.0294 -0.5575
  749TMC3    C611069   0.391   1.784   1.435  0.3923  0.1784 -0.2880
  749TMC3     C11070   0.007   1.741   1.597  0.3846  0.0271  0.2161
  749TMC3     O11071   4.715   1.649   1.685 -0.2000  1.0541 -0.5307
  749TMC3     H11072   0.235   1.696   1.717 -0.3635  1.1253  0.1716
  749TMC3    H111073   0.066   1.852   1.358  0.4126  0.9455 -0.1849
  749TMC3    H211074   0.495   1.788   1.405  0.1061 -2.1140 -1.5226
  749TMC3    C711075   0.329   1.905   1.248 -0.5005 -0.5334 -0.2719
  749TMC3    C811076   0.483   1.768   1.652  0.7862  0.0409 -0.2867
  749TMC3    O111077   0.451   1.928   1.247  0.0376 -0.3510  0.6199
  749TMC3    O211078   0.456   1.813   1.763  0.4264 -0.3383 -0.1691
  750MPD2     C11079   0.562   2.484  11.575 -0.2636 -0.1565 -0.4384
  750MPD2    C111080   0.421   2.488  11.573  0.5789  0.0380 -0.7250
  750MPD2    C211081   0.353   2.400  11.478  0.1759  0.1526  0.1447
  750MPD2    C311082   0.428   2.312  11.397 -0.1213 -0.0290 -0.8327
  750MPD2    C411083   0.564   2.326  11.395 -0.3920  0.3521 -0.7058
  750MPD2    C511084   0.629   2.411  11.480 -0.3456 -0.1464  0.2030
  750MPD2     H11085   0.245   2.393  11.473  0.2341  0.5422 -1.9190
  750MPD2    H111086   0.631   2.269  11.332  3.3336  0.8851  2.7931
  750MPD2    H211087   0.625   2.552  11.630 -1.4855  1.0655 -0.5313
  750MPD2    H311088   0.737   2.418  11.466 -0.6322  0.6246 -1.5564
  750MPD2     N11089   0.361   2.224  11.310  0.1687  0.5613  0.1582
  750MPD2    H511090   0.426   2.169  11.255  0.3980  1.1429 -0.1538
  750MPD2    N111091   0.359   2.572  11.662 -0.2929 -0.3383 -0.0264
  750MPD2    H711092   0.419   2.630  11.719 -1.9997  0.2765  1.1659
  751TMC3    C111093   0.205   2.121  11.176  0.2779 -0.0922  0.1062
  751TMC3    C211094   0.086   2.054  11.160  0.4293 -0.1543  0.0985
  751TMC3    C311095   0.077   1.954  11.060 -0.7984  1.6066 -0.0770
  751TMC3    C411096   0.317   2.080  11.097  0.5383  0.4083 -0.1767
  751TMC3    C511097   0.301   1.988  10.997  0.0562  0.0554 -0.2661
  751TMC3    C611098   0.182   1.923  10.983  0.1859  0.4232  0.1822
  751TMC3     C11099   0.228   2.217  11.278  0.5135  0.3598 -0.9175
  751TMC3     O11100   0.138   2.293  11.317 -0.6403  0.0653 -0.1934
  751TMC3     H11101   0.006   2.091  11.224  1.3010  1.7286  0.0875
  751TMC3    H111102   0.404   2.145  11.095  1.6830 -1.0863  0.7796
  751TMC3    H211103   0.162   1.856  10.900 -0.2849  2.1353 -1.1036
  751TMC3    C711104   0.385   1.997  10.877  0.2840 -0.0891 -0.1229
  751TMC3    C811105   4.688   1.864  11.050  0.2458  0.0725  0.1073
  751TMC3    O111106   0.441   2.105  10.848  0.3048  0.1952  0.2141
  751TMC3    O211107   4.679   1.805  10.944 -0.1726  0.2319 -0.5370
  752TMC3    C111108   4.113   1.599  17.431  0.1301 -0.5307 -0.5973
  752TMC3    C211109   4.154   1.484  17.482 -0.0410 -0.1249 -0.1611
  752TMC3    C311110   4.122   1.453  17.615 -0.2558  0.2257  0.4983
  752TMC3    C411111   4.022   1.677  17.505 -0.0430  0.1629 -0.1475
  752TMC3    C511112   3.988   1.641  17.632 -0.5340  0.1050  0.3489
  752TMC3    C611113   4.036   1.531   0.003 -0.2371 -0.1692  0.5247
  752TMC3     C11114   4.139   1.626  17.290 -0.4835  0.1230 -0.3681
  752TMC3     O11115   4.248   1.596  17.244 -0.8455  0.5862  0.4993
  752TMC3     H11116   4.231   1.425  17.433 -2.4253 -2.7592 -0.7204
  752TMC3    H111117   3.985   1.773  17.472 -0.9657 -0.2331 -0.2784
  752TMC3    H211118   4.002   1.506   0.103 -2.3039  2.8342  0.5519
  752TMC3    C711119   3.900   1.736   0.022 -0.0096 -0.0271  0.3346
  752TMC3    C811120   4.182   1.336  17.683 -0.1934 -0.2471 -0.3204
  752TMC3    O111121   3.814   1.797  17.639 -0.0955 -0.1334 -0.3351
  752TMC3    O211122   4.224   1.245  17.611  0.3815 -0.6787 -0.6513
  753TMC3    C111123   1.382   3.546  13.552  0.8485 -0.0985  0.0418
  753TMC3    C211124   1.488   3.506  13.633 -0.2608 -0.1095  0.6227
  753TMC3    C311125   1.510   3.372  13.644 -0.9541 -0.2643 -0.3875
  753TMC3    C411126   1.334   3.464  13.458 -0.5116 -1.4436 -0.3236
  753TMC3    C511127   1.367   3.330  13.463  0.2776  0.7110  0.4377
  753TMC3    C611128   1.456   3.278  13.559 -0.1116 -0.2093 -0.2104
  753TMC3     C11129   1.326   3.677  13.560 -0.9742 -0.1158 -0.0305
  753TMC3     O11130   1.265   3.712  13.461 -0.3369  0.4545  0.9275
  753TMC3     H11131   1.540   3.578  13.694  0.5068  1.1803 -1.5820
  753TMC3    H111132   1.269   3.495  13.378  0.1147  3.7068  1.1658
  753TMC3    H211133   1.465   3.173  13.583 -2.6923 -0.6924 -1.4168
  753TMC3    C711134   1.271   3.243  13.398  0.1576  0.1928 -0.0689
  753TMC3    C811135   1.613   3.325  13.738 -0.0233 -0.0912 -0.8062
  753TMC3    O111136   1.176   3.298  13.344 -0.4010  0.0066 -0.0907
  753TMC3    O211137   1.672   3.225  13.706 -0.3933  0.2980  0.3364
  754MPD2     C11138   0.431   2.663  12.844  0.1511 -0.1169  0.9667
  754MPD2    C111139   0.433   2.529  12.854  0.0699 -0.2503 -0.0169
  754MPD2    C211140   0.308   2.468  12.877 -0.0861  0.2446 -0.7437
  754MPD2    C311141   0.193   2.541  12.911 -0.2980  0.2582 -0.5368
  754MPD2    C411142   0.194   2.675  12.889 -1.0168  0.1829  0.2639
  754MPD2    C511143   0.313   2.728  12.847  0.9243 -0.8232  0.0107
  754MPD2     H11144   0.301   2.360  12.866 -0.6525  0.0679  1.2748
  754MPD2    H111145   0.113   2.736  12.927 -0.5110 -2.0284  4.8725
  754MPD2    H211146   0.523   2.715  12.820  0.1173  0.3582  1.8890
  754MPD2    H311147   0.320   2.836  12.840 -0.3083 -0.7903 -0.6610
  754MPD2     N11148   0.075   2.485  12.958  0.3578  0.2534 -0.6192
  754MPD2    H511149   4.718   2.550  12.944  0.9648  0.9039 -0.9315
  754MPD2    N111150   0.559   2.459  12.821 -0.4104 -0.5904  0.1724
  754MPD2    H711151   0.632   2.523  12.788  0.0075 -1.1996 -0.0789
  755MPD2     C11152   3.901   2.761  13.099 -0.4274 -0.2481 -0.4714
  755MPD2    C111153   3.964   2.726  13.218 -0.3669  0.3773  0.1849
  755MPD2    C211154   4.072   2.632  13.215  0.3081  0.3038 -0.5360
  755MPD2    C311155   4.119   2.587  13.092 -0.0273  0.2045 -0.6651
  755MPD2    C411156   4.053   2.620  12.977  0.5579  0.3838 -0.3896
  755MPD2    C511157   3.944   2.705  12.984 -0.6864  0.8399 -0.0731
  755MPD2     H11158   4.121   2.595  13.305 -2.4380 -2.5425 -0.1933
  755MPD2    H111159   4.096   2.593  12.881  1.0831 -0.1348 -0.0082
  755MPD2    H211160   3.808   2.816  13.097 -1.2024 -1.5124  0.7824
  755MPD2    H311161   3.892   2.723  12.891 -0.2980  1.4763 -0.1677
  755MPD2     N11162   4.236   2.509  13.074 -0.2418 -0.8821  0.0966
  755MPD2    H511163   4.234   2.467  12.982  0.3797 -1.1324  0.2002
  755MPD2    N111164   3.921   2.778  13.342 -0.8145  0.5804 -0.0559
  755MPD2    H711165   3.970   2.744  13.424 -0.0429 -1.8358 -1.5095
  756MPD2     C11166   0.328   3.618   9.861 -0.1659 -0.3256 -0.5201
  756MPD2    C111167   0.252   3.526   9.932 -0.0601  0.9407 -0.2159
  756MPD2    C211168   0.123   3.513   9.899  0.2277  0.3587 -0.1779
  756MPD2    C311169   0.064   3.588   9.792 -1.2820 -0.6480 -0.4537
  756MPD2    C411170   0.135   3.682   9.729  0.7661 -0.2582  0.2884
  756MPD2    C511171   0.267   3.703   9.766 -0.6269  0.7295 -0.1901
  756MPD2     H11172   0.060   3.440   9.948  1.8751 -1.2383 -0.4344
  756MPD2    H111173   0.087   3.736   9.648 -1.2354 -2.0937  0.2387
  756MPD2    H211174   0.434   3.637   9.877 -0.2282  1.1356 -1.8959
  756MPD2    H311175   0.334   3.771   9.714  0.0896  0.4645  0.3844
  756MPD2     N11176   4.651   3.571   9.747  0.4831  0.5680  0.2635
  756MPD2    H511177   4.623   3.637   9.676  1.3261  0.8670  0.1982
  756MPD2    N111178   0.307   3.434  10.035  0.5694  0.4257  0.3065
  756MPD2    H711179   0.253   3.356  10.072  3.2385 -0.7537  1.6961
  757MPD2     C11180   3.777   3.005   9.749 -0.3853 -0.3023  0.9043
  757MPD2    C111181   3.903   2.960   9.763  0.1663 -0.1424  0.4008
  757MPD2    C211182   4.010   3.052   9.780  0.1423  0.6740 -0.2248
  757MPD2    C311183   3.981   3.193   9.772  0.1671  0.2884 -0.0332
  757MPD2    C411184   3.844   3.229   9.778  0.7602  0.1674 -0.8337
  757MPD2    C511185   3.746   3.133   9.770 -0.8566 -0.1889 -0.0091
  757MPD2     H11186   4.114   3.022   9.789  0.4537  2.4716  2.1535
  757MPD2    H111187   3.818   3.334   9.787  1.5259  0.5026 -2.7147
  757MPD2    H211188   3.695   2.938   9.727  0.5246 -0.7519 -1.1630
  757MPD2    H311189   3.642   3.163   9.770 -1.3795 -1.9759  0.1014
  757MPD2     N11190   4.088   3.294   9.768 -0.2790 -0.5549  0.2819
  757MPD2    H511191   4.182   3.262   9.784 -0.7471 -1.1086  1.8776
  757MPD2    N111192   3.912   2.818   9.770 -0.0718 -0.5999  0.3797
  757MPD2    H711193   3.830   2.763   9.747  1.4898 -1.6276 -2.7916
  758MPD2     C11194   0.397   1.633  15.961 -0.1179 -0.0273 -0.3143
  758MPD2    C111195   0.482   1.724  16.015  0.5851 -0.2904  0.3153
  758MPD2    C211196   0.445   1.826  16.098 -0.2846 -0.2042  1.0182
  758MPD2    C311197   0.306   1.844  16.122 -0.1814 -0.0903 -0.4511
  758MPD2    C411198   0.217   1.754  16.069  0.1032  0.6250  0.5793
  758MPD2    C511199   0.264   1.650  15.989 -0.2354  0.2128  0.2923
  758MPD2     H11200   0.520   1.895  16.136  1.0832 -0.7957 -0.5867
  758MPD2    H111201   0.115   1.759  16.104 -0.2709 -1.3188 -0.2333
  758MPD2    H211202   0.427   1.545  15.905 -0.9081 -0.1182 -0.6040
  758MPD2    H311203   0.191   1.581  15.949 -0.6478  0.3253  0.8431
  758MPD2     N11204   0.243   1.941  16.207  0.2143  0.4722 -0.3604
  758MPD2    H511205   0.142   1.931  16.211  0.2067  0.6147 -0.1978
  758MPD2    N111206   0.621   1.702  15.997  0.6897 -0.4427  0.0254
  758MPD2    H711207   0.692   1.739  16.059 -0.3239  1.0588  0.3062
  759MPD2     C11208   3.223   0.604  10.011  0.0183  0.0629 -0.5161
  759MPD2    C111209   3.269   0.650   9.888  0.8887 -0.4074 -1.1358
  759MPD2    C211210   3.381   0.731   9.887  0.5362 -0.0841  0.0053
  759MPD2    C311211   3.449   0.751   9.997 -1.1127 -0.3888 -0.1390
  759MPD2    C411212   3.404   0.703  10.120  0.0429  0.1143 -0.1110
  759MPD2    C511213   3.285   0.632  10.127  0.1962 -0.1752 -0.0694
  759MPD2     H11214   3.413   0.769   9.791 -2.8587  0.6309 -0.8572
  759MPD2    H111215   3.447   0.726  10.217  0.4823 -2.4835  0.2983
  759MPD2    H211216   3.136   0.539  10.017  0.9439 -0.9914  1.3711
  759MPD2    H311217   3.249   0.592  10.221 -1.0003 -4.6184 -2.4643
  759MPD2     N11218   3.569   0.830   9.990 -0.2587  0.4433 -0.1324
  759MPD2    H511219   3.593   0.866   9.898  1.0165  0.7032  0.2945
  759MPD2    N111220   3.199   0.626   9.768 -0.2749 -0.7507  0.8427
  759MPD2    H711221   3.244   0.662   9.685 -0.2876  1.4692  1.7959
  760MPD2     C11222   3.427   2.225  11.899  0.0405 -0.5328 -0.2991
  760MPD2    C111223   3.559   2.261  11.928  0.2166 -0.1150 -0.2479
  760MPD2    C211224   3.641   2.186  12.013  0.5891 -0.5658 -0.1504
  760MPD2    C311225   3.593   2.066  12.065 -0.7100 -0.4780 -0.2051
  760MPD2    C411226   3.461   2.037  12.045 -0.8889  0.4375  0.2084
  760MPD2    C511227   3.387   2.111  11.953 -0.0077 -0.2846 -0.2007
  760MPD2     H11228   3.740   2.223  12.037  0.0435 -0.1199  1.3964
  760MPD2    H111229   3.413   1.952  12.092 -1.2646  0.2435 -0.5429
  760MPD2    H211230   3.360   2.291  11.845  0.0408 -0.1132  0.2195
  760MPD2    H311231   3.280   2.090  11.951 -0.1655  0.2683  1.6270
  760MPD2     N11232   3.673   1.973  12.148 -0.3884  0.5245  0.5113
  760MPD2    H511233   3.625   1.892  12.187 -0.8336  1.7707  2.5364
  760MPD2    N111234   3.618   2.383  11.882 -0.2844  0.1654 -0.5390
  760MPD2    H711235   3.706   2.405  11.927 -0.6285  0.7507 -0.1543
  761MPD2     C11236   4.306   1.591  11.290  0.2479  0.3580  0.5880
  761MPD2    C111237   4.362   1.575  11.163  0.0298  0.0896 -0.5757
  761MPD2    C211238   4.463   1.662  11.124  0.3144  0.4143  0.2803
  761MPD2    C311239   4.519   1.759  11.203  0.5783 -0.1132 -0.1192
  761MPD2    C411240   4.482   1.758  11.333  0.6216  0.1350 -0.1618
  761MPD2    C511241   4.376   1.677  11.376  0.7227 -0.0760 -0.0795
  761MPD2     H11242   4.512   1.649  11.028 -0.1595 -1.8415  0.3361
  761MPD2    H111243   4.534   1.824  11.401  0.3951 -0.1951  0.3278
  761MPD2    H211244   4.229   1.524  11.325 -0.6788  1.4476  0.6319
  761MPD2    H311245   4.343   1.680  11.480 -0.4474  2.5798 -0.5346
  761MPD2     N11246   4.621   1.850  11.168 -0.6408 -0.2696  0.3244
  761MPD2    H511247   4.638   1.916  11.243 -0.3967  1.2061 -1.0450
  761MPD2    N111248   4.308   1.463  11.092 -0.6817 -0.0104 -0.2012
  761MPD2    H711249   4.231   1.411  11.133 -1.2426  1.3624  0.4934
  762MPD2     C11250   0.028   1.562  10.713 -0.3119  0.7835 -0.6207
  762MPD2    C111251   4.720   1.445  10.655 -0.1274  0.6323 -0.1585
  762MPD2    C211252   0.067   1.410  10.535 -0.3303 -0.2286  0.1091
  762MPD2    C311253   0.164   1.492  10.480 -0.0251 -0.9927  0.0757
  762MPD2    C411254   0.187   1.615  10.539  0.0639  1.0934 -0.1087
  762MPD2    C511255   0.116   1.650  10.652  0.0927 -0.5790  0.0587
  762MPD2     H11256   0.045   1.322  10.476 -1.3534  1.3749 -1.8765
  762MPD2    H111257   0.259   1.688  10.503  0.2029  0.5666 -0.8933
  762MPD2    H211258   4.695   1.590  10.803  1.4252  0.6515  0.4505
  762MPD2    H311259   0.121   1.749  10.697  0.6682 -0.0448 -1.1894
  762MPD2     N11260   0.238   1.452  10.359 -0.0288  0.0079  0.6063
  762MPD2    H511261   0.219   1.357  10.329 -2.7117  0.9539 -0.7197
  762MPD2    N111262   4.611   1.371  10.710 -0.6057 -0.1080 -0.3863
  762MPD2    H711263   4.555   1.418  10.779  1.7382 -0.0936  1.5310
  763MPD2     C11264   2.461   1.554  16.051  0.2962 -0.2255 -0.2105
  763MPD2    C111265   2.360   1.654  16.058  0.1649  0.6734 -0.3826
  763MPD2    C211266   2.360   1.747  16.161 -0.5148 -0.2284  0.4558
  763MPD2    C311267   2.455   1.736  16.261 -0.1991 -0.2247  0.5404
  763MPD2    C411268   2.559   1.645  16.244 -0.5531 -1.0069 -0.1785
  763MPD2    C511269   2.565   1.553  16.140  0.1023 -0.2101 -0.3130
  763MPD2     H11270   2.271   1.808  16.155 -0.4485 -0.0305  1.5067
  763MPD2    H111271   2.630   1.633  16.324 -2.2809 -4.4003  0.8853
  763MPD2    H211272   2.462   1.481  15.972 -1.4845  0.3561 -0.7714
  763MPD2    H311273   2.624   1.463  16.149  0.3463 -0.1715 -1.5254
  763MPD2     N11274   2.474   1.821  16.373 -0.1786  0.0649 -0.1640
  763MPD2    H511275   2.558   1.811  16.430 -1.2328  1.3433  1.6318
  763MPD2    N111276   2.269   1.673  15.948  0.0744 -0.5821  0.1768
  763MPD2    H711277   2.219   1.760  15.933  2.6039  0.6703 -0.8665
  764MPD2     C11278   4.698   3.822  17.043 -0.1549 -0.4256 -0.3972
  764MPD2    C111279   4.689   3.691  16.997 -0.0873 -0.2051  0.1242
  764MPD2    C211280   0.017   3.590  17.076 -0.0117  0.7685 -0.1946
  764MPD2    C311281   0.074   3.615  17.196 -0.4640  0.5333  0.3778
  764MPD2    C411282   0.096   3.749  17.233 -0.0277 -0.1714 -0.9611
  764MPD2    C511283   0.048   3.847  17.158  0.6574 -0.2652 -0.4465
  764MPD2     H11284   0.008   3.486  17.046  0.2126  0.9938 -1.0517
  764MPD2    H111285   0.149   3.785  17.321  1.0702  1.3143 -2.2215
  764MPD2    H211286   4.656   3.902  16.984  1.2625  1.7926  1.5842
  764MPD2    H311287   0.053   3.949  17.196 -1.5633 -0.3387  0.0474
  764MPD2     N11288   0.125   3.502  17.268  0.3706 -0.4282 -0.2956
  764MPD2    H511289   0.097   3.408  17.239 -0.0404 -0.1470 -0.8226
  764MPD2    N111290   4.615   3.646  16.886  0.7618  0.9938 -0.1973
  764MPD2    H711291   4.617   3.546  16.869 -0.4734  0.5967  2.0593
  765MPD2     C11292   0.366   1.260  15.171  0.9830  0.8771  0.4441
  765MPD2    C111293   0.363   1.283  15.306  0.5722 -0.7918 -0.0568
  765MPD2    C211294   0.444   1.216  15.397 -0.3764 -0.6406  0.1876
  765MPD2    C311295   0.552   1.147  15.348 -0.3792 -0.0064 -0.1130
  765MPD2    C411296   0.571   1.137  15.211 -0.0948 -0.1783 -0.1145
  765MPD2    C511297   0.476   1.189  15.126 -0.2694  0.3492 -0.9355
  765MPD2     H11298   0.444   1.216  15.505  1.6027 -1.4125  0.1942
  765MPD2    H111299   0.651   1.077  15.168  0.0280 -1.2489  1.5925
  765MPD2    H211300   0.295   1.299  15.098 -0.8643 -1.0106  1.2101
  765MPD2    H311301   0.491   1.180  15.019 -0.1774  0.1493 -0.9065
  765MPD2     N11302   0.634   1.078  15.436  0.1596 -1.2962  0.2809
  765MPD2    H511303   0.606   1.061  15.532  0.6230  0.6612  0.7597
  765MPD2    N111304   0.255   1.366  15.355 -0.0374 -0.1720 -0.2470
  765MPD2    H711305   0.188   1.392  15.283 -0.2000  0.0511 -0.0145
  766MPD2     C11306   4.297   1.424  15.286 -0.0123 -0.4053 -0.3069
  766MPD2    C111307   4.424   1.461  15.261  0.8859  0.1042  0.4002
  766MPD2    C211308   4.466   1.474  15.134 -0.3827  0.2179 -0.2206
  766MPD2    C311309   4.392   1.458  15.023  0.1659  1.1824 -0.0291
  766MPD2    C411310   4.254   1.422  15.054  0.6307  0.0663  0.6713
  766MPD2    C511311   4.219   1.395  15.186  0.1912 -0.6904 -0.2096
  766MPD2     H11312   4.569   1.507  15.121 -0.3166 -0.0349 -0.3326
  766MPD2    H111313   4.177   1.409  14.979  0.6646  1.1118  0.4542
  766MPD2    H211314   4.256   1.402  15.384  2.8534 -0.7350  0.8280
  766MPD2    H311315   4.116   1.363  15.195  0.5772 -1.9062 -0.0868
  766MPD2     N11316   4.433   1.504  14.900 -0.0537 -0.6123  1.3457
  766MPD2    H511317   4.362   1.504  14.828  1.5345 -0.3927 -0.2249
  766MPD2    N111318   4.522   1.490  15.356 -0.7057  0.6577 -1.0143
  766MPD2    H711319   4.616   1.503  15.320 -0.6074  0.7530 -0.7231
  767MPD2     C11320   3.947   1.724  14.975  0.2587 -0.5915 -0.1046
  767MPD2    C111321   4.074   1.746  14.921  0.2720 -0.3310  0.1567
  767MPD2    C211322   4.107   1.718  14.786 -0.0304 -0.0879 -0.7925
  767MPD2    C311323   4.012   1.653  14.709  0.7405  0.8335 -0.2672
  767MPD2    C411324   3.894   1.611  14.768  0.0875  0.1694  0.1109
  767MPD2    C511325   3.859   1.656  14.896  0.3809  0.6179 -0.1498
  767MPD2     H11326   4.198   1.761  14.746  0.2821 -0.5821 -0.6157
  767MPD2    H111327   3.818   1.549  14.722  0.9799 -0.1496 -0.9446
  767MPD2    H211328   3.924   1.746  15.078  0.1657 -1.9090  0.1557
  767MPD2    H311329   3.760   1.627  14.931  0.6200 -1.0592 -0.8815
  767MPD2     N11330   4.047   1.610  14.581  0.1654 -1.3928  0.1679
  767MPD2    H511331   4.147   1.605  14.563  0.0842  0.5153 -0.7543
  767MPD2    N111332   4.163   1.815  15.013 -0.5676 -0.3617  0.1583
  767MPD2    H711333   4.133   1.829  15.109 -2.3606 -0.6641 -0.3595
  768MPD2     C11334   0.320   0.202  10.595 -0.5304 -0.8125  0.8409
  768MPD2    C111335   0.315   0.124  10.710  0.2378  0.0298 -0.5482
  768MPD2    C211336   0.429   0.106  10.785 -0.7250  0.6239 -0.1532
  768MPD2    C311337   0.552   0.163  10.750  0.2871 -0.1099  0.2661
  768MPD2    C411338   0.555   0.243  10.635 -0.8826  0.4725 -1.2547
  768MPD2    C511339   0.442   0.264  10.558  0.2229 -0.0369  0.1300
  768MPD2     H11340   0.429   0.054  10.880  0.0450 -1.4404 -1.2780
  768MPD2    H111341   0.646   0.295  10.605  0.3356 -0.6901  0.3918
  768MPD2    H211342   0.230   0.219  10.537  1.2894 -0.0464 -1.7137
  768MPD2    H311343   0.441   0.337  10.478 -1.6848  1.3596  1.4190
  768MPD2     N11344   0.668   0.163  10.829 -0.6612 -0.1448  0.6924
  768MPD2    H511345   0.753   0.209  10.797 -0.4750  0.0748  1.4897
  768MPD2    N111346   0.199   0.086  10.772  0.3794  0.4500 -0.0163
  768MPD2    H711347   0.197   0.073  10.872  0.7323 -3.9642 -0.5937
  769MPD2     C11348   0.882   3.264  14.859 -0.1808 -0.3792 -1.2634
  769MPD2    C111349   0.810   3.211  14.966 -0.2535 -0.5558 -0.7434
  769MPD2    C211350   0.882   3.183  15.084  0.2243  0.2810 -0.8455
  769MPD2    C311351   1.018   3.221  15.104 -0.5165 -0.6235 -0.1915
  769MPD2    C411352   1.089   3.273  14.998 -0.5272 -0.0568  0.1876
  769MPD2    C511353   1.018   3.297  14.873 -0.1681  0.6653  0.3250
  769MPD2     H11354   0.841   3.126  15.167 -2.0423 -0.5597 -2.5462
  769MPD2    H111355   1.194   3.301  14.999 -0.0660 -1.7953 -0.5135
  769MPD2    H211356   0.838   3.281  14.761  0.0860 -2.2020 -1.6953
  769MPD2    H311357   1.075   3.332  14.788 -2.1746 -2.3403 -2.2939
  769MPD2     N11358   1.079   3.211  15.233  0.6581  0.2442 -0.4723
  769MPD2    H511359   1.019   3.188  15.311 -1.0978  1.2140 -1.5426
  769MPD2    N111360   0.676   3.180  14.944  0.3438  0.0322 -0.3866
  769MPD2    H711361   0.634   3.181  14.852 -1.9166 -0.9585  0.6487
  770MPD2     C11362   0.223   2.347  14.967 -0.4113  0.6207  0.0672
  770MPD2    C111363   0.347   2.393  14.960  0.0771 -0.2296  0.0236
  770MPD2    C211364   0.363   2.526  14.966 -0.1182  0.6861 -0.4666
  770MPD2    C311365   0.254   2.614  14.995  0.6050 -0.0982 -0.5633
  770MPD2    C411366   0.123   2.558  14.998  0.2124  0.3461  0.7547
  770MPD2    C511367   0.110   2.426  14.973  0.1934 -0.2270 -0.0878
  770MPD2     H11368   0.463   2.567  14.953 -0.0981  0.3827 -1.2489
  770MPD2    H111369   0.038   2.622  15.018 -0.2541 -0.6791  2.0618
  770MPD2    H211370   0.207   2.240  14.974 -1.1411  0.6955 -0.5713
  770MPD2    H311371   0.015   2.374  14.981 -0.3582  0.4797 -2.0785
  770MPD2     N11372   0.289   2.756  15.005 -0.6198  0.2587 -0.2860
  770MPD2    H511373   0.389   2.769  15.004 -0.5797  0.0566  0.6701
  770MPD2    N111374   0.454   2.308  14.931 -0.6146 -0.4211  0.1836
  770MPD2    H711375   0.427   2.210  14.925  0.2294 -0.5961 -0.8604
  771MPD2     C11376   1.772   0.675  13.746  0.0436  0.0996 -0.3119
  771MPD2    C111377   1.699   0.783  13.696  0.6483 -1.1880 -0.1077
  771MPD2    C211378   1.634   0.767  13.573  0.1099 -0.2039  0.4975
  771MPD2    C311379   1.660   0.656  13.500  0.6978 -0.3121 -0.2482
  771MPD2    C411380   1.747   0.557  13.543  0.1042  0.5925 -0.1531
  771MPD2    C511381   1.784   0.560  13.675 -0.4785  0.3494  0.4348
  771MPD2     H11382   1.581   0.853  13.533  1.0811 -0.4278 -1.2928
  771MPD2    H111383   1.781   0.471  13.487  1.3614  1.3735 -0.5970
  771MPD2    H211384   1.819   0.681  13.844 -2.8120  0.9486  1.0154
  771MPD2    H311385   1.841   0.479  13.718  2.1547  1.3296 -1.2525
  771MPD2     N11386   1.596   0.647  13.377 -0.5844  0.3994  0.2218
  771MPD2    H511387   1.543   0.725  13.341  1.4592  0.9072 -1.6808
  771MPD2    N111388   1.695   0.906  13.759  0.3031  0.3328  0.2280
  771MPD2    H711389   1.641   0.979  13.713 -2.1088 -0.0644  2.4232
  772MPD2     C11390   1.257   1.342  13.637 -0.9811  0.4645  0.2556
  772MPD2    C111391   1.283   1.307  13.773 -0.0100  0.0845 -0.2913
  772MPD2    C211392   1.178   1.291  13.866 -0.3833 -0.0704  0.3221
  772MPD2    C311393   1.048   1.320  13.834  0.1658 -0.1799  0.6986
  772MPD2    C411394   1.023   1.353  13.702  0.5525 -0.4791 -0.1770
  772MPD2    C511395   1.123   1.372  13.605 -0.3272  0.3500  0.0050
  772MPD2     H11396   1.207   1.264  13.967  1.9985 -1.9474 -0.8589
  772MPD2    H111397   0.922   1.375  13.668 -0.0284  0.0042  1.8631
  772MPD2    H211398   1.332   1.355  13.559 -0.4790  1.7073  0.9477
  772MPD2    H311399   1.095   1.405  13.506  1.8291  0.1508 -0.6771
  772MPD2     N11400   0.930   1.315  13.916  0.7230  0.0707 -0.2999
  772MPD2    H511401   0.845   1.342  13.867 -0.6570 -1.3266  1.3282
  772MPD2    N111402   1.412   1.302  13.826  0.3395  0.0396  0.2886
  772MPD2    H711403   1.425   1.272  13.922 -1.5039 -1.2928  0.1146
  773MPD2     C11404   1.001   1.812  17.408 -0.1366  0.0305  0.4786
  773MPD2    C111405   0.896   1.832  17.496  0.3223 -0.4818  0.1570
  773MPD2    C211406   0.888   1.753  17.605 -0.2611  0.0092 -0.4820
  773MPD2    C311407   0.971   1.646  17.625 -0.3245 -0.1684  0.1787
  773MPD2    C411408   1.072   1.628  17.529 -0.1833 -0.5459  0.1633
  773MPD2    C511409   1.085   1.710  17.421 -0.1101 -0.0784  0.4146
  773MPD2     H11410   0.818   1.775  17.685  1.2767  0.4324  0.7359
  773MPD2    H111411   1.140   1.544  17.537  0.1695 -0.3097 -0.3377
  773MPD2    H211412   1.015   1.869  17.317 -1.5897  0.4003  0.4945
  773MPD2    H311413   1.162   1.700  17.345  1.0142  2.6860  1.1949
  773MPD2     N11414   0.974   1.574   0.066  0.1532 -0.3755  0.4228
  773MPD2    H511415   0.906   1.593   0.138  0.3988  2.8683 -0.2134
  773MPD2    N111416   0.790   1.930  17.476 -0.2824  0.0098 -0.5282
  773MPD2    H711417   0.713   1.937  17.541  0.9715 -0.8273  1.0566
  774MPD2     C11418   0.217   1.436  12.910  0.1234 -0.3054  0.4712
  774MPD2    C111419   0.188   1.493  13.030 -0.3995 -0.4445 -0.6067
  774MPD2    C211420   0.250   1.616  13.069 -1.0561 -0.0400  0.2574
  774MPD2    C311421   0.337   1.679  12.984  0.3461  0.1670 -0.5771
  774MPD2    C411422   0.361   1.626  12.859  0.1985  0.3177 -0.5553
  774MPD2    C511423   0.299   1.505  12.816 -0.8064  0.1674 -0.5102
  774MPD2     H11424   0.237   1.645  13.173 -0.1116  0.5007  0.2176
  774MPD2    H111425   0.417   1.680  12.784 -0.7370  1.4015 -0.4816
  774MPD2    H211426   0.169   1.340  12.894  1.6605 -1.4114  2.4960
  774MPD2    H311427   0.312   1.467  12.715  2.5707 -0.3988  0.1235
  774MPD2     N11428   0.395   1.809  13.020 -0.2955  0.0665  0.4372
  774MPD2    H511429   0.372   1.851  13.109 -2.9580  1.0161 -0.7026
  774MPD2    N111430   0.115   1.422  13.129  0.4337 -0.4607 -0.4162
  774MPD2    H711431   0.114   1.463  13.222  0.4308  1.1687 -1.1398
  775MPD2     C11432   1.273   2.793  15.766  0.1846 -0.0695 -0.1831
  775MPD2    C111433   1.336   2.871  15.859  0.0202 -0.9658 -0.4354
  775MPD2    C211434   1.416   2.978  15.820  1.1613  0.3764 -0.2403
  775MPD2    C311435   1.434   3.015  15.688 -0.0842  0.0785  0.8362
  775MPD2    C411436   1.370   2.947  15.591 -1.0896  0.2549  0.1690
  775MPD2    C511437   1.296   2.836  15.630 -0.3574  0.2944  0.6853
  775MPD2     H11438   1.476   3.026  15.897  0.8636 -0.4779  0.5340
  775MPD2    H111439   1.380   2.985  15.490  1.0418 -0.7294  0.0148
  775MPD2    H211440   1.210   2.709  15.792 -2.1798  2.1092  1.1105
  775MPD2    H311441   1.249   2.784  15.547 -2.8017  2.2141  0.8500
  775MPD2     N11442   1.515   3.118  15.637 -0.5467 -0.3259  0.3344
  775MPD2    H511443   1.529   3.124  15.537  1.9586  1.6916  0.8295
  775MPD2    N111444   1.321   2.839  15.998  0.3171  0.1964  0.3343
  775MPD2    H711445   1.259   2.761  16.015  1.7889 -1.2061 -0.7394
  776MPD2     C11446   0.078   3.137  11.477 -0.0351 -0.6846 -0.4101
  776MPD2    C111447   0.184   3.129  11.562  0.1856  0.4663 -0.5249
  776MPD2    C211448   0.286   3.226  11.550 -0.7681 -0.0967 -0.4509
  776MPD2    C311449   0.277   3.321  11.447  0.2337  0.1706 -0.3202
  776MPD2    C411450   0.165   3.316  11.363  0.9438  0.2097 -0.5885
  776MPD2    C511451   0.060   3.226  11.375 -0.2756  0.1631 -0.2801
  776MPD2     H11452   0.367   3.229  11.622 -1.0757 -5.8790  0.1186
  776MPD2    H111453   0.157   3.398  11.294  1.6236  1.4221  0.7676
  776MPD2    H211454   0.003   3.062  11.501 -0.9954  1.0236  1.9044
  776MPD2    H311455   4.699   3.225  11.304  1.9206  0.6262 -2.8158
  776MPD2     N11456   0.368   3.424  11.413  0.3339 -0.2105 -0.2106
  776MPD2    H511457   0.337   3.483  11.335 -0.5822  0.6403  0.7941
  776MPD2    N111458   0.177   3.030  11.665 -0.5828  0.3208 -0.3641
  776MPD2    H711459   0.094   2.972  11.651 -1.0186  2.0103 -4.8501
  777MPD2     C11460   1.311   1.350   0.873 -0.5977 -0.4903 -0.0175
  777MPD2    C111461   1.344   1.300   1.000 -0.5239  0.7258  0.1252
  777MPD2    C211462   1.395   1.171   1.012 -0.2203  0.5105  0.2148
  777MPD2    C311463   1.394   1.085   0.906  0.5712  0.2145  0.9697
  777MPD2    C411464   1.354   1.133   0.783  0.1216 -0.6946  0.2828
  777MPD2    C511465   1.321   1.261   0.771 -0.3929 -0.1697 -0.1349
  777MPD2     H11466   1.422   1.134   1.110 -0.4286 -0.8441 -0.2388
  777MPD2    H111467   1.353   1.077   0.691 -0.2048 -0.0304 -0.1154
  777MPD2    H211468   1.285   1.455   0.867 -0.7216 -0.4517  1.2236
  777MPD2    H311469   1.303   1.285   0.667  1.5764 -1.9633 -0.8885
  777MPD2     N11470   1.413   0.948   0.926  0.0844 -1.0048  0.0387
  777MPD2    H511471   1.390   0.915   1.019 -0.4552 -1.1167 -0.1332
  777MPD2    N111472   1.341   1.389   1.116  0.4219 -0.4281 -0.6010
  777MPD2    H711473   1.293   1.478   1.107  0.3751 -0.5062 -1.1864
  778MPD2     C11474   2.169   0.800  15.169 -0.2977  0.2453  0.5425
  778MPD2    C111475   2.089   0.760  15.071  0.5007 -0.5468 -1.1619
  778MPD2    C211476   2.136   0.769  14.942  0.0131 -0.1397  0.5652
  778MPD2    C311477   2.255   0.821  14.911 -0.2232  0.2114  0.4134
  778MPD2    C411478   2.330   0.871  15.015 -0.7843 -0.3784 -0.2076
  778MPD2    C511479   2.291   0.852  15.143 -0.2125 -0.6170  0.5890
  778MPD2     H11480   2.070   0.743  14.859 -0.2265  1.4302  0.2556
  778MPD2    H111481   2.427   0.920  15.009 -1.1468  0.7911  3.3387
  778MPD2    H211482   2.132   0.778  15.269 -0.5693 -0.9375  0.1794
  778MPD2    H311483   2.364   0.860  15.223 -1.2058 -0.5367  1.4945
  778MPD2     N11484   2.289   0.834  14.772  0.2282 -0.0242 -0.0777
  778MPD2    H511485   2.231   0.786  14.705 -0.4392  0.9814 -0.2271
  778MPD2    N111486   1.966   0.701  15.087  0.5744 -0.0228  0.4732
  778MPD2    H711487   1.908   0.691  15.004 -0.0851 -1.0203  1.0523
  779MPD2     C11488   1.460   4.226  14.510  0.3450 -0.1250  0.0247
  779MPD2    C111489   1.579   4.263  14.448  0.0664 -0.6639 -0.5407
  779MPD2    C211490   1.592   4.399  14.426 -0.5233 -0.2825  0.3016
  779MPD2    C311491   1.505   4.494  14.472  0.1721  0.9278  0.3825
  779MPD2    C411492   1.392   4.451  14.532  0.1417 -0.1857 -0.5062
  779MPD2    C511493   1.368   4.318  14.545 -0.4361  0.4512 -0.3772
  779MPD2     H11494   1.673   4.435  14.365 -0.6714  1.2286  0.9902
  779MPD2    H111495   1.305   4.510  14.560  1.2859  0.6386  1.2717
  779MPD2    H211496   1.442   4.125  14.545  0.4691 -0.4009 -0.7147
  779MPD2    H311497   1.270   4.279  14.569 -0.2178 -0.7103 -1.3426
  779MPD2     N11498   1.531   4.634  14.452 -0.0801 -0.0753 -0.4856
  779MPD2    H511499   1.620   4.662  14.413 -1.8110  3.1725 -2.1742
  779MPD2    N111500   1.691   4.176  14.412 -0.1998 -0.1784 -0.6090
  779MPD2    H711501   1.776   4.223  14.381 -1.5012  2.1872 -0.5282
  780MPD2     C11502   0.407   4.258  17.682  0.3098  0.2657  0.4585
  780MPD2    C111503   0.469   4.191   0.100  0.0946  0.2689  0.0897
  780MPD2    C211504   0.605   4.209   0.113 -0.5178  0.2582  0.2645
  780MPD2    C311505   0.684   4.277   0.026  0.1086 -0.8978 -0.2578
  780MPD2    C411506   0.625   4.337  17.609 -0.0239 -0.0952 -0.4190
  780MPD2    C511507   0.489   4.328  17.593  0.2919  0.4182  0.6607
  780MPD2     H11508   0.659   4.169   0.198  0.6227  2.1999  0.4660
  780MPD2    H111509   0.678   4.380  17.524  1.1805 -1.5303 -0.4003
  780MPD2    H211510   0.301   4.269  17.661  0.8258  0.8761 -1.8654
  780MPD2    H311511   0.448   4.373  17.503  0.4540  0.3362  0.5451
  780MPD2     N11512   0.822   4.257   0.044 -0.4763  0.0370 -0.5059
  780MPD2    H511513   0.862   4.198   0.116 -0.0751  3.0951  1.7999
  780MPD2    N111514   0.388   4.121   0.194  0.0701 -0.4123  0.2265
  780MPD2    H711515   0.290   4.109   0.169  0.2948 -0.9521 -0.4219
  781MPD2     C11516   2.621   1.490  11.609  0.5233 -0.6410 -0.4294
  781MPD2    C111517   2.721   1.455  11.703 -0.8220  0.8670 -0.2355
  781MPD2    C211518   2.848   1.431  11.660 -0.3373  0.1343 -0.3563
  781MPD2    C311519   2.876   1.429  11.522 -0.1351 -0.0144 -0.4440
  781MPD2    C411520   2.776   1.459  11.432  0.1759 -0.0642 -0.4303
  781MPD2    C511521   2.647   1.493  11.474 -0.0680 -0.4749 -0.0125
  781MPD2     H11522   2.930   1.409  11.727 -0.2771 -0.6740 -0.7010
  781MPD2    H111523   2.791   1.465  11.325 -0.0963 -3.7133 -0.6935
  781MPD2    H211524   2.519   1.501  11.642 -0.7074  0.4793 -4.6538
  781MPD2    H311525   2.573   1.523  11.400 -0.6288  1.2176  1.2431
  781MPD2     N11526   3.005   1.396  11.470  0.3989  0.7023  0.4938
  781MPD2    H511527   3.012   1.387  11.369  2.9424  1.5062  0.6099
  781MPD2    N111528   2.693   1.425  11.840  0.1725  0.1757  0.7803
  781MPD2    H711529   2.771   1.395  11.898 -0.4734 -0.2006  1.4662
  782MPD2     C11530   0.503   2.607  10.503 -0.5728 -0.9992 -0.0337
  782MPD2    C111531   0.632   2.592  10.462  1.3335 -0.0408 -0.3265
  782MPD2    C211532   0.729   2.641  10.540  0.3273 -0.0788 -0.4881
  782MPD2    C311533   0.699   2.724  10.643  1.1522  0.6835 -0.3982
  782MPD2    C411534   0.572   2.743  10.677  0.2174 -0.6003 -0.4839
  782MPD2    C511535   0.472   2.681  10.610 -0.2693 -0.3708  0.4064
  782MPD2     H11536   0.833   2.631  10.511  0.4355  1.1321 -0.4949
  782MPD2    H111537   0.549   2.808  10.760 -0.2525 -1.3444 -0.0373
  782MPD2    H211538   0.421   2.557  10.453 -1.4370 -0.2723  0.6509
  782MPD2    H311539   0.368   2.683  10.643 -0.3506 -1.8161  0.2525
  782MPD2     N11540   0.810   2.773  10.719  0.0003  0.4777 -0.1957
  782MPD2    H511541   0.901   2.732  10.697 -0.4932  0.0679 -1.4776
  782MPD2    N111542   0.656   2.512  10.351 -1.0945  0.0762 -0.4847
  782MPD2    H711543   0.583   2.469  10.295 -1.9063  1.2239 -0.3022
  783MPD2     C11544   0.476   1.726  10.644  0.9315 -0.9799  0.2703
  783MPD2    C111545   0.485   1.853  10.694 -0.9379  0.7279  0.4113
  783MPD2    C211546   0.542   1.950  10.611 -0.4612  0.2616  0.7321
  783MPD2    C311547   0.592   1.917  10.485  1.1838 -0.2514 -0.2530
  783MPD2    C411548   0.588   1.788  10.447 -0.1455  0.6108  0.2805
  783MPD2    C511549   0.524   1.691  10.521  0.2955 -0.6335  0.4215
  783MPD2     H11550   0.563   2.053  10.639 -0.0256  0.7414 -1.3581
  783MPD2    H111551   0.632   1.749  10.355  0.5405  1.1386  0.3850
  783MPD2    H211552   0.422   1.645  10.693 -0.2233  0.5962  1.6024
  783MPD2    H311553   0.515   1.590  10.485  1.8150 -0.2986 -0.8854
  783MPD2     N11554   0.659   2.022  10.414  0.0641  0.4070  0.1174
  783MPD2    H511555   0.673   2.114  10.453  1.8649 -0.0181  0.4553
  783MPD2    N111556   0.412   1.873  10.813 -0.1468 -0.1403  0.6307
  783MPD2    H711557   0.373   1.791  10.859 -1.4393  1.3506  2.2025
  784MPD2     C11558   3.208   2.437   1.203 -0.2569  0.7866  0.0704
  784MPD2    C111559   3.191   2.574   1.208  0.6360  0.5875 -0.0107
  784MPD2    C211560   3.066   2.625   1.221 -1.0056  0.5006  0.1297
  784MPD2    C311561   2.953   2.542   1.240 -0.2090  0.1983 -0.1111
  784MPD2    C411562   2.972   2.404   1.230  0.2126  0.6919 -0.6636
  784MPD2    C511563   3.098   2.354   1.214 -0.1034  0.3518 -0.1758
  784MPD2     H11564   3.056   2.733   1.228  0.1887  0.6674 -0.7266
  784MPD2    H111565   2.885   2.340   1.244  1.5370 -0.7492  0.9411
  784MPD2    H211566   3.307   2.393   1.199 -0.5364  0.0926  0.7649
  784MPD2    H311567   3.109   2.247   1.209  0.9987  0.4371  0.4497
  784MPD2     N11568   2.838   2.604   1.263 -0.1542 -0.0682  0.6984
  784MPD2    H511569   2.839   2.704   1.275  0.2105 -0.2204  1.8661
  784MPD2    N111570   3.302   2.668   1.200  0.7694  0.0930  0.0535
  784MPD2    H711571   3.269   2.763   1.214 -1.5587 -0.8595  0.8847
  785MPD2     C11572   3.106   0.978   9.605  0.1945  0.6734  0.2115
  785MPD2    C111573   3.032   0.963   9.719  0.0668 -0.5772 -0.3955
  785MPD2    C211574   2.893   0.961   9.707  0.3114 -0.1160  1.0725
  785MPD2    C311575   2.826   0.963   9.583 -0.1607  0.2113 -0.1275
  785MPD2    C411576   2.907   0.979   9.470  0.7004 -0.2140  0.0261
  785MPD2    C511577   3.044   0.978   9.482 -0.0967 -0.0937 -0.0259
  785MPD2     H11578   2.833   0.950   9.797 -0.6116 -0.4993  0.4063
  785MPD2    H111579   2.878   0.978   9.366 -2.8611  2.0083  1.0030
  785MPD2    H211580   3.207   1.015   9.619  0.1818  0.2388  1.4627
  785MPD2    H311581   3.099   0.996   9.390 -1.0284  0.2588 -0.5124
  785MPD2     N11582   2.681   0.958   9.586  0.0155 -0.4660 -0.3462
  785MPD2    H511583   2.640   0.961   9.679  0.1745  2.2805 -0.3656
  785MPD2    N111584   3.100   0.955   9.841 -0.4054  0.0676 -0.0672
  785MPD2    H711585   3.200   0.973   9.836 -0.4177  0.5402  1.2060
  786MPD2     C11586   2.968   3.752  14.211  1.4559 -0.1664 -1.1262
  786MPD2    C111587   2.849   3.766  14.283  0.2673  0.0738  0.0069
  786MPD2    C211588   2.844   3.825  14.411 -0.2790  0.0389  0.1811
  786MPD2    C311589   2.960   3.866  14.477 -0.1732 -0.0189  0.0307
  786MPD2    C411590   3.076   3.858  14.405 -0.5006  0.0773 -0.1061
  786MPD2    C511591   3.077   3.799  14.274  0.5669  0.0310  0.5039
  786MPD2     H11592   2.761   3.814  14.479  0.2557 -3.8304  0.2274
  786MPD2    H111593   3.169   3.888  14.451  1.1529 -1.3674 -2.5217
  786MPD2    H211594   2.972   3.704  14.114  0.3570  0.9457 -1.7309
  786MPD2    H311595   3.169   3.781  14.220  1.3214  1.3426  1.3624
  786MPD2     N11596   2.956   3.930  14.604 -0.1171 -0.2988  0.0517
  786MPD2    H511597   3.042   3.945  14.655 -1.3298  0.5254  1.8520
  786MPD2    N111598   2.727   3.693  14.249  0.5281  0.0261 -0.6422
  786MPD2    H711599   2.637   3.714  14.291  0.0907 -1.4226 -0.8520
  787MPD2     C11600   2.133   3.433  14.653  0.0602  0.1570 -0.6122
  787MPD2    C111601   2.199   3.352  14.569 -0.3355 -0.4824  0.1378
  787MPD2    C211602   2.245   3.233  14.619 -0.3534  0.1585  0.4629
  787MPD2    C311603   2.229   3.193  14.750 -0.6809  0.0853 -0.4440
  787MPD2    C411604   2.158   3.278  14.832  0.1396 -0.4734 -0.5648
  787MPD2    C511605   2.108   3.393  14.783  0.2117 -0.7598  0.0226
  787MPD2     H11606   2.306   3.162  14.565 -0.6001  0.4726 -0.2210
  787MPD2    H111607   2.141   3.259  14.938  1.0571  0.6887 -0.2028
  787MPD2    H211608   2.105   3.534  14.626  1.1282  0.8442  0.8828
  787MPD2    H311609   2.055   3.457  14.853  2.1227  0.3953  0.4335
  787MPD2     N11610   2.313   3.093  14.809 -0.0623  0.2358 -0.8696
  787MPD2    H511611   2.362   3.040  14.738  0.2552 -1.1053  0.3607
  787MPD2    N111612   2.238   3.405  14.438  0.1241  0.2853  0.5112
  787MPD2    H711613   2.180   3.476  14.395 -0.8690 -0.4510  0.6448
  788MPD2     C11614   4.291   0.722   1.274 -0.6107 -0.4870  0.2382
  788MPD2    C111615   4.199   0.745   1.176  0.0010 -0.1970  0.3338
  788MPD2    C211616   4.162   0.881   1.144  0.6174  0.3278 -0.1349
  788MPD2    C311617   4.221   0.986   1.215 -1.2024  0.0574 -0.1535
  788MPD2    C411618   4.314   0.953   1.319 -0.2606  0.4936  0.1124
  788MPD2    C511619   4.347   0.821   1.346 -0.5561  0.3666 -0.7399
  788MPD2     H11620   4.104   0.904   1.055  1.3695  2.3337 -0.1135
  788MPD2    H111621   4.375   1.033   1.358 -0.2360 -0.0734  1.2203
  788MPD2    H211622   4.310   0.618   1.299  3.0046  0.1196 -0.0047
  788MPD2    H311623   4.424   0.794   1.417  0.1036  0.2730 -1.4904
  788MPD2     N11624   4.203   1.121   1.188  0.0082 -0.0026 -0.3561
  788MPD2    H511625   4.268   1.177   1.242 -0.1088 -0.6128  0.4096
  788MPD2    N111626   4.158   0.646   1.080 -0.8424 -0.1442 -0.9999
  788MPD2    H711627   4.099   0.678   1.004 -1.2933 -3.0864 -1.8822
  789MPD2     C11628   4.571   1.012  16.518  0.6790  0.0538 -0.1433
  789MPD2    C111629   4.520   1.102  16.426 -0.1010 -0.5657  0.1184
  789MPD2    C211630   4.401   1.166  16.449 -0.2804 -0.3458  0.4688
  789MPD2    C311631   4.327   1.141  16.567  0.6400  0.0344  0.3995
  789MPD2    C411632   4.387   1.066  16.665  0.1962  0.5388 -0.4118
  789MPD2    C511633   4.498   0.996  16.635  0.1852 -0.3240 -0.0796
  789MPD2     H11634   4.365   1.234  16.373 -1.3798 -1.6284 -0.1604
  789MPD2    H111635   4.350   1.060  16.767 -0.0278 -1.0159 -0.5768
  789MPD2    H211636   4.659   0.948  16.511 -0.4459 -1.4489 -0.3810
  789MPD2    H311637   4.521   0.926  16.715  1.1156  0.5303  0.4201
  789MPD2     N11638   4.205   1.198  16.597 -0.3992  0.4219 -0.2702
  789MPD2    H511639   4.177   1.207  16.694  1.6889 -1.1583  0.4677
  789MPD2    N111640   4.580   1.122  16.293 -0.2827 -0.6059  0.3742
  789MPD2    H711641   4.530   1.178  16.225  1.0939 -0.4984 -0.5616
  790MPD2     C11642   0.526   3.638  13.315  0.0578 -0.2808 -0.7384
  790MPD2    C111643   0.591   3.513  13.314  0.0122 -0.0040  0.0366
  790MPD2    C211644   0.564   3.437  13.205  0.7996 -0.6671  0.7881
  790MPD2    C311645   0.479   3.471  13.100  0.0637  0.1915  0.4385
  790MPD2    C411646   0.419   3.595  13.105  0.5396  0.2379  0.0357
  790MPD2    C511647   0.445   3.682  13.208 -0.4788 -0.1271  0.4203
  790MPD2     H11648   0.604   3.337  13.194  2.4698  0.1795 -0.8415
  790MPD2    H111649   0.358   3.626  13.021  0.3430  1.0968  0.4953
  790MPD2    H211650   0.531   3.710  13.395  0.4689 -1.4881  0.3280
  790MPD2    H311651   0.408   3.783  13.204 -2.5626 -0.8215  2.2404
  790MPD2     N11652   0.454   3.376  12.996 -0.0940  0.0815  0.3272
  790MPD2    H511653   0.500   3.287  13.008 -2.3168 -0.9886  0.9899
  790MPD2    N111654   0.677   3.473  13.420 -0.6753 -0.3916  0.8502
  790MPD2    H711655   0.684   3.528  13.505  0.6174  0.7059  0.0306
  791MPD2     C11656   4.551   3.293  12.523  0.2025  0.1506  0.2464
  791MPD2    C111657   4.613   3.174  12.552 -0.4640  0.0953  0.0891
  791MPD2    C211658   4.539   3.059  12.557 -0.3463 -0.5111 -0.4432
  791MPD2    C311659   4.399   3.077  12.562  0.3973  1.0010  0.5470
  791MPD2    C411660   4.337   3.194  12.533 -0.6890 -0.8121 -0.4413
  791MPD2    C511661   4.416   3.302  12.512 -0.3489 -0.4831  0.1360
  791MPD2     H11662   4.589   2.968  12.586 -0.3262  0.1745  1.6290
  791MPD2    H111663   4.229   3.201  12.537 -0.3973  2.7152  1.5694
  791MPD2    H211664   4.611   3.382  12.507 -0.0185 -0.4926 -4.2144
  791MPD2    H311665   4.363   3.391  12.481 -0.1299  0.0452  1.2938
  791MPD2     N11666   4.323   2.961  12.592 -0.0330 -0.0091  0.5054
  791MPD2    H511667   4.379   2.879  12.614 -0.5938 -0.7502 -0.8897
  791MPD2    N111668   0.023   3.196  12.596  0.5261  0.0826  0.3024
  791MPD2    H711669   0.060   3.291  12.595  0.2608  0.1843  0.1395
  792MPD2     C11670   1.082   3.135  11.342 -0.0124 -0.1623  0.4455
  792MPD2    C111671   1.006   3.215  11.262  0.3733  0.0621 -0.3602
  792MPD2    C211672   0.868   3.204  11.262 -0.4145 -0.2435  1.0759
  792MPD2    C311673   0.814   3.097  11.329  0.2531 -0.4650  0.3277
  792MPD2    C411674   0.898   3.020  11.416  0.3060 -0.1919  0.5667
  792MPD2    C511675   1.026   3.050  11.431 -0.4517  0.2015  1.0848
  792MPD2     H11676   0.804   3.272  11.207  1.0864  1.1036  0.9835
  792MPD2    H111677   0.853   2.937  11.469 -1.9588  1.7498  1.7061
  792MPD2    H211678   1.190   3.141  11.333  0.1307 -0.5025  1.9751
  792MPD2    H311679   1.087   2.988  11.495 -0.3920 -1.8991 -1.0039
  792MPD2     N11680   0.677   3.055  11.315  0.6398 -0.4924  0.0062
  792MPD2    H511681   0.641   2.966  11.350  2.1659 -1.0079  0.2653
  792MPD2    N111682   1.077   3.313  11.185 -0.4711  0.7191 -0.2749
  792MPD2    H711683   1.177   3.316  11.204 -0.8211  0.3083  1.7120
  793MPD2     C11684   0.183   2.891  10.548 -0.0603 -0.4443  0.1597
  793MPD2    C111685   0.285   2.986  10.594 -0.0353  0.1564 -0.2534
  793MPD2    C211686   0.307   2.996  10.723 -0.0359  0.0909 -0.7209
  793MPD2    C311687   0.222   2.929  10.811 -0.4410  0.0823 -0.6719
  793MPD2    C411688   0.116   2.851  10.771 -0.5044 -0.0488  0.2899
  793MPD2    C511689   0.096   2.833  10.639  0.0150  0.0266 -0.1233
  793MPD2     H11690   0.394   3.051  10.759  0.6178 -0.4059 -1.5437
  793MPD2    H111691   0.051   2.792  10.835  0.5812 -0.6942  0.7968
  793MPD2    H211692   0.160   2.868  10.444  1.8184 -0.3139 -0.2954
  793MPD2    H311693   0.008   2.784  10.600 -0.1945  0.7084 -0.4927
  793MPD2     N11694   0.267   2.948  10.947  0.6490  0.7513  0.2923
  793MPD2    H511695   0.336   3.021  10.962  1.9994 -0.2096 -1.2540
  793MPD2    N111696   0.368   3.063  10.515 -0.4461 -0.3155 -1.0905
  793MPD2    H711697   0.442   3.114  10.562 -0.3596 -0.2659 -1.2814
  794MPD2     C11698   0.567   2.649  17.041  0.0064  0.4048 -0.4912
  794MPD2    C111699   0.499   2.539  16.991  1.2824 -0.2317  0.1598
  794MPD2    C211700   0.415   2.547  16.882 -0.3263  0.0255  1.0074
  794MPD2    C311701   0.418   2.660  16.800  0.2555  0.0385  0.1653
  794MPD2    C411702   0.506   2.762  16.839 -0.3800 -0.2940  0.2745
  794MPD2    C511703   0.569   2.758  16.956  0.4809 -0.2991 -0.1079
  794MPD2     H11704   0.342   2.469  16.866 -0.3148  0.2383 -0.1015
  794MPD2    H111705   0.512   2.847  16.772 -0.3302  0.1593  0.8543
  794MPD2    H211706   0.612   2.657  17.139  1.2218  0.2915 -1.0413
  794MPD2    H311707   0.621   2.847  16.989 -1.0906 -0.7862  3.6771
  794MPD2     N11708   0.347   2.674  16.686 -0.9980 -0.0143  0.0954
  794MPD2    H511709   0.367   2.761  16.638  2.9877 -0.7144  0.4488
  794MPD2    N111710   0.503   2.417  17.073  0.1129  0.2959  0.6328
  794MPD2    H711711   0.442   2.341  17.044  0.9542 -0.5915  1.1515
  795MPD2     C11712   3.039   0.198  13.597 -0.3593 -0.0086  0.7965
  795MPD2    C111713   3.012   0.078  13.536 -0.1111 -0.1245 -0.6856
  795MPD2    C211714   3.091   4.690  13.551  0.6445 -0.2367  0.5773
  795MPD2    C311715   3.209   4.701  13.621  0.5860  0.4911 -0.4424
  795MPD2    C411716   3.244   0.109  13.667 -0.3594 -0.2892  0.0460
  795MPD2    C511717   3.157   0.215  13.668 -0.2567  0.0868 -0.6351
  795MPD2     H11718   3.064   4.599  13.500  0.1232  0.8046 -0.9943
  795MPD2    H111719   3.335   0.125  13.722  1.1277 -0.6644 -2.3240
  795MPD2    H211720   2.976   0.285  13.587 -2.4157 -1.6623 -0.8978
  795MPD2    H311721   3.187   0.315  13.699  0.1827 -0.2312 -0.0292
  795MPD2     N11722   3.281   4.584  13.636  0.1905 -0.3425 -0.2281
  795MPD2    H511723   3.245   4.494  13.606 -0.2380  0.0914 -0.9886
  795MPD2    N111724   2.903   0.056  13.446  0.4038  0.2012 -0.5705
  795MPD2    H711725   2.908   4.701  13.378  0.3880 -1.4888  1.2947
  796MPD2     C11726   2.652   1.265  15.688  0.0788  0.2428 -0.0157
  796MPD2    C111727   2.750   1.295  15.783 -0.1173  0.1852 -0.3459
  796MPD2    C211728   2.751   1.421  15.829 -0.4099 -0.1877  0.5247
  796MPD2    C311729   2.682   1.529  15.784 -0.1690  0.3296 -0.1110
  796MPD2    C411730   2.597   1.502  15.679 -0.1743  0.6308  0.8282
  796MPD2    C511731   2.580   1.373  15.635 -0.2289  0.5266  0.2538
  796MPD2     H11732   2.820   1.442  15.910 -0.4752  0.4723  0.4082
  796MPD2    H111733   2.523   1.574  15.645  0.3127  0.9964  0.5334
  796MPD2    H211734   2.640   1.168  15.640  2.0366  1.1110 -2.2173
  796MPD2    H311735   2.507   1.347  15.559 -1.1285  3.2327  0.2193
  796MPD2     N11736   2.697   1.656  15.854 -0.3799  0.0990  0.2122
  796MPD2    H511737   2.764   1.660  15.931 -0.2760  0.5719  0.0984
  796MPD2    N111738   2.831   1.198  15.839 -0.6192  0.3259 -0.0639
  796MPD2    H711739   2.907   1.231  15.896 -1.6721  2.4570  0.0885
  797MPD2     C11740   3.364   0.680  17.092 -0.2496 -0.3536 -0.3979
  797MPD2    C111741   3.374   0.812  17.140 -0.0442 -0.7899  0.5779
  797MPD2    C211742   3.291   0.911  17.094 -0.1297 -0.2182 -0.0264
  797MPD2    C311743   3.211   0.884  16.985  0.1711 -0.3590  0.1431
  797MPD2    C411744   3.201   0.751  16.943  0.3603 -0.6910 -0.1839
  797MPD2    C511745   3.272   0.649  16.999 -0.0644  0.8547  0.3066
  797MPD2     H11746   3.287   1.011  17.136 -2.9133 -0.5983  0.5800
  797MPD2    H111747   3.125   0.727  16.870  1.2355  0.6346 -1.5165
  797MPD2    H211748   3.412   0.592  17.134 -0.3903 -0.9527 -1.4853
  797MPD2    H311749   3.256   0.549  16.960 -1.8126  0.4496  2.0359
  797MPD2     N11750   3.118   0.981  16.933  0.2259 -0.6251 -0.9530
  797MPD2    H511751   3.066   0.960  16.848  0.1587  0.7395 -1.2415
  797MPD2    N111752   3.437   0.847  17.261  0.3280  0.3818  0.0588
  797MPD2    H711753   3.438   0.948  17.272  1.6494  0.3332  0.3613
  798MPD2     C11754   3.212   1.544  17.379 -0.0692  0.4503 -0.0341
  798MPD2    C111755   3.189   1.417  17.329 -0.6388 -0.1117 -0.6262
  798MPD2    C211756   3.242   1.305  17.389 -0.3574  0.7168  0.0650
  798MPD2    C311757   3.333   1.313  17.490  0.2390  0.1524  0.0774
  798MPD2    C411758   3.346   1.435  17.549 -0.1295  0.2442 -0.1581
  798MPD2    C511759   3.287   1.543  17.494  0.5965 -0.2063  0.0946
  798MPD2     H11760   3.221   1.208  17.344  0.6582 -0.0931  1.3404
  798MPD2    H111761   3.400   1.461  17.639 -1.3349  0.2348  0.5706
  798MPD2    H211762   3.167   1.638  17.351  2.5238  1.0959 -2.0413
  798MPD2    H311763   3.302   1.640  17.540  0.5456 -1.1154  2.0391
  798MPD2     N11764   3.401   1.194  17.517 -0.1267  1.0757 -0.0143
  798MPD2    H511765   3.367   1.110  17.473 -1.6303  1.3711  0.5884
  798MPD2    N111766   3.122   1.397  17.206 -0.0523  0.1271 -0.4021
  798MPD2    H711767   3.116   1.302  17.172 -0.4155  0.0621 -0.1629
  799MPD2     C11768   2.436   2.491  14.814 -0.6185  0.3834 -0.4989
  799MPD2    C111769   2.381   2.402  14.728  0.3081 -0.3999 -0.5421
  799MPD2    C211770   2.264   2.429  14.663  0.8057 -0.4816 -0.0577
  799MPD2    C311771   2.202   2.554  14.677 -0.4373 -0.9101 -0.3523
  799MPD2    C411772   2.265   2.646  14.756 -0.8186 -0.0722  0.3574
  799MPD2    C511773   2.374   2.609  14.825  0.3553 -0.4548 -0.4583
  799MPD2     H11774   2.221   2.346  14.608  1.1963  1.1575 -2.8215
  799MPD2    H111775   2.236   2.749  14.774 -2.5659 -0.6019  0.5857
  799MPD2    H211776   2.525   2.475  14.874 -0.7013 -0.4058 -0.5911
  799MPD2    H311777   2.409   2.681  14.898 -0.3982 -1.5208  0.9559
  799MPD2     N11778   2.086   2.594  14.614  0.0795 -0.3404  0.1780
  799MPD2    H511779   2.057   2.691  14.626  2.4401 -0.0567  3.4284
  799MPD2    N111780   2.449   2.281  14.696 -0.0194 -0.4870 -0.3274
  799MPD2    H711781   2.397   2.207  14.651 -0.7879  0.6021 -1.2487
  800MPD2     C11782   2.518   3.958  14.059 -0.2448  0.5367 -0.0829
  800MPD2    C111783   2.646   3.962  14.013  0.0374 -0.0666  0.0341
  800MPD2    C211784   2.671   3.895  13.886  0.1656  0.7992  0.1887
  800MPD2    C311785   2.559   3.844  13.816  0.0043  0.0020  0.2957
  800MPD2    C411786   2.427   3.851  13.871  0.1291 -0.3232 -0.3847
  800MPD2    C511787   2.409   3.921  13.986 -0.3816 -0.3437  0.8790
  800MPD2     H11788   2.770   3.882  13.845 -0.0479  2.6235 -0.8934
  800MPD2    H111789   2.336   3.811  13.828  0.8049 -2.0952 -0.1565
  800MPD2    H211790   2.482   3.994  14.155 -0.2510 -0.6966  0.3854
  800MPD2    H311791   2.313   3.919  14.037 -1.0336 -3.3062 -0.3982
  800MPD2     N11792   2.597   3.788  13.690 -0.2367 -0.5332  0.0339
  800MPD2    H511793   2.697   3.786  13.673  0.1119  1.7139  1.7975
  800MPD2    N111794   2.744   4.033  14.089  0.0760  0.2542 -0.3373
  800MPD2    H711795   2.715   4.058  14.183 -0.2819 -0.5695 -0.2295
  801MPD2     C11796   2.851   4.530  14.616 -0.4526  0.3264 -0.8908
  801MPD2    C111797   2.786   4.464  14.512 -1.7311  0.0003  0.3137
  801MPD2    C211798   2.657   4.504  14.487 -0.3881  0.8410  0.4818
  801MPD2    C311799   2.590   4.596  14.559 -0.2651  0.0773 -0.1768
  801MPD2    C411800   2.659   4.653  14.668 -0.4872  0.4744  0.6103
  801MPD2    C511801   2.789   4.626  14.690 -0.6643 -0.5778  0.4352
  801MPD2     H11802   2.594   4.459  14.411  0.5976 -1.7694  1.2407
  801MPD2    H111803   2.609   4.715  14.741 -0.7679 -1.0056  1.6821
  801MPD2    H211804   2.956   4.519  14.640 -0.7475 -1.1166 -0.3091
  801MPD2    H311805   2.840   4.669  14.776 -0.4042  1.6478 -0.8331
  801MPD2     N11806   2.451   4.616  14.561 -0.4044 -0.5555  0.5520
  801MPD2    H511807   2.413   4.683  14.627 -0.6985  0.3794 -0.5616
  801MPD2    N111808   2.847   4.372  14.432 -0.4741 -0.3106  0.0671
  801MPD2    H711809   2.808   4.360  14.339  0.0543  0.6897 -0.2837
  802MPD2     C11810   2.384   3.795   0.095 -0.3563  0.4887  0.1731
  802MPD2    C111811   2.376   3.928   0.056  0.3327  0.2523 -0.0879
  802MPD2    C211812   2.408   3.955  17.610 -0.7143  0.4867 -0.1362
  802MPD2    C311813   2.436   3.860  17.522 -0.3042  0.2208 -0.4462
  802MPD2    C411814   2.448   3.728  17.562 -0.0468  0.7534  0.1343
  802MPD2    C511815   2.420   3.694   0.009 -0.1589 -0.7381  0.6771
  802MPD2     H11816   2.403   4.061  17.585 -0.3940  0.5791  0.1798
  802MPD2    H111817   2.486   3.651  17.495 -1.4883  0.4824 -0.3683
  802MPD2    H211818   2.374   3.770   0.200  0.5436  1.3078  0.4617
  802MPD2    H311819   2.446   3.600   0.056  1.7725 -0.7344 -0.3762
  802MPD2     N11820   2.457   3.901  17.389 -0.2105 -0.2593 -0.7376
  802MPD2    H511821   2.441   3.998  17.364 -0.0142 -0.0790 -0.1624
  802MPD2    N111822   2.338   4.027   0.145  0.6025  0.2180 -0.5934
  802MPD2    H711823   2.307   4.118   0.112 -1.3715 -0.1005  0.3779
  803MPD2     C11824   3.175   2.742  11.540 -0.7937  0.1738  0.0786
  803MPD2    C111825   3.266   2.786  11.631  0.7337 -0.4540 -0.1178
  803MPD2    C211826   3.231   2.789  11.763  0.0384  0.1391 -0.0793
  803MPD2    C311827   3.109   2.735  11.802 -0.2883  0.2359 -1.0005
  803MPD2    C411828   3.017   2.695  11.710 -0.3244  0.5009  0.0281
  803MPD2    C511829   3.052   2.702  11.580 -0.4122 -0.4410  0.5536
  803MPD2     H11830   3.295   2.826  11.842 -0.4103 -0.4592  0.5592
  803MPD2    H111831   2.923   2.647  11.736 -0.4435  1.5268  1.4811
  803MPD2    H211832   3.191   2.757  11.434 -2.0783  1.4381  0.0683
  803MPD2    H311833   2.981   2.666  11.506 -1.7863 -0.5875  1.9498
  803MPD2     N11834   3.083   2.724  11.937 -0.1100 -0.5447  0.2066
  803MPD2    H511835   2.986   2.702  11.958  0.6566 -1.6385  2.5777
  803MPD2    N111836   3.390   2.842  11.602  0.7267 -0.1593 -0.0746
  803MPD2    H711837   3.437   2.874  11.686 -0.4550  0.0443  0.5000
  804MPD2     C11838   2.741   4.051  16.948  0.4588 -0.3754 -0.0259
  804MPD2    C111839   2.817   4.042  17.057 -0.0259  0.4435 -0.2190
  804MPD2    C211840   2.893   4.151  17.083  0.1319  0.5946  0.4448
  804MPD2    C311841   2.888   4.270  17.007 -0.2694  0.2862 -0.2480
  804MPD2    C411842   2.815   4.269  16.895  0.4589 -0.4661 -0.5618
  804MPD2    C511843   2.745   4.158  16.862  0.6151 -1.4573 -0.3804
  804MPD2     H11844   2.945   4.170  17.176 -0.8602 -1.6218  1.4414
  804MPD2    H111845   2.828   4.352  16.827  1.8107  0.3495  0.6720
  804MPD2    H211846   2.673   3.979  16.905  2.9780 -1.8518 -1.5230
  804MPD2    H311847   2.680   4.164  16.776  0.2030 -0.0130  0.0268
  804MPD2     N11848   2.970   4.380  17.048  0.2739  0.0680 -0.5213
  804MPD2    H511849   3.029   4.362  17.128 -0.5689 -1.7729 -0.3108
  804MPD2    N111850   2.827   3.928  17.140  0.5877  0.5403 -0.0385
  804MPD2    H711851   2.882   3.933  17.225 -3.6081  2.1312  2.5864
  805MPD2     C11852   2.154   2.687  15.714 -0.1307  0.3789  0.7418
  805MPD2    C111853   2.245   2.716  15.611  0.9846 -0.0216 -0.2172
  805MPD2    C211854   2.384   2.700  15.626 -0.3025  0.5927  0.5130
  805MPD2    C311855   2.436   2.641  15.737  0.7106  0.5843  0.2972
  805MPD2    C411856   2.345   2.629  15.843 -0.4393  0.4393  1.2187
  805MPD2    C511857   2.206   2.652  15.836  0.0670 -0.1491 -0.4091
  805MPD2     H11858   2.450   2.699  15.540 -0.5523  0.8261  0.3190
  805MPD2    H111859   2.381   2.604  15.942 -0.8462  1.4803  1.6185
  805MPD2    H211860   2.046   2.695  15.703  0.0361  1.1861 -0.2819
  805MPD2    H311861   2.137   2.636  15.918  1.4397  0.7899  0.9212
  805MPD2     N11862   2.573   2.623  15.749 -0.0528  0.5625  0.3463
  805MPD2    H511863   2.632   2.655  15.673  1.2391  2.1807  2.0307
  805MPD2    N111864   2.204   2.746  15.483  0.0303 -0.1219 -0.3197
  805MPD2    H711865   2.275   2.744  15.411  0.1871  1.1191 -0.2088
  806MPD2     C11866   3.940   2.291   0.663 -0.0474 -0.0440  1.2300
  806MPD2    C111867   3.878   2.369   0.754  1.0118 -0.0088  0.3545
  806MPD2    C211868   3.804   2.479   0.702 -0.3971  0.1633 -0.0006
  806MPD2    C311869   3.798   2.507   0.569 -0.4584  0.1205 -0.2675
  806MPD2    C411870   3.869   2.424   0.483 -0.6223 -1.1202  1.0187
  806MPD2    C511871   3.942   2.324   0.532 -0.4858  0.4899 -0.4917
  806MPD2     H11872   3.736   2.536   0.763  1.5173  1.2453  1.1313
  806MPD2    H111873   3.861   2.429   0.375 -1.1868  3.2636  1.2475
  806MPD2    H211874   4.004   2.212   0.701 -0.5462 -0.6057  0.8962
  806MPD2    H311875   3.995   2.255   0.468 -1.6699  0.5162 -1.5132
  806MPD2     N11876   3.708   2.606   0.521 -0.2439  0.5388  0.5098
  806MPD2    H511877   3.653   2.651   0.593 -1.5992 -0.0937 -0.1397
  806MPD2    N111878   3.877   2.323   0.891  0.4956  0.4436 -0.0790
  806MPD2    H711879   3.920   2.231   0.903 -0.3935  0.3633  2.4780
  807MPD2     C11880   3.482   2.563   1.600 -0.8593  0.2912 -0.2581
  807MPD2    C111881   3.461   2.443   1.550 -0.7133  0.0422 -0.4152
  807MPD2    C211882   3.344   2.374   1.575  0.3809  0.2632  0.2394
  807MPD2    C311883   3.239   2.444   1.633 -0.5386  0.3557 -0.0009
  807MPD2    C411884   3.259   2.575   1.679 -0.2111 -0.6796  0.5124
  807MPD2    C511885   3.378   2.629   1.652 -0.3677 -0.1113  0.4323
  807MPD2     H11886   3.336   2.274   1.534 -0.0818  0.3527  0.1120
  807MPD2    H111887   3.180   2.629   1.729 -0.5192 -0.2701 -0.4183
  807MPD2    H211888   3.577   2.616   1.595  0.9119 -2.6038  2.5905
  807MPD2    H311889   3.383   2.732   1.685  2.5455 -0.8724  2.4377
  807MPD2     N11890   3.108   2.385   1.635  0.3457 -0.0037  0.0798
  807MPD2    H511891   3.100   2.286   1.614  3.2347  0.0516 -1.2594
  807MPD2    N111892   3.556   2.383   1.466  1.2918  0.4259  0.0369
  807MPD2    H711893   3.538   2.288   1.433  1.8294 -0.0904  1.2245
  808MPD2     C11894   2.042   3.890   9.248  0.1535 -0.7005  0.4526
  808MPD2    C111895   1.997   4.019   9.234 -0.0427  0.4152  0.9829
  808MPD2    C211896   2.089   4.119   9.234  0.1759 -0.3717 -0.1707
  808MPD2    C311897   2.225   4.099   9.252 -0.5935 -0.1183 -0.1516
  808MPD2    C411898   2.272   3.970   9.263 -0.0105  0.1166  0.0517
  808MPD2    C511899   2.176   3.868   9.257  0.1990  0.0757  0.5696
  808MPD2     H11900   2.046   4.216   9.215 -2.1565 -1.6751 -1.6157
  808MPD2    H111901   2.376   3.952   9.288  0.0284  0.6139  0.2580
  808MPD2    H211902   1.973   3.806   9.249 -0.9960  0.1870 -1.9507
  808MPD2    H311903   2.213   3.766   9.262 -2.1468 -0.6756  2.4561
  808MPD2     N11904   2.326   4.196   9.249  0.0602  0.2791 -0.2476
  808MPD2    H511905   2.412   4.164   9.291  0.0017  0.9222  0.3684
  808MPD2    N111906   1.868   4.058   9.221  0.1749 -0.1928  0.1266
  808MPD2    H711907   1.852   4.157   9.208 -0.2117 -0.2900 -0.1362
  809MPD2     C11908   3.012   3.832   9.251 -0.8412 -0.5100 -0.3598
  809MPD2    C111909   3.058   3.949   9.190  0.4054  0.0010 -0.3641
  809MPD2    C211910   2.984   4.068   9.219 -0.0905  0.8132  0.0212
  809MPD2    C311911   2.867   4.065   9.290 -0.5290 -0.0214 -0.7504
  809MPD2    C411912   2.829   3.950   9.351  0.0570  0.4296  0.2395
  809MPD2    C511913   2.901   3.835   9.334 -0.4887 -0.6274  0.0327
  809MPD2     H11914   3.015   4.159   9.169  1.2854  1.0906  1.3636
  809MPD2    H111915   2.738   3.952   9.410  0.7385  1.5046  1.2711
  809MPD2    H211916   3.065   3.737   9.248  3.1671  1.7836 -1.3289
  809MPD2    H311917   2.873   3.747   9.390  0.1260 -1.7892 -1.4735
  809MPD2     N11918   2.777   4.173   9.305 -0.0814  0.2901  0.4171
  809MPD2    H511919   2.687   4.156   9.350 -0.4904 -0.5962 -0.7328
  809MPD2    N111920   3.177   3.948   9.109 -0.4844  0.2495  0.0043
  809MPD2    H711921   3.212   4.036   9.073 -0.2740  0.7173  1.3340
  810MPD2     C11922   2.708   3.605  10.225  0.0827  0.7961 -0.6419
  810MPD2    C111923   2.699   3.474  10.250 -0.6602 -0.2815  0.5176
  810MPD2    C211924   2.777   3.416  10.346  0.1416 -1.0039 -0.5990
  810MPD2    C311925   2.870   3.493  10.416 -0.7393 -0.1665 -0.1505
  810MPD2    C411926   2.883   3.627  10.378 -0.6063 -0.2712 -0.4004
  810MPD2    C511927   2.793   3.682  10.294  0.3397  0.2499 -0.1311
  810MPD2     H11928   2.761   3.314  10.380 -0.6137 -0.8253 -0.4060
  810MPD2    H111929   2.956   3.700  10.411 -1.5362 -0.2460  1.5557
  810MPD2    H211930   2.650   3.653  10.147  0.5935  0.4095 -1.2674
  810MPD2    H311931   2.796   3.790  10.280 -0.5803  0.0382 -1.9439
  810MPD2     N11932   2.957   3.434  10.517  0.2653  0.0067 -0.7601
  810MPD2    H511933   3.011   3.491  10.580 -1.2665  1.0157 -0.3742
  810MPD2    N111934   2.604   3.403  10.173  0.1361 -0.8551  0.4210
  810MPD2    H711935   2.544   3.461  10.115  0.7375 -0.4477  0.2028
  811MPD2     C11936   1.769   3.277  10.073  0.1160 -0.1355 -0.1093
  811MPD2    C111937   1.876   3.356  10.073 -0.0614 -0.4906  0.0717
  811MPD2    C211938   1.866   3.488  10.046 -0.1688 -0.8619  0.0573
  811MPD2    C311939   1.746   3.550  10.021  0.0169  0.0433  0.0216
  811MPD2    C411940   1.635   3.469  10.025 -0.0392 -0.0347 -0.7047
  811MPD2    C511941   1.646   3.333  10.049  0.3000 -0.2807 -0.2405
  811MPD2     H11942   1.954   3.551  10.038  0.9924 -2.4870 -0.0567
  811MPD2    H111943   1.539   3.517  10.008 -0.1067 -0.2381 -0.9006
  811MPD2    H211944   1.767   3.169  10.084  1.5300 -0.1266  0.1730
  811MPD2    H311945   1.560   3.266  10.056 -1.5941  2.3001  1.0692
  811MPD2     N11946   1.751   3.682   9.985 -0.2675  0.1823 -0.6182
  811MPD2    H511947   1.843   3.721   9.970  0.7888 -1.9392  0.4068
  811MPD2    N111948   1.993   3.290  10.109  0.4276 -0.3953  0.6900
  811MPD2    H711949   1.984   3.198  10.150  0.7519 -0.9891 -0.5516
  812MPD2     C11950   1.356   2.845  11.911 -0.6852  0.9946 -0.4554
  812MPD2    C111951   1.339   2.945  12.006  0.9154  0.6359 -0.1993
  812MPD2    C211952   1.335   2.906  12.142  0.0824  0.1457 -0.5681
  812MPD2    C311953   1.374   2.777  12.181  0.9061 -1.0318  0.7152
  812MPD2    C411954   1.405   2.680  12.080 -0.4191  0.6175 -0.2920
  812MPD2    C511955   1.396   2.719  11.948  0.4781 -0.8033 -0.5253
  812MPD2     H11956   1.327   2.976  12.224 -0.4108 -1.0504  0.4095
  812MPD2    H111957   1.429   2.580  12.112  2.3025  2.0659  2.1989
  812MPD2    H211958   1.358   2.870  11.805 -1.6160  0.0424 -0.6950
  812MPD2    H311959   1.414   2.650  11.866 -0.6759 -1.4437 -0.2447
  812MPD2     N11960   1.375   2.747  12.318  0.5912 -0.4354 -0.0346
  812MPD2    H511961   1.343   2.821  12.379 -0.7441 -1.4406  0.4838
  812MPD2    N111962   1.295   3.074  11.966  0.0744  0.1926 -0.2377
  812MPD2    H711963   1.290   3.095  11.867 -1.2853  1.3070  0.0678
  813MPD2     C11964   0.300   0.136  12.922  0.4102  0.0511  0.4215
  813MPD2    C111965   0.358   0.267  12.938 -0.5362 -0.0100 -0.7452
  813MPD2    C211966   0.301   0.345  13.044 -0.2555 -0.0835  0.2228
  813MPD2    C311967   0.197   0.306  13.127 -0.0225  0.0169 -0.4749
  813MPD2    C411968   0.151   0.177  13.110  0.0575  0.1989  0.0886
  813MPD2    C511969   0.201   0.098  13.011 -0.5005  0.3806 -0.0734
  813MPD2     H11970   0.335   0.445  13.068 -0.5123  0.1588 -0.4390
  813MPD2    H111971   0.065   0.140  13.165  1.9576 -1.6618  1.8305
  813MPD2    H211972   0.333   0.070  12.842 -0.3633  0.8348 -0.5554
  813MPD2    H311973   0.150   0.006  12.982 -0.9270  0.5162  0.2502
  813MPD2     N11974   0.156   0.405  13.224  0.2541  0.5415  0.0766
  813MPD2    H511975   0.199   0.496  13.226 -2.3964  1.7696  0.9457
  813MPD2    N111976   0.468   0.314  12.865  0.1860 -0.5253 -0.1176
  813MPD2    H711977   0.500   0.404  12.900 -0.4278 -0.1184 -0.5956
  814MPD2     C11978   0.791   1.639  12.114 -0.1739  0.1843 -0.5234
  814MPD2    C111979   0.860   1.669  11.997  0.4512 -0.2607  0.2932
  814MPD2    C211980   0.982   1.728  12.002 -0.2140  0.5967 -0.4483
  814MPD2    C311981   1.046   1.747  12.120 -0.8106 -0.1025 -0.3699
  814MPD2    C411982   0.983   1.716  12.237  0.0737  0.2023  0.3503
  814MPD2    C511983   0.858   1.655  12.233 -0.1136 -0.3192  0.0784
  814MPD2     H11984   1.033   1.737  11.907 -2.0852  0.2639 -1.4867
  814MPD2    H111985   1.033   1.726  12.333 -1.4775  0.4972  1.1282
  814MPD2    H211986   0.695   1.590  12.109  0.6903 -1.3939 -1.9929
  814MPD2    H311987   0.815   1.618  12.326  0.9640  0.3072  0.8325
  814MPD2     N11988   1.173   1.810  12.133 -0.1691  0.3755 -0.7367
  814MPD2    H511989   1.208   1.833  12.226 -0.4188 -1.1244 -0.2758
  814MPD2    N111990   0.800   1.653  11.868 -0.4945 -0.2502  0.5628
  814MPD2    H711991   0.855   1.682  11.788 -1.4999  0.3655  0.0876
  815MPD2     C11992   2.056   0.281  11.788 -0.1622  0.4296 -0.2506
  815MPD2    C111993   1.962   0.243  11.695  0.2204  0.1081 -0.3658
  815MPD2    C211994   1.824   0.236  11.724  0.1043  0.3442  0.3354
  815MPD2    C311995   1.786   0.257  11.854 -0.4416 -0.6575 -0.4991
  815MPD2    C411996   1.875   0.290  11.950 -0.2917 -0.6943 -0.3306
  815MPD2    C511997   2.004   0.299  11.915  0.2078 -0.7240  0.0727
  815MPD2     H11998   1.749   0.225  11.647  1.0911 -2.4569 -0.2295
  815MPD2    H111999   1.843   0.329  12.046 -0.3986 -2.1729  0.2295
  815MPD2    H212000   2.161   0.282  11.760 -0.4102  2.5440 -1.1124
  815MPD2    H312001   2.071   0.317  11.999 -0.4690  0.8411  0.2664
  815MPD2     N12002   1.643   0.246  11.883 -0.1872 -0.0045  0.2954
  815MPD2    H512003   1.590   0.223  11.800  0.4737 -2.6747  0.6416
  815MPD2    N112004   2.002   0.204  11.568  0.6320  0.3465  0.1805
  815MPD2    H712005   2.092   0.157  11.562 -0.1766 -0.8855 -2.4103
  816MPD2     C12006   2.017   4.098  17.598  0.3170 -0.3934  0.3668
  816MPD2    C112007   1.961   4.161  17.484 -0.6146 -0.5031  0.3718
  816MPD2    C212008   1.962   4.092  17.362  0.2792  0.3853 -0.4040
  816MPD2    C312009   2.020   3.969  17.347  0.5754 -0.0574  0.1178
  816MPD2    C412010   2.076   3.912  17.466 -0.2194 -0.4860  0.2512
  816MPD2    C512011   2.073   3.966  17.591 -0.4722  0.5220  0.2129
  816MPD2     H12012   1.916   4.139  17.276 -1.5900 -0.1255  0.3287
  816MPD2    H112013   2.114   3.811  17.464 -0.2506 -0.4830 -0.7991
  816MPD2    H212014   2.019   4.148   0.008 -1.7061  0.6778 -0.1476
  816MPD2    H312015   2.110   3.918  17.680 -0.5857 -1.4704 -0.8130
  816MPD2     N12016   2.030   3.917  17.216  0.3140  0.3531 -0.3056
  816MPD2    H512017   1.993   3.974  17.140 -2.9397 -0.8861  0.3629
  816MPD2    N112018   1.903   4.294  17.494 -0.1245  0.6899 -0.8281
  816MPD2    H712019   1.839   4.321  17.420 -0.6183  0.8267 -0.3602
  817MPD2     C12020   0.627   1.049   9.726 -0.1626 -0.3206  0.3868
  817MPD2    C112021   0.660   1.011   9.597 -0.1221  0.3355 -0.4383
  817MPD2    C212022   0.597   1.068   9.489 -0.4224 -0.3661 -0.1598
  817MPD2    C312023   0.500   1.169   9.508  0.1515  0.0646  0.2798
  817MPD2    C412024   0.470   1.212   9.636 -0.6390 -0.0200 -0.1563
  817MPD2    C512025   0.533   1.151   9.745  0.3014  0.2444  0.1584
  817MPD2     H12026   0.620   1.027   9.391  1.2958 -0.2084  0.1731
  817MPD2    H112027   0.389   1.280   9.659  0.3357  1.8741 -2.4151
  817MPD2    H212028   0.666   1.002   9.815 -1.3213 -0.0073  1.0666
  817MPD2    H312029   0.505   1.175   9.847  1.4650  0.3052  0.4620
  817MPD2     N12030   0.446   1.230   9.394  0.3787 -0.7559  0.9571
  817MPD2    H512031   0.478   1.205   9.301  0.1890 -0.8397  0.9148
  817MPD2    N112032   0.762   0.916   9.573  0.3635  0.2879  0.0174
  817MPD2    H712033   0.785   0.870   9.486  1.4341  0.8165  0.0206
  818MPD2     C12034   4.500   0.968   9.711  0.3502 -0.2082 -0.2683
  818MPD2    C112035   4.536   0.901   9.823 -0.0827  0.3205 -0.2381
  818MPD2    C212036   4.633   0.802   9.817 -0.4745 -0.4491 -0.3248
  818MPD2    C312037   4.682   0.758   9.692 -0.0233 -0.2797  0.6806
  818MPD2    C412038   4.626   0.801   9.583 -0.2792 -0.2708  0.2477
  818MPD2    C512039   4.545   0.912   9.587 -0.3198 -0.3898  0.4417
  818MPD2     H12040   4.663   0.746   9.905 -0.6048 -0.4115 -0.2559
  818MPD2    H112041   4.642   0.760   9.484 -0.3779  0.2750  0.0030
  818MPD2    H212042   4.428   1.049   9.710 -0.0469 -0.5373  1.2130
  818MPD2    H312043   4.497   0.951   9.498  1.9122 -0.9522 -1.0131
  818MPD2     N12044   0.057   0.656   9.683  0.1397  0.0142 -0.2168
  818MPD2    H512045   0.054   0.600   9.599  2.4526 -0.9381  0.3129
  818MPD2    N112046   4.477   0.925   9.945 -0.0030 -0.3151 -0.7510
  818MPD2    H712047   4.509   0.869  10.023  0.6885  0.1770 -0.6865
  819MPD2     C12048   2.945   2.275  15.596 -0.3152  0.1372 -0.0454
  819MPD2    C112049   2.972   2.148  15.555  0.1350  0.2648 -0.3696
  819MPD2    C212050   3.099   2.090  15.586 -0.3770  0.1764  0.3918
  819MPD2    C312051   3.191   2.167  15.655  0.1296  0.4631  0.4916
  819MPD2    C412052   3.168   2.302  15.678  0.4498 -0.1176  0.3897
  819MPD2    C512053   3.042   2.351  15.662  0.1201  0.1758 -0.3346
  819MPD2     H12054   3.126   1.987  15.566 -0.6118 -0.2522  2.3042
  819MPD2    H112055   3.247   2.371  15.708  1.5464 -2.0086  1.8628
  819MPD2    H212056   2.848   2.323  15.589 -0.5318 -0.0632  1.5496
  819MPD2    H312057   3.013   2.448  15.699  0.0487  0.4419 -1.0780
  819MPD2     N12058   3.316   2.108  15.671 -0.0285  0.1445 -0.3018
  819MPD2    H512059   3.330   2.013  15.639 -0.7189  0.0640 -0.3481
  819MPD2    N112060   2.873   2.077  15.490  0.1861  0.2575  0.2408
  819MPD2    H712061   2.792   2.133  15.465  0.2918  0.2667 -0.0763
  820MPD2     C12062   2.109   2.198  14.895  0.4465  0.2612 -0.0142
  820MPD2    C112063   2.183   2.278  14.985 -0.2999  0.8144 -0.2628
  820MPD2    C212064   2.295   2.220  15.044 -0.6314  0.5673 -0.1521
  820MPD2    C312065   2.324   2.086  15.014 -0.0663  0.5899 -0.1809
  820MPD2    C412066   2.244   2.014  14.933  0.7289 -0.8697 -0.0956
  820MPD2    C512067   2.135   2.070  14.866  0.2943 -0.5623  0.0791
  820MPD2     H12068   2.359   2.273  15.114 -0.6415  0.0243  0.2639
  820MPD2    H112069   2.268   1.912  14.906  1.1537 -1.4908  2.6446
  820MPD2    H212070   2.035   2.243  14.830  1.8340  1.5561 -0.7119
  820MPD2    H312071   2.061   2.026  14.800  0.4734  1.7753 -1.6433
  820MPD2     N12072   2.424   2.010  15.086  0.6127 -0.2656  0.0692
  820MPD2    H512073   2.434   1.910  15.070  0.3467 -0.6364  2.1134
  820MPD2    N112074   2.138   2.407  15.005 -0.4338  0.3365 -0.6052
  820MPD2    H712075   2.048   2.435  14.968 -2.6021 -4.1587  1.3078
  821MPD2     C12076   2.639   4.113  12.935  0.0276  0.8832 -0.1384
  821MPD2    C112077   2.738   4.019  12.947  0.8256 -0.1639 -0.1297
  821MPD2    C212078   2.841   4.004  12.855 -0.6504  0.4001  0.7307
  821MPD2    C312079   2.845   4.090  12.748  0.9072  0.2672  0.3571
  821MPD2    C412080   2.742   4.179  12.725  0.0872 -0.5977  0.5321
  821MPD2    C512081   2.643   4.189  12.816 -0.1431 -0.7362  0.6428
  821MPD2     H12082   2.922   3.935  12.870  0.5748  1.5386 -0.6970
  821MPD2    H112083   2.729   4.240  12.636  1.5495  0.8837  1.3284
  821MPD2    H212084   2.558   4.135  13.004 -0.9767  0.0828 -1.0512
  821MPD2    H312085   2.575   4.271  12.797  1.5253 -0.1575 -2.6421
  821MPD2     N12086   2.954   4.100  12.662 -0.1499  0.5236 -0.6260
  821MPD2    H512087   2.936   4.159  12.582 -1.1035  1.2683  0.1365
  821MPD2    N112088   2.732   3.917  13.046 -0.1858 -0.1843 -0.0814
  821MPD2    H712089   2.803   3.844  13.038  1.1726  0.7828  3.0272
  822MPD2     C12090   3.545   3.433  15.876 -0.1049 -0.4062  0.1813
  822MPD2    C112091   3.572   3.410  16.012 -0.1579 -0.8645 -0.3973
  822MPD2    C212092   3.500   3.487  16.105  0.1368 -0.1683  0.5613
  822MPD2    C312093   3.420   3.592  16.066 -0.2099  0.0283 -0.4190
  822MPD2    C412094   3.394   3.612  15.930 -0.1461  0.3891 -0.1267
  822MPD2    C512095   3.457   3.537  15.837 -0.8218 -0.0043 -0.1113
  822MPD2     H12096   3.510   3.469  16.212  1.6675 -0.8769  0.2898
  822MPD2    H112097   3.337   3.700  15.903 -1.0352 -0.4378 -0.9340
  822MPD2    H212098   3.604   3.377  15.805 -1.4898 -0.5546 -0.8498
  822MPD2    H312099   3.434   3.554  15.733 -0.0299 -1.8734 -0.6023
  822MPD2     N12100   3.353   3.659  16.179  0.6210 -0.1820  0.2621
  822MPD2    H512101   3.356   3.620  16.273 -0.3251  1.1493  0.8410
  822MPD2    N112102   3.667   3.322  16.069  0.1408 -0.5988  0.0528
  822MPD2    H712103   3.688   3.318  16.168  0.1336 -1.1569  0.0344
  823MPD2     C12104   3.125   3.774  16.981 -0.4811 -0.6691  0.1708
  823MPD2    C112105   3.170   3.705  16.871  0.3212  0.0301 -0.6299
  823MPD2    C212106   3.252   3.593  16.891 -0.1583 -0.1515 -0.5884
  823MPD2    C312107   3.278   3.551  17.019 -0.0978 -0.2081  0.2650
  823MPD2    C412108   3.220   3.613  17.129 -0.9025 -0.9073 -0.2215
  823MPD2    C512109   3.144   3.732  17.104  0.1618  0.0621 -0.5575
  823MPD2     H12110   3.316   3.548  16.816  1.0377  1.9096 -0.8044
  823MPD2    H112111   3.252   3.592  17.230 -1.6423 -1.3912 -0.0936
  823MPD2    H212112   3.066   3.864  16.969  0.4466 -0.3366 -1.7422
  823MPD2    H312113   3.102   3.786  17.189 -0.8259 -1.2799 -0.1843
  823MPD2     N12114   3.375   3.450  17.049 -0.2006  0.0182 -0.2798
  823MPD2    H512115   3.403   3.443  17.146 -1.0620 -2.0291 -0.1800
  823MPD2    N112116   3.152   3.768  16.750  0.0170 -0.5312 -0.0241
  823MPD2    H712117   3.113   3.862  16.752 -1.3808 -1.1692  3.0137
  824MPD2     C12118   4.025   2.609  15.843  0.0817 -0.3776 -0.0318
  824MPD2    C112119   4.086   2.730  15.858 -0.5776 -0.3843 -0.4828
  824MPD2    C212120   4.196   2.757  15.779  0.4420 -0.3060  0.0835
  824MPD2    C312121   4.246   2.663  15.694  0.3817  0.4052 -0.4415
  824MPD2    C412122   4.173   2.542  15.676  0.4932 -0.4375  0.1665
  824MPD2    C512123   4.063   2.512  15.753  0.9179 -0.0622  0.5135
  824MPD2     H12124   4.257   2.841  15.809  0.9815 -1.4497  2.1672
  824MPD2    H112125   4.201   2.461  15.609  2.0063 -1.2336  1.7453
  824MPD2    H212126   3.934   2.594  15.901  0.4075  0.0788  0.5958
  824MPD2    H312127   4.006   2.420  15.744  0.1210  0.3564  1.2482
  824MPD2     N12128   4.361   2.688  15.627 -0.6019 -0.4497  0.0644
  824MPD2    H512129   4.408   2.776  15.647 -0.3577 -0.4669 -0.4485
  824MPD2    N112130   4.041   2.823  15.953  0.0411  0.0889 -0.4627
  824MPD2    H712131   4.076   2.918  15.949 -1.5996  0.6998 -0.2982
  825MPD2     C12132   0.332   3.103  15.397 -0.0852  0.0913 -0.3868
  825MPD2    C112133   0.201   3.090  15.359 -0.5014  0.1965  0.4529
  825MPD2    C212134   0.139   3.199  15.309 -0.3074 -0.3799  0.4349
  825MPD2    C312135   0.197   3.323  15.303  0.0845 -0.0347 -0.2338
  825MPD2    C412136   0.334   3.338  15.330  0.4212  0.8888 -0.2920
  825MPD2    C512137   0.397   3.221  15.377  0.0651  0.3145 -0.3462
  825MPD2     H12138   0.039   3.192  15.267 -0.0031  0.9444 -0.5039
  825MPD2    H112139   0.389   3.430  15.315  0.1756  0.8718 -1.2830
  825MPD2    H212140   0.390   3.019  15.434  1.4229  1.7913  1.1326
  825MPD2    H312141   0.503   3.236  15.393  0.2417  1.5576 -2.7387
  825MPD2     N12142   0.130   3.439  15.254  0.2697  0.4376  0.7260
  825MPD2    H512143   0.190   3.520  15.253 -0.8421  1.2579  0.7396
  825MPD2    N112144   0.136   2.963  15.377 -0.0237 -0.5448 -0.1795
  825MPD2    H712145   0.194   2.894  15.424 -2.6525 -1.0878  2.3012
  826MPD2     C12146   4.547   3.148  13.738  0.4521 -0.2532 -0.2768
  826MPD2    C112147   4.438   3.137  13.650 -0.4785  0.2831  0.1355
  826MPD2    C212148   4.320   3.193  13.686 -0.2505 -0.4451 -0.0736
  826MPD2    C312149   4.308   3.261  13.811 -1.2519  0.5525  0.3653
  826MPD2    C412150   4.418   3.267  13.896  0.1118  0.5707  0.7042
  826MPD2    C512151   4.538   3.220  13.855  0.4597 -0.5948  0.1245
  826MPD2     H12152   4.236   3.194  13.618  1.5287  0.0722 -2.2509
  826MPD2    H112153   4.415   3.315  13.993 -0.8127 -0.1910  1.0568
  826MPD2    H212154   4.644   3.110  13.709  0.8934 -0.4363  1.4705
  826MPD2    H312155   4.630   3.220  13.912 -0.6904 -0.7563  1.9963
  826MPD2     N12156   4.190   3.316  13.866 -0.2178  0.1780 -0.4741
  826MPD2    H512157   4.192   3.336  13.966  1.4105  1.7703 -0.8362
  826MPD2    N112158   4.458   3.072  13.526 -0.5417  0.0441 -0.4842
  826MPD2    H712159   4.554   3.040  13.516 -0.4666  1.0331 -3.0426
  827MPD2     C12160   0.325   4.500   9.867  0.6382  0.1401 -0.2919
  827MPD2    C112161   0.278   4.427   9.976  0.0257 -0.0453 -0.2969
  827MPD2    C212162   0.141   4.411   9.991 -0.5313 -0.1772 -0.1733
  827MPD2    C312163   0.055   4.465   9.899 -0.4579 -0.3362  0.0038
  827MPD2    C412164   0.105   4.541   9.792  0.2681 -0.4018 -0.1296
  827MPD2    C512165   0.241   4.561   9.779  0.1505 -0.0912 -0.0870
  827MPD2     H12166   0.104   4.352  10.074 -0.7786 -0.3230 -0.3890
  827MPD2    H112167   0.051   4.591   9.712 -0.5861  0.8572  1.2327
  827MPD2    H212168   0.431   4.505   9.845  0.5212  0.2699 -0.8274
  827MPD2    H312169   0.289   4.610   9.695  0.0027  0.8337  0.3678
  827MPD2     N12170   4.635   4.466   9.923 -0.3350  0.6013  0.1789
  827MPD2    H512171   4.606   4.449  10.019 -0.1004  0.9768  0.3161
  827MPD2    N112172   0.381   4.386  10.068  0.2524  0.0283 -0.6008
  827MPD2    H712173   0.474   4.411  10.036  0.3584  0.0680 -0.2571
  828MPD2     C12174   3.602   3.775  12.318 -0.1521  0.0825  0.5630
  828MPD2    C112175   3.613   3.884  12.243  0.4862 -0.7298 -0.6690
  828MPD2    C212176   3.742   3.895  12.187 -0.1070  0.1537 -1.0339
  828MPD2    C312177   3.851   3.809  12.213  0.5696 -0.5539 -1.0854
  828MPD2    C412178   3.834   3.706  12.305  0.8793 -0.3873  0.6764
  828MPD2    C512179   3.707   3.698  12.357 -0.0399  0.4428  0.4567
  828MPD2     H12180   3.749   3.988  12.131 -0.4652  1.0434  0.3841
  828MPD2    H112181   3.914   3.643  12.343 -0.5630 -2.2138  0.6731
  828MPD2    H212182   3.513   3.749  12.375 -0.8567  0.9411 -0.1453
  828MPD2    H312183   3.695   3.628  12.439 -0.3170 -1.2334 -1.0115
  828MPD2     N12184   3.981   3.833  12.155 -0.1134 -0.2264 -0.4375
  828MPD2    H512185   4.059   3.792  12.205 -0.8627 -0.3161  0.6659
  828MPD2    N112186   3.506   3.975  12.208  0.4130 -0.5678 -0.1888
  828MPD2    H712187   3.526   4.056  12.150  0.5709  0.9816  2.0405
  829MPD2     C12188   3.531   4.514  11.558 -0.1006  0.3244  0.5345
  829MPD2    C112189   3.408   4.470  11.544  0.6820 -0.1399 -0.0886
  829MPD2    C212190   3.337   4.394  11.645  1.0933  0.2760 -0.2026
  829MPD2    C312191   3.417   4.355  11.750  0.1911 -0.1280 -0.2789
  829MPD2    C412192   3.556   4.384  11.752  0.5043 -0.3782  0.2088
  829MPD2    C512193   3.606   4.469  11.660  0.0304 -1.0657  1.1237
  829MPD2     H12194   3.238   4.351  11.631  0.3906  1.7159  0.3707
  829MPD2    H112195   3.625   4.338  11.822 -0.2818 -0.5638  0.8658
  829MPD2    H212196   3.580   4.579  11.486  0.7284 -1.5139 -0.5764
  829MPD2    H312197   3.711   4.494  11.652 -0.3514  0.3300  0.4384
  829MPD2     N12198   3.362   4.286  11.868  0.1398  0.2392 -0.7897
  829MPD2    H512199   3.429   4.276  11.944 -0.3697  2.2074 -0.0968
  829MPD2    N112200   3.349   4.522  11.427 -0.4321  1.2534 -0.0064
  829MPD2    H712201   3.407   4.569  11.358  0.4745 -0.1738 -0.2257
  830MPD2     C12202   4.225   1.954  15.588 -0.1298 -0.1397 -0.2637
  830MPD2    C112203   4.106   2.014  15.549  0.1883 -0.5278  0.2171
  830MPD2    C212204   4.105   2.122  15.463 -0.1248 -0.6596  0.5760
  830MPD2    C312205   4.228   2.162  15.411  0.1003 -0.6073  0.6166
  830MPD2    C412206   4.346   2.111  15.455 -0.0296 -0.4592 -0.1480
  830MPD2    C512207   4.344   2.002  15.543  0.2478  0.4688 -0.6258
  830MPD2     H12208   4.017   2.177  15.433 -0.8994 -0.9523  2.3375
  830MPD2    H112209   4.443   2.145  15.421  1.4848 -0.9959  3.6176
  830MPD2    H212210   4.240   1.880  15.666 -0.3832 -1.4339 -1.4435
  830MPD2    H312211   4.432   1.960  15.590 -1.4709 -1.0347  1.1892
  830MPD2     N12212   4.242   2.276  15.332  0.4842 -0.2895  0.2268
  830MPD2    H512213   4.333   2.320  15.330  0.7008 -0.6860  1.0490
  830MPD2    N112214   3.983   1.980  15.625  0.6333 -0.3635  0.3735
  830MPD2    H712215   3.993   1.929  15.712 -2.8362  1.2140  1.6715
  831MPD2     C12216   3.615   3.740  16.441  0.6803  0.4015 -0.3695
  831MPD2    C112217   3.685   3.641  16.376  0.7610  0.4885 -0.3326
  831MPD2    C212218   3.663   3.507  16.410 -0.3020  0.9430  0.4477
  831MPD2    C312219   3.578   3.481  16.520 -0.0726  0.2112 -0.0510
  831MPD2    C412220   3.522   3.584  16.595  0.4685  0.6590  0.0819
  831MPD2    C512221   3.543   3.713  16.553  0.0185  0.6575  0.9453
  831MPD2     H12222   3.720   3.431  16.359 -2.4962  1.1992 -2.4392
  831MPD2    H112223   3.459   3.568  16.682  0.5663 -0.7708 -0.1079
  831MPD2    H212224   3.619   3.843  16.408 -2.6300  0.0613 -1.8812
  831MPD2    H312225   3.497   3.795  16.607 -1.7946 -0.6246  1.3390
  831MPD2     N12226   3.533   3.345  16.546  0.0299  0.3860 -0.3289
  831MPD2    H512227   3.475   3.339  16.629 -2.8276  1.6416 -2.2318
  831MPD2    N112228   3.759   3.673  16.259 -0.1724  0.3501 -0.0217
  831MPD2    H712229   3.744   3.764  16.217 -0.7292  0.0904 -0.3886
  832MPD2     C12230   1.946   0.011  17.300 -0.1221 -0.1663  0.1223
  832MPD2    C112231   1.986   0.139  17.316 -0.7126  0.2501  0.6393
  832MPD2    C212232   1.910   0.241  17.262 -0.9803  0.2803  0.1011
  832MPD2    C312233   1.789   0.213  17.198 -0.4933  0.3787  0.3469
  832MPD2    C412234   1.752   0.083  17.186  0.7449 -0.3938  0.1023
  832MPD2    C512235   1.827   4.703  17.238  0.2336  0.2026  1.0723
  832MPD2     H12236   1.937   0.345  17.270  0.3553 -0.1305  0.8635
  832MPD2    H112237   1.661   0.065  17.130  1.4569 -1.2276 -0.7836
  832MPD2    H212238   2.012   4.651  17.329 -0.2003  0.2051  1.3430
  832MPD2    H312239   1.802   4.600  17.214 -0.7476  0.7189 -0.1316
  832MPD2     N12240   1.701   0.315  17.149 -0.2785  0.4235 -0.1087
  832MPD2    H512241   1.612   0.289  17.107 -1.0197 -2.4675  3.3078
  832MPD2    N112242   2.109   0.160  17.387  0.0184  0.0722 -0.3307
  832MPD2    H712243   2.162   0.078  17.412  0.5705  0.6751  0.4518
  833MPD2     C12244   4.015   1.787  12.578 -0.6542  0.0736  0.6252
  833MPD2    C112245   4.036   1.883  12.481 -0.8619  0.4371  0.0163
  833MPD2    C212246   4.107   1.846  12.367 -0.7259 -0.5879  0.3219
  833MPD2    C312247   4.158   1.715  12.358 -0.4069 -0.1662 -0.0062
  833MPD2    C412248   4.145   1.629  12.469  0.1572  0.0485  1.3219
  833MPD2    C512249   4.074   1.668  12.574 -1.0132  0.0195  0.4041
  833MPD2     H12250   4.122   1.919  12.289  1.5229 -0.6749  0.6603
  833MPD2    H112251   4.193   1.532  12.477 -0.8569 -0.6932 -1.5880
  833MPD2    H212252   3.951   1.802  12.664  0.8696  1.1821  1.5737
  833MPD2    H312253   4.056   1.601  12.657 -1.5953  0.4993  0.6638
  833MPD2     N12254   4.245   1.673  12.256 -0.5033 -0.6775  0.8287
  833MPD2    H512255   4.274   1.578  12.278 -2.6395 -1.5272  0.0158
  833MPD2    N112256   3.989   2.013  12.498  0.1631  0.8484  0.0577
  833MPD2    H712257   3.929   2.035  12.578 -1.8264 -1.7354 -0.7144
  834MPD2     C12258   4.235   1.004  11.534  0.2488 -0.4116  0.3540
  834MPD2    C112259   4.191   1.116  11.464  0.4083  1.2202 -0.0657
  834MPD2    C212260   4.222   1.237  11.513 -0.0447  0.1409  0.5316
  834MPD2    C312261   4.271   1.255  11.643 -0.8296 -0.1781 -0.1479
  834MPD2    C412262   4.311   1.143  11.713 -0.1140 -0.1054  0.1853
  834MPD2    C512263   4.294   1.014  11.658  0.6284  0.5289 -0.0072
  834MPD2     H12264   4.189   1.326  11.460  1.5195  0.0656 -0.5872
  834MPD2    H112265   4.357   1.153  11.810  0.3354  1.6626 -0.1878
  834MPD2    H212266   4.209   0.905  11.498  1.8496 -0.4368 -0.7455
  834MPD2    H312267   4.319   0.921  11.707  1.8417  1.2817  0.8005
  834MPD2     N12268   4.261   1.381  11.706 -0.5095  0.3147  0.2931
  834MPD2    H512269   4.225   1.455  11.648 -2.4062 -0.8734 -0.0585
  834MPD2    N112270   4.099   1.095  11.349  0.1799 -0.0252 -0.4183
  834MPD2    H712271   4.055   1.003  11.350  1.7491 -0.7672  0.9764
  835MPD2     C12272   4.362   4.254  10.681  0.4957 -0.4100  0.0561
  835MPD2    C112273   4.230   4.283  10.690 -0.5109 -0.0013  0.0080
  835MPD2    C212274   4.186   4.345  10.805  0.2037 -0.2783 -0.3225
  835MPD2    C312275   4.272   4.376  10.913  0.3421 -0.1683  0.2197
  835MPD2    C412276   4.403   4.343  10.900  0.0644 -0.9128  0.1872
  835MPD2    C512277   4.447   4.272  10.787 -0.4717 -0.0460 -0.5465
  835MPD2     H12278   4.082   4.370  10.821 -0.6204 -2.1007 -2.8455
  835MPD2    H112279   4.475   4.370  10.977 -0.3011 -1.4457  0.7245
  835MPD2    H212280   4.410   4.208  10.596  1.6787 -0.2008  0.6138
  835MPD2    H312281   4.554   4.254  10.785 -0.2474  1.1651  0.3223
  835MPD2     N12282   4.232   4.449  11.028  0.2817 -0.3034  0.1971
  835MPD2    H512283   4.306   4.472  11.094  1.0140 -2.6017  0.1743
  835MPD2    N112284   4.131   4.258  10.599 -0.3510 -0.0418 -0.2726
  835MPD2    H712285   4.052   4.321  10.589 -0.0461  0.0188 -2.2625
  836MPD2     C12286   3.567   0.142  11.086 -0.0559  0.1767  0.4963
  836MPD2    C112287   3.601   0.085  11.206 -0.6284 -0.2547  0.1108
  836MPD2    C212288   3.512   0.097  11.315 -0.7508  0.1777 -0.0071
  836MPD2    C312289   3.393   0.163  11.303 -0.1572  0.5561  0.6458
  836MPD2    C412290   3.366   0.226  11.180  0.1817  0.2232  0.5421
  836MPD2    C512291   3.452   0.216  11.074  0.2163 -0.2902 -0.1119
  836MPD2     H12292   3.521   0.043  11.409  0.0795 -1.1263 -0.8223
  836MPD2    H112293   3.278   0.286  11.162  0.0476 -0.2933 -0.5601
  836MPD2    H212294   3.625   0.127  10.996  1.2541  0.8594  1.2358
  836MPD2    H312295   3.424   0.258  10.978  0.7612  0.7059  0.1707
  836MPD2     N12296   3.304   0.195  11.412 -0.1601  0.4731  0.1770
  836MPD2    H512297   3.220   0.240  11.379 -2.0052 -2.1916  1.2690
  836MPD2    N112298   3.732   0.022  11.213  0.0663 -0.0340  0.1934
  836MPD2    H712299   3.766   4.699  11.128 -0.6785  1.9131 -1.1216
  837MPD2     C12300   2.226   4.289   9.963  0.5454  0.4293  0.3199
  837MPD2    C112301   2.094   4.315   9.931  0.6014 -0.2696 -0.8093
  837MPD2    C212302   2.059   4.441   9.907 -0.1637 -0.5050 -0.3763
  837MPD2    C312303   2.147   4.545   9.897  0.8302  0.6464  0.2108
  837MPD2    C412304   2.268   4.524   9.941  0.6870  0.1978 -0.9861
  837MPD2    C512305   2.307   4.398   9.962  0.5379 -0.0617 -0.4470
  837MPD2     H12306   1.961   4.457   9.862 -0.3166 -3.4139 -1.1146
  837MPD2    H112307   2.345   4.599   9.925  2.8778 -1.6105  1.0283
  837MPD2    H212308   2.263   4.189   9.982 -0.1792 -0.1442 -1.2741
  837MPD2    H312309   2.414   4.387   9.977  0.7100  0.3856 -1.3896
  837MPD2     N12310   2.093   4.673   9.850  0.3642  0.3828  0.2097
  837MPD2    H512311   1.998   4.658   9.819 -0.3874  0.4173  2.5440
  837MPD2    N112312   1.993   4.220   9.911  0.3669 -0.4785  0.4930
  837MPD2    H712313   1.899   4.258   9.906  0.3029 -0.6603  0.3316
  838MPD2     C12314   0.463   2.546  12.094 -0.1364 -0.0445  1.0044
  838MPD2    C112315   0.464   2.411  12.057 -0.1539  0.2616  0.9464
  838MPD2    C212316   0.363   2.329  12.100  0.4753  0.5476  0.3214
  838MPD2    C312317   0.255   2.385  12.163  0.6629 -0.1916 -0.3623
  838MPD2    C412318   0.240   2.525  12.177  0.0446  0.4588  0.1213
  838MPD2    C512319   0.350   2.604  12.148 -0.3365 -1.0535  0.3370
  838MPD2     H12320   0.362   2.223  12.078  1.4317  0.3828  1.0873
  838MPD2    H112321   0.154   2.569  12.225 -0.6928  0.1873 -0.9502
  838MPD2    H212322   0.545   2.611  12.065  0.2425  0.1774  2.5270
  838MPD2    H312323   0.347   2.712  12.161  1.5936 -0.9915  0.3388
  838MPD2     N12324   0.156   2.298  12.205  0.3346  0.3198 -0.0460
  838MPD2    H512325   0.166   2.199  12.185 -0.0340  0.2046  0.3479
  838MPD2    N112326   0.575   2.353  11.984 -0.3416 -0.4838 -0.3801
  838MPD2    H712327   0.565   2.254  11.963  0.1704 -0.2293 -1.7524
  839MPD2     C12328   0.269   1.704  11.707  0.2798  0.1263 -0.4252
  839MPD2    C112329   0.316   1.760  11.592 -0.1126  0.1993 -0.6175
  839MPD2    C212330   0.424   1.849  11.593  0.7631  0.4390  0.0440
  839MPD2    C312331   0.474   1.891  11.718 -0.0905 -0.5796 -0.0213
  839MPD2    C412332   0.420   1.835  11.836  0.7191  0.2364 -0.2955
  839MPD2    C512333   0.323   1.740  11.830  0.5769 -0.1646  0.4697
  839MPD2     H12334   0.451   1.895  11.499 -2.9858 -1.0670 -1.8007
  839MPD2    H112335   0.447   1.870  11.936  1.6175  0.5830 -0.6559
  839MPD2    H212336   0.192   1.628  11.717  1.0666 -0.4428  1.2435
  839MPD2    H312337   0.282   1.688  11.915  0.4517  0.3710  0.7393
  839MPD2     N12338   0.575   1.989  11.732  0.2830  0.0247 -0.6613
  839MPD2    H512339   0.586   2.024  11.826 -3.3691 -0.1734 -0.1560
  839MPD2    N112340   0.264   1.720  11.472  0.0798  0.3448  0.1447
  839MPD2    H712341   0.309   1.761  11.391  0.7997 -0.0454  0.3478
  840MPD2     C12342   0.875   4.718  10.033 -0.2730  0.7022 -0.3052
  840MPD2    C112343   0.913   4.641  10.144 -0.0859  0.0129  0.2543
  840MPD2    C212344   1.025   4.674  10.225  0.3697 -0.1931  0.4225
  840MPD2    C312345   1.088   0.077  10.210  0.5563 -0.4360 -0.6159
  840MPD2    C412346   1.055   0.152  10.095  0.5233  0.5582 -0.3079
  840MPD2    C512347   0.951   0.111  10.009 -0.5998 -0.0312  0.8201
  840MPD2     H12348   1.029   4.633  10.326  0.8690 -2.3472 -0.4648
  840MPD2    H112349   1.093   0.249  10.067  1.3605  0.4679  0.5502
  840MPD2    H212350   0.796   4.693   9.963 -0.5342  0.8077 -0.0452
  840MPD2    H312351   0.928   0.183   9.931 -1.7994 -0.5497  0.6982
  840MPD2     N12352   1.171   0.131  10.314  0.0857 -0.2535 -0.5758
  840MPD2    H512353   1.207   0.223  10.291 -0.6676  0.4521  1.0702
  840MPD2    N112354   0.829   4.531  10.167  0.0970 -0.2887  0.3965
  840MPD2    H712355   0.755   4.527  10.097 -1.1179  2.3512  1.5403
  841MPD2     C12356   0.367   4.663  14.123 -0.0860 -0.0164  0.0131
  841MPD2    C112357   0.413   4.553  14.202  0.5217 -0.4079  0.1643
  841MPD2    C212358   0.484   4.588  14.316 -0.3629  0.9998  0.4539
  841MPD2    C312359   0.520   0.001  14.341 -0.8001  0.6459  0.2142
  841MPD2    C412360   0.479   0.102  14.256  0.4020  0.2515  0.7742
  841MPD2    C512361   0.408   0.068  14.147  0.1529 -0.4438 -0.0185
  841MPD2     H12362   0.503   4.517  14.395 -1.5189  1.1698  0.8815
  841MPD2    H112363   0.499   0.207  14.269  1.1564  0.1918  0.0718
  841MPD2    H212364   0.309   4.652  14.032 -0.2857 -0.6966  0.2202
  841MPD2    H312365   0.386   0.148  14.077  0.3780 -0.3795 -0.0180
  841MPD2     N12366   0.599   0.028  14.455 -0.1534  0.2935 -0.4083
  841MPD2    H512367   0.623   4.674  14.519  1.2044 -0.4372 -1.7766
  841MPD2    N112368   0.388   4.419  14.157  0.7414 -0.1781 -0.6674
  841MPD2    H712369   0.409   4.337  14.213 -0.9850 -1.0349 -1.2867
  842MPD2     C12370   1.619   0.888  17.033  0.3299  0.0071  0.1976
  842MPD2    C112371   1.491   0.921  17.062 -0.7319  0.6044  0.2495
  842MPD2    C212372   1.462   0.948  17.189 -0.0786 -0.0349  0.6825
  842MPD2    C312373   1.552   0.931  17.298 -0.8829  0.1745  0.1471
  842MPD2    C412374   1.676   0.879  17.268  0.0143  0.5162 -0.6307
  842MPD2    C512375   1.702   0.866  17.134  0.0131 -0.1721 -0.0543
  842MPD2     H12376   1.358   0.967  17.212 -0.3133 -0.6580  0.1114
  842MPD2    H112377   1.756   0.872  17.341  0.0002 -1.1976 -0.7722
  842MPD2    H212378   1.656   0.863  16.934 -1.0368  0.4050 -0.4094
  842MPD2    H312379   1.806   0.849  17.111  0.1427  1.0441 -0.3863
  842MPD2     N12380   1.504   0.969  17.418  0.4222  0.4005 -0.2218
  842MPD2    H512381   1.407   0.999  17.419 -0.0706 -1.1772 -1.2074
  842MPD2    N112382   1.386   0.927  16.966 -0.2900 -0.2581 -0.1068
  842MPD2    H712383   1.410   0.928  16.867 -1.3569  0.7489 -0.3601
  843MPD2     C12384   3.175   0.554  17.652  0.1775 -0.1143  0.3688
  843MPD2    C112385   3.199   0.609   0.088  0.3690  0.1390  0.9178
  843MPD2    C212386   3.327   0.647   0.125 -0.5348  0.4514 -0.0935
  843MPD2    C312387   3.429   0.622   0.043 -0.0610  0.3728  0.2268
  843MPD2    C412388   3.410   0.568  17.599 -0.2734 -0.7495  0.0494
  843MPD2    C512389   3.284   0.532  17.566  0.6209  0.2950  0.3863
  843MPD2     H12390   3.354   0.685   0.223 -0.7688 -1.8319  0.8537
  843MPD2    H112391   3.491   0.546  17.531 -1.1531  0.7347 -1.4658
  843MPD2    H212392   3.082   0.509  17.619  0.9333 -0.8635 -0.7856
  843MPD2    H312393   3.268   0.480  17.471  0.0074 -2.6525  2.1013
  843MPD2     N12394   3.557   0.667   0.085 -0.3921 -0.4235  0.0895
  843MPD2    H512395   3.558   0.720   0.172  0.8845  0.6219 -0.5601
  843MPD2    N112396   3.085   0.601   0.171  0.5603 -0.3169  0.0755
  843MPD2    H712397   2.994   0.578   0.133 -0.6743 -1.5971  3.8702
  844MPD2     C12398   1.565   0.180  16.592 -0.8862  0.7110  0.0653
  844MPD2    C112399   1.641   0.069  16.618 -0.3781  0.2143  0.2134
  844MPD2    C212400   1.750   0.079  16.698 -0.2529 -0.1519  1.1437
  844MPD2    C312401   1.779   0.200  16.762 -0.3418  0.3134  0.3670
  844MPD2    C412402   1.691   0.305  16.750  0.6826  0.8864  0.0238
  844MPD2    C512403   1.594   0.296  16.658 -0.4850 -0.3246 -0.5743
  844MPD2     H12404   1.807   4.707  16.705 -1.7799 -1.0255  1.8759
  844MPD2    H112405   1.703   0.398  16.806  0.0572 -0.1595  1.8979
  844MPD2    H212406   1.484   0.168  16.521 -0.1427 -1.1135 -0.4694
  844MPD2    H312407   1.522   0.376  16.649 -0.7012 -0.5163 -0.5443
  844MPD2     N12408   1.896   0.217  16.840  0.0147 -0.1444  0.5616
  844MPD2    H512409   1.960   0.139  16.857  2.1940  1.2759 -1.0519
  844MPD2    N112410   1.609   4.666  16.560  0.2915 -0.1295  0.5875
  844MPD2    H712411   1.675   4.592  16.583  0.1031 -1.5374 -3.3464
  845MPD2     C12412   2.756   0.812  17.005  0.6728 -0.3622 -0.2761
  845MPD2    C112413   2.628   0.848  17.047  0.4397  0.5902  0.5919
  845MPD2    C212414   2.536   0.751  17.060 -0.1410  0.2079 -0.5110
  845MPD2    C312415   2.563   0.620  17.021 -0.3451 -0.1407 -0.3238
  845MPD2    C412416   2.692   0.587  16.972  0.2271  0.2899  0.2339
  845MPD2    C512417   2.789   0.686  16.981 -0.0738  1.3035 -0.3130
  845MPD2     H12418   2.434   0.784  17.073 -0.1275 -1.4919  3.9386
  845MPD2    H112419   2.707   0.485  16.939 -0.4913 -0.2223  1.4703
  845MPD2    H212420   2.836   0.885  16.997  0.3816 -0.1808 -1.6295
  845MPD2    H312421   2.895   0.673  16.961 -0.1781  0.0015 -0.0024
  845MPD2     N12422   2.459   0.522  17.033  0.2196  0.4337 -0.0122
  845MPD2    H512423   2.486   0.428  17.004 -3.2015 -0.4023 -0.4732
  845MPD2    N112424   2.591   0.983  17.076  0.7658  0.2498 -0.3705
  845MPD2    H712425   2.654   1.052  17.038  2.6487 -1.3283 -0.0994
  846MPD2     C12426   3.440   1.159  13.243  0.1389 -0.3215 -0.4204
  846MPD2    C112427   3.420   1.283  13.297  0.4940 -0.3161  0.7867
  846MPD2    C212428   3.452   1.302  13.432  0.5580  0.1020  0.4104
  846MPD2    C312429   3.505   1.200  13.511 -0.3068  0.2735  0.0806
  846MPD2    C412430   3.533   1.083  13.449  0.2198  0.6840 -0.4853
  846MPD2    C512431   3.507   1.060  13.317  0.3637  0.7171 -0.3739
  846MPD2     H12432   3.437   1.399  13.477 -2.7006  0.0604 -0.6143
  846MPD2    H112433   3.583   1.002  13.502  0.0387  1.5620  1.0172
  846MPD2    H212434   3.452   1.139  13.137 -1.4510 -0.6460 -0.5388
  846MPD2    H312435   3.528   0.957  13.288 -2.5602 -0.7115  2.4756
  846MPD2     N12436   3.518   1.230  13.649  0.5783  0.2320 -0.2560
  846MPD2    H512437   3.481   1.317  13.685 -0.7270 -0.1200 -0.7506
  846MPD2    N112438   3.395   1.398  13.211 -0.0243 -0.1145 -0.9596
  846MPD2    H712439   3.394   1.489  13.256  0.5270 -0.6146  0.0559
  847MPD2     C12440   2.902   2.346  13.788 -0.4506  1.0766 -0.2528
  847MPD2    C112441   3.037   2.354  13.816 -0.4534 -0.3397 -0.4532
  847MPD2    C212442   3.126   2.284  13.738  0.4768 -0.0579 -0.2787
  847MPD2    C312443   3.079   2.224  13.627  0.0874 -0.3967  0.4679
  847MPD2    C412444   2.942   2.218  13.594  0.7547  0.9671 -0.0044
  847MPD2    C512445   2.856   2.287  13.676 -0.1239 -0.3888 -0.5642
  847MPD2     H12446   3.228   2.268  13.770  0.1454 -1.2560  0.1739
  847MPD2    H112447   2.900   2.163  13.511  0.0292 -0.3162  1.2061
  847MPD2    H212448   2.840   2.401  13.858  0.0418 -1.0347  1.8783
  847MPD2    H312449   2.750   2.294  13.655 -0.4985  2.7997  2.3881
  847MPD2     N12450   3.180   2.172  13.550 -0.0641 -1.0707  0.4090
  847MPD2    H512451   3.275   2.185  13.582  0.2933 -1.9477 -0.2867
  847MPD2    N112452   3.085   2.427  13.931 -0.3653 -0.3950 -0.1563
  847MPD2    H712453   3.186   2.424  13.943 -0.5387  0.0196  1.3865
  848MPD2     C12454   1.388   0.679  16.543 -0.2425  0.4730  0.6654
  848MPD2    C112455   1.499   0.710  16.617 -0.3848 -0.2484 -0.3326
  848MPD2    C212456   1.595   0.790  16.563 -0.2755  0.6907 -0.3430
  848MPD2    C312457   1.577   0.844  16.433 -0.4441 -0.2366 -0.1956
  848MPD2    C412458   1.463   0.818  16.367 -0.1247 -0.0467 -0.8109
  848MPD2    C512459   1.378   0.740  16.420  0.5144 -0.3707  0.1870
  848MPD2     H12460   1.690   0.801  16.613 -0.7588  0.2254  0.6942
  848MPD2    H112461   1.438   0.855  16.268 -1.0399 -2.4952 -1.4808
  848MPD2    H212462   1.307   0.612  16.569 -0.4095 -0.2290 -1.6622
  848MPD2    H312463   1.291   0.709  16.363 -1.4016  0.0098  2.9149
  848MPD2     N12464   1.674   0.916  16.362 -0.1831  0.0976  0.2254
  848MPD2    H512465   1.646   0.949  16.270  0.1317  1.0005  0.4530
  848MPD2    N112466   1.516   0.658  16.747  0.3772  0.8773 -0.8395
  848MPD2    H712467   1.610   0.669  16.786  0.3122  0.5847 -0.5956
  849MPD2     C12468   1.248   0.749  13.677 -0.2574  0.0250  0.3374
  849MPD2    C112469   1.247   0.631  13.742 -0.8924 -0.0054 -0.6443
  849MPD2    C212470   1.189   0.618  13.865  0.1744 -0.4260 -0.1930
  849MPD2    C312471   1.130   0.723  13.929  0.1750 -0.0071  0.5451
  849MPD2    C412472   1.132   0.845  13.864  0.0441 -0.6599  0.0487
  849MPD2    C512473   1.182   0.848  13.739  0.4032  0.0728 -0.1325
  849MPD2     H12474   1.209   0.523  13.913 -0.6256 -1.4946 -1.9611
  849MPD2    H112475   1.081   0.935  13.898  0.1456 -0.1245 -1.2242
  849MPD2    H212476   1.281   0.764  13.575 -1.6317 -0.0541 -0.1101
  849MPD2    H312477   1.165   0.941  13.686 -0.6684  1.1879  2.1919
  849MPD2     N12478   1.074   0.711  14.054  0.4521  0.2974 -0.1480
  849MPD2    H512479   1.075   0.798  14.107  1.0357 -1.3954  2.6015
  849MPD2    N112480   1.313   0.515  13.685  0.0498  0.6437  0.4505
  849MPD2    H712481   1.318   0.431  13.741  0.4471  0.7383  0.5593
  850MPD2     C12482   3.548   3.251  14.740 -0.4814  0.0699 -0.5415
  850MPD2    C112483   3.580   3.172  14.853  0.3563  0.8612  1.1663
  850MPD2    C212484   3.706   3.133  14.874  0.1569  0.3023 -0.0188
  850MPD2    C312485   3.811   3.172  14.796 -0.2264  0.4623 -0.4921
  850MPD2    C412486   3.785   3.242  14.681 -0.4395  0.4106  0.0316
  850MPD2    C512487   3.655   3.278  14.652  0.2196 -0.2482 -0.6375
  850MPD2     H12488   3.720   3.059  14.952  1.5393  0.5986  0.0141
  850MPD2    H112489   3.861   3.274  14.611 -1.1292  1.3844 -0.2688
  850MPD2    H212490   3.452   3.298  14.718 -0.3813  0.6955  0.3384
  850MPD2    H312491   3.630   3.346  14.571 -0.9038  1.4219  1.0971
  850MPD2     N12492   3.944   3.140  14.830  0.1894  0.3548  0.4929
  850MPD2    H512493   4.014   3.182  14.769  0.7126  3.2191  3.0866
  850MPD2    N112494   3.482   3.137  14.951 -0.2936  0.0699 -0.5934
  850MPD2    H712495   3.516   3.077  15.025  0.8792  1.0310 -0.3493
  851MPD2     C12496   3.764   2.967  15.594  0.3918 -0.0907  0.4259
  851MPD2    C112497   3.719   2.958  15.460  0.2351 -0.3062 -0.3726
  851MPD2    C212498   3.805   2.911  15.365  0.2163 -0.2932  0.2263
  851MPD2    C312499   3.930   2.862  15.402  0.0887  0.1476  0.2154
  851MPD2    C412500   3.976   2.866  15.537  0.1394 -0.4040  0.3191
  851MPD2    C512501   3.893   2.923  15.628 -0.5866 -0.0405  0.4935
  851MPD2     H12502   3.776   2.900  15.261 -1.5819  0.2597  0.6701
  851MPD2    H112503   4.074   2.831  15.567  0.5588 -0.4871 -1.1529
  851MPD2    H212504   3.709   3.007  15.679 -1.4653 -1.7925  0.0281
  851MPD2    H312505   3.927   2.940  15.730  0.4695  3.2835 -0.4155
  851MPD2     N12506   4.005   2.803  15.301  0.7007  0.4588 -0.1524
  851MPD2    H512507   3.959   2.792  15.212  0.3905  1.4955 -0.1188
  851MPD2    N112508   3.590   3.005  15.428 -0.4558  0.0169 -0.1514
  851MPD2    H712509   3.536   3.024  15.512 -0.9572 -0.5607 -0.3449
  852MPD2     C12510   2.351   1.561   9.486  0.0373  0.0714 -0.1852
  852MPD2    C112511   2.444   1.486   9.561 -0.8268  0.6265 -0.2035
  852MPD2    C212512   2.552   1.554   9.612 -0.1973  0.0590 -0.8812
  852MPD2    C312513   2.570   1.691   9.590  0.7451  0.4935 -0.1162
  852MPD2    C412514   2.481   1.763   9.511 -0.2966 -0.1634 -0.8313
  852MPD2    C512515   2.381   1.690   9.456  0.0279 -0.3039 -0.4050
  852MPD2     H12516   2.626   1.493   9.662  0.7414  1.9242  0.0069
  852MPD2    H112517   2.492   1.865   9.476 -0.9508  0.2717  0.2239
  852MPD2    H212518   2.258   1.521   9.448  0.6031 -0.9068 -0.5636
  852MPD2    H312519   2.311   1.732   9.385 -1.0635 -0.8992  0.3095
  852MPD2     N12520   2.683   1.759   9.650  0.1073 -0.8215 -0.0183
  852MPD2    H512521   2.741   1.706   9.714  2.7829  1.2081 -0.7877
  852MPD2    N112522   2.418   1.356   9.618  0.6734  0.1737  0.7282
  852MPD2    H712523   2.480   1.321   9.691 -0.1060 -2.2419  0.2112
  853MPD2     C12524   0.467   0.715  12.332 -0.5415 -0.3029 -0.1459
  853MPD2    C112525   0.372   0.796  12.270 -0.0243  0.7764  0.0794
  853MPD2    C212526   0.388   0.831  12.136 -1.0864 -0.6447  0.7672
  853MPD2    C312527   0.495   0.779  12.063  0.5886  0.2332 -0.3383
  853MPD2    C412528   0.589   0.704  12.128  0.1059  0.1708 -0.0477
  853MPD2    C512529   0.579   0.676  12.262 -0.5366 -0.2633 -0.3790
  853MPD2     H12530   0.325   0.908  12.094  2.5169  1.6985 -0.3587
  853MPD2    H112531   0.683   0.677  12.080  0.9863  0.4818  1.4968
  853MPD2    H212532   0.444   0.675  12.430 -0.5263  0.9814  0.3908
  853MPD2    H312533   0.663   0.633  12.315 -0.7946  0.1929  0.3995
  853MPD2     N12534   0.498   0.791  11.921  0.1608 -0.3350 -0.1148
  853MPD2    H512535   0.563   0.735  11.868 -0.0326 -0.7712  0.1127
  853MPD2    N112536   0.265   0.849  12.353  0.2913  0.7460  0.0546
  853MPD2    H712537   0.273   0.819  12.450  1.5832 -0.9868 -0.5967
  854MPD2     C12538   2.033   0.763  13.423 -0.5397 -0.4825 -0.2907
  854MPD2    C112539   2.045   0.811  13.293 -0.1758 -0.6557 -0.1496
  854MPD2    C212540   2.155   0.771  13.217 -0.5513  0.5029 -0.3219
  854MPD2    C312541   2.247   0.680  13.272 -0.5632  0.1757  0.2831
  854MPD2    C412542   2.232   0.644  13.400  0.3848 -0.9041 -0.3738
  854MPD2    C512543   2.125   0.688  13.473  0.0706 -0.0550  0.5319
  854MPD2     H12544   2.183   0.821  13.125 -1.1706 -3.6945 -2.7934
  854MPD2    H112545   2.301   0.571  13.441  0.9917  0.3486  0.7926
  854MPD2    H212546   1.952   0.806  13.480  0.7611  2.3836 -0.6323
  854MPD2    H312547   2.127   0.656  13.577  0.0653 -0.4157  0.4228
  854MPD2     N12548   2.364   0.634  13.208  0.6659 -0.3092  0.7600
  854MPD2    H512549   2.433   0.578  13.256  0.4934 -0.7360  0.5134
  854MPD2    N112550   1.949   0.902  13.242  0.0429  0.5006 -0.5005
  854MPD2    H712551   1.865   0.914  13.297  0.4831 -0.0482  0.2849
  855MPD2     C12552   3.248   0.555  13.569 -0.1403 -0.3993 -0.0945
  855MPD2    C112553   3.117   0.585  13.600  0.8075  0.2076  0.3051
  855MPD2    C212554   3.021   0.561  13.503  0.3121 -0.1836  0.4710
  855MPD2    C312555   3.057   0.546  13.367 -0.2654 -0.5077 -0.0633
  855MPD2    C412556   3.191   0.526  13.337 -0.1072 -0.7069 -0.5949
  855MPD2    C512557   3.286   0.524  13.440 -0.0742 -0.0392 -0.4752
  855MPD2     H12558   2.918   0.580  13.533  0.5888 -1.5601  2.3343
  855MPD2    H112559   3.230   0.528  13.236 -0.0547 -0.2935 -0.5687
  855MPD2    H212560   3.325   0.565  13.645  1.8415  0.3198 -2.2014
  855MPD2    H312561   3.392   0.520  13.419 -0.0046 -0.0512 -0.1195
  855MPD2     N12562   2.964   0.557  13.263  0.2362  0.0373  0.4255
  855MPD2    H512563   3.009   0.534  13.175  0.5603  2.3782 -0.0099
  855MPD2    N112564   3.073   0.606  13.732  0.2634  0.2761 -0.1513
  855MPD2    H712565   2.974   0.629  13.739  0.6881  2.0792 -0.1928
  856MPD2     C12566   4.545   1.630  13.382  0.9084  0.1847  0.7703
  856MPD2    C112567   4.608   1.726  13.452 -0.0415 -0.1243  0.7590
  856MPD2    C212568   4.552   1.852  13.441  0.7821 -1.1607 -0.3612
  856MPD2    C312569   4.428   1.866  13.374  0.2806  0.3653 -0.0480
  856MPD2    C412570   4.375   1.756  13.302  0.6552 -0.7961  0.2870
  856MPD2    C512571   4.435   1.645  13.303 -0.4238 -0.2782  0.1119
  856MPD2     H12572   4.569   1.932  13.511  0.1567 -2.4068  1.2257
  856MPD2    H112573   4.282   1.769  13.248  0.0024 -0.2443  1.5290
  856MPD2    H212574   4.588   1.530  13.384 -1.1292 -0.6535  1.9330
  856MPD2    H312575   4.396   1.559  13.249 -1.8731  0.1166  0.5533
  856MPD2     N12576   4.357   1.986  13.372  0.7414  0.0443  0.3561
  856MPD2    H512577   4.257   1.978  13.357  0.3831 -0.5322  2.9651
  856MPD2    N112578   4.718   1.700  13.545 -0.0239  0.2502  0.1672
  856MPD2    H712579   0.059   1.775  13.577 -0.7836 -0.2294  2.7306
  857MPD2     C12580   1.258   3.557  12.980  0.3825 -0.4693 -0.3665
  857MPD2    C112581   1.380   3.566  12.915 -0.2191 -0.6220 -0.3209
  857MPD2    C212582   1.471   3.667  12.944 -0.0117  0.9097  0.5048
  857MPD2    C312583   1.432   3.760  13.034  0.0542 -0.0489  0.0591
  857MPD2    C412584   1.324   3.732  13.112  0.4708 -0.3489  0.1445
  857MPD2    C512585   1.242   3.627  13.091 -0.8206  0.5795 -0.3392
  857MPD2     H12586   1.552   3.681  12.874 -2.6078  0.9530 -2.4632
  857MPD2    H112587   1.302   3.793  13.199  1.5160  1.4486 -0.8543
  857MPD2    H212588   1.189   3.474  12.965 -0.1413 -0.1123  0.0900
  857MPD2    H312589   1.172   3.605  13.171 -1.7752 -1.2701 -1.6836
  857MPD2     N12590   1.506   3.880  13.045 -0.1242 -0.5673  0.7013
  857MPD2    H512591   1.600   3.881  13.009 -1.1670  1.6262 -2.0040
  857MPD2    N112592   1.398   3.472  12.806  0.0795 -0.0234 -0.6846
  857MPD2    H712593   1.317   3.413  12.785  1.9925 -1.4617 -4.0654
  858MPD2     C12594   1.980   2.399  16.612 -1.0121  0.0431 -0.3711
  858MPD2    C112595   2.114   2.428  16.629 -0.6893  0.6498 -0.3155
  858MPD2    C212596   2.162   2.558  16.630  0.0065 -0.2550  0.0204
  858MPD2    C312597   2.071   2.664  16.615 -0.1382  0.4358  1.0855
  858MPD2    C412598   1.939   2.631  16.596  0.2440  0.4797  0.0210
  858MPD2    C512599   1.896   2.504  16.588  0.1348  0.1317 -0.8947
  858MPD2     H12600   2.270   2.567  16.630 -0.3458  3.8169  0.2134
  858MPD2    H112601   1.872   2.714  16.577 -0.2936 -0.4014 -1.9806
  858MPD2    H212602   1.932   2.302  16.620 -1.5819  0.0341 -3.8759
  858MPD2    H312603   1.790   2.487  16.581  0.2198 -0.8921  0.2137
  858MPD2     N12604   2.109   2.802  16.618 -1.0727  0.3429  0.2650
  858MPD2    H512605   2.034   2.870  16.619  0.3462  1.9583 -0.7713
  858MPD2    N112606   2.208   2.322  16.637  0.0039  0.1215 -0.9207
  858MPD2    H712607   2.164   2.240  16.596  2.0323 -1.3363 -0.1422
  859MPD2     C12608   0.916   0.683  15.856 -0.5686 -0.3896 -0.1798
  859MPD2    C112609   0.894   0.636  15.725  0.5757  0.3634  0.4858
  859MPD2    C212610   0.804   0.529  15.706 -0.0457 -0.2701  0.1338
  859MPD2    C312611   0.742   0.470  15.811 -0.0409  0.8370  0.4210
  859MPD2    C412612   0.759   0.529  15.936 -0.4108 -0.1765 -0.9203
  859MPD2    C512613   0.845   0.630  15.956  0.2084 -0.5011  0.5831
  859MPD2     H12614   0.780   0.501  15.604  0.7806 -0.1903 -0.0816
  859MPD2    H112615   0.716   0.492  16.029 -0.8722 -0.3533 -1.2044
  859MPD2    H212616   0.994   0.758  15.869 -0.1524 -0.7255 -0.7638
  859MPD2    H312617   0.864   0.662  16.057 -0.0312  2.3792 -0.2728
  859MPD2     N12618   0.654   0.363  15.808 -0.2591 -0.3411  0.0165
  859MPD2    H512619   0.598   0.330  15.886 -0.2334 -1.5829 -0.4926
  859MPD2    N112620   0.977   0.690  15.615  0.3699  0.4098  0.1516
  859MPD2    H712621   1.050   0.758  15.634  1.1150  0.0039 -1.2273
  860MPD2     C12622   2.844   0.564  11.475 -0.3912 -0.2651 -0.0214
  860MPD2    C112623   2.867   0.593  11.611 -0.1361  0.0401  0.3285
  860MPD2    C212624   2.797   0.531  11.704 -0.2028  0.0477  0.3834
  860MPD2    C312625   2.694   0.444  11.671 -0.4070 -0.0592  0.0985
  860MPD2    C412626   2.673   0.406  11.540  0.7951  0.3284 -0.3352
  860MPD2    C512627   2.749   0.469  11.437  0.1173  0.1564 -0.7440
  860MPD2     H12628   2.811   0.550  11.810 -3.7717  0.0366  0.8364
  860MPD2    H112629   2.597   0.334  11.511  1.3278 -0.6102  0.6084
  860MPD2    H212630   2.892   0.621  11.397  0.5860  0.9995  1.5211
  860MPD2    H312631   2.729   0.438  11.335 -1.1460 -0.8974 -0.1771
  860MPD2     N12632   2.614   0.401  11.780  0.3223 -0.4314 -0.7850
  860MPD2    H512633   2.631   0.457  11.863 -0.8251 -1.4237  0.1145
  860MPD2    N112634   2.961   0.686  11.660 -0.1972 -0.1952 -0.4655
  860MPD2    H712635   2.971   0.696  11.761  0.7465 -0.9409 -0.4859
  861MPD2     C12636   2.310   3.904  10.751  0.3231  0.3967 -0.4527
  861MPD2    C112637   2.204   3.861  10.826 -0.1990 -0.9193 -0.0888
  861MPD2    C212638   2.074   3.872  10.777  0.0542  0.6645 -0.5674
  861MPD2    C312639   2.051   3.933  10.654  0.3299 -0.5809 -0.0698
  861MPD2    C412640   2.159   3.975  10.582  0.2103 -0.5225 -0.3427
  861MPD2    C512641   2.286   3.962  10.629 -1.1347  0.2192  0.1203
  861MPD2     H12642   1.989   3.840  10.835  0.6846  2.6829  1.4650
  861MPD2    H112643   2.149   4.024  10.486 -0.8386  0.0558  0.0615
  861MPD2    H212644   2.415   3.895  10.777  0.2711  1.1587  0.0062
  861MPD2    H312645   2.371   3.986  10.567 -2.4813  1.0808 -1.4016
  861MPD2     N12646   1.927   3.961  10.599 -0.3081 -0.3990 -0.0036
  861MPD2    H512647   1.926   4.000  10.506 -2.2330 -1.0513 -0.2507
  861MPD2    N112648   2.218   3.803  10.957  0.0573 -0.0673  0.3240
  861MPD2    H712649   2.135   3.756  10.990 -2.1003  1.6180 -2.7212
  862MPD2     C12650   1.346   4.072  10.177  0.3902 -0.1300 -0.5412
  862MPD2    C112651   1.475   4.051  10.205  0.1940  1.0928 -0.1842
  862MPD2    C212652   1.517   3.929  10.248  0.7628  0.1107  0.4341
  862MPD2    C312653   1.426   3.824  10.276 -0.0838 -0.3743 -0.2605
  862MPD2    C412654   1.292   3.855  10.258  0.4276  0.3716  0.0993
  862MPD2    C512655   1.255   3.978  10.211 -0.2346 -0.7207 -0.3616
  862MPD2     H12656   1.623   3.911  10.240  0.5006 -1.5333  0.6928
  862MPD2    H112657   1.209   3.786  10.274  0.7295  0.2285  1.0127
  862MPD2    H212658   1.305   4.169  10.150 -1.2108 -0.3507  1.0646
  862MPD2    H312659   1.151   4.005  10.199 -0.2490 -0.1375  1.0982
  862MPD2     N12660   1.468   3.690  10.328 -0.4694  0.1842 -0.4681
  862MPD2    H512661   1.392   3.627  10.353  0.6962 -1.4493 -1.0298
  862MPD2    N112662   1.562   4.161  10.185  0.4059  0.2565 -0.1985
  862MPD2    H712663   1.519   4.241  10.140 -1.0700 -0.2154  0.3941
  863MPD2     C12664   0.633   2.314  16.754 -0.2300  0.6925 -0.9872
  863MPD2    C112665   0.532   2.220  16.769 -0.2922  0.5487 -0.4205
  863MPD2    C212666   0.548   2.111  16.854  0.6874  0.6732  0.4310
  863MPD2    C312667   0.669   2.084  16.918  0.9105  0.2390 -0.3065
  863MPD2    C412668   0.772   2.175  16.903  0.5109 -0.4653  0.0909
  863MPD2    C512669   0.755   2.290  16.819  0.2336 -0.4094  0.4513
  863MPD2     H12670   0.463   2.044  16.865  2.4252 -1.7616 -1.0616
  863MPD2    H112671   0.866   2.155  16.954  0.1527  3.0829  2.1344
  863MPD2    H212672   0.625   2.403  16.694  0.6316  0.8664 -0.8369
  863MPD2    H312673   0.836   2.360  16.807 -0.2443 -0.3362 -2.3738
  863MPD2     N12674   0.693   1.960  16.976 -0.8644 -0.0334  0.4918
  863MPD2    H512675   0.792   1.943  16.990 -0.9000 -0.9391 -0.3484
  863MPD2    N112676   0.417   2.248  16.696  0.1169 -0.1095  0.7494
  863MPD2    H712677   0.402   2.317  16.624  1.4487 -2.5658 -1.8921
  864MPD2     C12678   1.024   2.945  17.522 -0.1487  0.8724  0.3288
  864MPD2    C112679   1.098   2.872  17.429 -0.1556 -0.3056 -0.3063
  864MPD2    C212680   1.159   2.945  17.329 -0.2131 -0.3572 -0.2463
  864MPD2    C312681   1.126   3.077  17.302  0.6041 -0.3959  0.7777
  864MPD2    C412682   1.043   3.143  17.384  0.5198 -0.1139 -0.1287
  864MPD2    C512683   0.998   3.076  17.499  0.2684 -0.4117 -0.2765
  864MPD2     H12684   1.227   2.900  17.257  0.8609 -1.3612  1.3818
  864MPD2    H112685   1.016   3.246  17.365  1.3900  0.4598  1.8092
  864MPD2    H212686   0.980   2.894  17.607  0.4645  0.3267  0.3253
  864MPD2    H312687   0.936   3.128  17.571  2.1528  1.1775  0.2101
  864MPD2     N12688   1.178   3.143  17.193 -0.4563 -0.1621  0.2573
  864MPD2    H512689   1.153   3.240  17.178  1.2988 -0.1125 -2.4312
  864MPD2    N112690   1.106   2.734  17.441  0.1939 -0.5003 -0.3203
  864MPD2    H712691   1.079   2.694  17.531 -2.9254  0.5574 -0.7924
  865MPD2     C12692   1.046   3.353  16.333 -0.1254 -0.8487  0.4748
  865MPD2    C112693   1.062   3.265  16.433 -0.2563 -0.4540  0.3093
  865MPD2    C212694   1.042   3.303  16.562  1.5630 -0.5607  0.5986
  865MPD2    C312695   1.011   3.440  16.591  0.2091  0.6940  0.6778
  865MPD2    C412696   0.974   3.524  16.485 -0.2736  0.9564 -0.1619
  865MPD2    C512697   0.990   3.475  16.358 -0.3376  0.4560  0.7562
  865MPD2     H12698   1.058   3.238  16.647 -1.5404 -1.2819  0.6597
  865MPD2    H112699   0.922   3.620  16.487 -0.6074  0.7838 -0.5651
  865MPD2    H212700   1.065   3.327  16.229 -0.5983  0.4724  0.0505
  865MPD2    H312701   0.969   3.534  16.270 -0.8874 -0.3438  0.3452
  865MPD2     N12702   1.013   3.497  16.718  0.0950  0.0052  0.3006
  865MPD2    H512703   0.982   3.593  16.707 -0.1806 -0.2747 -1.3850
  865MPD2    N112704   1.117   3.144  16.399 -0.5341 -0.6023  0.4755
  865MPD2    H712705   1.135   3.125  16.301  2.6636  2.7066  0.4057
  866MPD2     C12706   2.824   4.290  11.286 -0.2256 -0.3258 -0.7273
  866MPD2    C112707   2.812   4.285  11.149 -0.0901 -0.3438 -0.5681
  866MPD2    C212708   2.685   4.292  11.094 -0.0667  0.4655 -0.1480
  866MPD2    C312709   2.576   4.309  11.176 -0.2937  0.5366  0.1177
  866MPD2    C412710   2.592   4.303  11.314 -0.5991  0.6414 -0.3308
  866MPD2    C512711   2.719   4.310  11.368  0.3349 -0.0975  0.3902
  866MPD2     H12712   2.665   4.274  10.988  0.9388  0.4235 -0.3244
  866MPD2    H112713   2.509   4.305  11.384 -1.1462 -0.8018 -0.9608
  866MPD2    H212714   2.919   4.309  11.335  0.0814 -0.5454 -1.2482
  866MPD2    H312715   2.736   4.316  11.475  1.4568 -0.2594  0.2296
  866MPD2     N12716   2.443   4.297  11.133 -0.1299 -0.2463  0.4800
  866MPD2    H512717   2.366   4.294  11.199 -1.0422 -1.5065 -0.6725
  866MPD2    N112718   2.930   4.278  11.066  0.0594 -0.9487 -0.0386
  866MPD2    H712719   3.019   4.261  11.112  0.3086 -0.3132 -0.2824
  867MPD2     C12720   4.717   3.116  16.042 -0.3202 -0.5696 -0.5413
  867MPD2    C112721   0.018   3.092  16.175  0.2814 -0.7047 -0.3276
  867MPD2    C212722   4.690   3.186  16.269 -0.1619 -0.2687 -0.1199
  867MPD2    C312723   4.619   3.297  16.221 -0.1411 -0.0813  0.3965
  867MPD2    C412724   4.589   3.310  16.088 -0.1478 -0.3836  0.0149
  867MPD2    C512725   4.638   3.220  15.998  0.0242  0.2984 -0.0717
  867MPD2     H12726   4.684   3.154  16.373 -2.3558 -0.2555 -0.2473
  867MPD2    H112727   4.532   3.393  16.049 -1.7966 -2.3999 -1.9137
  867MPD2    H212728   0.037   3.054  15.963 -0.3320 -0.7911 -0.3722
  867MPD2    H312729   4.613   3.224  15.893  1.3966 -3.7102 -0.5425
  867MPD2     N12730   4.563   3.394  16.306 -0.0457 -0.2358 -0.4342
  867MPD2    H512731   4.520   3.476  16.264  1.6222  1.6378  1.5729
  867MPD2    N112732   0.084   2.974  16.212 -0.6020  0.4821 -0.2246
  867MPD2    H712733   0.088   2.903  16.140  0.3152  0.4286 -0.1261
  868MPD2     C12734   1.738   2.526  13.135 -0.4060  0.2487 -1.1095
  868MPD2    C112735   1.724   2.407  13.207  0.4379  0.4624 -0.2911
  868MPD2    C212736   1.646   2.405  13.323  0.9841  0.0973  0.7755
  868MPD2    C312737   1.584   2.518  13.370 -0.2574  0.7723  0.6287
  868MPD2    C412738   1.605   2.635  13.303 -0.3064 -0.2273  0.4512
  868MPD2    C512739   1.680   2.643  13.185 -0.1146  0.6859  0.0315
  868MPD2     H12740   1.630   2.316  13.382 -0.7183  0.1766  0.4575
  868MPD2    H112741   1.573   2.731  13.343  0.8993  0.5713 -0.5082
  868MPD2    H212742   1.803   2.533  13.048  1.0392 -0.4905 -0.0977
  868MPD2    H312743   1.695   2.743  13.146  0.4025 -0.0068 -1.5476
  868MPD2     N12744   1.504   2.500  13.490 -0.1191 -0.1114  0.8700
  868MPD2    H512745   1.491   2.406  13.526 -0.4375  0.8401  3.1876
  868MPD2    N112746   1.790   2.289  13.165  0.2883  0.4627 -0.5096
  868MPD2    H712747   1.853   2.293  13.085  0.0968 -0.2807 -0.6994
  869MPD2     C12748   3.228   0.130   1.636  0.0445 -0.6497  0.1228
  869MPD2    C112749   3.114   0.171   1.702 -0.1416 -0.0437 -0.0583
  869MPD2    C212750   3.066   0.301   1.681  0.4755 -0.1121  0.0344
  869MPD2    C312751   3.141   0.388   1.596 -0.0893 -0.4325 -0.3881
  869MPD2    C412752   3.253   0.348   1.526  0.2074  0.7412  0.0174
  869MPD2    C512753   3.293   0.216   1.549  0.1594 -1.1082  0.0613
  869MPD2     H12754   2.976   0.334   1.732  0.8339 -0.2015  0.7255
  869MPD2    H112755   3.308   0.418   1.465  0.7405  0.9451  0.7284
  869MPD2    H212756   3.263   0.028   1.635 -0.1983 -0.7363  0.4538
  869MPD2    H312757   3.389   0.188   1.505  0.6620 -0.1150  0.5232
  869MPD2     N12758   3.096   0.518   1.569  0.0235  0.0197  0.4594
  869MPD2    H512759   3.131   0.559   1.483 -0.6663  0.2983  0.3073
  869MPD2    N112760   3.053   0.078   1.785  0.0976  0.0460  0.2462
  869MPD2    H712761   3.093   4.706   1.796  3.5484  1.5854  0.6958
  870MPD2     C12762   2.018   4.417   1.777  0.1314 -0.4321 -0.1732
  870MPD2    C112763   2.051   4.291   1.729  1.0534 -0.4153 -0.3942
  870MPD2    C212764   1.998   4.254   1.608  0.0569 -0.7287  0.2168
  870MPD2    C312765   1.930   4.340   1.523  0.0948 -0.5473  0.0391
  870MPD2    C412766   1.898   4.465   1.574 -0.0702 -0.2697 -0.4416
  870MPD2    C512767   1.938   4.500   1.700 -0.0582  0.2505  0.4086
  870MPD2     H12768   2.042   4.162   1.571  0.4918 -0.6010  0.4185
  870MPD2    H112769   1.835   4.534   1.520  0.8477  2.1658  1.6204
  870MPD2    H212770   2.053   4.450   1.875  0.2011 -1.3714  0.1204
  870MPD2    H312771   1.911   4.598   1.737  1.1217  0.4028  0.8780
  870MPD2     N12772   1.885   4.297   1.395 -0.1848 -0.1577 -0.6078
  870MPD2    H512773   1.922   4.209   1.360 -1.1172 -0.8586  0.1605
  870MPD2    N112774   2.139   4.205   1.800 -0.4015 -0.0890 -0.4435
  870MPD2    H712775   2.176   4.235   1.889 -1.2119  1.1846 -0.5326
  871MPD2     C12776   3.615   2.855  16.556  0.6060  0.1065  0.6540
  871MPD2    C112777   3.598   2.823  16.690 -0.8310 -0.6136 -0.7049
  871MPD2    C212778   3.575   2.693  16.723  0.7555 -0.1427  0.0772
  871MPD2    C312779   3.567   2.593  16.631 -0.2533 -0.2210  0.3875
  871MPD2    C412780   3.584   2.625  16.500  0.1105 -0.2310  0.8694
  871MPD2    C512781   3.610   2.755  16.466  0.0192 -0.3580 -0.1270
  871MPD2     H12782   3.566   2.666  16.828 -0.3851 -0.7180 -0.1611
  871MPD2    H112783   3.577   2.551  16.420  1.0918 -0.3001  0.8575
  871MPD2    H212784   3.631   2.959  16.528  0.8216  0.3534  1.6820
  871MPD2    H312785   3.627   2.782  16.363 -0.0399  0.0539 -0.0311
  871MPD2     N12786   3.552   2.465  16.688 -0.1150  0.0563 -0.5417
  871MPD2    H512787   3.564   2.458  16.788 -2.2171 -1.1729 -0.3852
  871MPD2    N112788   3.603   2.930  16.785  0.1546 -0.6457  0.4051
  871MPD2    H712789   3.647   3.018  16.760  1.3823 -1.0707  1.0924
  872MPD2     C12790   4.097   1.284  13.440  0.8214 -0.7293 -0.2484
  872MPD2    C112791   4.184   1.195  13.493 -0.0041  0.1568 -0.3881
  872MPD2    C212792   4.136   1.110  13.593  0.4501  0.0817 -0.3135
  872MPD2    C312793   4.007   1.108  13.642  0.2623  0.0391  0.1843
  872MPD2    C412794   3.922   1.194  13.580  0.5608  0.4175  0.7941
  872MPD2    C512795   3.963   1.279  13.476  0.2373 -0.4438 -0.3301
  872MPD2     H12796   4.208   1.039  13.632  0.2554  1.1328  1.9603
  872MPD2    H112797   3.818   1.204  13.610 -0.1417 -0.6175 -1.3497
  872MPD2    H212798   4.122   1.354  13.361 -1.2146  0.7453  0.4262
  872MPD2    H312799   3.891   1.353  13.443 -0.4420 -1.0047 -0.1068
  872MPD2     N12800   3.962   1.022  13.754  0.1201 -0.7729  0.7194
  872MPD2    H512801   3.862   1.010  13.754  0.1259 -0.7689 -3.9695
  872MPD2    N112802   4.317   1.180  13.456  1.0282  0.1103 -0.4341
  872MPD2    H712803   4.375   1.115  13.509  0.8477 -0.8380 -1.4090
  873MPD2     C12804   1.682   1.498   0.683 -0.0774 -0.6040 -0.2830
  873MPD2    C112805   1.678   1.486   0.818  0.0604 -0.1281 -0.1811
  873MPD2    C212806   1.695   1.362   0.864  1.1037  1.1387  0.0833
  873MPD2    C312807   1.701   1.248   0.784 -0.3070  0.4777 -0.2540
  873MPD2    C412808   1.698   1.271   0.647  0.0351 -0.6618  0.7855
  873MPD2    C512809   1.693   1.395   0.595 -0.0898 -0.3880  0.1134
  873MPD2     H12810   1.679   1.351   0.970 -0.7708 -0.9939 -0.4079
  873MPD2    H112811   1.719   1.192   0.576  3.3168  1.2514 -0.3650
  873MPD2    H212812   1.682   1.600   0.646 -5.6866 -1.0666 -1.5144
  873MPD2    H312813   1.702   1.422   0.491  2.5718 -0.0864  0.4191
  873MPD2     N12814   1.726   1.117   0.828 -0.1572  0.3246  0.1346
  873MPD2    H512815   1.708   1.046   0.758  1.5344 -1.3265  1.3806
  873MPD2    N112816   1.650   1.597   0.908  0.3046 -1.3211  0.6078
  873MPD2    H712817   1.618   1.684   0.867  2.8432 -0.3202  0.8037
  874MPD2     C12818   1.099   1.208  16.241 -0.3196  0.1352 -0.5835
  874MPD2    C112819   1.199   1.153  16.318 -0.4572  0.8753  0.2294
  874MPD2    C212820   1.330   1.174  16.281 -0.7876  0.0041 -0.5741
  874MPD2    C312821   1.357   1.262  16.173 -0.2634  0.2781 -0.3006
  874MPD2    C412822   1.252   1.334  16.113 -0.3552  0.1791 -0.1326
  874MPD2    C512823   1.123   1.302  16.148 -0.4619  1.0329  0.0770
  874MPD2     H12824   1.415   1.125  16.327 -0.2481  2.0267  0.6130
  874MPD2    H112825   1.266   1.407  16.033 -2.1045  0.7488  0.0766
  874MPD2    H212826   0.993   1.202  16.261 -0.3908 -1.3880 -1.4424
  874MPD2    H312827   1.038   1.356  16.107 -2.1702 -0.6974  1.3222
  874MPD2     N12828   1.490   1.268  16.137  0.0868  0.6293  0.0881
  874MPD2    H512829   1.520   1.350  16.084  1.6050 -0.2909 -0.4804
  874MPD2    N112830   1.159   1.090  16.440 -0.4299  0.5981  0.1310
  874MPD2    H712831   1.061   1.074  16.459 -0.3643  1.0224  0.8324
  875MPD2     C12832   2.369   4.208  14.602  0.1912 -0.1143  0.4130
  875MPD2    C112833   2.242   4.188  14.658  0.1692 -0.0266  0.1001
  875MPD2    C212834   2.210   4.234  14.785  0.3123 -0.0114 -0.4402
  875MPD2    C312835   2.309   4.298  14.862 -0.8384 -0.1250  0.5166
  875MPD2    C412836   2.420   4.342  14.795 -0.0328  0.4160 -0.6796
  875MPD2    C512837   2.453   4.292  14.668 -0.2631  0.7522 -0.3038
  875MPD2     H12838   2.112   4.213  14.826  0.3320 -1.6669 -1.2058
  875MPD2    H112839   2.498   4.382  14.859  0.0357 -1.5445  0.4663
  875MPD2    H212840   2.399   4.168  14.506 -1.4069  0.0433 -0.1551
  875MPD2    H312841   2.551   4.308  14.625  0.1099  2.6022  1.2274
  875MPD2     N12842   2.293   4.321  15.005  0.3486 -0.3170 -0.0950
  875MPD2    H512843   2.366   4.372  15.053  0.3988 -1.0541  0.6101
  875MPD2    N112844   2.157   4.102  14.593 -0.3703  0.1884  0.1782
  875MPD2    H712845   2.061   4.100  14.626  0.2176 -0.2538  1.8622
  876MPD2     C12846   1.130   0.877  16.138 -0.3166 -0.8045  0.4229
  876MPD2    C112847   1.220   0.795  16.070 -0.6452 -0.4687 -0.1421
  876MPD2    C212848   1.224   0.663  16.099 -0.2103  0.4158  0.0569
  876MPD2    C312849   1.141   0.608  16.199 -0.4251 -1.0328  0.5072
  876MPD2    C412850   1.051   0.698  16.266 -0.2302 -0.1236  0.4801
  876MPD2    C512851   1.041   0.832  16.235  0.2976 -0.0521  0.3831
  876MPD2     H12852   1.291   0.596  16.046 -0.5557  0.6626 -0.6965
  876MPD2    H112853   0.992   0.655  16.346  0.6488 -0.9109  0.7031
  876MPD2    H212854   1.121   0.982  16.112  0.3825 -0.7497  0.4056
  876MPD2    H312855   0.961   0.886  16.283  0.6658  0.2643  0.6396
  876MPD2     N12856   1.166   0.473  16.240 -0.0958 -0.0622  0.0329
  876MPD2    H512857   1.219   0.418  16.173 -0.5723 -1.8769  1.1301
  876MPD2    N112858   1.315   0.863  16.001 -0.5794  0.3060 -0.0694
  876MPD2    H712859   1.308   0.964  16.000  0.8026  0.3701 -2.1464
  877MPD2     C12860   1.321   1.197  15.322  0.6618 -0.0565 -0.4498
  877MPD2    C112861   1.448   1.209  15.356  0.3841 -0.0463  0.4098
  877MPD2    C212862   1.538   1.253  15.265  0.1828  0.3483 -0.4619
  877MPD2    C312863   1.500   1.288  15.137 -0.2588 -0.2792 -0.9892
  877MPD2    C412864   1.366   1.280  15.102 -0.5664 -0.5744 -0.1290
  877MPD2    C512865   1.276   1.229  15.193  0.0205  0.3674 -0.0129
  877MPD2     H12866   1.643   1.253  15.294  0.2728  1.8630 -0.7809
  877MPD2    H112867   1.346   1.297  14.997  1.0500  1.5393 -0.0863
  877MPD2    H212868   1.250   1.158  15.394 -0.6392 -1.8824 -2.7030
  877MPD2    H312869   1.174   1.203  15.166  0.5204 -1.0326 -0.5328
  877MPD2     N12870   1.587   1.308  15.028  0.5567  0.5464  0.2174
  877MPD2    H512871   1.545   1.306  14.935  0.1851 -0.3947  0.4109
  877MPD2    N112872   1.490   1.184  15.488  0.2140  0.1150  0.2118
  877MPD2    H712873   1.586   1.208  15.510 -0.1743  0.8134  1.1415
  878MPD2     C12874   1.064   4.673  12.984 -0.3676 -0.1714 -0.0757
  878MPD2    C112875   1.062   0.086  13.005  0.4436 -0.0575 -0.0699
  878MPD2    C212876   1.126   0.138  13.118  0.1645  0.2140  0.2778
  878MPD2    C312877   1.184   0.049  13.208 -0.6350  0.5897  0.3031
  878MPD2    C412878   1.183   4.635  13.189  0.4170  0.4145  0.0937
  878MPD2    C512879   1.114   4.592  13.086 -0.4825  0.2381  0.0173
  878MPD2     H12880   1.128   0.245  13.135 -0.5456  0.0631  1.2930
  878MPD2    H112881   1.218   4.560  13.259 -0.2759 -0.5561 -0.5929
  878MPD2    H212882   1.018   4.627  12.897  0.9906 -0.6449 -0.5467
  878MPD2    H312883   1.105   4.488  13.059  0.9887  0.4041 -1.1300
  878MPD2     N12884   1.247   0.100  13.315  0.3514  0.5941 -0.7044
  878MPD2    H512885   1.223   0.198  13.329  0.2682  0.7622 -2.1028
  878MPD2    N112886   1.001   0.172  12.912  0.0770 -0.1568 -0.1381
  878MPD2    H712887   0.966   0.126  12.828 -0.3230 -1.4299  0.7375
  879MPD2     C12888   1.963   1.027  17.055 -0.1074  0.4503  0.7189
  879MPD2    C112889   1.905   1.134  17.127  0.6001 -0.1028  0.2706
  879MPD2    C212890   1.807   1.219  17.064  0.0749 -0.3389 -0.4268
  879MPD2    C312891   1.783   1.200  16.931  0.4483  0.9237  0.5087
  879MPD2    C412892   1.846   1.097  16.858 -0.1788  0.9707  0.2448
  879MPD2    C512893   1.936   1.016  16.922  0.9066  0.7549 -0.1021
  879MPD2     H12894   1.749   1.288  17.124  0.6870  0.5967 -0.9013
  879MPD2    H112895   1.830   1.081  16.752 -1.0004  0.6884  0.4061
  879MPD2    H212896   2.040   0.968  17.103  0.1783  0.7280  0.5996
  879MPD2    H312897   1.986   0.939  16.865  1.6292  1.2736 -0.1789
  879MPD2     N12898   1.697   1.281  16.855  0.3387 -0.3459  0.5870
  879MPD2    H512899   1.673   1.249  16.761  2.3330 -0.8426  0.2426
  879MPD2    N112900   1.937   1.145  17.271  0.2829  0.4234 -0.5972
  879MPD2    H712901   2.010   1.084  17.306 -1.1765 -1.9422 -1.6415
  880MPD2     C12902   2.479   3.217   0.682  0.6930  0.0918  0.2579
  880MPD2    C112903   2.566   3.274   0.777  0.2613  0.5852  0.0046
  880MPD2    C212904   2.585   3.197   0.892 -0.2204  0.2954 -0.4078
  880MPD2    C312905   2.507   3.084   0.914 -0.4567 -0.1495  1.2044
  880MPD2    C412906   2.404   3.051   0.824 -0.4966 -0.5141  0.1058
  880MPD2    C512907   2.391   3.118   0.704 -0.1489  0.6646 -0.6536
  880MPD2     H12908   2.656   3.232   0.966 -1.1043  2.0833 -0.4130
  880MPD2    H112909   2.338   2.966   0.830  1.4745 -2.2014 -2.4125
  880MPD2    H212910   2.457   3.273   0.593  0.5717 -1.1281 -0.4821
  880MPD2    H312911   2.314   3.091   0.632  1.3419 -2.2418 -1.1476
  880MPD2     N12912   2.518   3.003   1.026 -0.1934  0.1978  0.3087
  880MPD2    H512913   2.597   3.031   1.084 -1.0230 -0.6617  1.8696
  880MPD2    N112914   2.608   3.406   0.756 -0.4068 -0.0882  0.0504
  880MPD2    H712915   2.558   3.455   0.683 -0.5526  0.8199  0.7534
  881MPD2     C12916   2.773   4.060   0.047 -0.2101 -0.3172  0.1031
  881MPD2    C112917   2.768   3.921   0.040  0.0129  1.2012 -0.0716
  881MPD2    C212918   2.756   3.861   0.163  0.3389  0.1414 -0.0233
  881MPD2    C312919   2.737   3.936   0.280  0.0349 -0.0211 -0.2225
  881MPD2    C412920   2.739   4.074   0.280  0.0738  0.0540 -0.0240
  881MPD2    C512921   2.756   4.131   0.161  0.1707  0.1877 -0.2128
  881MPD2     H12922   2.765   3.753   0.169 -0.5582  0.1640  1.7435
  881MPD2    H112923   2.725   4.123   0.375 -1.5053 -0.5252  0.0559
  881MPD2    H212924   2.822   4.113  17.650  1.7042 -1.5402  0.4535
  881MPD2    H312925   2.768   4.239   0.155 -2.5603  0.4479 -1.1018
  881MPD2     N12926   2.730   3.882   0.413 -0.1903 -0.0180 -0.2585
  881MPD2    H512927   2.741   3.949   0.489 -1.8996  0.9614 -0.8783
  881MPD2    N112928   2.810   3.857  17.608  0.1256  0.4784 -0.0277
  881MPD2    H712929   2.842   3.912  17.529  0.0921  0.9102  0.2580
  882MPD2     C12930   1.467   1.689  14.569 -0.1467 -0.8245 -0.3404
  882MPD2    C112931   1.473   1.551  14.568 -0.5438 -0.7572 -0.1037
  882MPD2    C212932   1.350   1.487  14.558 -0.9339  0.2291  0.8076
  882MPD2    C312933   1.236   1.556  14.543  0.3715  0.1036 -0.1580
  882MPD2    C412934   1.233   1.692  14.543 -0.7862  0.3860 -0.0771
  882MPD2    C512935   1.354   1.755  14.557  0.2767 -0.1683  0.8195
  882MPD2     H12936   1.338   1.379  14.554 -0.1363  0.2216 -1.5133
  882MPD2    H112937   1.139   1.746  14.533  0.8392  3.3306  0.3936
  882MPD2    H212938   1.560   1.744  14.570  0.2675 -1.5482  1.0709
  882MPD2    H312939   1.353   1.863  14.554  0.6684 -0.2206 -1.5284
  882MPD2     N12940   1.108   1.492  14.522 -0.4145  0.3825  0.0140
  882MPD2    H512941   1.038   1.546  14.472 -0.5145 -0.3275 -0.6022
  882MPD2    N112942   1.592   1.477  14.595  0.0483  0.0383 -0.4480
  882MPD2    H712943   1.673   1.531  14.623 -0.5078 -0.3431  1.8532
  883MPD2     C12944   3.127   0.462  16.166 -0.2706  0.3634 -0.6460
  883MPD2    C112945   3.173   0.491  16.036  0.7064 -0.2847 -0.3405
  883MPD2    C212946   3.280   0.575  16.019  0.5085 -0.8145 -0.7732
  883MPD2    C312947   3.333   0.644  16.129  0.2543  0.1565  0.0612
  883MPD2    C412948   3.276   0.629  16.256 -0.1411 -0.2438 -0.2641
  883MPD2    C512949   3.177   0.532  16.271  0.3756 -0.8485  0.9541
  883MPD2     H12950   3.306   0.588  15.914 -0.3199  2.8217 -0.5276
  883MPD2    H112951   3.291   0.694  16.341  0.9754  0.0942 -0.7132
  883MPD2    H212952   3.052   0.390  16.196 -0.6918  0.4868 -1.3949
  883MPD2    H312953   3.138   0.506  16.369 -2.0398  0.1983  0.2713
  883MPD2     N12954   3.427   0.748  16.107 -0.1611  0.3530  0.4414
  883MPD2    H512955   3.451   0.764  16.010  0.1698  1.1212  0.6498
  883MPD2    N112956   3.132   0.415  15.927  0.5694 -0.3647  0.2544
  883MPD2    H712957   3.167   0.441  15.835 -1.7003  0.2026 -0.4400
  884MPD2     C12958   0.416   1.710  15.076 -0.3699 -0.0527 -0.2537
  884MPD2    C112959   0.375   1.819  15.002  0.0422  0.4987  0.6223
  884MPD2    C212960   0.241   1.856  15.011  0.0032  0.1096 -0.4600
  884MPD2    C312961   0.161   1.796  15.105 -0.1630  0.1990  0.0856
  884MPD2    C412962   0.199   1.683  15.180 -0.0766 -0.0442  1.2910
  884MPD2    C512963   0.328   1.644  15.163  0.3057 -0.0751  0.2390
  884MPD2     H12964   0.203   1.944  14.960  0.6294  0.2638 -0.6579
  884MPD2    H112965   0.127   1.632  15.243 -2.2233 -0.5768 -1.6205
  884MPD2    H212966   0.508   1.657  15.053 -1.2982 -1.0340 -1.6722
  884MPD2    H312967   0.354   1.548  15.206  0.7752  0.4117  1.0366
  884MPD2     N12968   0.038   1.863  15.136  0.1179  0.0749 -0.7195
  884MPD2    H512969   0.005   1.935  15.072  1.0864  0.4600 -0.7835
  884MPD2    N112970   0.461   1.886  14.911 -0.3242 -0.0635 -0.1600
  884MPD2    H712971   0.415   1.961  14.862 -0.6824  1.4603  2.4832
  885MPD2     C12972   3.422   1.884   0.464 -0.3069 -0.1583 -0.8139
  885MPD2    C112973   3.430   1.769   0.376 -0.0131 -0.3961 -0.9832
  885MPD2    C212974   3.408   1.782   0.237 -0.0535  0.3374 -0.6408
  885MPD2    C312975   3.356   1.898   0.187 -0.9118  0.5530 -0.1477
  885MPD2    C412976   3.354   2.010   0.268  0.5734  0.2957  1.3205
  885MPD2    C512977   3.388   2.004   0.400  0.6315 -0.4933  0.5661
  885MPD2     H12978   3.418   1.694   0.175 -1.0794 -0.8851  0.9300
  885MPD2    H112979   3.329   2.108   0.229  1.8058 -0.2121 -0.7215
  885MPD2    H212980   3.433   1.892   0.572 -3.9095  2.2674 -0.6646
  885MPD2    H312981   3.383   2.094   0.459  4.6320 -0.1589  0.3907
  885MPD2     N12982   3.344   1.905   0.049 -0.2642  0.2595  0.6394
  885MPD2    H512983   3.379   1.827  17.680 -1.3168 -0.8091  1.4992
  885MPD2    N112984   3.463   1.642   0.443 -0.0033  0.2446  0.1383
  885MPD2    H712985   3.467   1.647   0.544  0.8965  0.9707  0.0710
  886MPD2     C12986   4.462   0.305  15.229 -0.8281  0.0237  0.3426
  886MPD2    C112987   4.585   0.351  15.263  0.5318  0.5298 -0.1150
  886MPD2    C212988   4.642   0.450  15.180  1.5512 -0.4091  0.5273
  886MPD2    C312989   4.576   0.505  15.071 -0.3927 -0.6981 -0.7376
  886MPD2    C412990   4.463   0.437  15.024 -0.0329  0.5989 -0.2220
  886MPD2    C512991   4.413   0.342  15.108 -0.2743  0.1510 -0.2462
  886MPD2     H12992   0.020   0.488  15.202  0.9394  1.4255  0.1670
  886MPD2    H112993   4.401   0.467  14.940 -3.4218 -1.1866  1.6069
  886MPD2    H212994   4.434   0.205  15.261 -2.5665  0.3637 -0.1335
  886MPD2    H312995   4.317   0.306  15.073  0.3633  1.1580 -2.9869
  886MPD2     N12996   4.625   0.614  14.990 -0.4757 -0.3266  0.4572
  886MPD2    H512997   4.593   0.631  14.895  0.5761 -0.1251  0.1400
  886MPD2    N112998   4.669   0.297  15.372  0.0488  0.4394 -0.7754
  886MPD2    H712999   0.042   0.331  15.387  0.5501 -1.6097  0.7207
  887MPD2     C13000   0.319   0.517  15.989 -0.6995 -0.4027 -1.1139
  887MPD2    C113001   0.329   0.507  15.853 -0.5340  0.0256 -0.9444
  887MPD2    C213002   0.416   0.597  15.791 -0.1120 -0.1036 -0.6795
  887MPD2    C313003   0.478   0.704  15.858 -0.4696 -0.4985 -0.2274
  887MPD2    C413004   0.464   0.716  15.997 -0.1872 -0.2350 -0.1547
  887MPD2    C513005   0.383   0.621  16.061  0.2045 -0.0635  0.0409
  887MPD2     H13006   0.427   0.593  15.683 -1.2900  1.0789 -0.8474
  887MPD2    H113007   0.507   0.797  16.054  0.2948 -0.4399 -0.2310
  887MPD2    H213008   0.268   0.446  16.053 -0.3171  0.2608 -0.0595
  887MPD2    H313009   0.373   0.632  16.168  2.7558  0.6060  0.2191
  887MPD2     N13010   0.566   0.789  15.778  0.4596 -0.4881 -0.1197
  887MPD2    H513011   0.578   0.761  15.682 -2.0580  0.9240 -0.8581
  887MPD2    N113012   0.256   0.408  15.778 -0.1929  0.1441 -0.0772
  887MPD2    H713013   0.271   0.407  15.678  0.0757  1.5622 -0.0538
  888MPD2     C13014   2.614   0.548  14.652  1.0276  0.7004  0.4406
  888MPD2    C113015   2.566   0.602  14.772 -0.0275  0.8936  0.7675
  888MPD2    C213016   2.621   0.721  14.813  0.4610 -0.7344  0.1771
  888MPD2    C313017   2.705   0.789  14.731 -0.0754  0.5372  0.2717
  888MPD2    C413018   2.759   0.728  14.619  0.0518 -0.9780 -0.0535
  888MPD2    C513019   2.711   0.612  14.579  0.1673 -0.3033 -0.3519
  888MPD2     H13020   2.578   0.773  14.898  1.0211  1.9825 -1.2057
  888MPD2    H113021   2.831   0.782  14.558 -0.3486 -0.2628  0.1016
  888MPD2    H213022   2.574   0.454  14.615  2.7218 -0.7520  2.2323
  888MPD2    H313023   2.758   0.557  14.498  1.1524 -0.0332  0.0349
  888MPD2     N13024   2.730   0.922  14.777 -0.0986 -0.1341 -0.1702
  888MPD2    H513025   2.654   0.951  14.838  0.8504 -2.1098  1.9789
  888MPD2    N113026   2.483   0.543  14.863 -0.3401  0.3676  0.5588
  888MPD2    H713027   2.471   0.599  14.946 -0.6600  0.4311  0.4684
  889MPD2     C13028   1.373   4.567  12.816 -0.5004  0.0583  0.1257
  889MPD2    C113029   1.424   4.585  12.945  0.6233  0.0589 -0.5883
  889MPD2    C213030   1.452   4.716  12.983 -0.3461  0.5060 -0.7966
  889MPD2    C313031   1.418   0.110  12.905 -0.6039  0.1126 -0.4252
  889MPD2    C413032   1.383   0.086  12.773  0.0824 -0.1792  0.3582
  889MPD2    C513033   1.362   4.674  12.730  0.7878 -0.1728 -0.2703
  889MPD2     H13034   1.482   0.012  13.086  0.2537  1.0811 -1.0632
  889MPD2    H113035   1.371   0.165  12.699  0.5113 -1.7220 -1.3469
  889MPD2    H213036   1.337   4.470  12.782  0.1508 -0.2741  0.4041
  889MPD2    H313037   1.307   4.662  12.637  0.6849 -1.6606 -0.0301
  889MPD2     N13038   1.423   0.237  12.969 -0.2301 -0.2454  0.5015
  889MPD2    H513039   1.450   0.238  13.067  1.5716 -1.0166  0.0032
  889MPD2    N113040   1.476   4.463  13.006 -0.1992  0.3844  0.2270
  889MPD2    H713041   1.463   4.373  12.961  2.6482 -0.2195  0.6462
  890MPD2     C13042   0.950   1.999  14.633  0.1679 -0.2555 -0.0812
  890MPD2    C113043   1.063   2.063  14.688 -0.5159 -0.7813 -0.5941
  890MPD2    C213044   1.150   1.993  14.770  0.7704 -0.1231  0.3716
  890MPD2    C313045   1.118   1.868  14.815  0.8655  1.2654  0.5378
  890MPD2    C413046   1.000   1.807  14.767  0.0744 -0.7621  0.3003
  890MPD2    C513047   0.925   1.866  14.672  0.4155 -0.3196 -0.4773
  890MPD2     H13048   1.239   2.044  14.807  0.4118  0.8685 -0.1470
  890MPD2    H113049   0.967   1.710  14.804  2.2499 -2.2939 -1.7481
  890MPD2    H213050   0.885   2.053  14.565  2.7144  0.0989 -2.2410
  890MPD2    H313051   0.839   1.818  14.627  0.2110 -0.7506  0.3871
  890MPD2     N13052   1.210   1.808  14.908  0.0319 -0.1726  0.4119
  890MPD2    H513053   1.289   1.861  14.944 -0.2062  0.0074  0.6684
  890MPD2    N113054   1.075   2.202  14.648  0.1135 -0.6936  0.4045
  890MPD2    H713055   1.007   2.247  14.587  0.5518 -2.4256 -1.3436
  891MPD2     C13056   4.005   0.020  16.423  0.1144 -0.1600 -0.4634
  891MPD2    C113057   3.894   0.031  16.508  0.2735  0.1576 -0.2197
  891MPD2    C213058   3.914   4.709  16.635  0.2786 -0.2111 -0.4740
  891MPD2    C313059   4.038   4.650  16.674  0.9495 -0.4315 -0.5636
  891MPD2    C413060   4.146   4.637  16.589 -0.7603 -0.0616  0.0648
  891MPD2    C513061   4.128   4.692  16.464 -0.0731 -0.0072  0.1119
  891MPD2     H13062   3.839   4.720  16.713  0.7216 -0.2900 -0.0410
  891MPD2    H113063   4.245   4.603  16.616 -1.0466  0.3649  1.6593
  891MPD2    H213064   3.998   0.048  16.318  0.0088 -0.5630 -0.5608
  891MPD2    H313065   4.211   4.697  16.394  1.1054 -0.3606  1.4829
  891MPD2     N13066   4.056   4.620  16.816  0.4103 -0.5904  0.3856
  891MPD2    H513067   3.978   4.623  16.882 -0.1810 -0.4449 -0.3166
  891MPD2    N113068   3.776   0.095  16.458  0.2275  0.6853 -0.2498
  891MPD2    H713069   3.779   0.142  16.368  1.0559  1.0957 -0.0125
  892MPD2     C13070   0.396   1.892  14.553 -0.6039 -0.6508  0.1972
  892MPD2    C113071   0.356   1.765  14.588 -0.5809  0.1159  0.0171
  892MPD2    C213072   0.444   1.659  14.588  0.5716 -0.9192  0.0147
  892MPD2    C313073   0.566   1.677  14.528  0.5640  0.0816 -0.2048
  892MPD2    C413074   0.602   1.804  14.488 -0.0821 -0.1889 -0.2605
  892MPD2    C513075   0.521   1.913  14.500  0.2404 -0.2234  0.6819
  892MPD2     H13076   0.423   1.568  14.642  1.2432 -2.1890 -1.8689
  892MPD2    H113077   0.694   1.812  14.433 -0.9326  2.7385 -1.2696
  892MPD2    H213078   0.338   1.981  14.575 -0.4052 -0.7248  1.0525
  892MPD2    H313079   0.563   2.011  14.478  1.0675 -0.3201  1.8167
  892MPD2     N13080   0.642   1.564  14.500  0.1248  0.2223  0.0434
  892MPD2    H513081   0.738   1.578  14.471 -0.1642  2.2571  0.0789
  892MPD2    N113082   0.222   1.747  14.632 -0.0378  0.5787  0.6799
  892MPD2    H713083   0.198   1.657  14.673  0.6597  0.8727  1.7460
  893MPD2     C13084   1.518   0.667   1.522 -0.3783 -0.0939  1.1349
  893MPD2    C113085   1.605   0.631   1.618 -0.2579 -0.2247 -0.4385
  893MPD2    C213086   1.596   0.694   1.744  0.2788 -0.5352  0.5981
  893MPD2    C313087   1.502   0.790   1.770  0.5128 -0.5023 -0.1145
  893MPD2    C413088   1.419   0.824   1.666 -0.2345 -0.2392 -0.2206
  893MPD2    C513089   1.423   0.766   1.540  0.4976  0.3739 -0.4739
  893MPD2     H13090   1.665   0.649   1.815 -0.6705  0.2246  1.9856
  893MPD2    H113091   1.347   0.905   1.678  2.0299  1.7436 -0.0460
  893MPD2    H213092   1.524   0.628   1.421  0.1942 -2.3735  2.0344
  893MPD2    H313093   1.358   0.802   1.460 -0.0743  1.3954  0.4563
  893MPD2     N13094   1.478   0.840   1.903  0.0074 -0.2960 -0.5440
  893MPD2    H513095   1.390   0.888   1.914 -0.4646 -0.8896 -1.6837
  893MPD2    N113096   1.702   0.528   1.583  0.3305 -0.2710  0.2991
  893MPD2    H713097   1.693   0.494   1.488  3.5562 -0.5595  0.0996
  894MPD2     C13098   0.233   2.388   0.432  0.1329  0.7116  0.0524
  894MPD2    C113099   0.196   2.416   0.564  0.9590  0.3817 -0.4854
  894MPD2    C213100   0.273   2.491   0.648  0.0580 -0.1698  0.3125
  894MPD2    C313101   0.391   2.539   0.599  1.2307  0.1749  0.4296
  894MPD2    C413102   0.427   2.516   0.470 -0.3702 -0.3246  0.3463
  894MPD2    C513103   0.347   2.442   0.387  0.2514  0.3966  0.1165
  894MPD2     H13104   0.230   2.515   0.745  0.1657  0.1292  0.2855
  894MPD2    H113105   0.521   2.553   0.430 -1.2634  0.5002 -0.9848
  894MPD2    H213106   0.169   2.325   0.372  1.0165 -0.5039  0.3743
  894MPD2    H313107   0.377   2.403   0.290 -1.8635 -0.8553 -0.0484
  894MPD2     N13108   0.459   2.634   0.679  0.2031  0.4057  0.0300
  894MPD2    H513109   0.421   2.644   0.772  0.7677  0.7763  0.2186
  894MPD2    N113110   0.077   2.377   0.627  0.1002  0.6685 -0.5100
  894MPD2    H713111   0.048   2.429   0.709  0.0408 -2.3681  1.3888
  895MPD2     C13112   4.454   0.148  13.012  1.0391  1.2302 -0.4553
  895MPD2    C113113   4.345   0.201  12.958 -0.3606  0.3769 -0.4608
  895MPD2    C213114   4.281   0.127  12.857  0.2830  0.4221  0.2349
  895MPD2    C313115   4.327   0.001  12.811  0.6040 -0.3905  0.0749
  895MPD2    C413116   4.437   4.674  12.870 -0.3195  0.0507  0.2403
  895MPD2    C513117   4.501   0.029  12.967 -0.5336 -0.5654  0.0423
  895MPD2     H13118   4.187   0.164  12.818  0.1655  0.1456  0.2580
  895MPD2    H113119   4.479   4.574  12.865  0.6455  0.5863 -2.3643
  895MPD2    H213120   4.508   0.211  13.081  1.3470  1.3561 -0.8126
  895MPD2    H313121   4.594   4.713  13.009  0.0927  2.5980  1.3881
  895MPD2     N13122   4.245   4.646  12.731  0.5389 -0.4652 -0.2004
  895MPD2    H513123   4.152   4.683  12.714  0.4997  0.2332  1.5448
  895MPD2    N113124   4.274   0.321  12.999 -0.4391 -0.0477 -0.1064
  895MPD2    H713125   4.201   0.358  12.939  1.1973  0.9134 -1.5030
  896MPD2     C13126   1.429   3.470   1.638 -0.0482 -0.2253 -0.6484
  896MPD2    C113127   1.433   3.367   1.548  0.2506 -0.2495 -0.3134
  896MPD2    C213128   1.328   3.274   1.553  0.3882  0.2836  0.1660
  896MPD2    C313129   1.229   3.277   1.650  0.4584  0.0996  0.0190
  896MPD2    C413130   1.234   3.383   1.740  0.1505  0.2181  0.2364
  896MPD2    C513131   1.332   3.480   1.730 -0.0139  0.1564 -0.6590
  896MPD2     H13132   1.327   3.188   1.487 -2.2671 -1.1821  2.1081
  896MPD2    H113133   1.159   3.391   1.818 -0.7839 -2.6975 -0.3592
  896MPD2    H213134   1.511   3.542   1.639 -1.5714  1.5089 -1.0174
  896MPD2    H313135   1.330   3.568   1.794 -0.1133 -2.5578  3.0967
  896MPD2     N13136   1.125   3.181   1.629  0.2384  0.5260  0.0409
  896MPD2    H513137   1.135   3.125   1.545  1.6337  0.2559  0.3830
  896MPD2    N113138   1.553   3.339   1.479  0.0310  0.0105  0.0493
  896MPD2    H713139   1.628   3.406   1.492  0.5641 -0.5577 -0.0916
  897MPD2     C13140   2.658   4.626   9.993  0.2366  0.3763 -0.3557
  897MPD2    C113141   2.584   0.020  10.003 -0.2550  0.1464 -0.5008
  897MPD2    C213142   2.502   0.037  10.112  0.6126  0.1127 -0.1547
  897MPD2    C313143   2.496   4.663  10.211 -0.2260  1.1564  0.4015
  897MPD2    C413144   2.571   4.549  10.208  0.2259 -0.0127  0.2427
  897MPD2    C513145   2.652   4.534  10.094  0.5546  0.1284  0.5435
  897MPD2     H13146   2.415   0.101  10.103  0.7826  0.5901  1.5698
  897MPD2    H113147   2.564   4.471  10.283 -0.0572  0.1842  0.4205
  897MPD2    H213148   2.727   4.605   9.913 -0.8781 -3.3926 -0.3424
  897MPD2    H313149   2.707   4.442  10.082 -0.5514 -0.7198  1.9173
  897MPD2     N13150   2.413   4.694  10.312 -0.3891  0.2014 -0.5516
  897MPD2    H513151   2.377   0.068  10.323 -3.7757 -1.1630  0.1625
  897MPD2    N113152   2.592   0.126   9.909 -0.0695  0.3058 -0.6269
  897MPD2    H713153   2.640   0.103   9.822  0.3271  1.9958 -0.8532
  898MPD2     C13154   0.218   0.213   0.246 -0.2001 -0.8240 -0.2459
  898MPD2    C113155   0.294   0.309   0.180  0.0969  0.3080  0.2611
  898MPD2    C213156   0.228   0.389   0.083 -0.0971 -0.6229 -0.3665
  898MPD2    C313157   0.095   0.373   0.050 -0.2719 -0.4875  0.5846
  898MPD2    C413158   0.022   0.265   0.105 -0.1668  0.7008 -0.1549
  898MPD2    C513159   0.086   0.192   0.204  0.2784 -0.3954 -0.0693
  898MPD2     H13160   0.285   0.463   0.028  0.4359  0.0954  1.1565
  898MPD2    H113161   4.638   0.246   0.081 -0.0625 -0.5649  0.4155
  898MPD2    H213162   0.250   0.150   0.329 -0.9206  0.0484  0.6916
  898MPD2    H313163   0.025   0.112   0.242 -2.2027  0.5163 -2.1700
  898MPD2     N13164   0.040   0.463  17.639 -0.0366 -0.2589  0.1623
  898MPD2    H513165   0.103   0.531  17.598 -1.8049  0.0966 -1.9351
  898MPD2    N113166   0.435   0.340   0.190  0.1490 -0.3201  0.6041
  898MPD2    H713167   0.471   0.403   0.120  0.2909  0.6448  1.5540
  899MPD2     C13168   0.882   1.313  17.570  0.1030  0.3943  0.2166
  899MPD2    C113169   0.772   1.379  17.523 -0.5081  0.2537 -0.2067
  899MPD2    C213170   0.669   1.394  17.608 -0.1288 -0.2206  0.4019
  899MPD2    C313171   0.671   1.345   0.053  0.5355  0.5424  0.5157
  899MPD2    C413172   0.772   1.263   0.089 -0.5634 -0.5520  0.5314
  899MPD2    C513173   0.877   1.250   0.007  0.3583  0.6968  0.4586
  899MPD2     H13174   0.579   1.443  17.573  0.1321 -0.7651 -1.0205
  899MPD2    H113175   0.779   1.209   0.182 -0.2829 -2.2648 -0.4827
  899MPD2    H213176   0.978   1.302  17.522  1.5356 -2.4980  3.7637
  899MPD2    H313177   0.953   1.177   0.032  0.9570  0.9887 -0.5198
  899MPD2     N13178   0.572   1.370   0.152  0.0638  0.9647  0.5090
  899MPD2    H513179   0.580   1.342   0.249  0.8801  1.0606  0.4679
  899MPD2    N113180   0.783   1.443  17.395  0.7061 -0.2657 -0.7466
  899MPD2    H713181   0.880   1.448  17.366  0.2117 -1.2366 -2.5623
  900MPD2     C13182   0.470   3.052  12.329  0.2581 -0.0862  0.4926
  900MPD2    C113183   0.368   2.962  12.353  0.4605  0.2543  0.1055
  900MPD2    C213184   0.234   2.996  12.318 -0.6185 -0.5086  0.4264
  900MPD2    C313185   0.195   3.121  12.262  0.3421  0.1690 -0.3767
  900MPD2    C413186   0.297   3.214  12.240 -0.4740 -0.3850 -0.8216
  900MPD2    C513187   0.429   3.172  12.277 -0.7180 -0.0050  0.5145
  900MPD2     H13188   0.157   2.921  12.335 -0.1930 -0.8379  0.8906
  900MPD2    H113189   0.282   3.318  12.214  0.3433 -0.3045 -0.9650
  900MPD2    H213190   0.574   3.043  12.356 -0.1512  1.7769  2.6943
  900MPD2    H313191   0.499   3.254  12.277  3.0759 -3.2591  0.8030
  900MPD2     N13192   0.056   3.149  12.233  0.2398 -0.1923 -0.5503
  900MPD2    H513193   4.698   3.089  12.254  0.6934 -0.5359  0.1788
  900MPD2    N113194   0.412   2.835  12.400 -0.5313 -0.2970 -0.2479
  900MPD2    H713195   0.511   2.829  12.419 -0.5644 -0.5176 -0.1464
  901MPD2     C13196   0.169   1.798  12.563 -0.0746  0.6234 -0.3465
  901MPD2    C113197   0.295   1.808  12.521 -0.0836 -0.2681 -0.6277
  901MPD2    C213198   0.364   1.931  12.506  0.6838  0.2792  0.0479
  901MPD2    C313199   0.301   2.051  12.538  0.6192  0.7567  0.0683
  901MPD2    C413200   0.178   2.044  12.610  0.4026  0.2931 -0.2471
  901MPD2    C513201   0.112   1.921  12.606 -0.3808 -0.2108 -0.5189
  901MPD2     H13202   0.453   1.936  12.445  0.8490  2.6929  0.4606
  901MPD2    H113203   0.120   2.133  12.632  2.0127  1.2533  0.0940
  901MPD2    H213204   0.106   1.710  12.559 -0.2817  0.7778 -0.5209
  901MPD2    H313205   0.005   1.919  12.622 -0.5940 -1.2877 -2.0664
  901MPD2     N13206   0.360   2.171  12.489  0.2975  0.4236 -0.0334
  901MPD2    H513207   0.447   2.170  12.436  0.1165 -1.3194 -0.3179
  901MPD2    N113208   0.350   1.682  12.481  0.1941  1.0566 -1.1563
  901MPD2    H713209   0.296   1.595  12.484  2.0529 -0.0232  1.0676
  902MPD2     C13210   3.695   0.984  12.902  0.0923  0.6499 -0.5229
  902MPD2    C113211   3.831   1.014  12.905 -0.0240 -0.1669 -0.5280
  902MPD2    C213212   3.911   0.977  12.796  0.1124  0.1984  0.5864
  902MPD2    C313213   3.851   0.926  12.683 -0.8800  0.6167 -0.4013
  902MPD2    C413214   3.717   0.905  12.677  0.1697  0.0264 -0.4631
  902MPD2    C513215   3.636   0.925  12.791 -0.1459 -0.3732 -0.1423
  902MPD2     H13216   4.011   1.017  12.786  0.4621 -0.7015  0.5006
  902MPD2    H113217   3.662   0.872  12.589  0.9455  0.8320 -1.2480
  902MPD2    H213218   3.619   1.008  12.975  1.1603  1.3049  0.3783
  902MPD2    H313219   3.532   0.894  12.787 -1.1013  2.6566  1.1302
  902MPD2     N13220   3.924   0.912  12.563 -0.5664  0.9474 -0.4122
  902MPD2    H513221   3.869   0.899  12.478 -2.0009  4.3586  0.0001
  902MPD2    N113222   3.869   1.098  13.004  0.7546 -0.6173 -0.0978
  902MPD2    H713223   3.792   1.134  13.059 -1.3720 -3.8062 -1.0067
  903MPD2     C13224   3.922   1.059  11.772 -0.0892  0.0127 -0.1998
  903MPD2    C113225   3.864   0.980  11.867  0.1074  0.0857 -0.8703
  903MPD2    C213226   3.732   0.957  11.865  0.7970 -0.1579  0.4325
  903MPD2    C313227   3.654   0.999  11.756  0.1698  0.2791 -0.1356
  903MPD2    C413228   3.723   1.050  11.647  0.3234 -0.6230 -0.0633
  903MPD2    C513229   3.855   1.067  11.653  0.6221 -0.0350  0.5397
  903MPD2     H13230   3.691   0.904  11.950  1.8137 -1.7045 -0.0290
  903MPD2    H113231   3.669   1.081  11.557  0.0556 -2.1639 -0.4341
  903MPD2    H213232   4.027   1.087  11.770 -1.0831  3.7687 -0.0757
  903MPD2    H313233   3.914   1.108  11.573 -0.3616 -1.1899 -0.7709
  903MPD2     N13234   3.516   0.976  11.762 -0.6342 -0.4271 -0.5540
  903MPD2    H513235   3.476   0.951  11.851  1.5156 -1.2090  0.1910
  903MPD2    N113236   3.954   0.925  11.964  0.5805  0.1545 -0.0545
  903MPD2    H713237   4.051   0.955  11.960  0.6609 -0.1830 -0.6167
  904MPD2     C13238   4.285   4.572  14.055 -0.1154 -0.5764 -0.4563
  904MPD2    C113239   4.377   4.651  13.993 -0.0746  0.0892  0.2357
  904MPD2    C213240   4.503   4.672  14.057 -0.3450 -0.4069  0.0628
  904MPD2    C313241   4.524   4.617  14.179  0.0705  0.6281  0.1552
  904MPD2    C413242   4.432   4.534  14.240  0.2005  0.2611  0.0935
  904MPD2    C513243   4.315   4.518  14.179 -0.4436 -0.2095  0.9452
  904MPD2     H13244   4.584   0.008  14.014 -0.8441  0.9541  0.9086
  904MPD2    H113245   4.450   4.481  14.332 -0.5289  1.2251  0.7922
  904MPD2    H213246   4.186   4.556  14.012 -0.0177 -0.4980 -0.7130
  904MPD2    H313247   4.237   4.459  14.225 -1.3953  0.9514  0.8368
  904MPD2     N13248   4.646   4.652  14.249  0.1230  0.9246 -0.2821
  904MPD2    H513249   4.707   4.712  14.194  0.2117  1.5026  0.4481
  904MPD2    N113250   4.338   0.009  13.882 -0.3094  0.0578 -0.5322
  904MPD2    H713251   4.399   0.084  13.853 -1.1704  0.7709 -0.4811
  905MPD2     C13252   3.905   0.330  13.115  0.9288 -0.3205  0.3102
  905MPD2    C113253   3.971   0.221  13.161  0.8621  0.1399  0.4152
  905MPD2    C213254   3.985   0.106  13.084  0.4038 -0.4135  0.3864
  905MPD2    C313255   3.943   0.108  12.954  0.7968 -0.1419  0.6788
  905MPD2    C413256   3.898   0.227  12.899 -0.2489  0.7536 -0.0654
  905MPD2    C513257   3.890   0.340  12.978  0.1523  0.6681 -0.0671
  905MPD2     H13258   4.038   0.017  13.115  1.0217 -0.0738  0.3101
  905MPD2    H113259   3.878   0.236  12.793 -0.7108 -1.0692 -0.1198
  905MPD2    H213260   3.878   0.417  13.174 -0.2907  0.0565 -0.7938
  905MPD2    H313261   3.850   0.429  12.929 -1.7012 -0.3935 -0.4856
  905MPD2     N13262   3.931   4.710  12.882  0.2853 -0.6570 -0.4418
  905MPD2    H513263   3.966   4.623  12.920  3.7547 -0.1332 -2.4763
  905MPD2    N113264   4.020   0.232  13.292 -0.0455 -0.0998  0.0793
  905MPD2    H713265   4.000   0.318  13.342  2.6983  0.2083  0.6640
  906MPD2     C13266   1.448   0.099  11.123 -0.2905  0.3504 -0.1856
  906MPD2    C113267   1.373   0.033  11.036  0.1756  0.3729  0.6857
  906MPD2    C213268   1.324   4.628  11.065 -0.8709  1.1459 -0.0229
  906MPD2    C313269   1.345   4.570  11.190  0.5023  1.0139 -0.3522
  906MPD2    C413270   1.414   4.646  11.287  0.4200 -0.0688 -0.0460
  906MPD2    C513271   1.468   0.043  11.246 -0.1442 -0.8033  0.5724
  906MPD2     H13272   1.259   4.582  10.991 -0.8362 -0.0301  0.6822
  906MPD2    H113273   1.421   4.603  11.387 -2.4583  1.8646  1.0072
  906MPD2    H213274   1.490   0.198  11.115  1.0673 -0.1974  0.2448
  906MPD2    H313275   1.518   0.104  11.321  0.0063 -0.9415  0.5846
  906MPD2     N13276   1.311   4.436  11.216 -0.1527 -0.3883  0.1551
  906MPD2    H513277   1.318   4.401  11.311  2.1322  1.8697  0.8172
  906MPD2    N113278   1.340   0.087  10.908  0.4075 -0.3943 -0.5237
  906MPD2    H713279   1.290   0.027  10.843  0.9422  0.7496 -1.9907
  907MPD2     C13280   0.027   4.024  15.640  0.2074  0.0593 -0.2679
  907MPD2    C113281   0.124   3.930  15.603 -0.0159  0.3874  0.0232
  907MPD2    C213282   0.226   3.903  15.692  0.1106  0.2904 -0.0892
  907MPD2    C313283   0.230   3.965  15.815 -0.0353  0.6451  0.2234
  907MPD2    C413284   0.137   4.062  15.846 -0.1132  0.1635 -0.7423
  907MPD2    C513285   0.037   4.092  15.760  0.3075  0.0830  0.5003
  907MPD2     H13286   0.308   3.838  15.665  1.8378  0.9799  3.4195
  907MPD2    H113287   0.133   4.118  15.939 -1.1466 -1.0530 -0.0586
  907MPD2    H213288   4.655   4.044  15.588  0.0507 -1.1339 -0.4569
  907MPD2    H313289   4.692   4.175  15.786  0.4897 -0.2327  1.9533
  907MPD2     N13290   0.341   3.935  15.903 -0.1286 -0.3281 -0.2380
  907MPD2    H513291   0.415   3.867  15.889 -1.2609 -1.9894  1.7573
  907MPD2    N113292   0.109   3.862  15.478  0.4301  0.4951 -0.0760
  907MPD2    H713293   0.162   3.778  15.460  1.5642  1.3546 -0.7453
  908MPD2     C13294   2.116   4.608   9.427 -0.2051  0.2500 -0.1075
  908MPD2    C113295   2.222   4.577   9.506  0.4668 -0.2005 -0.0503
  908MPD2    C213296   2.300   4.681   9.547  0.3006 -0.4248 -0.2109
  908MPD2    C313297   2.269   0.091   9.511  0.2865  0.5354  0.0895
  908MPD2    C413298   2.158   0.118   9.433  0.3149 -0.1677  0.3523
  908MPD2    C513299   2.075   0.013   9.390 -0.0290  0.1151  0.2803
  908MPD2     H13300   2.389   4.655   9.603  0.0910 -0.4998  0.0885
  908MPD2    H113301   2.114   0.214   9.410 -0.1519 -0.1563  1.3140
  908MPD2    H213302   2.049   4.537   9.381 -1.0956  0.7000  0.4898
  908MPD2    H313303   1.987   0.040   9.332 -0.6880  0.6770  1.5495
  908MPD2     N13304   2.344   0.196   9.579  0.0281  0.1926  0.9882
  908MPD2    H513305   2.413   0.157   9.643 -0.2911 -2.1274 -0.0637
  908MPD2    N113306   2.251   4.446   9.556  0.2143 -0.1111 -0.0176
  908MPD2    H713307   2.324   4.439   9.626  1.8930  1.6363 -1.6249
  909MPD2     C13308   2.712   3.126  11.958  0.4655  0.6194  0.3643
  909MPD2    C113309   2.695   3.101  11.824 -0.0276 -0.8411  0.0735
  909MPD2    C213310   2.571   3.063  11.776  0.7324  0.7129 -0.2793
  909MPD2    C313311   2.467   3.052  11.868 -0.2106  0.2473 -0.0627
  909MPD2    C413312   2.486   3.088  11.996  0.5099  0.1411 -0.0900
  909MPD2    C513313   2.606   3.120  12.036 -0.0105  0.2654 -0.0295
  909MPD2     H13314   2.560   3.046  11.670  0.3785  1.0397 -0.2962
  909MPD2    H113315   2.406   3.090  12.069  0.1007  0.5398 -0.5467
  909MPD2    H213316   2.809   3.134  12.006  0.2475  0.8092  0.7661
  909MPD2    H313317   2.620   3.151  12.139  1.0550  0.5482 -0.2614
  909MPD2     N13318   2.350   2.997  11.818 -0.4001  0.0581 -0.2259
  909MPD2    H513319   2.343   2.975  11.719 -0.5195  0.6934 -0.3594
  909MPD2    N113320   2.792   3.100  11.730  0.4363  0.0938 -0.6987
  909MPD2    H713321   2.771   3.072  11.634  1.5591  1.2071 -1.2693
  910MPD2     C13322   3.935   4.054  15.531  0.1660  0.4527  0.4062
  910MPD2    C113323   4.065   4.098  15.530  0.2159  0.3974 -0.3416
  910MPD2    C213324   4.110   4.178  15.432 -0.2198 -0.5746  0.1160
  910MPD2    C313325   4.023   4.229  15.339  1.3315  0.1211 -0.2367
  910MPD2    C413326   3.897   4.177  15.332  0.2399  0.0573 -0.3216
  910MPD2    C513327   3.852   4.086  15.430  0.0205 -0.7212 -1.0721
  910MPD2     H13328   4.212   4.217  15.435  1.0738 -4.0712  1.3070
  910MPD2    H113329   3.826   4.211  15.258  1.2910 -0.3339 -1.5109
  910MPD2    H213330   3.892   3.981  15.599  2.5084 -0.3777  0.9895
  910MPD2    H313331   3.748   4.059  15.440 -0.0915 -0.3515 -1.2317
  910MPD2     N13332   4.058   4.333  15.248 -0.1934 -0.1156 -0.7963
  910MPD2    H513333   3.987   4.364  15.181 -1.3767  1.6782  1.2990
  910MPD2    N113334   4.156   4.070  15.633  0.2401  0.2255 -0.7083
  910MPD2    H713335   4.252   4.099  15.616 -0.3264  2.1514 -0.5579
  911MPD2     C13336   1.972   4.694  16.369 -0.3547 -0.6325  0.0319
  911MPD2    C113337   2.036   0.067  16.447  0.3496 -0.2435 -0.3768
  911MPD2    C213338   1.974   0.195  16.469  0.4352  0.0910  0.4755
  911MPD2    C313339   1.863   0.224  16.390 -0.2004  0.2127 -0.5691
  911MPD2    C413340   1.805   0.125  16.321 -0.6030 -0.1783 -0.5803
  911MPD2    C513341   1.856   0.001  16.310  0.0190 -0.4190 -0.1282
  911MPD2     H13342   2.021   0.266  16.537 -0.1233 -0.1197  1.0852
  911MPD2    H113343   1.715   0.152  16.268 -0.4918  1.6712  0.1821
  911MPD2    H213344   2.013   4.603  16.326  1.7421  0.8088 -1.0638
  911MPD2    H313345   1.814   4.649  16.241  0.6783 -2.1428  1.2944
  911MPD2     N13346   1.809   0.353  16.387 -0.1108 -0.7881 -0.0482
  911MPD2    H513347   1.723   0.362  16.334 -1.2766  0.2210  1.9915
  911MPD2    N113348   2.150   0.031  16.523 -0.4698  0.4669 -0.2103
  911MPD2    H713349   2.179   4.656  16.507 -0.5382  0.4405 -0.1796
  912MPD2     C13350   1.435   0.264  15.862  0.0315 -0.0649  0.0385
  912MPD2    C113351   1.471   0.274  16.000 -0.0597  0.6245 -0.1036
  912MPD2    C213352   1.463   0.158  16.080  0.6646  0.0221  0.5426
  912MPD2    C313353   1.423   0.038  16.023 -0.1881  0.8823  0.6703
  912MPD2    C413354   1.395   0.030  15.888  0.4247 -0.1237  0.0658
  912MPD2    C513355   1.398   0.144  15.810 -0.1875  0.2368  0.0384
  912MPD2     H13356   1.504   0.159  16.180  0.6208  0.7509  0.5508
  912MPD2    H113357   1.402   4.654  15.838  0.3561 -0.2659  0.3314
  912MPD2    H213358   1.436   0.347  15.792 -2.8921  0.3103  0.4533
  912MPD2    H313359   1.377   0.133  15.705  1.7803  1.2551 -0.4619
  912MPD2     N13360   1.430   4.649  16.110 -0.3833  0.1942  0.5652
  912MPD2    H513361   1.452   4.680  16.204  1.1868 -0.7155  0.5115
  912MPD2    N113362   1.524   0.397  16.048 -0.3294  0.6482  0.3670
  912MPD2    H713363   1.548   0.470  15.981  1.4433  0.2807  0.5925
  913MPD2     C13364   2.252   1.044  10.654 -0.1407 -0.0882  0.6639
  913MPD2    C113365   2.320   1.161  10.682  0.1437 -0.5537  0.0233
  913MPD2    C213366   2.281   1.273  10.612 -0.0558  0.1667 -0.2339
  913MPD2    C313367   2.193   1.268  10.508  0.2359  0.0995  0.8423
  913MPD2    C413368   2.131   1.144  10.481  0.4852  0.4743 -0.1868
  913MPD2    C513369   2.160   1.036  10.550  0.7135 -0.5706  0.0883
  913MPD2     H13370   2.335   1.363  10.639 -0.0841  0.6995 -2.0051
  913MPD2    H113371   2.045   1.139  10.415  0.0713  0.4790  0.3540
  913MPD2    H213372   2.269   0.958  10.717 -0.0036 -1.0001 -0.6033
  913MPD2    H313373   2.110   0.942  10.530 -0.2563 -0.1038  0.2938
  913MPD2     N13374   2.156   1.379  10.424 -0.1316  0.0171 -0.1445
  913MPD2    H513375   2.090   1.361  10.349  0.3704 -1.1129 -0.3187
  913MPD2    N113376   2.416   1.159  10.788  0.7108 -0.0822 -0.3856
  913MPD2    H713377   2.435   1.065  10.820 -2.4310 -0.2490  0.9925
  914MPD2     C13378   4.502   1.593  12.513  0.1765 -0.3158  0.1841
  914MPD2    C113379   4.584   1.650  12.422  1.0997  0.2278  0.3800
  914MPD2    C213380   4.691   1.573  12.368  0.3649  0.5840  0.0342
  914MPD2    C313381   0.012   1.461  12.436  0.2741  0.1032 -0.4108
  914MPD2    C413382   4.647   1.403  12.531  0.3895 -0.6450 -0.0232
  914MPD2    C513383   4.528   1.467  12.561 -0.7857 -0.0311 -0.0745
  914MPD2     H13384   0.039   1.621  12.300 -0.3431  1.5395 -0.0068
  914MPD2    H113385   4.671   1.312  12.584 -1.4446 -0.5133  1.0152
  914MPD2    H213386   4.422   1.649  12.560  0.5551 -0.2558  0.7547
  914MPD2    H313387   4.464   1.418  12.634 -0.4578 -0.4593 -0.0700
  914MPD2     N13388   0.135   1.408  12.400  0.1390  0.5663 -0.3986
  914MPD2    H513389   0.171   1.455  12.318 -1.0929  0.1864 -1.1402
  914MPD2    N113390   4.557   1.784  12.381 -0.6794 -0.1018 -0.0590
  914MPD2    H713391   4.489   1.838  12.434  0.1688  2.8548 -2.0344
  915MPD2     C13392   3.626   1.241  15.526 -0.7860  0.0116 -0.0843
  915MPD2    C113393   3.492   1.266  15.486  0.1730 -0.4970  0.7583
  915MPD2    C213394   3.406   1.327  15.579 -0.8281  0.0160  0.2322
  915MPD2    C313395   3.450   1.376  15.698 -0.8870 -0.6317  0.1352
  915MPD2    C413396   3.580   1.347  15.737  0.2480 -0.6677  0.8739
  915MPD2    C513397   3.666   1.278  15.650 -0.3328 -0.0372  0.2533
  915MPD2     H13398   3.303   1.349  15.553 -0.9314 -1.6377 -0.7402
  915MPD2    H113399   3.627   1.386  15.826  1.0447 -2.9503  1.4422
  915MPD2    H213400   3.695   1.182  15.465 -0.6853 -0.5774  0.5957
  915MPD2    H313401   3.770   1.260  15.676 -0.4143 -0.7842  0.0652
  915MPD2     N13402   3.367   1.465  15.778  1.0590  0.4862  0.2039
  915MPD2    H513403   3.270   1.478  15.750  0.5684  1.1657  2.1724
  915MPD2    N113404   3.452   1.208  15.361 -0.0002  0.3100  0.1100
  915MPD2    H713405   3.519   1.192  15.287  2.4383  1.1650  2.1325
  916MPD2     C13406   0.914   0.024  15.857 -0.6179 -0.2444 -0.2125
  916MPD2    C113407   1.007   4.695  15.946  0.3962  0.1761  0.8170
  916MPD2    C213408   1.090   4.594  15.902 -0.0220 -0.5811 -0.5235
  916MPD2    C313409   1.071   4.537  15.776  0.9366  0.1458  0.1384
  916MPD2    C413410   0.970   4.580  15.693 -0.5108 -0.0200  0.3513
  916MPD2    C513411   0.894   4.685  15.732  0.4923  0.0615  0.6171
  916MPD2     H13412   1.184   4.580  15.954  1.0565  2.1054 -1.7098
  916MPD2    H113413   0.958   4.538  15.593  3.3031 -0.8955  0.2645
  916MPD2    H213414   0.856   0.114  15.871  0.8004  0.3767  1.7014
  916MPD2    H313415   0.817   4.720  15.665  0.6546 -0.1809  0.3016
  916MPD2     N13416   1.164   4.443  15.732  0.1074  0.2481  0.2448
  916MPD2    H513417   1.247   4.434  15.789 -0.7394  1.6796  1.6934
  916MPD2    N113418   1.031   0.038  16.071 -0.0358 -0.1897 -0.3709
  916MPD2    H713419   0.997   0.130  16.097 -1.5010  0.0116 -3.1178
  917MPD2     C13420   1.530   2.595  11.121 -0.3079 -0.0839  0.3930
  917MPD2    C113421   1.615   2.544  11.213 -0.0198 -0.0283  0.1166
  917MPD2    C213422   1.740   2.601  11.211  0.2554  0.1393  1.0416
  917MPD2    C313423   1.773   2.707  11.131  0.3676 -0.9391  0.5296
  917MPD2    C413424   1.678   2.758  11.036 -0.0681 -0.4633 -0.0070
  917MPD2    C513425   1.566   2.695  11.032  0.5640  0.3945  0.6693
  917MPD2     H13426   1.800   2.582  11.299  0.5958 -1.4310  0.4680
  917MPD2    H113427   1.694   2.840  10.967 -1.3482 -1.3839 -1.3887
  917MPD2    H213428   1.434   2.548  11.108 -1.0013  1.2366  0.7996
  917MPD2    H313429   1.491   2.727  10.959 -1.0838 -2.2624  1.1981
  917MPD2     N13430   1.892   2.785  11.144 -0.1653  0.3706 -0.0688
  917MPD2    H513431   1.899   2.866  11.083 -2.3918 -0.7013 -1.7360
  917MPD2    N113432   1.576   2.441  11.303  0.0656  0.2082  0.6549
  917MPD2    H713433   1.478   2.421  11.317  0.1143 -0.1961  0.4274
  918MPD2     C13434   1.915   2.494  12.181  0.2986 -0.7504 -0.0254
  918MPD2    C113435   1.993   2.438  12.086  0.2463  0.2525  0.1100
  918MPD2    C213436   1.936   2.366  11.983 -0.1074 -0.5294  0.5898
  918MPD2    C313437   1.799   2.347  11.964  0.5331  0.2815 -1.4428
  918MPD2    C413438   1.718   2.417  12.061  0.1879  0.0716  0.8635
  918MPD2    C513439   1.778   2.482  12.164 -0.0866 -0.1611 -0.4402
  918MPD2     H13440   2.000   2.315  11.912 -2.5316 -1.8002 -0.6986
  918MPD2    H113441   1.610   2.410  12.075 -0.1357  0.3704 -1.5555
  918MPD2    H213442   1.947   2.552  12.268 -0.8833  0.3276 -0.3111
  918MPD2    H313443   1.712   2.534  12.233  1.5397  1.6587 -0.2565
  918MPD2     N13444   1.763   2.280  11.845 -0.2007  0.0830  0.3039
  918MPD2    H513445   1.833   2.255  11.777 -1.4942 -2.6662 -0.0393
  918MPD2    N113446   2.126   2.438  12.092 -0.1114  0.0878  0.5545
  918MPD2    H713447   2.178   2.379  12.028  0.5529  2.2795 -0.9330
  919MPD2     C13448   2.319   1.372  11.509 -0.1107 -0.2041  1.0983
  919MPD2    C113449   2.277   1.249  11.454 -0.1234  0.3315 -0.1904
  919MPD2    C213450   2.259   1.257  11.317 -0.2320  0.2593  0.5783
  919MPD2    C313451   2.249   1.374  11.240  0.0109  0.1115 -0.2223
  919MPD2    C413452   2.282   1.492  11.302  0.7320 -0.0840  0.5061
  919MPD2    C513453   2.309   1.485  11.433 -0.5290 -0.7350  0.1015
  919MPD2     H13454   2.240   1.160  11.272  2.7553 -0.9038  1.8205
  919MPD2    H113455   2.281   1.588  11.252 -2.5764 -0.3734  0.0117
  919MPD2    H213456   2.357   1.388  11.609  3.0444  0.1049 -0.1656
  919MPD2    H313457   2.357   1.569  11.482  0.3929 -0.4620 -1.2492
  919MPD2     N13458   2.217   1.387  11.099  0.1530 -0.2780 -0.7056
  919MPD2    H513459   2.229   1.477  11.054  1.2923  0.7049  1.5377
  919MPD2    N113460   2.278   1.126  11.533  0.0728  0.2718 -0.1360
  919MPD2    H713461   2.283   1.043  11.473  0.8323  0.0854  0.1777
  920MPD2     C13462   1.926   1.951  10.334  0.1648  0.1966 -0.1199
  920MPD2    C113463   1.817   1.872  10.358 -0.4096 -0.1533 -0.3880
  920MPD2    C213464   1.820   1.780  10.463 -0.0297 -0.0911  1.0491
  920MPD2    C313465   1.940   1.755  10.523  1.3976 -0.1730  0.0593
  920MPD2    C413466   2.041   1.844  10.509  0.2163  0.5869  0.2209
  920MPD2    C513467   2.030   1.944  10.420 -0.5255  0.5704 -0.0833
  920MPD2     H13468   1.734   1.717  10.482 -2.0416  2.1634 -0.5311
  920MPD2    H113469   2.121   1.849  10.582  0.7657 -0.7995 -0.2644
  920MPD2    H213470   1.929   2.023  10.252  0.1542  0.7978  0.4062
  920MPD2    H313471   2.104   2.023  10.418 -1.2867  1.2422 -2.0014
  920MPD2     N13472   1.940   1.642  10.603 -0.8516 -0.2964  0.0109
  920MPD2    H513473   1.859   1.581  10.605 -0.5804 -0.7027 -1.2044
  920MPD2    N113474   1.689   1.897  10.290  0.0440 -0.1635 -0.4862
  920MPD2    H713475   1.610   1.836  10.308 -1.4188  1.5726 -1.1341
  921MPD2     C13476   3.089   0.372  16.826 -0.1398 -0.0110 -1.3101
  921MPD2    C113477   3.086   0.274  16.726  0.4674  0.1916 -0.4320
  921MPD2    C213478   2.969   0.204  16.713 -0.5306 -0.0121  0.1287
  921MPD2    C313479   2.868   0.223  16.810  0.0561 -0.1941 -0.0313
  921MPD2    C413480   2.879   0.309  16.910 -0.3510  0.1209 -0.0139
  921MPD2    C513481   2.989   0.388  16.915 -0.2792  0.3945 -0.1241
  921MPD2     H13482   2.945   0.147  16.624  0.7102 -0.8148  0.3067
  921MPD2    H113483   2.806   0.315  16.990  1.8828 -1.6232  2.1549
  921MPD2    H213484   3.163   0.450  16.818 -0.7435  0.7842  0.9095
  921MPD2    H313485   2.993   0.462  16.995  0.8591 -0.2706  0.4316
  921MPD2     N13486   2.749   0.157  16.789 -0.8078  0.6577  0.2681
  921MPD2    H513487   2.745   0.113  16.698 -1.0959 -0.5110  0.8473
  921MPD2    N113488   3.189   0.276  16.634  0.0136 -0.7389 -0.2813
  921MPD2    H713489   3.254   0.351  16.656 -1.3873  0.0121  1.3104
  922MPD2     C13490   4.359   2.124  16.952  0.0720 -0.2255 -0.1563
  922MPD2    C113491   4.379   2.248  17.007  0.2551  0.0187 -0.3919
  922MPD2    C213492   4.311   2.290  17.123  0.3424  0.4488 -0.0923
  922MPD2    C313493   4.232   2.198  17.191  0.0125 -0.7077 -0.6753
  922MPD2    C413494   4.207   2.072  17.132  0.2967 -0.2944  0.1405
  922MPD2    C513495   4.269   2.041  17.012 -0.1827  0.5495  0.7769
  922MPD2     H13496   4.326   2.393  17.154  0.6629  0.9848 -2.0303
  922MPD2    H113497   4.146   1.995  17.177 -2.3824  1.2070 -0.9395
  922MPD2    H213498   4.399   2.088  16.858 -0.1804  1.1765 -0.8004
  922MPD2    H313499   4.253   1.945  16.964  2.2954  0.0362  0.9715
  922MPD2     N13500   4.171   2.242  17.308 -0.2072 -0.7505  0.2313
  922MPD2    H513501   4.193   2.333  17.346  2.4880 -0.5802 -1.6557
  922MPD2    N113502   4.456   2.344  16.945 -0.5397 -0.2229 -0.0742
  922MPD2    H713503   4.478   2.427  16.999  0.4028 -1.0673  0.8329
  923MPD2     C13504   0.052   4.694   8.961 -0.7459  0.1369  0.4151
  923MPD2    C113505   0.069   0.094   9.030 -0.4056 -1.0746 -0.6596
  923MPD2    C213506   0.192   0.132   9.080 -0.5192 -0.3894 -0.4313
  923MPD2    C313507   0.299   0.045   9.067  0.1745 -0.2261 -0.3898
  923MPD2    C413508   0.282   4.650   8.997 -0.5546 -0.1705  0.4071
  923MPD2    C513509   0.162   4.613   8.935  0.1064 -0.2268 -0.8801
  923MPD2     H13510   0.206   0.229   9.127  1.9365 -0.7676 -0.3714
  923MPD2    H113511   0.363   4.578   8.990  1.0783  1.4546  2.4968
  923MPD2    H213512   4.681   4.652   8.921 -0.0561  1.3850 -2.5443
  923MPD2    H313513   0.147   4.524   8.874 -0.1168 -1.1215  0.4813
  923MPD2     N13514   0.434   0.083   9.111  0.1365 -0.2156  0.5581
  923MPD2    H513515   0.506   0.012   9.111  2.5487  2.2417  0.7574
  923MPD2    N113516   4.672   0.181   9.031  0.3111 -0.3755 -0.5138
  923MPD2    H713517   4.588   0.151   8.984 -2.2220  1.6758  2.6317
  924MPD2     C13518   0.814   3.205  15.959  0.1958  0.0591 -0.1675
  924MPD2    C113519   0.745   3.238  16.080 -0.5961 -0.4903 -0.4352
  924MPD2    C213520   0.711   3.370  16.106 -0.5128 -0.3108 -0.1873
  924MPD2    C313521   0.743   3.473  16.019 -0.0653  1.5053 -0.1925
  924MPD2    C413522   0.809   3.441  15.903  0.6784  0.0209  0.0177
  924MPD2    C513523   0.842   3.309  15.871  0.4782  0.4030 -0.3904
  924MPD2     H13524   0.672   3.387  16.206  1.9084  1.0600  0.5191
  924MPD2    H113525   0.839   3.513  15.828 -0.8088 -1.0964 -1.6185
  924MPD2    H213526   0.852   3.106  15.933 -2.4908 -0.9834 -0.0414
  924MPD2    H313527   0.888   3.291  15.775  2.8256  1.3371  0.5515
  924MPD2     N13528   0.709   3.608  16.047  0.1924  0.4124  0.8472
  924MPD2    H513529   0.744   3.672  15.976 -1.5590 -1.0611 -1.3630
  924MPD2    N113530   0.727   3.131  16.170 -0.5769 -0.1930 -0.4931
  924MPD2    H713531   0.811   3.075  16.167  0.0247  0.7007 -0.3581
  925MPD2     C13532   4.113   0.837  14.596  0.8680 -0.1152 -0.1502
  925MPD2    C113533   4.000   0.778  14.545  0.0008  0.2090 -0.1353
  925MPD2    C213534   3.940   0.671  14.610  0.5673 -0.0490  0.1915
  925MPD2    C313535   4.003   0.613  14.717  0.2412 -0.1888 -0.2533
  925MPD2    C413536   4.122   0.673  14.763 -0.1410 -0.2639  0.4462
  925MPD2    C513537   4.178   0.789  14.710 -0.2947 -0.2994 -0.2904
  925MPD2     H13538   3.857   0.614  14.570 -0.7242  2.0310 -0.1288
  925MPD2    H113539   4.170   0.634  14.853  2.2745 -0.9251 -1.1277
  925MPD2    H213540   4.162   0.922  14.550  0.7018 -0.1937 -0.4753
  925MPD2    H313541   4.268   0.833  14.752 -0.9202 -1.8572  2.7277
  925MPD2     N13542   3.948   0.502  14.789 -0.2638  0.4842 -0.2612
  925MPD2    H513543   3.996   0.454  14.864 -0.1227  0.5692 -0.2986
  925MPD2    N113544   3.957   0.806  14.415  0.4303 -0.1393 -0.5954
  925MPD2    H713545   3.872   0.764  14.379  0.4505 -2.1915  1.7910
  926MPD2     C13546   2.990   4.039  13.256 -0.1997  0.9671 -0.1231
  926MPD2    C113547   2.902   4.150  13.249  0.1114  0.2025  0.6014
  926MPD2    C213548   2.923   4.236  13.143  0.2447 -0.5310  0.2248
  926MPD2    C313549   3.031   4.232  13.062 -0.1091 -0.1283 -0.0395
  926MPD2    C413550   3.114   4.124  13.075 -0.5825 -0.2408 -0.4516
  926MPD2    C513551   3.098   4.035  13.175  0.0190 -0.3202  0.4817
  926MPD2     H13552   2.840   4.304  13.127  1.2929  0.3701 -1.4700
  926MPD2    H113553   3.193   4.105  13.003  1.1573  0.1115  1.3494
  926MPD2    H213554   2.978   3.958  13.327  1.0307  0.7020 -0.2355
  926MPD2    H313555   3.153   3.941  13.172  1.0257  0.2905 -0.0865
  926MPD2     N13556   3.040   4.332  12.960 -0.1696  0.0236 -0.6415
  926MPD2    H513557   2.963   4.397  12.958 -1.7116 -1.7248  1.9439
  926MPD2    N113558   2.788   4.170  13.332 -0.0628  0.1869 -0.4417
  926MPD2    H713559   2.722   4.241  13.305 -0.8246 -0.5261 -0.4506
  927MPD2     C13560   2.533   1.936   0.109  0.0664 -0.8200  0.6398
  927MPD2    C113561   2.598   1.903   0.226 -1.0379  0.4607  0.4179
  927MPD2    C213562   2.676   1.787   0.216 -0.7456 -0.0730 -0.6290
  927MPD2    C313563   2.697   1.723   0.093  0.3202  0.7091  0.3135
  927MPD2    C413564   2.638   1.768  17.662  0.2654 -0.1758 -0.4692
  927MPD2    C513565   2.555   1.876  17.667  0.4784 -0.0232  0.2885
  927MPD2     H13566   2.725   1.746   0.303 -0.0052  0.7910 -0.6418
  927MPD2    H113567   2.642   1.720  17.565 -0.8869  2.0426 -1.6288
  927MPD2    H213568   2.462   2.018   0.105 -0.2511 -1.1164  0.1815
  927MPD2    H313569   2.498   1.915  17.584 -0.1685  0.8371  1.1287
  927MPD2     N13570   2.782   1.605   0.095 -1.2378  0.1064 -0.0033
  927MPD2    H513571   2.807   1.562   0.184 -1.8239 -1.1348 -0.4285
  927MPD2    N113572   2.575   1.978   0.352 -0.0688 -0.3930  0.4424
  927MPD2    H713573   2.512   2.058   0.349 -1.5626 -1.5440  1.1178
  928MPD2     C13574   0.991   0.383   1.545 -0.5535  0.0789 -0.4300
  928MPD2    C113575   1.049   0.508   1.538 -0.2988 -0.0350 -0.2077
  928MPD2    C213576   1.120   0.533   1.429  0.2156  0.7676 -1.2606
  928MPD2    C313577   1.118   0.454   1.318 -0.0359 -0.5977  0.2418
  928MPD2    C413578   1.060   0.332   1.330 -0.1928 -0.0635  0.1678
  928MPD2    C513579   0.996   0.302   1.440  0.0774  0.5411  0.5781
  928MPD2     H13580   1.171   0.629   1.430  2.4331 -0.4164 -0.0315
  928MPD2    H113581   1.067   0.248   1.261  2.2403  0.6261 -0.4547
  928MPD2    H213582   0.939   0.348   1.634 -0.4816 -1.8787 -1.1600
  928MPD2    H313583   0.964   0.199   1.449 -1.5723  1.0774  0.9787
  928MPD2     N13584   1.190   0.481   1.198 -0.3156  0.3096  0.1222
  928MPD2    H513585   1.181   0.416   1.120  2.5760  1.3828 -1.1148
  928MPD2    N113586   1.033   0.603   1.641  0.5308 -1.0090  0.2264
  928MPD2    H713587   1.064   0.698   1.621  0.5277 -0.9810  0.3550
  929MPD2     C13588   0.854   0.344  10.267 -0.3727  0.4046  0.0098
  929MPD2    C113589   0.747   0.256  10.275  0.8920  0.4206  0.3671
  929MPD2    C213590   0.639   0.267  10.184 -0.2390  0.1617  0.2674
  929MPD2    C313591   0.654   0.346  10.073 -0.0379 -0.0665 -0.2532
  929MPD2    C413592   0.764   0.423  10.052  0.2878 -0.6982  0.3421
  929MPD2    C513593   0.860   0.425  10.150  0.0932  0.1870 -0.2989
  929MPD2     H13594   0.548   0.218  10.217 -0.0314 -0.3271  0.1091
  929MPD2    H113595   0.783   0.473   9.957  3.6691 -4.0796 -0.7755
  929MPD2    H213596   0.931   0.355  10.342 -0.5660 -1.0776  0.4323
  929MPD2    H313597   0.943   0.495  10.143  1.7900 -1.7829 -0.0545
  929MPD2     N13598   0.550   0.354   9.981  0.5770 -0.0727  0.3105
  929MPD2    H513599   0.558   0.433   9.917  0.5290  0.5293  1.0513
  929MPD2    N113600   0.744   0.169  10.387 -0.8008  0.3138  0.1694
  929MPD2    H713601   0.811   0.187  10.461  1.5413 -1.1572 -1.5895
  930MPD2     C13602   2.287   1.684  14.238  0.8865 -0.0710  0.1503
  930MPD2    C113603   2.232   1.802  14.211  0.9034 -0.5279 -0.1471
  930MPD2    C213604   2.167   1.820  14.083 -0.2458 -0.6159  0.4177
  930MPD2    C313605   2.164   1.721  13.991  0.3058 -0.3399  0.6452
  930MPD2    C413606   2.234   1.609  14.016  0.3419  0.1682 -0.1895
  930MPD2    C513607   2.284   1.585  14.142 -0.7225 -0.6500  0.1192
  930MPD2     H13608   2.135   1.920  14.057  0.9688  0.6261  3.7163
  930MPD2    H113609   2.243   1.528  13.944 -0.7625  0.1235 -0.2633
  930MPD2    H213610   2.368   1.669  14.309 -0.1113 -0.7276  1.1572
  930MPD2    H313611   2.344   1.496  14.155  2.0131  0.9771 -1.3794
  930MPD2     N13612   2.090   1.735  13.872  0.4608 -0.3710  0.0316
  930MPD2    H513613   2.104   1.663  13.801 -1.4347 -1.0780  0.3754
  930MPD2    N113614   2.265   1.915  14.288  0.0497  0.0719  0.5514
  930MPD2    H713615   2.337   1.895  14.356 -0.6341  2.5351  2.0287
  931MPD2     C13616   2.948   1.989   1.093 -0.1316  0.2789  0.4708
  931MPD2    C113617   2.808   1.971   1.092 -0.0550 -0.2195 -0.2280
  931MPD2    C213618   2.742   1.934   1.203  0.6561 -0.4679  0.2764
  931MPD2    C313619   2.812   1.893   1.317 -0.7820 -0.0848 -0.3459
  931MPD2    C413620   2.952   1.903   1.312 -0.5662  0.2130  0.3456
  931MPD2    C513621   3.019   1.961   1.208 -0.2655  0.1954 -0.2444
  931MPD2     H13622   2.636   1.908   1.202  0.2522  1.2307 -0.4462
  931MPD2    H113623   3.014   1.876   1.397  0.3983  1.3173 -0.0046
  931MPD2    H213624   2.999   2.021   1.003  1.6767  0.3841  1.5397
  931MPD2    H313625   3.127   1.951   1.205 -0.2202  0.6589 -0.0831
  931MPD2     N13626   2.746   1.840   1.431  0.1511  0.4665 -0.3494
  931MPD2    H513627   2.799   1.801   1.508  0.9638  0.3534 -0.9672
  931MPD2    N113628   2.743   2.007   0.972  0.7202 -0.0232  0.3867
  931MPD2    H713629   2.804   2.027   0.893  0.0323 -1.4929 -0.5101
  932MPD2     C13630   3.547   0.667  11.357 -0.6584  0.5921 -0.0084
  932MPD2    C113631   3.687   0.677  11.325 -0.6486 -0.0751 -0.2371
  932MPD2    C213632   3.772   0.577  11.368  0.1462 -0.2548  0.0875
  932MPD2    C313633   3.725   0.461  11.417 -0.5149  0.3977 -0.2122
  932MPD2    C413634   3.589   0.445  11.435  0.6577 -0.5434  0.2103
  932MPD2    C513635   3.502   0.546  11.406 -0.2302 -0.0918  0.4323
  932MPD2     H13636   3.879   0.591  11.364  0.2830 -1.9622 -2.0509
  932MPD2    H113637   3.551   0.347  11.463 -0.1487 -0.4332 -0.5164
  932MPD2    H213638   3.470   0.739  11.331 -2.2378 -1.1113 -0.0625
  932MPD2    H313639   3.396   0.527  11.417  0.0047 -1.5782  0.0073
  932MPD2     N13640   3.818   0.365  11.466  0.2383  0.2251  0.1152
  932MPD2    H513641   3.786   0.301  11.538  0.6790 -0.0931  0.0239
  932MPD2    N113642   3.745   0.798  11.278  0.4634 -0.1145  0.4442
  932MPD2    H713643   3.846   0.804  11.289  0.5972 -0.8193 -0.3849
  933MPD2     C13644   0.445   1.182   2.045  0.3638  0.1237  0.2990
  933MPD2    C113645   0.493   1.117   1.933 -0.0050  0.0152  0.5791
  933MPD2    C213646   0.415   1.136   1.819  0.2292  0.1830 -0.3148
  933MPD2    C313647   0.305   1.222   1.821 -0.5470 -0.1498 -0.0190
  933MPD2    C413648   0.264   1.278   1.938 -0.1758 -0.2878 -0.2393
  933MPD2    C513649   0.340   1.263   2.047  0.4024 -0.4218 -0.2916
  933MPD2     H13650   0.434   1.095   1.720  0.2220 -1.3888  0.3352
  933MPD2    H113651   0.183   1.349   1.947 -0.4050 -0.6479  0.5313
  933MPD2    H213652   0.492   1.173   2.142 -1.2821  2.2089  1.3023
  933MPD2    H313653   0.299   1.299   2.141  2.8497  1.4595  0.0545
  933MPD2     N13654   0.237   1.250   1.702 -0.3938 -0.6656  0.0808
  933MPD2    H513655   0.273   1.214   1.614  0.7225  1.8366 -0.4886
  933MPD2    N113656   0.616   1.051   1.933 -0.4858 -0.1524 -0.0579
  933MPD2    H713657   0.678   1.058   2.013  1.3263  3.2338 -1.7694
  934MPD2     C13658   1.053   2.698   2.085  0.8859 -0.1112 -0.0591
  934MPD2    C113659   1.128   2.741   1.975 -0.3295  0.8053 -0.1859
  934MPD2    C213660   1.169   2.651   1.877  0.0463 -0.0118 -0.0443
  934MPD2    C313661   1.124   2.524   1.879  1.2064  0.5206 -0.8608
  934MPD2    C413662   1.052   2.481   2.000 -0.3119 -0.2578 -0.0494
  934MPD2    C513663   1.015   2.569   2.098  0.0941  0.9753 -0.7349
  934MPD2     H13664   1.229   2.678   1.791  3.0284 -1.5110  1.5636
  934MPD2    H113665   1.011   2.381   2.002 -0.5710 -0.2213 -2.6697
  934MPD2    H213666   1.018   2.762   2.166  0.2618  1.4656 -1.5718
  934MPD2    H313667   0.948   2.534   2.176 -0.7047 -1.8362 -2.7197
  934MPD2     N13668   1.121   2.433   1.773 -0.5394 -0.5549 -0.1784
  934MPD2    H513669   1.042   2.369   1.777 -0.4371 -0.8229 -2.3396
  934MPD2    N113670   1.165   2.876   1.954 -0.2918  0.0976  0.1985
  934MPD2    H713671   1.242   2.899   1.891  1.2507 -1.0115  1.6774
  935MPD2     C13672   1.619   2.061   0.981 -0.0684 -0.3916  0.1199
  935MPD2    C113673   1.486   2.057   0.945 -0.1980 -0.5964 -0.2822
  935MPD2    C213674   1.390   2.104   1.033 -0.4348 -0.1844 -0.2967
  935MPD2    C313675   1.424   2.171   1.148 -0.1111 -0.3654 -0.1548
  935MPD2    C413676   1.556   2.196   1.171  0.7205 -0.3793 -0.0754
  935MPD2    C513677   1.651   2.130   1.092  0.0307  0.0038 -0.6103
  935MPD2     H13678   1.285   2.087   1.018 -0.2274 -0.0527 -1.8493
  935MPD2    H113679   1.596   2.252   1.255  0.9131  1.0824 -1.1366
  935MPD2    H213680   1.695   2.017   0.919  1.4545  3.3447 -0.6616
  935MPD2    H313681   1.756   2.150   1.110  0.2553 -1.0733 -0.7285
  935MPD2     N13682   1.325   2.224   1.238 -0.4475  0.3259 -0.7822
  935MPD2    H513683   1.362   2.290   1.305  0.1114  1.6468 -2.3821
  935MPD2    N113684   1.444   1.998   0.826  0.5139  0.4329  0.5454
  935MPD2    H713685   1.349   2.018   0.797  1.2165  1.1900 -1.2284
  936MPD2     C13686   4.574   4.568  12.136 -0.5302  0.1336  0.8038
  936MPD2    C113687   4.593   4.431  12.137  0.0029 -0.6679  0.3325
  936MPD2    C213688   4.717   4.370  12.098  0.1422  0.9392  0.2878
  936MPD2    C313689   0.107   4.447  12.066 -0.4352  0.4964  0.3958
  936MPD2    C413690   0.085   4.583  12.061  0.1409 -0.1669  0.2406
  936MPD2    C513691   4.681   4.640  12.098  0.2020  0.3414 -0.4495
  936MPD2     H13692   4.717   4.264  12.121  0.7317  0.8800  0.0426
  936MPD2    H113693   0.166   4.650  12.033 -1.5212  2.0585  0.8090
  936MPD2    H213694   4.487   4.614  12.181 -1.5378 -1.3172  0.2987
  936MPD2    H313695   4.684   0.028  12.099  2.3573  0.2735  2.8314
  936MPD2     N13696   0.241   4.399  12.066  0.3498 -0.1817 -0.7031
  936MPD2    H513697   0.312   4.468  12.042 -0.0259  0.2314 -0.6371
  936MPD2    N113698   4.508   4.332  12.199  0.1720 -0.1284  0.4912
  936MPD2    H713699   4.541   4.237  12.190 -1.7965 -0.6980 -0.6648
  937MPD2     C13700   2.301   0.398  11.438  0.6151  0.5113 -0.1339
  937MPD2    C113701   2.365   0.520  11.433 -0.5728 -0.1016  0.6241
  937MPD2    C213702   2.445   0.563  11.325 -0.6713  0.5752  0.2184
  937MPD2    C313703   2.471   0.464  11.230  0.5789 -0.5499 -0.0691
  937MPD2    C413704   2.423   0.338  11.246 -0.3956  0.0576  0.3383
  937MPD2    C513705   2.334   0.304  11.345  0.3931  0.2953 -0.0025
  937MPD2     H13706   2.494   0.660  11.335  1.7151 -0.5953 -0.0275
  937MPD2    H113707   2.440   0.262  11.170  0.6125 -0.8029  1.4140
  937MPD2    H213708   2.236   0.377  11.522  1.0950  0.4905  0.2321
  937MPD2    H313709   2.299   0.203  11.358  2.5617 -0.2957  1.2420
  937MPD2     N13710   2.545   0.505  11.115 -0.0935  0.6003 -0.4699
  937MPD2    H513711   2.573   0.602  11.124  0.6802  0.3563 -0.2369
  937MPD2    N113712   2.328   0.629  11.521  0.1972 -0.4665  0.4351
  937MPD2    H713713   2.363   0.720  11.493 -0.5633 -0.2439  0.1961
  938MPD2     C13714   0.255   2.060   0.763  0.1193  0.1879 -0.1523
  938MPD2    C113715   0.354   2.097   0.856  0.3308 -0.6107  0.1174
  938MPD2    C213716   0.339   2.044   0.985  0.3071 -0.1533 -0.6796
  938MPD2    C313717   0.244   1.951   1.022 -0.1155 -0.0926  0.7413
  938MPD2    C413718   0.136   1.933   0.934 -0.1491 -0.0905 -0.2585
  938MPD2    C513719   0.146   1.987   0.807 -0.0903 -0.7429  0.1648
  938MPD2     H13720   0.416   2.079   1.053  0.3336 -3.7483  1.1255
  938MPD2    H113721   0.049   1.872   0.958  0.5133 -0.0918  2.1726
  938MPD2    H213722   0.259   2.104   0.664 -0.4252  0.4453 -0.0566
  938MPD2    H313723   0.069   1.983   0.731  1.1637 -1.3700 -1.0802
  938MPD2     N13724   0.231   1.901   1.153 -0.5097 -0.0445 -0.3241
  938MPD2    H513725   0.157   1.836   1.174 -0.1625 -0.6119 -0.8451
  938MPD2    N113726   0.460   2.184   0.822  0.5533  0.3596 -0.3263
  938MPD2    H713727   0.522   2.222   0.893  2.3756 -0.2674 -1.5729
  939MPD2     C13728   1.769   3.566   0.883 -0.8378 -0.6343 -0.0100
  939MPD2    C113729   1.664   3.547   0.790 -0.5920  0.1844  0.3752
  939MPD2    C213730   1.697   3.548   0.654 -0.3619  0.2434  0.1922
  939MPD2    C313731   1.828   3.564   0.609 -0.6476  0.5467 -0.4965
  939MPD2    C413732   1.927   3.577   0.710 -0.2243 -0.1718  0.5977
  939MPD2    C513733   1.896   3.577   0.842 -0.4182 -0.3740 -0.3589
  939MPD2     H13734   1.613   3.534   0.588 -1.4504  0.3765  1.5421
  939MPD2    H113735   2.031   3.590   0.684  1.0189 -2.0202  4.6889
  939MPD2    H213736   1.763   3.554   0.991 -2.9554  2.8606  0.2717
  939MPD2    H313737   1.970   3.608   0.916  0.3000 -0.9871 -0.8189
  939MPD2     N13738   1.855   3.555   0.472  0.4638 -0.1584 -0.2801
  939MPD2    H513739   1.770   3.543   0.418 -0.1795  0.7249  0.5319
  939MPD2    N113740   1.534   3.540   0.842 -0.1259  0.4949 -0.1054
  939MPD2    H713741   1.527   3.534   0.943 -0.0169 -0.9019 -0.1730
  940MPD2     C13742   4.614   3.613  12.596 -0.0675 -0.4060  0.8455
  940MPD2    C113743   0.005   3.580  12.665  0.2860 -0.3400  0.1395
  940MPD2    C213744   0.130   3.580  12.606  0.5130 -0.0442 -0.4479
  940MPD2    C313745   0.138   3.607  12.470 -0.3693  0.9657 -0.8372
  940MPD2    C413746   0.030   3.647  12.400  0.1400 -0.0477  0.3006
  940MPD2    C513747   4.628   3.643  12.461  0.0934 -0.5604  0.2120
  940MPD2     H13748   0.213   3.551  12.670 -0.6484  0.1216  1.1240
  940MPD2    H113749   0.045   3.680  12.298 -0.5620 -1.9056 -0.4037
  940MPD2    H213750   4.519   3.597  12.647 -0.4894 -1.2536 -0.2063
  940MPD2    H313751   4.544   3.646  12.393  1.2498 -4.1236 -1.3464
  940MPD2     N13752   0.265   3.591  12.409 -0.3148  0.1688  0.3917
  940MPD2    H513753   0.264   3.613  12.310 -0.7122  0.3280  0.4326
  940MPD2    N113754   0.004   3.544  12.806 -0.4495 -0.5626 -0.2760
  940MPD2    H713755   0.093   3.518  12.848  0.0431 -0.0301 -0.9958
  941MPD2     C13756   3.740   3.798   9.895  0.3092 -0.5486  0.0268
  941MPD2    C113757   3.858   3.763   9.954  0.1609 -0.5054 -0.0005
  941MPD2    C213758   3.860   3.638  10.006 -0.2646 -0.2855 -0.9397
  941MPD2    C313759   3.758   3.541   9.984 -0.3809  0.4574 -0.2796
  941MPD2    C413760   3.655   3.580   9.902  0.4339 -0.7190  0.6109
  941MPD2    C513761   3.645   3.706   9.865 -0.0333  0.3076  0.4177
  941MPD2     H13762   3.948   3.607  10.061 -1.0387 -1.2472 -0.2411
  941MPD2    H113763   3.575   3.512   9.873 -0.6268  1.1180 -0.7294
  941MPD2    H213764   3.725   3.899   9.858  2.0451  0.0671  0.9663
  941MPD2    H313765   3.559   3.724   9.800  0.5227  2.6111  0.3579
  941MPD2     N13766   3.751   3.410  10.041 -0.3900 -0.4497  0.2284
  941MPD2    H513767   3.672   3.350  10.019 -0.3943 -0.6720  0.8709
  941MPD2    N113768   3.971   3.833   9.976 -0.0360 -0.4247  0.0767
  941MPD2    H713769   4.049   3.778  10.012 -0.8068 -1.0733  0.7728
  942MPD2     C13770   3.149   0.054   8.829  0.3235 -0.3468  0.0255
  942MPD2    C113771   3.206   4.653   8.810 -0.0709  0.0058 -0.5444
  942MPD2    C213772   3.342   4.649   8.792  0.4666 -0.1248  0.1298
  942MPD2    C313773   3.426   0.037   8.816  0.1838 -0.1954 -0.0348
  942MPD2    C413774   3.360   0.150   8.863 -0.5199  0.0296 -0.4934
  942MPD2    C513775   3.226   0.163   8.859  0.1343  0.0417  0.4429
  942MPD2     H13776   3.384   4.550   8.784 -0.3375 -0.4288 -0.3796
  942MPD2    H113777   3.419   0.233   8.898 -1.4119  0.3868  0.1664
  942MPD2    H213778   3.042   0.069   8.819  0.7149  0.9669 -2.2755
  942MPD2    H313779   3.181   0.259   8.880  0.9125  0.3715  0.5870
  942MPD2     N13780   3.562   0.019   8.823 -0.3563 -0.1941 -0.2267
  942MPD2    H513781   3.616   0.103   8.842 -3.5976  1.8235  0.0705
  942MPD2    N113782   3.142   4.532   8.786  0.2077  0.0096  0.1612
  942MPD2    H713783   3.207   4.459   8.758 -1.7149 -1.5884 -0.1323
  943MPD2     C13784   2.597   3.128   9.836  0.0958  0.8147  0.1349
  943MPD2    C113785   2.516   3.023   9.883 -0.1630 -0.5438  0.5302
  943MPD2    C213786   2.381   3.028   9.861 -0.2145 -0.2935 -0.7124
  943MPD2    C313787   2.327   3.139   9.802 -0.5516  0.2930 -0.0598
  943MPD2    C413788   2.410   3.238   9.749  0.9388 -0.2571  0.0654
  943MPD2    C513789   2.544   3.234   9.762 -0.0776  0.3232 -0.1552
  943MPD2     H13790   2.322   2.942   9.890  0.8282 -0.8779 -0.3470
  943MPD2    H113791   2.365   3.321   9.695  1.7248 -0.0868 -0.3314
  943MPD2    H213792   2.704   3.133   9.855 -0.4295  1.7505  2.8979
  943MPD2    H313793   2.604   3.318   9.729 -1.0546  0.7360 -0.8798
  943MPD2     N13794   2.187   3.152   9.787  0.5111  0.0462 -0.2101
  943MPD2    H513795   2.156   3.233   9.735  1.7929  0.1937 -0.7689
  943MPD2    N113796   2.576   2.918   9.961 -0.0808 -0.3325 -0.2649
  943MPD2    H713797   2.674   2.933   9.980 -0.4934  0.3896  1.2942
  944MPD2     C13798   2.797   1.685  10.649  0.5662 -0.5075 -0.4267
  944MPD2    C113799   2.896   1.775  10.680 -0.0828  0.1511  0.1183
  944MPD2    C213800   2.931   1.795  10.812  0.2712 -0.5223  0.0322
  944MPD2    C313801   2.855   1.735  10.906 -0.3643  0.0548 -0.4279
  944MPD2    C413802   2.756   1.645  10.874 -0.0468 -0.1527 -0.0615
  944MPD2    C513803   2.726   1.624  10.743  0.7188  0.3994  0.2437
  944MPD2     H13804   3.019   1.853  10.838  2.0387 -3.4840  0.6362
  944MPD2    H113805   2.705   1.589  10.951  0.2783 -0.9854 -0.4542
  944MPD2    H213806   2.767   1.659  10.548  0.6210 -0.7196 -0.3894
  944MPD2    H313807   2.637   1.567  10.717 -0.9019  1.4898  3.4117
  944MPD2     N13808   2.904   1.748  11.038 -0.2477  0.3960 -0.2260
  944MPD2    H513809   2.987   1.804  11.051  0.9895 -0.8908 -2.6901
  944MPD2    N113810   2.964   1.837  10.572  0.1702  0.3271  0.2025
  944MPD2    H713811   2.933   1.810  10.480 -0.2886 -1.3695  0.8515
    1TCq1    O113812   1.346   2.552  14.163  0.0900 -0.8265  0.2278
    1TCq1    C113813   1.443   2.638  14.166 -0.0382  0.0871 -0.2138
    1TCq1    O213814   1.446   2.750  14.113 -0.0275  0.5399 -0.1969
    1TCq1    C213815   1.502   2.631  14.295  0.3538 -0.7957 -0.0604
    1TCq1    C313816   1.520   2.510  14.355  0.0116 -0.1411  0.0714
    1TCq1    C413817   1.579   2.506  14.477 -0.4788  0.6191 -0.0999
    1TCq1    C513818   1.608   2.620  14.553 -0.2224 -0.3094  0.0214
    1TCq1    C613819   1.586   2.738  14.492  0.1497 -0.4820 -0.0539
    1TCq1    C713820   1.530   2.745  14.370  0.1377 -0.0962 -0.7305
    1TCq1    C813821   1.576   2.849  14.581  0.5995  0.5811  0.6086
    1TCq1    O413822   1.647   2.848  14.681  0.3631  0.2867 -0.5110
    1TCq1    C913823   1.608   2.372  14.530 -0.4910  0.1212  0.7777
    1TCq1    O513824   1.668   2.368  14.641 -0.6808 -0.2782  0.1198
    1TCq1    O613825   1.598   2.274  14.451  0.5501 -0.2078 -0.0213
    1TCq1    H113826   1.358   2.471  14.217 -0.7801 -0.7476  0.5368
    1TCq1    H213827   1.513   2.415  14.303 -0.5409 -0.3364  0.5111
    1TCq1    H313828   1.646   2.616  14.655  1.5008 -2.3796 -0.7149
    1TCq1    H413829   1.522   2.842  14.322  0.8871 -0.1699 -0.9935
    2MPD2     C13830   1.389   3.321  14.716  0.0882 -0.2170 -0.6371
    2MPD2    C113831   1.351   3.291  14.582  0.1794 -0.1816  0.0650
    2MPD2    C213832   1.387   3.165  14.528 -0.7099 -0.1520  0.2333
    2MPD2    C313833   1.467   3.074  14.595 -0.5253 -0.3829  0.5327
    2MPD2    C413834   1.501   3.104  14.728 -0.0265 -0.0750  0.0938
    2MPD2    C513835   1.460   3.220  14.782 -0.0221 -0.0025  0.0943
    2MPD2     H13836   1.352   3.135  14.430 -1.0870  0.1078  0.2897
    2MPD2    H113837   1.568   3.042  14.787  1.0477  1.5542  0.5588
    2MPD2    H213838   1.379   3.416  14.768  2.9643  0.0991 -0.6662
    2MPD2    H313839   1.501   3.243  14.880 -0.7697 -0.2972  0.4771
    2MPD2     N13840   1.498   2.950  14.532 -0.1594  0.0444 -0.0511
    2MPD2    H513841   1.448   2.933  14.445  1.0413  1.2552 -0.9792
    2MPD2    N113842   1.286   3.393  14.511  0.0220 -0.1190 -0.9827
    2MPD2    H713843   1.251   3.477  14.556  0.2748 -0.6845  0.2565
    3TMC2    C113844   1.203   3.503  14.328  0.3500  0.2679 -0.0974
    3TMC2    C213845   1.214   3.621  14.393 -0.2118  0.4853  0.2232
    3TMC2    C313846   1.173   3.730  14.316 -0.2759  0.0969 -0.4097
    3TMC2    C413847   1.148   3.485  14.201  0.9362 -0.3623 -0.3119
    3TMC2    C513848   1.095   3.590  14.138  0.0601  0.1316  0.3395
    3TMC2    C613849   1.119   3.717  14.190 -0.1475  0.5206 -0.7396
    3TMC2     C13850   1.251   3.380  14.385 -0.0502 -0.2290 -0.8137
    3TMC2     O13851   1.273   3.289  14.306  0.1594 -0.0243 -0.2380
    3TMC2     H13852   1.270   3.641  14.483 -0.9767  0.0955  0.7920
    3TMC2    H113853   1.147   3.387  14.154 -0.5789 -0.9595  0.9650
    3TMC2    H213854   1.095   3.799  14.123  1.1696  0.5167 -1.2272
    3TMC2    C713855   1.065   3.579  13.995 -0.0351 -0.1587 -0.2068
    3TMC2    C813856   1.220   3.855  14.358 -0.4004  0.6246  1.1268
    3TMC2    O113857   1.133   3.490  13.943  0.2885 -0.8200 -1.1614
    3TMC2    O213858   1.303   3.877  14.445 -0.4810  0.2653 -0.5122
    3TMC2    O513859   1.107   3.933  14.344  0.1547 -0.6602 -0.6480
    3TMC2    H513860   1.043   3.884  14.288  0.2114  1.2677 -2.3672
    4MPD2     C13861   4.682   4.049  12.953 -0.5387 -0.4313 -0.5377
    4MPD2    C113862   0.066   4.135  12.915  0.0620 -0.5225 -0.0058
    4MPD2    C213863   0.175   4.155  13.000 -0.1807 -0.4283  0.8104
    4MPD2    C313864   0.176   4.110  13.131  1.1085  0.8894  0.9499
    4MPD2    C413865   0.065   4.026  13.166 -0.6862  0.4088 -0.0230
    4MPD2    C513866   4.684   4.000  13.084 -0.0656 -0.3077 -0.6011
    4MPD2     H13867   0.265   4.212  12.978 -0.8611  0.0439 -0.7474
    4MPD2    H113868   0.062   3.997  13.271 -0.0699  1.5133  0.2960
    4MPD2    H213869   4.589   4.040  12.899  0.1630 -0.2321 -1.7914
    4MPD2    H313870   4.597   3.954  13.129  1.9962 -2.3094  1.3398
    4MPD2     N13871   0.284   4.138  13.223  0.7448  0.5769 -0.4580
    4MPD2    H513872   0.349   4.213  13.203  0.3867  0.3963 -2.3325
    4MPD2    N113873   0.053   4.204  12.792 -0.5350  0.3336  0.2784
    4MPD2    H713874   4.685   4.195  12.742 -1.9674  0.0731  2.8610
    5TCq2    C113875   0.313   4.065  13.335 -0.0798 -0.0141 -0.7902
    5TCq2    O213876   0.264   3.960  13.364  0.1301 -0.2623 -0.4592
    5TCq2    C213877   0.418   4.126  13.420  0.7261  0.1772 -0.3500
    5TCq2    C313878   0.402   4.256  13.454 -0.2363  0.5425  0.4469
    5TCq2    C413879   0.480   4.305  13.559 -0.0989 -0.2076 -0.3672
    5TCq2    C513880   0.568   4.225  13.626  0.2826  0.1566 -0.3228
    5TCq2    C613881   0.563   4.086  13.604  0.3308 -0.7892 -0.1314
    5TCq2    C713882   0.489   4.034  13.502 -0.0813  0.2642 -0.0001
    5TCq2    C813883   0.669   4.006  13.675 -0.7495 -0.1562  0.2613
    5TCq2    O413884   0.717   4.053  13.781  0.6442 -0.3408  0.6271
    5TCq2    C913885   0.473   4.447  13.586 -0.7723  0.2250  0.4342
    5TCq2    O513886   0.564   4.486  13.657  0.3383  0.5057 -0.2159
    5TCq2    O613887   0.403   4.523  13.515 -0.4411  0.5157 -0.2144
    5TCq2    H213888   0.334   4.317  13.395 -1.0295  1.8946  2.7338
    5TCq2    H313889   0.640   4.257  13.700  0.7094 -1.3763 -0.0781
    5TCq2    H413890   0.484   3.929  13.472  1.1033  0.4898 -0.9680
    6MPD1     C13891   4.377   0.813  13.386  0.8086  0.2328  0.3195
    6MPD1    C113892   4.460   0.700  13.370 -0.0963 -0.1764 -0.0674
    6MPD1    C213893   4.528   0.697  13.252 -0.2108 -0.6001  0.5987
    6MPD1    C313894   4.500   0.784  13.147  0.7213  0.1988  0.2724
    6MPD1    C413895   4.417   0.892  13.163 -0.3107  0.7471 -0.4870
    6MPD1    C513896   4.364   0.909  13.290 -0.5549  0.0151  0.2122
    6MPD1     H13897   4.583   0.608  13.221  0.0649 -0.2274  0.0094
    6MPD1    H113898   4.392   0.961  13.083  0.3732 -0.8219 -2.0688
    6MPD1    H213899   4.321   0.836  13.476 -2.1352 -1.4208 -1.0861
    6MPD1    H313900   4.296   0.990  13.312 -2.8725 -1.5668 -1.0799
    6MPD1     N13901   4.558   0.775  13.016  0.7892 -0.3997 -0.3642
    6MPD1    H513902   4.518   0.835  12.944  0.8188 -0.2074 -0.2205
    6MPD1    N113903   4.479   0.605  13.471  0.5052  0.0468 -0.3501
    6MPD1    H613904   4.396   0.595  13.529  0.9519  1.7405  0.5758
    6MPD1    H713905   4.486   0.517  13.421  0.5596 -0.2578  0.1967
    7MPD2     C13906   4.280   0.261  12.516 -0.1737  0.0575  0.4231
    7MPD2    C113907   4.409   0.255  12.557  0.0828  0.0747  0.3177
    7MPD2    C213908   4.480   0.136  12.555  0.5335 -0.1874 -0.3186
    7MPD2    C313909   4.427   0.024  12.492  0.0914  0.1451  0.5781
    7MPD2    C413910   4.302   0.037  12.439 -0.1636  0.1832  1.0350
    7MPD2    C513911   4.226   0.151  12.453 -0.2502 -0.4620 -0.1812
    7MPD2     H13912   4.580   0.126  12.597  0.2758  0.6446  0.4887
    7MPD2    H113913   4.260   4.675  12.382  0.8450  0.3073  0.1203
    7MPD2    H213914   4.219   0.350  12.531 -1.7766 -0.5716 -2.3692
    7MPD2    H313915   4.125   0.160  12.416  1.0308  1.9167 -3.0117
    7MPD2     N13916   4.504   4.623  12.469 -0.1388 -0.5951  0.0298
    7MPD2    H513917   4.464   4.546  12.417  0.2161 -0.0035 -1.1123
    7MPD2    N113918   4.479   0.362  12.604 -0.0383 -0.3159 -0.0087
    7MPD2    H713919   4.575   0.347  12.632  0.2656  1.3014 -0.2097
    8TMC3    C113920   4.686   4.470  12.495  0.1893  0.3029  0.0638
    8TMC3    C213921   4.712   4.393  12.601 -0.3123 -0.2249  0.2577
    8TMC3    C313922   0.118   4.336  12.605  0.5396  0.0919  0.2132
    8TMC3    C413923   0.053   4.488  12.396  0.0577 -0.5628 -0.0204
    8TMC3    C513924   0.183   4.447  12.415  0.2197  0.0254  0.5167
    8TMC3    C613925   0.217   4.363  12.510 -0.3000 -0.2614 -0.2618
    8TMC3     C13926   4.627   4.597  12.532 -0.2740  0.2325  0.0360
    8TMC3     O13927   4.692   4.654  12.622  0.0780  0.2037 -0.1987
    8TMC3     H13928   4.640   4.391  12.683  0.6340 -1.0788  1.0626
    8TMC3    H113929   0.029   4.570  12.328 -2.1036 -0.0650  1.3388
    8TMC3    H213930   0.321   4.332  12.520 -1.0276 -2.9315 -0.9640
    8TMC3    C713931   0.276   4.555  12.401  0.1494 -0.0660 -0.2734
    8TMC3    C813932   0.154   4.271  12.727 -0.0327 -0.5869 -0.1389
    8TMC3    O113933   0.395   4.530  12.398  0.3772  0.1114  0.3606
    8TMC3    O213934   0.274   4.265  12.744 -0.0450  0.4842  0.8523
    9TMC3    C113935   4.655   0.670  12.828 -0.1033 -0.1839 -0.4387
    9TMC3    C213936   0.057   0.633  12.783 -0.2575  0.2625  0.0068
    9TMC3    C313937   0.058   0.580  12.662 -0.1417 -0.7598 -0.8032
    9TMC3    C413938   4.540   0.646  12.765  0.0296  0.5302 -0.2316
    9TMC3    C513939   4.548   0.576  12.645  0.3861 -0.7723  0.2777
    9TMC3    C613940   4.664   0.536  12.596  0.3980  0.0095 -0.1149
    9TMC3     C13941   4.645   0.682  12.971  0.1076 -0.8908 -0.1804
    9TMC3     O13942   0.004   0.616  13.035  0.5597 -0.0250  0.2265
    9TMC3     H13943   0.154   0.650  12.827  0.8791 -1.4246 -1.8978
    9TMC3    H113944   4.446   0.654  12.818  0.1511 -1.7970  0.3290
    9TMC3    H213945   4.674   0.489  12.499  1.4646  0.5817 -0.2901
    9TMC3    C713946   4.432   0.493  12.619 -0.0567 -0.5199 -0.7393
    9TMC3    C813947   0.179   0.525  12.613  0.1603 -0.4612 -0.2794
    9TMC3    O113948   4.321   0.531  12.655  0.2163  0.0093 -0.3188
    9TMC3    O213949   0.275   0.597  12.589  0.2759 -0.5189 -0.6542
   10MPD2     C13950   0.367   0.120  12.361  0.6795 -0.3444 -0.1116
   10MPD2    C113951   0.261   0.078  12.433  0.2542 -0.3027  0.8344
   10MPD2    C213952   0.200   0.173  12.512 -0.8834 -0.1438 -0.9887
   10MPD2    C313953   0.251   0.302  12.533  0.3006 -0.2811 -0.3318
   10MPD2    C413954   0.361   0.339  12.456 -0.1572  0.0711  0.0262
   10MPD2    C513955   0.413   0.249  12.366  0.7042 -0.6007  1.1746
   10MPD2     H13956   0.109   0.151  12.566 -0.4730 -2.5867 -1.3290
   10MPD2    H113957   0.410   0.435  12.467  0.9865 -0.5954  0.7994
   10MPD2    H213958   0.415   0.047  12.297  0.5816 -0.7390  0.2632
   10MPD2    H313959   0.490   0.284  12.297 -1.7493 -0.6549 -1.6163
   10MPD2     N13960   0.165   0.387  12.607 -0.2117 -0.6991  0.4958
   10MPD2    H513961   0.085   0.342  12.649 -2.0539  0.5316 -1.6980
   10MPD2    N113962   0.212   4.669  12.437  0.0363 -0.3974 -0.4507
   10MPD2    H713963   0.128   4.659  12.493  0.0304  1.8283 -0.0678
   11MPD2     C13964   1.017   3.625  13.708 -0.1819  0.3573  0.4423
   11MPD2    C113965   0.960   3.697  13.808 -0.6041  0.0677 -0.4718
   11MPD2    C213966   0.862   3.788  13.770  0.1621 -0.6441 -0.2068
   11MPD2    C313967   0.821   3.813  13.640  0.2894 -0.1751 -0.5932
   11MPD2    C413968   0.882   3.738  13.544 -0.0937 -0.7332  0.3290
   11MPD2    C513969   0.974   3.643  13.579  0.5243  0.1328  0.6204
   11MPD2     H13970   0.824   3.858  13.844  0.3752 -0.6329 -0.1065
   11MPD2    H113971   0.844   3.750  13.443  3.1397  0.3156 -0.7634
   11MPD2    H213972   1.099   3.558  13.732 -0.7492 -1.0783 -1.6515
   11MPD2    H313973   1.025   3.576  13.511  0.6165 -0.0159  0.8387
   11MPD2     N13974   0.718   3.909  13.599  0.1177 -0.5097  1.4098
   11MPD2    H513975   0.693   3.898  13.502 -1.7990  3.5519  1.4739
   11MPD2    N113976   0.990   3.682  13.941 -0.2236 -0.0891 -0.3130
   11MPD2    H713977   0.945   3.750  14.001 -1.9677 -1.9268  0.4682
    1MPD1     C13978   3.487   0.349  15.918  0.3649 -0.3015  0.0318
    1MPD1    C113979   3.497   0.357  15.783  0.1073 -0.0936  0.0799
    1MPD1    C213980   3.595   0.441  15.744  0.6591  0.5933 -0.8008
    1MPD1    C313981   3.687   0.513  15.820 -0.0425  0.3246 -0.0447
    1MPD1    C413982   3.666   0.492  15.956  0.8089 -0.1750 -0.3157
    1MPD1    C513983   3.577   0.406  16.001 -0.6576 -0.2545 -0.1519
    1MPD1     H13984   3.596   0.462  15.638  2.7545  0.6498 -0.7887
    1MPD1    H113985   3.732   0.534  16.031  0.5969  0.5984 -0.5661
    1MPD1    H213986   3.407   0.295  15.967 -0.5969  1.4427  0.3883
    1MPD1    H313987   3.568   0.388  16.107 -2.7384 -1.5860 -0.5599
    1MPD1     N13988   3.783   0.608  15.776  0.7100 -0.8711  0.4652
    1MPD1    H513989   3.848   0.640  15.848 -0.2922  1.0353  0.5160
    1MPD1    N113990   3.392   0.317  15.696 -0.6549  0.0326  0.2516
    1MPD1    H613991   3.354   0.234  15.740 -0.7824 -0.8565 -1.5008
    1MPD1    H713992   3.429   0.293  15.604  2.3472 -1.3324  1.8275
    2MPD1     C13993   0.037   0.790  15.908 -0.4429  0.6373  0.3775
    2MPD1    C113994   0.018   0.838  15.780 -0.2914 -0.4087 -0.0596
    2MPD1    C213995   4.616   0.834  15.718 -0.0789 -0.1993 -0.0518
    2MPD1    C313996   4.507   0.793  15.789  0.1288  0.6130 -0.2416
    2MPD1    C413997   4.527   0.759  15.917 -0.0573  1.1643  0.4641
    2MPD1    C513998   4.649   0.744  15.977 -0.7710  0.2679  0.2878
    2MPD1     H13999   4.607   0.858  15.612  1.3267  0.4615 -0.0236
    2MPD1    H114000   4.447   0.722  15.981  0.2806 -0.2229  0.0864
    2MPD1    H214001   0.135   0.773  15.951 -1.1636  0.8632  2.1101
    2MPD1    H314002   4.664   0.707  16.078 -0.7011  0.8890  0.5043
    2MPD1     N14003   4.381   0.786  15.724  1.0635 -0.2808  0.0890
    2MPD1    H514004   4.389   0.786  15.622 -1.4172  1.0623 -0.1203
    2MPD1    N114005   0.142   0.850  15.717  0.2259 -0.3780  0.2275
    2MPD1    H614006   0.219   0.887  15.772  0.3728  0.3888 -0.4844
    2MPD1    H714007   0.141   0.918  15.641  0.0179 -0.1946  0.3947
    3TMC3    C114008   4.157   0.758  15.680  0.7993  0.2662 -0.0473
    3TMC3    C214009   4.189   0.795  15.556 -0.5006 -0.0293  0.5027
    3TMC3    C314010   4.081   0.796  15.465  0.5628  0.2594 -0.1607
    3TMC3    C414011   4.031   0.724  15.720  0.8315  0.2829 -0.2585
    3TMC3    C514012   3.929   0.721  15.622 -0.3854  0.2048  0.3312
    3TMC3    C614013   3.955   0.749  15.492  0.1488  0.4901  0.4292
    3TMC3     C14014   4.261   0.766  15.785 -0.0865  0.6977 -0.2240
    3TMC3     O14015   4.232   0.773  15.905 -0.0863 -0.4462 -0.5816
    3TMC3     H14016   4.280   0.835  15.514 -0.7512  1.3292  1.2464
    3TMC3    H114017   4.015   0.695  15.823  2.3909 -0.0645 -0.1159
    3TMC3    H214018   3.867   0.761  15.430 -0.0483 -2.3720  0.1871
    3TMC3    C714019   3.802   0.656  15.645 -0.2342  0.3059 -0.7301
    3TMC3    C814020   4.109   0.861  15.338 -0.1324 -0.3266  0.7468
    3TMC3    O114021   3.737   0.636  15.543 -0.3343  0.0039  0.2457
    3TMC3    O214022   4.202   0.943  15.335  0.4426 -0.0441 -0.6063
    4MPD1     C14023   3.975   1.010  14.859 -0.1688  0.3495 -0.0325
    4MPD1    C114024   3.894   0.909  14.901 -0.0288 -0.2557  0.4738
    4MPD1    C214025   3.914   0.855  15.028  0.5627  0.2662  0.3760
    4MPD1    C314026   4.012   0.894  15.114  0.3321 -0.3122  0.4607
    4MPD1    C414027   4.100   0.996  15.076 -0.2170  0.4748 -0.4493
    4MPD1    C514028   4.072   1.049  14.946 -0.2277  0.0727 -0.3456
    4MPD1     H14029   3.862   0.767  15.062  1.2785 -0.3869 -0.2286
    4MPD1    H114030   4.183   1.026  15.139 -2.7149  0.2415  2.9085
    4MPD1    H214031   3.958   1.063  14.766 -3.7800  0.1970  0.5414
    4MPD1    H314032   4.153   1.117  14.919  0.1382  0.0473  0.6912
    4MPD1     N14033   4.022   0.825  15.240 -0.5943  0.5600  0.3919
    4MPD1    H514034   3.963   0.743  15.249 -0.7598  0.8949  2.3126
    4MPD1    N114035   3.774   0.883  14.830  0.1805  0.0466  0.5088
    4MPD1    H614036   3.734   0.794  14.860  3.7006 -2.4578 -2.2604
    4MPD1    H714037   3.790   0.886  14.730 -0.7011 -0.6586  0.3537
    1TCq1    O114038   4.486   0.498  11.704 -0.3925 -0.4862  0.5290
    1TCq1    C114039   4.438   0.465  11.583 -0.1842 -0.0246 -1.0328
    1TCq1    O214040   4.484   0.374  11.516 -0.2869  0.3365 -0.7534
    1TCq1    C214041   4.306   0.524  11.573  0.4452  0.9142  0.2449
    1TCq1    C314042   4.255   0.571  11.457 -0.0355 -0.0279  0.1144
    1TCq1    C414043   4.150   0.665  11.451  0.3138  0.6849 -0.0262
    1TCq1    C514044   4.069   0.664  11.559 -0.7580  0.1869 -0.5301
    1TCq1    C614045   4.114   0.602  11.674  0.0408 -1.0062  0.3045
    1TCq1    C714046   4.234   0.539  11.686  0.3946  0.3564 -0.6271
    1TCq1    C814047   4.017   0.605  11.787  0.1106 -0.1959  0.1339
    1TCq1    O414048   4.067   0.583  11.896  0.1121 -0.0094  0.0511
    1TCq1    C914049   4.098   0.724  11.329 -0.7061 -0.1405  0.3200
    1TCq1    O514050   4.012   0.820  11.333  0.0226  0.1610  0.1716
    1TCq1    O614051   4.152   0.684  11.225  0.0403  0.1414 -0.0385
    1TCq1    H114052   4.425   0.565  11.743 -0.8868  0.5200 -2.0064
    1TCq1    H214053   4.325   0.559  11.375  2.1643  1.5114  1.7487
    1TCq1    H314054   3.979   0.724  11.558 -1.0892 -0.3583 -2.6331
    1TCq1    H414055   4.257   0.484  11.776  0.5118  0.0896 -0.8219
    2MPD1     C14056   3.535   0.624  11.959 -0.2175 -0.6548  0.1721
    2MPD1    C114057   3.530   0.589  11.831 -0.4022 -0.0469 -0.2556
    2MPD1    C214058   3.646   0.586  11.760 -0.3014 -0.9466 -0.1716
    2MPD1    C314059   3.769   0.584  11.823 -0.1418  0.4568  0.3490
    2MPD1    C414060   3.769   0.598  11.959 -0.5647  0.7861 -0.7653
    2MPD1    C514061   3.655   0.626  12.026  0.2720  0.4765  0.6665
    2MPD1     H14062   3.651   0.598  11.653 -1.1311  1.7906  0.0896
    2MPD1    H114063   3.861   0.618  12.013 -1.5030  0.9150  0.7845
    2MPD1    H214064   3.445   0.637  12.018  1.2126  0.4248  2.1094
    2MPD1    H314065   3.646   0.641  12.133  0.1975  1.8607  0.4636
    2MPD1     N14066   3.885   0.586  11.745  0.3795  0.3094 -0.4914
    2MPD1    H514067   3.866   0.587  11.645 -0.6027  1.9432 -0.2767
    2MPD1    N114068   3.413   0.600  11.767 -0.2546  0.6829 -0.2222
    2MPD1    H614069   3.335   0.586  11.830  0.1545  1.3357  0.4308
    2MPD1    H714070   3.415   0.544  11.682  1.7150 -0.1755  0.3973
    1TCq1    O114071   4.607   1.078   1.199  0.5552 -0.0685 -0.0091
    1TCq1    C114072   4.538   1.075   1.083  0.7038 -0.5134 -0.0452
    1TCq1    O214073   4.492   1.170   1.023  0.1201  0.0307  0.1763
    1TCq1    C214074   4.544   0.935   1.038  0.4293  0.4048 -0.0893
    1TCq1    C314075   4.449   0.893   0.952  0.0590  0.1814  0.4157
    1TCq1    C414076   4.476   0.795   0.858 -0.3307 -0.0633  0.0202
    1TCq1    C514077   4.600   0.745   0.845 -0.2736 -0.2887  0.6076
    1TCq1    C614078   4.695   0.801   0.929  0.0465 -0.2339  0.8365
    1TCq1    C714079   4.674   0.900   1.023  0.8096  0.0723 -0.5885
    1TCq1    C814080   0.114   0.787   0.907  0.3617 -0.1571 -0.8152
    1TCq1    O414081   0.194   0.869   0.950  0.1480  0.2885 -0.0879
    1TCq1    C914082   4.405   0.823   0.731 -0.0613 -0.4232 -0.0139
    1TCq1    O514083   4.443   0.763   0.625 -0.6251 -0.0188 -0.6492
    1TCq1    O614084   4.289   0.875   0.745  0.1569  0.1712 -0.2285
    1TCq1    H114085   4.634   0.991   1.236  0.9663 -0.5436 -1.4309
    1TCq1    H214086   4.355   0.946   0.948 -0.5436 -1.0134 -1.0623
    1TCq1    H314087   4.617   0.690   0.753 -0.3244 -0.1270  0.5023
    1TCq1    H414088   0.035   0.943   1.080 -0.1787  0.9248  0.1555
    2MPD1     C14089   0.527   0.488   0.809 -0.6586 -0.5324 -0.5182
    2MPD1    C114090   0.427   0.443   0.733  0.3918 -0.2797  0.6995
    2MPD1    C214091   0.308   0.518   0.727 -0.5494  0.1508 -0.0783
    2MPD1    C314092   0.290   0.631   0.803  0.5830 -0.7865  0.2483
    2MPD1    C414093   0.404   0.682   0.873 -0.5878  0.2000 -0.3625
    2MPD1    C514094   0.519   0.611   0.865 -0.5052 -0.2576 -0.1275
    2MPD1     H14095   0.223   0.478   0.672 -0.3599 -0.7737  0.3093
    2MPD1    H114096   0.396   0.773   0.930 -0.6699  0.1133 -0.2355
    2MPD1    H214097   0.622   0.437   0.819 -0.8315 -1.3332 -2.9717
    2MPD1    H314098   0.602   0.636   0.929  0.8294  1.5441 -2.5380
    2MPD1     N14099   0.153   0.674   0.824 -0.1205  0.3294 -0.7082
    2MPD1    H514100   0.083   0.612   0.786  0.9238 -1.4575  0.2633
    2MPD1    N114101   0.437   0.314   0.682 -0.5980  0.0411  0.6778
    2MPD1    H614102   0.536   0.310   0.658 -0.2854 -1.0337  2.1635
    2MPD1    H714103   0.388   0.305   0.593  1.5789  0.3079 -0.5483
    1MPD1     C14104   0.906   0.222  11.866  0.3523 -0.1002 -0.6592
    1MPD1    C114105   0.877   0.302  11.976 -0.5136  0.7955 -0.0736
    1MPD1    C214106   0.953   0.418  11.997 -0.4523  0.1751 -0.1651
    1MPD1    C314107   1.062   0.441  11.912 -0.1461  0.5536  0.0151
    1MPD1    C414108   1.089   0.352  11.800  0.1685 -0.8214 -0.1729
    1MPD1    C514109   0.998   0.254  11.772  0.1380  0.2162  0.4433
    1MPD1     H14110   0.925   0.484  12.078  1.5836  1.8035 -0.7910
    1MPD1    H114111   1.161   0.372  11.722 -1.1540  0.1257 -1.1646
    1MPD1    H214112   0.841   0.139  11.843 -2.5534  1.2159  2.8219
    1MPD1    H314113   1.011   0.192  11.684  0.5817 -0.4640  0.9873
    1MPD1     N14114   1.127   0.561  11.931  0.3705  0.5876  0.0270
    1MPD1    H514115   1.098   0.627  12.003 -2.1734  0.8331 -1.2289
    1MPD1    N114116   0.777   0.262  12.067  0.3580 -0.3587  0.0519
    1MPD1    H614117   0.811   0.267  12.163  0.4722 -0.0070 -0.0082
    1MPD1    H714118   0.775   0.162  12.046  0.0370 -0.8294  2.3154
    2MPD1     C14119   0.811   1.208  11.423 -0.8593 -0.3102 -0.0208
    2MPD1    C114120   0.753   1.168  11.300  0.5386 -0.5522  0.8859
    2MPD1    C214121   0.824   1.067  11.239 -0.1240 -0.6869  0.1901
    2MPD1    C314122   0.915   0.983  11.294 -0.8726 -0.9282 -0.8575
    2MPD1    C414123   0.943   1.006  11.425 -0.1783 -0.1704 -0.2149
    2MPD1    C514124   0.896   1.123  11.488  0.2234  0.8059  0.3181
    2MPD1     H14125   0.809   1.056  11.132 -0.7549  0.2479  0.1831
    2MPD1    H114126   1.013   0.944  11.481 -0.3425 -0.4500 -0.3173
    2MPD1    H214127   0.772   1.295  11.475 -0.0727  0.1900 -0.2756
    2MPD1    H314128   0.929   1.144  11.590 -0.3296 -0.3400  0.7317
    2MPD1     N14129   0.986   0.880  11.220 -0.6345 -0.5204 -0.3799
    2MPD1    H514130   1.042   0.819  11.278 -1.4533 -1.1638 -0.2673
    2MPD1    N114131   0.666   1.254  11.236  0.6338 -0.1825  0.2933
    2MPD1    H614132   0.616   1.211  11.159 -3.3069  2.5816  1.3330
    2MPD1    H714133   0.600   1.300  11.298  1.8779 -0.0790  1.5230
    3MPD1     C14134   1.172   0.749  10.233  0.1802  0.3707  0.1422
    3MPD1    C114135   1.131   0.852  10.310  0.2164  0.2903  0.1996
    3MPD1    C214136   1.120   0.840  10.447  0.2913  0.3152 -0.0953
    3MPD1    C314137   1.135   0.709  10.502  0.4322 -0.0340  0.4560
    3MPD1    C414138   1.167   0.604  10.422  0.0066 -0.5130 -0.0951
    3MPD1    C514139   1.180   0.623  10.288  0.0706 -0.4606 -0.3304
    3MPD1     H14140   1.099   0.927  10.508 -0.0659  0.5641 -0.5723
    3MPD1    H114141   1.193   0.509  10.466  0.4779 -0.5561 -0.4718
    3MPD1    H214142   1.183   0.760  10.126 -0.3660  0.8537  0.1387
    3MPD1    H314143   1.220   0.547  10.222 -3.0001 -0.4649 -2.1704
    3MPD1     N14144   1.121   0.697  10.643  0.7796 -0.2985  0.4226
    3MPD1    H514145   1.118   0.786  10.692  0.2243  0.6167 -1.2356
    3MPD1    N114146   1.152   0.977  10.251 -0.6333  0.0547 -0.4673
    3MPD1    H614147   1.134   0.962  10.152  0.3423  2.8280 -1.0750
    3MPD1    H714148   1.096   1.055  10.284 -1.0990 -0.0426 -1.0423
    4MPD2     C14149   1.240   1.197  11.539 -0.0370 -0.4918  0.1179
    4MPD2    C114150   1.356   1.152  11.605 -0.2338 -0.2097 -0.7778
    4MPD2    C214151   1.485   1.177  11.558  0.3622 -0.2532 -0.2790
    4MPD2    C314152   1.495   1.249  11.443  0.1588 -0.5473 -0.3735
    4MPD2    C414153   1.383   1.287  11.378  0.8128  0.2674  0.3481
    4MPD2    C514154   1.258   1.267  11.427  0.5932  0.2842 -0.4876
    4MPD2     H14155   1.572   1.149  11.615  1.1215  3.7020  0.5475
    4MPD2    H114156   1.384   1.352  11.291  1.7528 -0.8168 -0.4480
    4MPD2    H214157   1.141   1.189  11.582  0.2755 -1.6470  0.6142
    4MPD2    H314158   1.179   1.317  11.372 -0.7443  0.1438  1.2974
    4MPD2     N14159   1.622   1.269  11.384 -0.1772  0.0284 -0.3179
    4MPD2    H514160   1.695   1.221  11.436 -0.6173 -1.5579 -1.1532
    4MPD2    N114161   1.352   1.083  11.728  0.2988  0.6530  0.2404
    4MPD2    H714162   1.441   1.053  11.767 -0.1489  0.0748  0.8262
    5TMC3    C114163   1.271   0.958  11.898  0.2246  0.0139  0.5063
    5TMC3    C214164   1.216   0.833  11.889  0.3446  0.7364  0.3094
    5TMC3    C314165   1.302   0.724  11.908 -0.8018 -0.2241 -0.6694
    5TMC3    C414166   1.402   0.971  11.927 -0.0136  0.2770  0.3827
    5TMC3    C514167   1.488   0.864  11.933 -0.1140 -0.2356 -0.5500
    5TMC3    C614168   1.431   0.738  11.930 -0.0455 -0.4477  0.1044
    5TMC3     C14169   1.232   1.048  11.792 -0.1682  0.0851 -0.3671
    5TMC3     O14170   1.118   1.049  11.750  0.5465  0.1597  0.0962
    5TMC3     H14171   1.112   0.814  11.867  0.3740 -0.8630  1.6116
    5TMC3    H114172   1.443   1.070  11.946 -0.9651  0.1728  3.0472
    5TMC3    H214173   1.484   0.645  11.952  0.0556 -0.4585 -0.1854
    5TMC3    C714174   1.595   0.885  11.834 -0.1043 -0.3029  0.2399
    5TMC3    C814175   1.251   0.592  11.875  0.7314 -0.0979 -0.8602
    5TMC3    O114176   1.609   0.995  11.788 -0.0671 -0.0065 -0.3044
    5TMC3    O214177   1.327   0.512  11.817 -0.0232 -0.4552  0.6574
    6TMC3    C114178   1.071   0.747  11.040  0.9740  0.7001  0.4326
    6TMC3    C214179   1.045   0.707  10.905  0.3883 -0.2291  0.5541
    6TMC3    C314180   1.129   0.610  10.857 -0.1246  0.3274  0.1147
    6TMC3    C414181   1.181   0.701  11.105 -0.7042 -0.2651  0.7155
    6TMC3    C514182   1.267   0.610  11.048 -0.5801  0.4432  0.3227
    6TMC3    C614183   1.237   0.566  10.922 -0.4845  0.3553  0.2654
    6TMC3     C14184   0.991   0.863  11.081 -0.4086 -0.0505  0.1342
    6TMC3     O14185   0.943   0.938  10.994 -0.3634  0.2113 -0.3767
    6TMC3     H14186   0.964   0.744  10.844  0.7494 -0.4227 -0.0464
    6TMC3    H114187   1.210   0.746  11.199 -1.2143 -1.1245  1.2875
    6TMC3    H214188   1.304   0.492  10.879 -0.3311  0.3178  0.5697
    6TMC3    C714189   1.400   0.645  11.072  0.2282  0.9908  0.8606
    6TMC3    C814190   1.135   0.583  10.719 -0.4358  0.0321 -0.6801
    6TMC3    O114191   1.421   0.759  11.117 -0.3247 -0.1490  0.1800
    6TMC3    O214192   1.134   0.471  10.682 -0.3823  0.6022  0.3971
    7MPD2     C14193   1.948   0.702  11.517 -0.8998 -0.2743  1.3011
    7MPD2    C114194   1.911   0.836  11.534  0.2842  0.3567  0.4789
    7MPD2    C214195   1.814   0.856  11.630  0.5455 -0.9078 -0.5736
    7MPD2    C314196   1.762   0.749  11.708 -0.1666  0.4170  0.0354
    7MPD2    C414197   1.806   0.621  11.679  0.0322 -0.2903 -0.6378
    7MPD2    C514198   1.897   0.596  11.585 -0.2079 -0.8032  0.3030
    7MPD2     H14199   1.787   0.958  11.658 -0.3937 -1.1337 -0.6727
    7MPD2    H114200   1.779   0.549  11.755  0.5561  0.4914  0.2742
    7MPD2    H214201   2.010   0.674  11.432 -0.8959 -0.2802  1.3058
    7MPD2    H314202   1.939   0.499  11.562 -0.2475 -0.7910  0.1781
    7MPD2     N14203   1.663   0.767  11.807 -0.7371 -0.4299  0.0606
    7MPD2    H514204   1.628   0.688  11.859  0.4488  0.1299  1.7177
    7MPD2    N114205   1.954   0.937  11.438 -0.0233 -0.3451  0.5404
    7MPD2    H714206   2.014   0.909  11.362 -0.0254  0.9063  0.0716
    8TMC3    C114207   1.942   1.144  11.309  0.0654  0.1930  0.3695
    8TMC3    C214208   1.946   1.056  11.204 -0.8619  0.5334 -0.0509
    8TMC3    C314209   1.855   1.088  11.103  1.0253  0.2453  1.3816
    8TMC3    C414210   1.874   1.260  11.316  0.2968  0.2347 -0.7636
    8TMC3    C514211   1.785   1.288  11.213 -0.0914  0.2017 -0.1350
    8TMC3    C614212   1.780   1.199  11.108 -0.0643 -0.0686  0.5549
    8TMC3     C14213   1.909   1.071  11.438  0.3142  0.4017  0.2385
    8TMC3     O14214   1.833   1.131  11.512 -0.1783  0.6897 -0.8671
    8TMC3     H14215   2.014   0.972  11.209 -1.6405  0.2084  4.7105
    8TMC3    H114216   1.874   1.320  11.406  0.6587 -1.3865  0.3168
    8TMC3    H214217   1.696   1.212  11.041 -0.2021 -1.5863  0.4329
    8TMC3    C714218   1.648   1.315  11.260 -0.2537 -0.4406 -0.1147
    8TMC3    C814219   1.802   0.980  11.012  1.0354  0.3337 -0.0714
    8TMC3    O114220   1.570   1.347  11.173 -0.3244 -0.5016 -0.2821
    8TMC3    O214221   1.686   0.998  10.982 -0.2020 -0.0945  0.2665
    9MPD2     C14222   1.892   0.629  10.948  0.1790  0.0038 -0.3236
    9MPD2    C114223   1.812   0.733  10.979 -0.0068 -0.4753 -1.2365
    9MPD2    C214224   1.678   0.721  11.005 -0.6175 -0.4747 -0.4084
    9MPD2    C314225   1.621   0.595  10.975  0.2694 -0.2599 -0.0748
    9MPD2    C414226   1.704   0.496  10.933  0.0297 -0.4115 -0.6391
    9MPD2    C514227   1.838   0.508  10.929 -0.8060  1.2123  0.1554
    9MPD2     H14228   1.611   0.800  11.037  2.3313  1.9171 -0.1743
    9MPD2    H114229   1.665   0.396  10.915 -0.2336 -0.5620  0.7506
    9MPD2    H214230   1.999   0.644  10.934  0.2067  1.8635  1.8562
    9MPD2    H314231   1.902   0.429  10.888 -2.7161 -0.1816 -0.1568
    9MPD2     N14232   1.488   0.556  11.009  0.2782 -0.1442 -0.9287
    9MPD2    H514233   1.450   0.472  10.968 -0.1789  0.1591 -1.1272
    9MPD2    N114234   1.875   0.866  10.999  0.4217 -0.1966  0.0293
    9MPD2    H714235   1.976   0.869  11.005  0.0432  4.3331  3.3619
    1MPD1     C14236   2.099   3.783  16.125  0.0077 -0.9119 -0.0698
    1MPD1    C114237   2.113   3.701  16.232 -0.2086 -0.0027  0.4898
    1MPD1    C214238   2.032   3.725  16.345 -0.2132  0.1572 -0.6593
    1MPD1    C314239   1.923   3.813  16.336 -0.2603 -0.8241  0.3941
    1MPD1    C414240   1.914   3.888  16.223 -0.1013 -0.3729 -1.0394
    1MPD1    C514241   2.003   3.872  16.121 -0.3098  0.5033  0.3883
    1MPD1     H14242   2.054   3.675  16.438 -0.9436  0.7799 -0.1530
    1MPD1    H114243   1.840   3.965  16.206  1.0460  0.4510 -2.2915
    1MPD1    H214244   2.161   3.771  16.038 -0.9665 -2.2751 -0.5886
    1MPD1    H314245   1.994   3.941  16.038 -3.4566 -1.3390 -0.8018
    1MPD1     N14246   1.818   3.819  16.437 -0.1188  0.0108  0.5187
    1MPD1    H514247   1.740   3.881  16.417 -0.6447 -0.2849  1.6382
    1MPD1    N114248   2.232   3.622  16.245  0.1240 -0.3953 -0.2219
    1MPD1    H614249   2.247   3.570  16.159  1.4721  0.2781 -0.4003
    1MPD1    H714250   2.237   3.552  16.318  0.2635  0.1118  0.2514
    2MPD1     C14251   1.023   3.891  16.168 -0.2136  0.3502  0.4885
    2MPD1    C114252   1.103   3.786  16.143 -0.1458  0.2725  0.3244
    2MPD1    C214253   1.197   3.755  16.243 -0.4369  0.1963 -0.6644
    2MPD1    C314254   1.197   3.813  16.369  0.8053  0.2423  0.0940
    2MPD1    C414255   1.106   3.910  16.394  0.5407  0.0044  0.0254
    2MPD1    C514256   1.022   3.949  16.291 -0.0482 -0.0512  0.3686
    2MPD1     H14257   1.277   3.686  16.221 -0.0923  0.0688  0.9990
    2MPD1    H114258   1.107   3.968  16.486  0.7937  1.8313 -1.1204
    2MPD1    H214259   0.942   3.922  16.103 -0.7695  0.2107  1.1132
    2MPD1    H314260   0.952   4.031  16.299  0.7507  0.7404 -0.7542
    2MPD1     N14261   1.312   3.785  16.450  0.2982  0.0661  0.4808
    2MPD1    H514262   1.373   3.710  16.420 -0.1224  0.9885 -2.7418
    2MPD1    N114263   1.108   3.722  16.015  0.1738  0.5789 -0.6544
    2MPD1    H614264   1.015   3.729  15.975 -0.7701 -0.0556  1.4542
    2MPD1    H714265   1.134   3.624  16.018  2.0009  1.2238  4.6910
    3TCq2    C114266   1.322   3.824  16.583  0.0148  0.0204 -0.9143
    3TCq2    O214267   1.246   3.884  16.657 -0.6039  0.5520  0.8130
    3TCq2    C214268   1.450   3.797  16.640 -0.0261 -0.1966  0.2576
    3TCq2    C314269   1.454   3.786  16.778 -0.4042 -0.2626 -0.0386
    3TCq2    C414270   1.570   3.757  16.839  0.0947 -0.5277 -0.1505
    3TCq2    C514271   1.685   3.741  16.765  0.7895  0.3564 -0.9330
    3TCq2    C614272   1.685   3.764  16.628 -0.2096  0.5157  0.0756
    3TCq2    C714273   1.566   3.779  16.566 -0.2066  0.1280  0.2842
    3TCq2    C814274   1.806   3.744  16.556  0.3867 -0.8470  0.3096
    3TCq2    O414275   1.883   3.657  16.602 -0.2871  0.1229 -0.0962
    3TCq2    C914276   1.581   3.747  16.979  0.1652 -0.6850 -1.0582
    3TCq2    O514277   1.694   3.775  17.027  0.2973  0.5881  0.1894
    3TCq2    O614278   1.479   3.763  17.050 -0.2409 -0.1026  0.2940
    3TCq2    H214279   1.374   3.805  16.848 -1.5718  0.2923 -1.5191
    3TCq2    H314280   1.768   3.717  16.831 -0.0061  2.0108  0.6789
    3TCq2    H414281   1.578   3.771  16.458  2.1275 -0.3352  0.5846
    1TCq1    O114282   3.295   3.473  12.673 -0.0330  0.4197  0.4437
    1TCq1    C114283   3.404   3.542  12.671 -0.4505 -0.0428 -0.1270
    1TCq1    O214284   3.465   3.579  12.571  0.4561  0.6032 -0.0726
    1TCq1    C214285   3.476   3.482  12.783 -0.0856 -0.2295  0.4021
    1TCq1    C314286   3.413   3.486  12.903  0.1825 -0.1277 -0.7138
    1TCq1    C414287   3.483   3.436  13.007  0.4479  0.1694 -0.2158
    1TCq1    C514288   3.612   3.398  13.005 -0.1496  0.0456  0.0394
    1TCq1    C614289   3.671   3.399  12.882  0.2123 -0.4578 -0.4660
    1TCq1    C714290   3.608   3.442  12.769  0.8575 -0.6142 -0.1888
    1TCq1    C814291   3.820   3.396  12.866 -0.3239 -0.7248 -0.4552
    1TCq1    O414292   3.871   3.374  12.759  0.1850  0.0998  0.2355
    1TCq1    C914293   3.418   3.448  13.137  0.0026  0.9933  0.7583
    1TCq1    O514294   3.301   3.486  13.136 -0.4704  0.4754  0.3394
    1TCq1    O614295   3.481   3.385  13.227 -0.9358  0.0445  0.5046
    1TCq1    H114296   3.260   3.426  12.752 -0.0191 -1.4982 -0.7062
    1TCq1    H214297   3.311   3.520  12.921  0.0692 -0.8935  0.0662
    1TCq1    H314298   3.660   3.365  13.096  1.2273 -1.7289 -1.3311
    1TCq1    H414299   3.656   3.466  12.674 -0.3701 -2.3534 -1.2327
    2MPD2     C14300   4.102   3.285  12.924  0.1909  0.5682  0.1361
    2MPD2    C114301   4.018   3.360  13.008  0.2395  0.0102 -0.0539
    2MPD2    C214302   4.070   3.388  13.138 -0.7457 -0.6416 -0.8252
    2MPD2    C314303   4.207   3.363  13.164 -0.5999 -0.2612  0.1667
    2MPD2    C414304   4.292   3.314  13.065  0.1894  0.0062  0.0571
    2MPD2    C514305   4.238   3.274  12.946 -0.4124 -0.1753 -0.1176
    2MPD2     H14306   4.004   3.435  13.209  1.2434 -0.8583  1.1536
    2MPD2    H114307   4.396   3.294  13.087  0.2583  1.0704  0.7065
    2MPD2    H214308   4.056   3.240  12.836  0.3798  1.7610 -0.5812
    2MPD2    H314309   4.291   3.206  12.880 -2.6107 -1.7347 -0.2479
    2MPD2     N14310   4.256   3.392  13.295 -0.2152  0.1072  0.0697
    2MPD2    H514311   4.179   3.432  13.347  0.3601  1.8664 -0.4115
    2MPD2    N114312   3.884   3.399  12.988 -0.1283  0.3014  0.0874
    2MPD2    H714313   3.834   3.415  13.075 -0.4185 -0.3061  0.0385
    3TCq1    O114314   4.682   3.564  13.827  0.7807 -0.1868 -0.5498
    3TCq1    C114315   4.684   3.548  13.694  0.2235  0.1068 -0.5439
    3TCq1    O214316   0.055   3.503  13.627 -0.4133  0.5074  0.1817
    3TCq1    C214317   4.549   3.527  13.646  0.2594  0.3094  0.1628
    3TCq1    C314318   4.456   3.621  13.686 -1.2422 -0.3411  1.1652
    3TCq1    C414319   4.330   3.614  13.639 -0.3866  0.1362  0.0730
    3TCq1    C514320   4.301   3.529  13.531 -0.1083 -0.1754 -0.0882
    3TCq1    C614321   4.397   3.445  13.478 -0.1117  0.1358  0.7199
    3TCq1    C714322   4.525   3.446  13.538 -0.3772  0.2202 -0.9156
    3TCq1    C814323   4.380   3.377  13.353 -0.3577 -0.1137 -1.1184
    3TCq1    O414324   4.477   3.325  13.300  0.3394  0.3666  0.0965
    3TCq1    C914325   4.228   3.700  13.689 -0.4584 -0.9931  0.4147
    3TCq1    O514326   4.251   3.753  13.803  0.2301  0.6678 -0.3730
    3TCq1    O614327   4.125   3.725  13.624 -0.2731 -0.0124  0.2488
    3TCq1    H114328   4.590   3.574  13.858  0.2948  0.2353 -2.1280
    3TCq1    H214329   4.486   3.686  13.767 -0.2196  1.9796 -1.0808
    3TCq1    H314330   4.209   3.552  13.478 -1.4160 -2.9580  0.9537
    3TCq1    H414331   4.604   3.383  13.498 -0.3874 -1.0747  1.0874
    1MPD2     C14332   4.052   4.348  14.792  0.9749  0.3641  0.0824
    1MPD2    C114333   3.949   4.255  14.802 -0.2784 -0.1310  1.2008
    1MPD2    C214334   3.966   4.139  14.877  0.2027 -0.3394  0.0108
    1MPD2    C314335   4.089   4.117  14.941 -0.2454 -0.3304  0.6913
    1MPD2    C414336   4.203   4.204  14.924 -0.7705  0.0476 -0.6618
    1MPD2    C514337   4.176   4.322  14.850  0.1474 -0.3602 -0.3959
    1MPD2     H14338   3.887   4.072  14.911 -1.2255  0.6058 -1.4457
    1MPD2    H114339   4.294   4.188  14.980 -0.4617 -0.8312 -1.4090
    1MPD2    H214340   4.046   4.441  14.736  2.3011  0.2179 -0.3132
    1MPD2    H314341   4.256   4.392  14.828  0.2974 -0.8356 -1.3551
    1MPD2     N14342   4.087   4.011  15.034  0.2363  0.5992  0.5924
    1MPD2    H514343   4.004   3.953  15.041  0.7350 -0.0140  1.5247
    1MPD2    N114344   3.825   4.275  14.726  0.2258  0.0795 -0.7354
    1MPD2    H714345   3.808   4.365  14.683 -0.2329  0.2726 -0.1463
    2TMC3    C114346   3.617   4.217  14.636  0.1821 -0.4899  0.4327
    2TMC3    C214347   3.542   4.104  14.614  1.0350 -0.5088  0.4877
    2TMC3    C314348   3.408   4.095  14.640  0.5396  0.0849  0.3798
    2TMC3    C414349   3.548   4.328  14.683 -0.4831  0.4690 -0.1055
    2TMC3    C514350   3.413   4.327  14.687  0.1329 -0.1914 -0.3519
    2TMC3    C614351   3.343   4.215  14.672 -0.1530  0.0650  0.0502
    2TMC3     C14352   3.733   4.175  14.710 -1.0056  0.2796 -0.5256
    2TMC3     O14353   3.721   4.066  14.763 -0.1564 -0.6021  0.4873
    2TMC3     H14354   3.587   4.010  14.586 -1.4794 -1.3823 -0.6603
    2TMC3    H114355   3.596   4.423  14.705 -1.6143  1.1277 -0.5133
    2TMC3    H214356   3.235   4.222  14.661 -0.2998 -1.3746  0.5819
    2TMC3    C714357   3.334   4.445  14.670 -0.3557 -0.7116 -0.5583
    2TMC3    C814358   3.351   3.990  14.724 -0.3102 -0.0278  0.2738
    2TMC3    O114359   3.230   4.457  14.732 -0.3844 -0.6291 -0.1384
    2TMC3    O214360   3.234   3.966  14.717  0.1893  0.9573 -0.1668
    3TCq1    O114361   3.608   0.298  13.617 -0.5016 -0.4877 -0.0742
    3TCq1    C114362   3.581   0.396  13.706  0.3697  0.1508  0.1450
    3TCq1    O214363   3.547   0.510  13.684  0.6048  0.1831 -0.0294
    3TCq1    C214364   3.613   0.335  13.832  0.0055 -0.6448  0.6126
    3TCq1    C314365   3.744   0.316  13.879 -0.2872  0.0609  0.0279
    3TCq1    C414366   3.768   0.252  13.996  0.3595 -0.2259  0.1017
    3TCq1    C514367   3.663   0.194  14.066 -0.5196 -0.1264 -0.4243
    3TCq1    C614368   3.534   0.219  14.027  0.4836  0.5638 -0.3505
    3TCq1    C714369   3.510   0.286  13.910 -0.1952  0.2437  0.1468
    3TCq1    C814370   3.418   0.181  14.105  0.1074  0.1159  0.1700
    3TCq1    O414371   3.307   0.201  14.060  0.5953 -0.3062  0.0427
    3TCq1    C914372   3.900   0.242  14.046 -0.4423 -0.4162 -0.3539
    3TCq1    O514373   3.988   0.303  13.979 -0.4150 -0.3369 -0.4508
    3TCq1    O614374   3.912   0.182  14.159  0.5514 -0.0382  0.0475
    3TCq1    H114375   3.658   0.217  13.640 -1.7292 -1.3413 -0.4015
    3TCq1    H214376   3.830   0.348  13.822  0.4947 -1.6307  0.2502
    3TCq1    H314377   3.694   0.127  14.145 -0.0782  1.9484  1.1711
    3TCq1    H414378   3.408   0.294  13.873 -0.2557  0.6089  0.3958
    4MPD2     C14379   3.224   0.070  14.305  0.2169  0.1765  0.1130
    4MPD2    C114380   3.360   0.045  14.305  0.3367  0.1510 -0.3647
    4MPD2    C214381   3.414   4.687  14.401  0.2567 -1.1023 -0.2667
    4MPD2    C314382   3.333   4.627  14.493 -0.4448 -0.1085  0.5031
    4MPD2    C414383   3.202   4.646  14.487  0.3598  0.6571  0.6249
    4MPD2    C514384   3.148   0.021  14.404 -0.7163  0.7579 -0.1846
    4MPD2     H14385   3.521   4.671  14.401  0.4417  0.1182 -0.1030
    4MPD2    H114386   3.130   4.591  14.547 -1.7999  0.7054 -1.9428
    4MPD2    H214387   3.170   0.128  14.231 -0.4102 -1.7211 -0.8981
    4MPD2    H314388   3.040   0.031  14.406 -0.6925  0.8427  0.6168
    4MPD2     N14389   3.396   4.531  14.580 -0.1432 -0.0318 -0.3089
    4MPD2    H514390   3.492   4.509  14.555 -1.0764 -1.1345 -2.9758
    4MPD2    N114391   3.450   0.101  14.212 -0.0407 -0.2142  0.1709
    4MPD2    H714392   3.548   0.079  14.222 -0.1053  0.4401  2.1911
    5TMC2    C114393   3.939   3.750  15.187 -0.1100 -0.2564 -0.1710
    5TMC2    C214394   4.008   3.639  15.144 -0.6562  0.3902 -0.2848
    5TMC2    C314395   4.145   3.641  15.126  0.1217  0.1646  0.7112
    5TMC2    C414396   4.011   3.860  15.210 -0.8748 -0.1800  0.8303
    5TMC2    C514397   4.145   3.857  15.192 -0.5926  0.4998 -0.0147
    5TMC2    C614398   4.220   3.747  15.160 -0.1752  0.2436  0.0600
    5TMC2     C14399   3.812   3.788  15.118 -0.5047 -0.0452 -0.9037
    5TMC2     O14400   3.814   3.909  15.092  0.2135 -0.0420  0.3157
    5TMC2     H14401   3.959   3.545  15.124  0.1904  0.4051 -2.4138
    5TMC2    H114402   3.964   3.952  15.244  1.5765  0.6549  1.9460
    5TMC2    H214403   4.326   3.759  15.139  0.0006 -0.7169  0.4253
    5TMC2    C714404   4.190   3.977  15.123 -0.6607 -0.1456 -0.2063
    5TMC2    C814405   4.207   3.517  15.102  0.4272 -0.8660  0.3089
    5TMC2    O114406   4.310   4.007  15.135 -0.3503  0.1770  0.1958
    5TMC2    O214407   4.147   3.424  15.048  0.0657 -0.3596  0.2917
    5TMC2    O514408   4.295   3.491  15.199  0.3059  0.6782  0.0146
    5TMC2    H514409   4.290   3.558  15.270  0.7456  0.0227  0.6714
    6MPD2     C14410   3.368   3.730  14.878  0.0714  0.6547 -0.2474
    6MPD2    C114411   3.467   3.829  14.868  0.4319 -0.1106  0.4149
    6MPD2    C214412   3.584   3.818  14.940 -0.1306 -0.7442 -1.1420
    6MPD2    C314413   3.604   3.707  15.019 -0.5312 -0.1606  0.7673
    6MPD2    C414414   3.503   3.611  15.034  0.4775 -0.1304  0.2214
    6MPD2    C514415   3.384   3.625  14.961 -0.1178 -0.6399 -0.1086
    6MPD2     H14416   3.658   3.897  14.939 -0.1625 -0.6974  0.4534
    6MPD2    H114417   3.510   3.527  15.103 -0.0665  0.1711  0.6384
    6MPD2    H214418   3.275   3.734  14.823 -0.2184  0.1416  0.2116
    6MPD2    H314419   3.314   3.542  14.965 -0.2204 -0.5630 -0.3190
    6MPD2     N14420   3.724   3.687  15.086 -0.7743  0.0446  0.4669
    6MPD2    H514421   3.747   3.594  15.119  2.5217  0.6943 -0.0077
    6MPD2    N114422   3.453   3.942  14.794 -0.2812 -0.4134 -0.7770
    6MPD2    H714423   3.534   4.003  14.785  0.2359 -1.1465 -1.0894
  945NH3     N114424   3.753   4.000  17.388  0.0875 -0.1705 -0.2185
  945NH3     H214425   3.814   4.075  17.359  0.6788 -2.0355 -3.8216
  945NH3     H314426   3.726   4.040  17.477 -1.5967 -1.0035 -0.3633
  945NH3     H414427   3.672   4.018  17.330 -0.6203  0.1517  0.8766
  946SOD     NA14428   2.549   2.420  15.213 -0.3823 -0.0788  0.0035
  947SOD     NA14429   4.212   3.407  14.620  0.3681 -0.8457  0.2043
  948SOD     NA14430   2.350   2.052   8.666 -0.3216 -0.4206 -0.0713
  949SOD     NA14431   3.112   2.898  10.214  0.0137 -0.4062 -0.2396
  950SOD     NA14432   3.288   2.557  10.141 -0.1703  0.1389 -0.2078
  951SOD     NA14433   3.576   4.395   9.716 -0.4683 -0.5110 -0.0299
  952SOD     NA14434   4.663   1.514   1.874 -0.2085 -0.3987 -0.3321
  953SOD     NA14435   4.389   3.042   2.623  0.3536  0.6139 -0.1627
  954SOD     NA14436   1.481   2.452   0.286  0.0951 -0.3102  0.2768
  955SOD     NA14437   4.313   0.022  14.383  0.1264 -0.1406 -0.3230
  956SOD     NA14438   1.591   3.791  17.236  0.7508 -0.2669  0.2237
  957SOD     NA14439   4.244   0.773  11.045  0.0466 -0.1488  0.1222
  958SOD     NA14440   1.503   3.804  14.545  0.1317 -0.0804  0.1887
  959SOD     NA14441   2.279   0.025  15.724  0.0033  0.3092 -0.3594
  960SOD     NA14442   0.431   3.327  13.819  0.1212  0.2225 -0.2037
  961SOD     NA14443   0.348   3.746  17.561  0.2919 -0.2134  0.3366
  962SOD     NA14444   3.874   4.684  14.279 -0.2663 -0.2737  0.0643
  963SOD     NA14445   0.374   1.440  17.314 -0.2319  0.1425  0.2573
  964SOD     NA14446   4.674   2.693  11.140  0.1288 -0.5387 -0.8483
  965SOD     NA14447   2.938   1.665   8.812 -0.0259 -0.3050  0.0443
  966SOD     NA14448   1.969   2.505  11.459 -0.0797  0.3500  0.5215
  967SOD     NA14449   2.774   3.795  11.765  0.5800  0.2365  0.1036
  968SOD     NA14450   4.441   4.329  15.418 -0.0492  0.1326  0.2345
  969SOD     NA14451   0.684   1.814  10.044 -0.1775  0.0315 -0.0721
  970SOD     NA14452   3.505   2.465  10.385 -0.1706 -0.2454  0.3666
  971SOD     NA14453   1.730   2.139  14.659  0.0853  0.6046 -0.4415
  972SOD     NA14454   0.322   4.067  11.134 -0.0876  0.2170 -0.3627
  973SOD     NA14455   3.457   2.336  10.655  0.3283 -0.0047  0.0591
  974SOD     NA14456   1.970   3.804  13.111 -0.8430  0.1394  0.4373
  975SOD     NA14457   1.731   1.518  17.394  0.7516  0.2529 -0.5267
  976SOD     NA14458   4.141   0.483  11.151 -0.0558 -0.0856 -0.0906
  977SOD     NA14459   0.747   0.291  13.884  0.2615  0.2805  0.2219
  978SOD     NA14460   3.416   4.253  10.335  0.1992  0.2977  0.1081
  979SOD     NA14461   0.844   2.243  12.634  0.1677 -0.2370 -0.0284
  980SOD     NA14462   3.504   4.609  15.369 -0.0631  0.1394 -0.9466
  981SOD     NA14463   1.866   2.655   9.733  0.3408  0.0778  0.1939
  982SOD     NA14464   0.797   4.013   2.237 -0.0176 -0.5168  0.1298
  983SOD     NA14465   3.033   1.248   0.586 -0.6571 -0.5360 -0.3114
  984SOD     NA14466   0.228   3.075   1.187  0.0525  0.1136  0.2227
  985SOD     NA14467   3.628   3.435   0.913 -0.6041  0.5414 -0.2573
  986SOD     NA14468   1.358   3.076   1.214  0.0960 -0.0161  0.2193
  987SOD     NA14469   2.852   0.603   1.942  0.0132  0.6126  0.4516
  988SOD     NA14470   4.244   2.589  11.356 -0.3184  0.2996  0.1240
  989SOD     NA14471   4.458   3.766   7.029  0.2411 -0.4645 -0.3311
  990SOD     NA14472   2.597   3.504   3.581 -0.1757 -0.1147 -0.5116
  991SOD     NA14473   0.093   0.286  16.176  0.2125 -0.5021 -0.1820
  992SOD     NA14474   1.106   4.042  13.150  0.2520  0.3566 -0.2492
  993SOD     NA14475   2.961   3.446   8.358 -0.3285 -0.1294  0.3411
  994SOD     NA14476   0.455   4.295  10.967 -0.1453 -0.1110 -0.1738
  995SOD     NA14477   1.904   2.072  14.096 -0.2761 -0.3446  0.2074
  996SOD     NA14478   4.166   3.249   6.830 -0.5729  0.2193  0.3681
  997SOD     NA14479   0.863   4.375  13.959  0.1383 -0.3669 -0.0614
  998SOD     NA14480   3.050   4.342   1.169 -0.4168  0.2415  0.2208
  999SOD     NA14481   0.341   4.695  13.395  0.3311  0.2233 -0.0701
 1000SOD     NA14482   0.963   1.905   2.703  0.1148  0.4686 -0.0043
 1001SOD     NA14483   0.026   2.782  12.589 -0.1964 -0.1280  0.1095
 1002SOD     NA14484   2.201   2.495  12.899  0.0690 -0.8350 -0.2140
 1003SOD     NA14485   4.518   3.817  10.400 -0.1664 -0.2381  0.2755
 1004SOD     NA14486   3.090   2.594  10.375 -0.3658  0.2934  0.0736
 1005SOD     NA14487   3.092   3.447  13.175  0.3098 -0.0812 -0.0887
 1006SOD     NA14488   3.146   0.837   8.118 -0.1991 -0.1842  0.3161
 1007SOD     NA14489   2.409   2.058   1.271 -0.5790  0.2445  0.4540
 1008SOD     NA14490   2.097   2.600  17.632  0.2058  0.1679  0.3425
 1009SOD     NA14491   1.227   0.225   3.305 -0.4007  0.0745 -0.6424
 1010SOD     NA14492   2.265   0.626   2.796 -0.0124 -0.0972  0.4815
 1011SOD     NA14493   4.675   3.762  11.498 -0.1720  0.4436  0.1965
 1012SOL     OW14494   1.080   4.711   3.915  0.6014  0.0077  0.0589
 1012SOL    HW114495   1.071   4.699   3.821 -2.1818 -0.1380  0.3485
 1012SOL    HW214496   1.034   4.632   3.944  1.6570 -1.4994 -2.3908
 1013SOL     OW14497   0.261   3.933  10.953 -0.2410 -0.0686 -0.0913
 1013SOL    HW114498   0.204   3.868  10.993  0.9878 -0.7066  0.5929
 1013SOL    HW214499   0.246   3.910  10.862  1.5157  1.4420 -0.7707
 1014SOL     OW14500   1.264   2.834   4.141 -0.6781 -0.5352  0.3576
 1014SOL    HW114501   1.313   2.803   4.065 -1.7179 -0.6499 -0.2623
 1014SOL    HW214502   1.266   2.758   4.199  0.4764 -1.0302 -0.3338
 1015SOL     OW14503   4.039   2.216   4.580  0.4161 -0.1895 -0.7528
 1015SOL    HW114504   3.956   2.179   4.550  0.7885 -1.9338  0.3438
 1015SOL    HW214505   4.078   2.150   4.637 -0.5999 -1.1206 -1.1347
 1016SOL     OW14506   3.721   3.288  12.422 -0.1811  0.1578 -0.0291
 1016SOL    HW114507   3.734   3.213  12.480  2.1971  1.0144  0.5228
 1016SOL    HW214508   3.802   3.339  12.423  1.2520 -2.1228  0.8103
 1017SOL     OW14509   4.502   1.453  15.961 -0.1280  0.6285 -0.3741
 1017SOL    HW114510   4.577   1.449  16.020 -0.5204 -0.5250  0.0354
 1017SOL    HW214511   4.435   1.458  16.029  0.2775  0.8455  0.0112
 1018SOL     OW14512   2.750   3.840  11.336  0.3384  0.0267  0.4486
 1018SOL    HW114513   2.678   3.901  11.321  0.0164 -0.7261 -1.0773
 1018SOL    HW214514   2.806   3.853  11.259 -1.3437  0.4957 -0.6968
 1019SOL     OW14515   2.459   2.017   2.714  0.0696  0.4279 -0.2890
 1019SOL    HW114516   2.528   1.960   2.750 -0.4618 -0.3294 -0.4753
 1019SOL    HW214517   2.390   2.004   2.779  0.7735  0.5858  0.4964
 1020SOL     OW14518   4.440   1.500   9.689 -0.7024  0.1550  0.1578
 1020SOL    HW114519   4.355   1.543   9.700 -1.6794 -1.8878  0.4361
 1020SOL    HW214520   4.467   1.505   9.781  1.6294 -0.2364 -0.4898
 1021SOL     OW14521   2.797   1.605   9.382 -0.7109  0.0245 -0.0407
 1021SOL    HW114522   2.851   1.535   9.418  0.8506  0.0074 -2.5017
 1021SOL    HW214523   2.759   1.654   9.455  2.0678  2.4863 -0.2506
 1022SOL     OW14524   4.127   0.922   3.104  0.1699 -0.1300 -0.5919
 1022SOL    HW114525   4.133   0.833   3.139 -0.9783  1.0959  2.6819
 1022SOL    HW214526   4.206   0.968   3.131 -0.2459 -0.1750  0.6955
 1023SOL     OW14527   2.590   2.827   2.505 -0.3699 -0.3523 -0.1498
 1023SOL    HW114528   2.593   2.902   2.565  0.0057  0.1090 -0.7451
 1023SOL    HW214529   2.495   2.821   2.505 -0.3268 -0.9617 -0.6651
 1024SOL     OW14530   0.950   3.277  11.856 -0.2165  0.0686 -0.7132
 1024SOL    HW114531   0.856   3.258  11.861 -0.5274  1.2306 -1.9278
 1024SOL    HW214532   0.955   3.371  11.877 -0.7275  0.0668 -0.5804
 1025SOL     OW14533   1.912   3.836   7.652  0.3722  0.0191 -0.6748
 1025SOL    HW114534   1.873   3.912   7.610 -0.1929  0.1093  0.0028
 1025SOL    HW214535   1.888   3.770   7.586 -2.6475  0.3242  0.1174
 1026SOL     OW14536   2.769   4.695   3.562 -0.3248  0.1863 -0.3057
 1026SOL    HW114537   2.780   0.069   3.566 -0.9370  0.2441  0.0018
 1026SOL    HW214538   2.743   4.683   3.653 -1.1218 -1.2177 -0.7216
 1027SOL     OW14539   3.615   1.445   2.080  0.3461 -0.0382 -0.2775
 1027SOL    HW114540   3.596   1.523   2.028  2.3844  0.5025 -0.1938
 1027SOL    HW214541   3.662   1.391   2.018  0.7887  1.4496 -1.2298
 1028SOL     OW14542   1.897   3.286   3.620 -0.6725 -0.2202 -0.3885
 1028SOL    HW114543   1.982   3.330   3.619 -0.6781 -0.2038 -0.0648
 1028SOL    HW214544   1.846   3.353   3.666 -0.0840 -0.5906  0.7995
 1029SOL     OW14545   1.695   0.081  15.672  0.1145  0.4084  0.1175
 1029SOL    HW114546   1.637   0.025  15.620 -0.8210  0.5527  1.0028
 1029SOL    HW214547   1.670   0.062  15.762 -0.2316 -1.6078 -0.3897
 1030SOL     OW14548   3.929   0.628   5.463 -0.2075  0.2791 -0.1570
 1030SOL    HW114549   3.888   0.603   5.381 -1.3986 -0.2444  0.5937
 1030SOL    HW214550   3.846   0.649   5.507 -1.0155 -1.7510 -0.7117
 1031SOL     OW14551   2.683   4.662   3.830  0.1320  0.1312  0.0146
 1031SOL    HW114552   2.701   4.623   3.915 -0.4790 -2.1253 -0.8697
 1031SOL    HW214553   2.643   0.023   3.858 -3.0001 -1.5568  0.5196
 1032SOL     OW14554   0.303   3.250  14.134  0.2417 -0.5056  0.1933
 1032SOL    HW114555   0.387   3.215  14.104 -0.9141 -3.3863  0.2346
 1032SOL    HW214556   0.306   3.224  14.226  1.6026  0.1579  0.3247
 1033SOL     OW14557   1.536   3.457  13.201  0.3242  0.0010  0.4013
 1033SOL    HW114558   1.622   3.479  13.163  0.8278  0.9113  2.0690
 1033SOL    HW214559   1.490   3.541  13.205  0.2178 -0.0656  0.5236
 1034SOL     OW14560   4.440   2.103  11.534  0.7954  0.6700 -0.3080
 1034SOL    HW114561   4.372   2.158  11.494  1.7023  2.5466  0.7108
 1034SOL    HW214562   4.386   2.044  11.586  1.1803 -0.3253 -1.0292
 1035SOL     OW14563   0.143   1.971   8.804  0.5689 -0.1221 -0.5053
 1035SOL    HW114564   0.126   1.991   8.896  0.1789 -1.1184 -0.3518
 1035SOL    HW214565   0.052   1.975   8.773 -0.0323 -1.9043  1.0282
 1036SOL     OW14566   2.196   0.260   4.536 -0.5152 -0.1164 -0.1378
 1036SOL    HW114567   2.143   0.311   4.475 -0.0001  0.0055 -0.4840
 1036SOL    HW214568   2.217   0.321   4.607  0.0095 -0.6617  0.1740
 1037SOL     OW14569   2.017   3.126   4.764  0.8229 -0.6515  0.9444
 1037SOL    HW114570   2.032   3.215   4.797  0.0099 -0.5128  0.9325
 1037SOL    HW214571   1.983   3.085   4.843 -1.2044 -3.4851 -1.4096
 1038SOL     OW14572   1.650   4.248   6.323 -0.4253  0.3885 -0.1968
 1038SOL    HW114573   1.741   4.260   6.296  0.0625 -0.2885  1.1605
 1038SOL    HW214574   1.638   4.156   6.301  1.1678 -0.2398  1.5662
 1039SOL     OW14575   0.715   0.747   4.804  0.5172  0.0931  0.2700
 1039SOL    HW114576   0.656   0.745   4.728  1.8180  1.5427 -0.7775
 1039SOL    HW214577   0.791   0.710   4.760 -0.5088 -0.3978 -1.0993
 1040SOL     OW14578   3.837   0.072   0.964  0.2692  0.1568 -0.2431
 1040SOL    HW114579   3.929   0.046   0.975  0.5057  2.7930  3.8414
 1040SOL    HW214580   3.842   0.159   1.004 -1.3148 -0.0802  0.4375
 1041SOL     OW14581   3.371   0.766  14.397 -0.1972  0.1457  0.1349
 1041SOL    HW114582   3.427   0.712  14.452  1.4259 -0.0276 -1.7133
 1041SOL    HW214583   3.420   0.770  14.315 -0.6415  4.1776  0.0619
 1042SOL     OW14584   1.383   4.458   6.588  0.6404 -0.1960  0.2987
 1042SOL    HW114585   1.460   4.506   6.557  1.8557 -2.3048  0.0012
 1042SOL    HW214586   1.354   4.507   6.664 -1.3658 -0.2820 -0.4131
 1043SOL     OW14587   0.207   2.694   7.464  0.7027  0.2047 -0.1568
 1043SOL    HW114588   0.117   2.726   7.470  1.3326  1.4474  2.8140
 1043SOL    HW214589   0.208   2.622   7.527 -1.8110 -1.1060 -1.6114
 1044SOL     OW14590   3.391   3.771   0.405 -0.0191 -0.0437 -0.4904
 1044SOL    HW114591   3.349   3.804   0.485  0.5740  0.8418 -0.5514
 1044SOL    HW214592   3.398   3.678   0.427  1.0773  0.5780  1.7884
 1045SOL     OW14593   2.152   1.485   6.530  0.2085 -0.0675 -0.1622
 1045SOL    HW114594   2.195   1.559   6.488  0.9557 -0.1061  0.5489
 1045SOL    HW214595   2.218   1.416   6.521  0.3653  0.2744 -1.7391
 1046SOL     OW14596   1.781   2.648   6.811  0.9488 -0.1936  0.1408
 1046SOL    HW114597   1.717   2.716   6.829  0.8235 -0.0547 -0.8223
 1046SOL    HW214598   1.772   2.628   6.718  1.7789  0.8608 -0.1651
 1047SOL     OW14599   3.783   3.003   2.090  0.1810 -0.2496 -0.0258
 1047SOL    HW114600   3.828   2.922   2.066 -0.3802 -0.4364 -0.4477
 1047SOL    HW214601   3.705   3.004   2.034 -0.3565 -1.2361  0.7090
 1048SOL     OW14602   4.516   2.566   7.318 -0.3310  0.1729 -0.0235
 1048SOL    HW114603   4.554   2.479   7.325 -0.1838  0.4111  2.0903
 1048SOL    HW214604   4.508   2.592   7.410  0.9534  1.1534 -0.1888
 1049SOL     OW14605   3.312   4.258   3.270 -0.2962 -0.6511 -0.1237
 1049SOL    HW114606   3.370   4.185   3.248  1.1682  0.7708 -0.9527
 1049SOL    HW214607   3.280   4.283   3.183  0.9154 -1.9451 -0.9274
 1050SOL     OW14608   0.649   1.218  16.555  0.0948  0.0728 -0.8422
 1050SOL    HW114609   0.603   1.175  16.627 -0.2490 -2.6289 -2.6710
 1050SOL    HW214610   0.680   1.299  16.595  2.3771 -2.2091  1.9244
 1051SOL     OW14611   3.306   4.091   2.450  0.4140 -0.4071  0.3925
 1051SOL    HW114612   3.234   4.142   2.414  1.0245 -0.8469 -1.4419
 1051SOL    HW214613   3.352   4.166   2.490 -0.0545  0.6628 -1.0797
 1052SOL     OW14614   2.086   0.819   9.742 -0.4323 -0.0166 -0.6550
 1052SOL    HW114615   2.142   0.773   9.804 -3.2423 -1.5706  0.7520
 1052SOL    HW214616   2.026   0.747   9.724  0.6164 -0.8903 -0.6379
 1053SOL     OW14617   1.553   0.439   6.262 -0.6589  0.3604 -0.4963
 1053SOL    HW114618   1.486   0.409   6.324  0.1568  2.3946  1.3624
 1053SOL    HW214619   1.617   0.458   6.331  0.2918  0.2200 -1.3469
 1054SOL     OW14620   4.077   0.236   6.908  0.2912  0.1033 -0.3716
 1054SOL    HW114621   4.136   0.310   6.916  0.2035  0.0654  0.6105
 1054SOL    HW214622   4.044   0.260   6.822  0.4573 -0.2602 -0.5373
 1055SOL     OW14623   0.799   2.669  11.431 -0.3944 -0.3163  0.1863
 1055SOL    HW114624   0.875   2.661  11.374  0.3619 -1.1076  1.2864
 1055SOL    HW214625   0.739   2.711  11.370 -1.1842 -1.5982  0.0557
 1056SOL     OW14626   4.418   0.109   8.269  0.0229 -0.4454  0.4506
 1056SOL    HW114627   4.392   0.034   8.322  0.5879 -1.0876 -0.1693
 1056SOL    HW214628   4.477   0.148   8.334  0.3084 -1.7475  0.9739
 1057SOL     OW14629   0.642   0.159   4.835 -0.9671  0.4680  0.6460
 1057SOL    HW114630   0.679   0.092   4.892 -2.0029 -0.0471  0.7079
 1057SOL    HW214631   0.568   0.108   4.803 -1.0699  0.0881  1.5002
 1058SOL     OW14632   1.635   0.696   8.138 -0.1985  0.2312  0.8308
 1058SOL    HW114633   1.551   0.741   8.147 -0.5770 -0.3992  0.5264
 1058SOL    HW214634   1.627   0.676   8.044  0.6108  0.9703  0.6123
 1059SOL     OW14635   4.549   1.870   5.239  0.3547 -0.3743  0.0418
 1059SOL    HW114636   4.473   1.839   5.289 -2.2069  1.1540 -2.9001
 1059SOL    HW214637   4.573   1.946   5.292  0.5408  0.0011 -0.5785
 1060SOL     OW14638   3.453   2.832   8.017 -0.1633 -0.8359 -0.1310
 1060SOL    HW114639   3.410   2.747   8.019  0.1305 -1.0123 -1.4479
 1060SOL    HW214640   3.426   2.874   8.099  0.9039 -1.0438  0.3349
 1061SOL     OW14641   3.037   3.939   2.618  0.7730 -0.1414  0.0937
 1061SOL    HW114642   3.067   3.972   2.534  0.8928 -0.6084 -0.0459
 1061SOL    HW214643   2.954   3.900   2.590  0.1745  1.1369  0.0825
 1062SOL     OW14644   3.490   3.110   7.848  0.2113  0.5101  0.4788
 1062SOL    HW114645   3.445   3.037   7.890  0.7111 -0.0476  0.0412
 1062SOL    HW214646   3.518   3.066   7.768  0.4166  1.7931 -0.1663
 1063SOL     OW14647   2.743   4.542   7.294  0.0524  0.6740 -0.1451
 1063SOL    HW114648   2.773   4.615   7.240 -1.5070  1.7162  0.4102
 1063SOL    HW214649   2.733   4.471   7.231  1.1245 -0.2427  0.6979
 1064SOL     OW14650   4.520   4.593   5.374  0.3212 -0.8061  0.0164
 1064SOL    HW114651   4.612   4.573   5.361  0.1903 -0.3450 -1.6197
 1064SOL    HW214652   4.498   4.666   5.316 -0.0190 -1.7637 -1.0540
 1065SOL     OW14653   2.218   2.809  12.381 -0.5370 -0.2390 -0.4935
 1065SOL    HW114654   2.178   2.753  12.315  2.5765 -0.6612 -2.0100
 1065SOL    HW214655   2.217   2.743  12.450  1.3323  0.1583 -0.0861
 1066SOL     OW14656   1.425   0.276   5.731 -0.2594  0.6196  0.9320
 1066SOL    HW114657   1.519   0.282   5.750 -0.7494  1.2690  3.1893
 1066SOL    HW214658   1.421   0.242   5.641 -0.5263  0.2287  1.0905
 1067SOL     OW14659   0.268   3.410   5.288  0.3683  0.3636 -0.1584
 1067SOL    HW114660   0.186   3.380   5.328  0.7499 -0.4526  0.0170
 1067SOL    HW214661   0.321   3.422   5.366  1.0387 -2.9184 -0.0970
 1068SOL     OW14662   1.306   2.909   1.706  0.1612  0.4318 -0.2911
 1068SOL    HW114663   1.311   2.870   1.618 -0.6002 -0.8252  0.2236
 1068SOL    HW214664   1.355   2.846   1.759 -1.9090 -0.8181  0.1226
 1069SOL     OW14665   2.287   2.407   8.447  0.1331  0.3149  0.2167
 1069SOL    HW114666   2.369   2.457   8.450  0.1548  0.0946  3.7306
 1069SOL    HW214667   2.235   2.439   8.521 -1.6251 -1.1090 -0.4226
 1070SOL     OW14668   3.011   3.013  12.661  0.1041 -0.3060  0.4250
 1070SOL    HW114669   2.974   2.984  12.744 -0.3745 -0.1850  0.2520
 1070SOL    HW214670   2.960   2.975  12.590  0.8673 -0.8444  0.1666
 1071SOL     OW14671   2.956   3.276  13.048  0.1910 -0.2494  0.1630
 1071SOL    HW114672   2.940   3.313  12.961 -0.1788 -1.1875 -0.1683
 1071SOL    HW214673   2.895   3.202  13.040 -2.8711  2.2387  0.1386
 1072SOL     OW14674   0.543   2.842   8.363  0.0537 -0.2733  0.1969
 1072SOL    HW114675   0.620   2.890   8.393  0.0759 -1.4629  2.0754
 1072SOL    HW214676   0.484   2.881   8.428 -0.5954 -0.6995 -0.1304
 1073SOL     OW14677   3.608   1.001   8.780 -0.0966 -0.0125  0.3188
 1073SOL    HW114678   3.691   1.050   8.778  1.2824 -2.3021  3.5748
 1073SOL    HW214679   3.557   1.055   8.719  0.2186 -1.1833 -0.9815
 1074SOL     OW14680   2.876   1.938   9.262 -0.5692 -0.2318 -0.3576
 1074SOL    HW114681   2.816   1.864   9.267  0.0217 -0.8518 -2.4536
 1074SOL    HW214682   2.871   1.975   9.350 -0.1375  0.3760 -0.5851
 1075SOL     OW14683   1.113   4.335   2.531  0.4490 -0.4249  0.2501
 1075SOL    HW114684   1.114   4.326   2.435  0.5794  2.2373  0.0128
 1075SOL    HW214685   1.187   4.276   2.549 -0.5994 -1.6792  0.4319
 1076SOL     OW14686   2.564   3.317   2.888  0.5916 -0.1854 -0.3996
 1076SOL    HW114687   2.659   3.326   2.889  0.6516 -0.8063 -0.2825
 1076SOL    HW214688   2.562   3.325   2.983 -2.6345  3.1963 -0.7379
 1077SOL     OW14689   0.845   4.233   2.311 -0.1739 -0.2360 -0.1016
 1077SOL    HW114690   0.792   4.296   2.261 -0.6108  1.5733  2.6575
 1077SOL    HW214691   0.883   4.298   2.370 -0.2635  0.1768 -0.4933
 1078SOL     OW14692   3.346   0.812   9.540 -0.0886  0.1742  0.5421
 1078SOL    HW114693   3.388   0.785   9.459  0.4790  2.1505  0.1706
 1078SOL    HW214694   3.392   0.895   9.558  1.0566 -0.3477  0.0050
 1079SOL     OW14695   4.333   1.604   7.863  0.1448  0.5257  0.2126
 1079SOL    HW114696   4.404   1.646   7.910  0.9608  0.2877 -0.8123
 1079SOL    HW214697   4.290   1.687   7.839 -0.1043 -0.0068 -1.2230
 1080SOL     OW14698   0.613   2.972  13.348  0.0441  0.0469  0.0972
 1080SOL    HW114699   0.586   2.892  13.394  2.5852  0.0586  1.6497
 1080SOL    HW214700   0.699   2.998  13.382  0.8962 -2.9891  0.2185
 1081SOL     OW14701   3.180   2.432   9.972 -0.0811 -0.1170 -0.0088
 1081SOL    HW114702   3.157   2.467   9.886 -1.9748  0.3084  0.6699
 1081SOL    HW214703   3.131   2.494  10.026 -0.4382  1.2654 -1.9136
 1082SOL     OW14704   1.167   3.629  12.591 -0.1278  0.4174  0.5013
 1082SOL    HW114705   1.072   3.626  12.580  0.0266 -1.2888 -0.3328
 1082SOL    HW214706   1.173   3.723  12.576  3.2531  0.1450  0.2797
 1083SOL     OW14707   2.518   2.757  13.134  0.0937  0.0407  0.1840
 1083SOL    HW114708   2.594   2.733  13.081 -0.2882  2.2967 -1.3867
 1083SOL    HW214709   2.534   2.847  13.163  1.6365 -0.4873  0.9351
 1084SOL     OW14710   2.851   3.964  10.732  0.4173 -0.2415  0.3301
 1084SOL    HW114711   2.908   3.892  10.759 -0.0003 -0.3853  0.8121
 1084SOL    HW214712   2.766   3.954  10.774  0.2509  1.2490  0.3555
 1085SOL     OW14713   3.192   2.414  11.646  0.0896  0.8756 -0.4491
 1085SOL    HW114714   3.229   2.450  11.726 -0.7399 -1.5665  1.0352
 1085SOL    HW214715   3.223   2.476  11.580 -3.0593  2.6579 -0.2553
 1086SOL     OW14716   3.918   0.864   8.162  0.0885 -0.4574 -0.2105
 1086SOL    HW114717   3.973   0.941   8.152  1.5826 -1.5776 -0.6709
 1086SOL    HW214718   3.971   0.793   8.124  0.7029 -0.8712  1.3995
 1087SOL     OW14719   2.713   1.394   8.120 -0.3625 -0.5440  0.3368
 1087SOL    HW114720   2.732   1.312   8.166 -0.1683 -0.4907  0.3539
 1087SOL    HW214721   2.683   1.361   8.035  0.5254 -2.1849  0.6679
 1088SOL     OW14722   4.220   2.460   1.019 -0.3196 -0.0048  0.2248
 1088SOL    HW114723   4.243   2.373   1.051  0.1435  0.3167  0.7742
 1088SOL    HW214724   4.167   2.494   1.091 -1.1953  2.6975 -1.6770
 1089SOL     OW14725   3.494   1.226   3.873  0.4430 -0.0518  0.5556
 1089SOL    HW114726   3.518   1.166   3.803  1.1200 -0.8719  1.5005
 1089SOL    HW214727   3.587   1.247   3.883 -0.2417  3.1163  0.3518
 1090SOL     OW14728   4.166   4.172   7.350  0.2631 -0.0433  0.6195
 1090SOL    HW114729   4.171   4.244   7.412  0.1886 -0.1265  0.7228
 1090SOL    HW214730   4.115   4.115   7.407 -2.6224  1.3104 -0.6515
 1091SOL     OW14731   4.285   1.474   6.158 -1.0424 -0.0329  0.3579
 1091SOL    HW114732   4.209   1.531   6.163  2.8256  5.1055  1.0445
 1091SOL    HW214733   4.338   1.506   6.231 -1.0408  0.0258  0.3310
 1092SOL     OW14734   3.424   3.655   7.108 -0.2386 -0.2795  0.1322
 1092SOL    HW114735   3.447   3.598   7.182  2.4651 -0.3405 -0.7383
 1092SOL    HW214736   3.346   3.696   7.145 -1.2167 -2.3375  0.3530
 1093SOL     OW14737   4.014   4.406   0.364 -0.0948 -0.4466 -0.3070
 1093SOL    HW114738   4.031   4.498   0.342 -1.0178 -0.4064 -0.8179
 1093SOL    HW214739   3.964   4.379   0.287 -1.7030  0.6431  0.3519
 1094SOL     OW14740   1.849   1.285   4.861 -0.3409 -0.1622  0.1806
 1094SOL    HW114741   1.943   1.271   4.855 -0.1367  1.7163 -0.9445
 1094SOL    HW214742   1.851   1.377   4.887 -0.7834 -1.2389  3.9550
 1095SOL     OW14743   1.236   1.218   5.066 -0.2273 -0.2261 -0.1705
 1095SOL    HW114744   1.224   1.154   5.136  0.8432  0.1441  0.3580
 1095SOL    HW214745   1.245   1.156   4.993  0.9092  0.3380 -0.5125
 1096SOL     OW14746   3.615   1.357  15.090  0.0482 -0.0675  0.4311
 1096SOL    HW114747   3.667   1.279  15.075  1.4204  1.1678 -1.2041
 1096SOL    HW214748   3.571   1.352  15.005 -0.2172 -3.3329  0.7693
 1097SOL     OW14749   1.994   3.754   3.031  0.0449 -0.4180  0.0549
 1097SOL    HW114750   2.050   3.740   3.107  1.6828 -1.2831 -1.3263
 1097SOL    HW214751   1.911   3.740   3.077 -0.8549  0.7879 -1.1852
 1098SOL     OW14752   4.251   3.666   9.283 -0.6364 -0.0038  0.4849
 1098SOL    HW114753   4.173   3.618   9.309  1.1614 -1.3631  3.3883
 1098SOL    HW214754   4.208   3.718   9.216 -0.6965  1.3911  1.6107
 1099SOL     OW14755   2.967   1.448   9.524  0.5080 -0.0272 -0.2993
 1099SOL    HW114756   2.896   1.384   9.519 -0.0240  0.4032  1.8310
 1099SOL    HW214757   2.991   1.416   9.611 -1.4773  0.2529  0.3386
 1100SOL     OW14758   0.361   2.587  14.644 -0.1139  0.2654 -0.3263
 1100SOL    HW114759   0.268   2.591  14.621  0.1646  1.4430 -1.2332
 1100SOL    HW214760   0.370   2.500  14.683  0.9533  1.0058  1.0629
 1101SOL     OW14761   4.696   4.459   1.165 -0.1518  0.1300  0.1103
 1101SOL    HW114762   4.646   4.379   1.150 -1.6097  1.0134  0.2747
 1101SOL    HW214763   0.067   4.439   1.145 -0.3949 -1.5299  0.6770
 1102SOL     OW14764   1.487   1.128   6.219  0.4302 -0.3588 -0.4165
 1102SOL    HW114765   1.455   1.218   6.217  1.9398  0.1544 -1.4585
 1102SOL    HW214766   1.579   1.134   6.242  0.6172  0.1783 -1.3237
 1103SOL     OW14767   3.980   0.993   5.156  0.2754  0.5223  0.6778
 1103SOL    HW114768   4.036   1.069   5.173 -1.4113  1.9126  0.0607
 1103SOL    HW214769   3.924   0.990   5.233  1.5455 -2.4007  1.4755
 1104SOL     OW14770   4.540   3.138   8.240  0.2190  0.0003 -0.6575
 1104SOL    HW114771   4.616   3.108   8.290  0.8608  0.7416 -1.1821
 1104SOL    HW214772   4.580   3.221   8.214 -0.8032  0.8824  0.5635
 1105SOL     OW14773   2.175   4.008   6.120 -0.4890 -0.3160  1.2127
 1105SOL    HW114774   2.177   4.033   6.212  0.2925  1.0004  0.8284
 1105SOL    HW214775   2.219   4.078   6.073  0.0012 -1.1952  0.3804
 1106SOL     OW14776   4.257   2.010   5.723 -0.3851 -0.2762 -0.1253
 1106SOL    HW114777   4.256   1.989   5.816 -0.3094  0.5306  0.0539
 1106SOL    HW214778   4.177   2.062   5.714  0.0158  0.1908 -1.0452
 1107SOL     OW14779   2.571   1.332   9.268 -0.6103  0.8986 -0.3624
 1107SOL    HW114780   2.606   1.413   9.230 -1.0905  1.7548  1.0245
 1107SOL    HW214781   2.494   1.377   9.304 -0.1025  1.1929  0.3610
 1108SOL     OW14782   3.693   1.534  11.219  0.4588  0.2505 -0.7790
 1108SOL    HW114783   3.702   1.458  11.276  1.3011 -0.6623 -2.1336
 1108SOL    HW214784   3.605   1.562  11.245  0.6350  0.5244 -0.4745
 1109SOL     OW14785   0.158   4.299   8.598  0.0858  0.1939 -0.3271
 1109SOL    HW114786   0.173   4.338   8.511  1.0235  0.5212 -0.0269
 1109SOL    HW214787   0.155   4.207   8.574  0.2331 -0.0404  0.5758
 1110SOL     OW14788   1.638   0.097   4.003  0.1893  0.5161  0.0175
 1110SOL    HW114789   1.675   0.013   3.976  0.2060  0.5569 -0.0888
 1110SOL    HW214790   1.659   0.087   4.095  2.6453  2.5443 -0.3303
 1111SOL     OW14791   0.583   3.150   6.425  0.5613 -0.2103  0.2177
 1111SOL    HW114792   0.574   3.167   6.518  0.2010  0.7694  0.0033
 1111SOL    HW214793   0.661   3.095   6.424  2.5875  2.7049 -1.5447
 1112SOL     OW14794   2.096   0.575  11.168  0.1607  0.0470  0.4200
 1112SOL    HW114795   2.097   0.483  11.144  1.9756  0.7091 -2.1253
 1112SOL    HW214796   2.011   0.607  11.138  0.5078 -0.9616 -1.6567
 1113SOL     OW14797   0.362   3.745   1.639 -0.2753  0.0696  0.5496
 1113SOL    HW114798   0.283   3.692   1.624  0.0903 -0.4679  0.5371
 1113SOL    HW214799   0.426   3.674   1.645 -1.7573 -1.0860  2.7660
 1114SOL     OW14800   3.678   3.652   5.952  0.1270 -0.7270 -0.6168
 1114SOL    HW114801   3.641   3.721   6.006  0.1332 -0.6466 -0.7166
 1114SOL    HW214802   3.665   3.574   6.007  1.9980 -0.1211  0.6924
 1115SOL     OW14803   2.330   3.262   9.412  0.6686 -0.1206  0.2010
 1115SOL    HW114804   2.308   3.348   9.447 -1.4766 -0.9511  0.8669
 1115SOL    HW214805   2.378   3.278   9.331  0.6514  0.7552  0.3671
 1116SOL     OW14806   0.205   0.436   1.086 -0.0863  0.0381 -0.0336
 1116SOL    HW114807   0.169   0.430   0.998  0.0273 -0.9664 -0.0110
 1116SOL    HW214808   0.141   0.384   1.135 -0.9820  3.0206  2.0464
 1117SOL     OW14809   3.293   4.464   7.347  0.4015  0.3718 -0.0376
 1117SOL    HW114810   3.361   4.517   7.390 -1.1970  0.7161  2.0651
 1117SOL    HW214811   3.291   4.393   7.412 -0.5002  0.8709  0.4714
 1118SOL     OW14812   3.956   0.317   2.355 -0.0281 -0.0693  0.0527
 1118SOL    HW114813   3.891   0.375   2.316 -0.0519  0.0623  0.2896
 1118SOL    HW214814   3.913   0.267   2.424  1.6562 -1.7608 -0.1063
 1119SOL     OW14815   1.305   3.380   7.012 -0.3655  0.0977 -0.0138
 1119SOL    HW114816   1.317   3.450   6.948 -1.7980  1.4670  1.1967
 1119SOL    HW214817   1.395   3.352   7.024 -0.7033 -0.9373  0.1232
 1120SOL     OW14818   3.515   0.730  15.492 -0.6054  0.4575  0.0858
 1120SOL    HW114819   3.596   0.680  15.503 -1.8148 -2.2175 -2.9018
 1120SOL    HW214820   3.542   0.809  15.538  1.8033 -0.2190 -0.1575
 1121SOL     OW14821   0.364   4.087  15.088 -0.1136  0.2288  0.3081
 1121SOL    HW114822   0.287   4.031  15.096  0.2283 -0.3474 -0.4823
 1121SOL    HW214823   0.369   4.125  15.176  0.9325 -1.1763  0.8597
 1122SOL     OW14824   0.950   0.034   7.022 -0.6268 -0.0262  0.6326
 1122SOL    HW114825   0.962   0.103   7.087 -0.3238  1.6215 -1.1620
 1122SOL    HW214826   0.975   4.675   7.070 -0.4293 -0.1206  0.3736
 1123SOL     OW14827   1.580   0.196   1.575  0.3512  0.3848 -0.6931
 1123SOL    HW114828   1.534   0.271   1.538  1.3584  1.0982 -0.5068
 1123SOL    HW214829   1.577   0.227   1.666 -0.1197 -0.3523 -0.4564
 1124SOL     OW14830   2.044   1.552   4.895  0.0111  0.1685 -0.7639
 1124SOL    HW114831   1.961   1.599   4.891 -0.9062 -1.1735  2.4239
 1124SOL    HW214832   2.112   1.616   4.919 -0.8198 -0.1463  2.3728
 1125SOL     OW14833   3.725   3.881   0.818 -0.3088 -0.6281  0.2648
 1125SOL    HW114834   3.799   3.942   0.814 -0.0957 -0.8786  0.4484
 1125SOL    HW214835   3.753   3.825   0.746 -1.5527 -0.2528 -0.4978
 1126SOL     OW14836   2.459   0.659   2.336  0.0492 -0.2092 -0.7043
 1126SOL    HW114837   2.429   0.610   2.413 -0.6572  1.4171  0.0414
 1126SOL    HW214838   2.554   0.646   2.341 -0.0722 -1.3258 -1.2608
 1127SOL     OW14839   1.772   2.395   1.406  0.3242  0.3642  0.2001
 1127SOL    HW114840   1.786   2.300   1.415 -1.0506  0.2617  1.2161
 1127SOL    HW214841   1.863   2.423   1.397  0.5190  0.1089  1.3766
 1128SOL     OW14842   2.033   0.282  13.670  0.4160  0.3903  0.1249
 1128SOL    HW114843   1.944   0.259  13.698  0.1100 -1.4961 -2.3866
 1128SOL    HW214844   2.013   0.296  13.578  1.3363  0.3602 -0.0812
 1129SOL     OW14845   0.125   3.436   8.296  0.4587 -0.4458 -0.1212
 1129SOL    HW114846   0.170   3.410   8.376 -1.4856 -0.0926  1.0656
 1129SOL    HW214847   0.136   3.531   8.303 -1.0558 -0.2187 -0.8245
 1130SOL     OW14848   3.512   2.587  12.190 -0.3508 -0.5847 -0.6263
 1130SOL    HW114849   3.479   2.617  12.105  0.8715  0.4125 -0.7495
 1130SOL    HW214850   3.493   2.673  12.228 -0.2121  0.4603 -2.9487
 1131SOL     OW14851   0.650   4.213   4.854  0.1867 -0.6475  0.1833
 1131SOL    HW114852   0.664   4.146   4.921  0.2234  0.1647  0.9829
 1131SOL    HW214853   0.716   4.190   4.789 -0.0388  0.2098 -0.3547
 1132SOL     OW14854   4.646   2.751   7.793 -0.6001 -0.3944 -0.0543
 1132SOL    HW114855   4.642   2.822   7.858 -0.1745  0.8874 -1.4050
 1132SOL    HW214856   4.671   2.794   7.711  0.2924  0.3498  0.5980
 1133SOL     OW14857   4.549   1.603   0.432 -0.6222  0.7791 -0.2071
 1133SOL    HW114858   4.634   1.647   0.436  0.1318 -0.5886 -1.3519
 1133SOL    HW214859   4.504   1.638   0.508 -1.5630  0.0593 -0.4335
 1134SOL     OW14860   0.449   0.014   2.472  0.0191  0.3657  0.1306
 1134SOL    HW114861   0.461   0.005   2.378 -0.7664 -1.1674  0.1822
 1134SOL    HW214862   0.527   4.690   2.506 -1.5438 -2.1442  0.3424
 1135SOL     OW14863   4.600   3.831   9.946  0.5565  0.7378 -0.0864
 1135SOL    HW114864   4.594   3.868  10.034 -1.3667 -4.2296  1.9040
 1135SOL    HW214865   4.685   3.787   9.953  0.1606 -0.4185 -2.5072
 1136SOL     OW14866   3.048   2.921  16.158 -0.5527 -0.4333  0.4935
 1136SOL    HW114867   3.137   2.887  16.166  0.4151  2.0141  0.2957
 1136SOL    HW214868   3.047   2.962  16.072 -2.2161 -0.4529  0.4907
 1137SOL     OW14869   1.781   2.333   3.851  0.3344 -0.7551  0.5603
 1137SOL    HW114870   1.749   2.410   3.897  0.1311  0.0984 -1.0068
 1137SOL    HW214871   1.790   2.366   3.762 -0.6099 -1.4684  0.2049
 1138SOL     OW14872   3.732   4.678   7.779  0.3060 -0.3278  0.5887
 1138SOL    HW114873   3.761   4.695   7.689  5.0475 -2.5330  1.6397
 1138SOL    HW214874   3.640   4.701   7.767  0.4736 -0.8930 -1.8599
 1139SOL     OW14875   0.334   0.341   5.376  0.0230 -0.1397 -0.2378
 1139SOL    HW114876   0.379   0.271   5.330  1.0198  0.6071 -0.4136
 1139SOL    HW214877   0.400   0.409   5.393  0.3967 -0.4523 -0.4240
 1140SOL     OW14878   1.320   0.679   4.044 -0.1347  0.0686  0.0559
 1140SOL    HW114879   1.344   0.739   4.114  0.7578  0.2158 -0.3720
 1140SOL    HW214880   1.242   0.724   4.011  0.8969  1.4869 -0.4934
 1141SOL     OW14881   0.294   3.088  13.040  0.0199  0.0164  0.2835
 1141SOL    HW114882   0.266   3.144  13.112 -2.2774  0.1637 -0.7334
 1141SOL    HW214883   0.390   3.095  13.047  0.3212 -2.6737 -1.2567
 1142SOL     OW14884   4.127   0.708   6.788  0.5177 -0.3891 -0.0207
 1142SOL    HW114885   4.214   0.733   6.821  0.7954 -1.1044 -0.2033
 1142SOL    HW214886   4.147   0.625   6.744 -1.7993 -0.4494 -0.9328
 1143SOL     OW14887   0.801   0.466   5.775  0.9191  0.1257 -0.2072
 1143SOL    HW114888   0.888   0.504   5.785  1.2666 -1.3748  2.3022
 1143SOL    HW214889   0.757   0.547   5.748 -1.7267 -1.6707 -1.2164
 1144SOL     OW14890   4.463   3.480   1.340 -0.0087 -0.4829  0.0012
 1144SOL    HW114891   4.445   3.530   1.260  1.8622 -1.1876 -0.8607
 1144SOL    HW214892   4.557   3.490   1.330 -0.2075  0.0700 -1.4376
 1145SOL     OW14893   0.760   4.445   4.684 -0.5599 -0.5625 -0.0150
 1145SOL    HW114894   0.818   4.405   4.619 -1.0239 -0.9556 -0.1870
 1145SOL    HW214895   0.800   4.425   4.768 -0.2544  0.7833  0.1530
 1146SOL     OW14896   4.145   4.017   7.778 -0.4327  0.3993  0.1782
 1146SOL    HW114897   4.089   3.966   7.836  2.6397 -1.1777  1.7481
 1146SOL    HW214898   4.203   4.052   7.846  0.4298 -1.5537  0.4590
 1147SOL     OW14899   4.237   1.167   5.154  0.0114  0.1026  0.1498
 1147SOL    HW114900   4.240   1.261   5.172  0.2230  0.3111 -0.9648
 1147SOL    HW214901   4.322   1.152   5.113 -0.0856 -0.3805  0.1226
 1148SOL     OW14902   4.106   0.382   7.262  0.0195 -0.4984 -0.0031
 1148SOL    HW114903   4.170   0.440   7.222 -0.3955 -0.8343 -1.1490
 1148SOL    HW214904   4.156   0.306   7.289  1.0469  0.0826 -0.2640
 1149SOL     OW14905   4.198   3.266  16.119  0.2264  0.5983 -0.6701
 1149SOL    HW114906   4.287   3.234  16.128  0.3737  1.4951  1.0423
 1149SOL    HW214907   4.177   3.226  16.035 -1.1582  1.3520 -0.6836
 1150SOL     OW14908   1.416   1.349   4.622  0.2008 -0.3702  0.3186
 1150SOL    HW114909   1.432   1.269   4.572  0.6381 -0.2192  0.2175
 1150SOL    HW214910   1.424   1.417   4.556 -0.8340  1.5248  2.1329
 1151SOL     OW14911   0.622   1.053  13.336  0.5530 -0.3105 -0.0537
 1151SOL    HW114912   0.633   1.122  13.271  1.0890 -1.0659 -0.7698
 1151SOL    HW214913   0.567   1.091  13.405  1.8219  1.7651 -0.1972
 1152SOL     OW14914   1.150   0.592   4.409  0.7534  0.1100  0.3664
 1152SOL    HW114915   1.064   0.562   4.436  1.4595 -2.1354  0.1473
 1152SOL    HW214916   1.167   0.521   4.346  0.8454  1.7909 -1.5080
 1153SOL     OW14917   2.989   0.558  14.832 -0.1936  0.1524 -0.1528
 1153SOL    HW114918   3.007   0.464  14.831  2.1138  0.5390  2.9524
 1153SOL    HW214919   2.895   0.551  14.817  0.1034 -1.9173 -1.0239
 1154SOL     OW14920   3.315   0.136   9.768  0.1679  0.6530 -0.0433
 1154SOL    HW114921   3.347   0.170   9.852 -1.2472 -2.7413  1.8578
 1154SOL    HW214922   3.237   0.191   9.762  1.1832  2.1091 -0.0564
 1155SOL     OW14923   4.306   3.617  14.720  0.1502  0.3147 -0.2142
 1155SOL    HW114924   4.225   3.662  14.745 -0.0663 -0.0987 -0.1740
 1155SOL    HW214925   4.365   3.667  14.776  1.8849 -2.8724  0.8333
 1156SOL     OW14926   2.343   4.397   1.923  0.3775  0.2380  0.3416
 1156SOL    HW114927   2.351   4.491   1.942 -0.5922 -0.1656  2.8010
 1156SOL    HW214928   2.327   4.376   2.015 -2.0195 -0.5772 -0.2772
 1157SOL     OW14929   0.174   1.568   6.858  0.1545 -0.1379  0.2151
 1157SOL    HW114930   0.164   1.617   6.940 -0.9191  0.4605 -0.2750
 1157SOL    HW214931   0.213   1.485   6.887 -1.4730 -0.3818  1.6780
 1158SOL     OW14932   0.956   3.597   2.117 -0.3640 -0.2717  0.0379
 1158SOL    HW114933   0.925   3.550   2.040  2.0069  0.7127 -1.5041
 1158SOL    HW214934   1.014   3.538   2.165  2.0497  1.6418 -0.5472
 1159SOL     OW14935   1.771   0.204   3.800 -0.4828 -0.6442  0.8668
 1159SOL    HW114936   1.786   0.295   3.825  1.1850 -0.0495 -2.2532
 1159SOL    HW214937   1.719   0.180   3.877 -0.1968  2.4172  2.0147
 1160SOL     OW14938   3.696   4.001  10.718 -0.1189  0.6766  0.0208
 1160SOL    HW114939   3.643   3.967  10.791 -2.6102  2.4501 -0.9422
 1160SOL    HW214940   3.705   4.094  10.738 -0.3413  0.9094 -0.9523
 1161SOL     OW14941   2.650   1.828  10.046 -0.5464  0.3211 -0.2303
 1161SOL    HW114942   2.610   1.832  10.132 -1.0982  3.1785 -0.6211
 1161SOL    HW214943   2.711   1.902  10.043 -1.5168  1.0680 -1.3713
 1162SOL     OW14944   2.507   1.289  13.831 -0.4266 -0.3039 -0.5829
 1162SOL    HW114945   2.465   1.223  13.776  2.0039 -1.2676 -1.2597
 1162SOL    HW214946   2.529   1.350  13.761 -0.8537 -1.7983 -2.0268
 1163SOL     OW14947   3.102   3.472  16.062  0.1584  1.0210  0.0537
 1163SOL    HW114948   3.156   3.546  16.034 -1.6463  2.4011  0.2515
 1163SOL    HW214949   3.022   3.498  16.018  0.3939  0.8914 -0.4569
 1164SOL     OW14950   0.174   2.696   1.647 -0.1858  0.6835  0.0820
 1164SOL    HW114951   0.112   2.761   1.614  2.5823  2.2626 -1.9295
 1164SOL    HW214952   0.239   2.752   1.689  2.8331 -1.9162 -1.1065
 1165SOL     OW14953   0.509   3.212   4.240  0.5801 -0.3615 -0.3234
 1165SOL    HW114954   0.537   3.236   4.152  0.7882  1.1384  0.1420
 1165SOL    HW214955   0.415   3.226   4.227  0.5600  0.7123  0.9322
 1166SOL     OW14956   2.024   2.279   4.312  0.2021  0.2684  0.1271
 1166SOL    HW114957   2.055   2.190   4.295  0.9887  0.3151  1.2897
 1166SOL    HW214958   2.048   2.310   4.225  2.1611  0.1563  0.6277
 1167SOL     OW14959   4.133   1.011   3.948 -0.4978  0.3222  0.1035
 1167SOL    HW114960   4.040   1.015   3.967 -0.3412 -0.0442  0.9771
 1167SOL    HW214961   4.150   1.105   3.940  0.9907 -0.0379 -1.1372
 1168SOL     OW14962   3.455   3.383  17.559 -0.6922  0.1273  1.4456
 1168SOL    HW114963   3.478   3.290  17.570  0.7093  0.4193  0.9954
 1168SOL    HW214964   3.514   3.412  17.490  0.3509 -2.1247  1.3779
 1169SOL     OW14965   4.665   1.301  16.697 -0.3752  0.4806  0.2966
 1169SOL    HW114966   4.636   1.290  16.787  1.7621  0.4187  0.9576
 1169SOL    HW214967   4.694   1.211  16.680 -1.7642  0.4016 -1.7423
 1170SOL     OW14968   4.359   2.955   9.149 -0.8072  0.7466  0.2712
 1170SOL    HW114969   4.369   3.032   9.206  0.4140  1.0192 -0.3162
 1170SOL    HW214970   4.344   2.882   9.209 -0.1776  1.2753  1.0683
 1171SOL     OW14971   3.437   2.201  11.486  0.1841  0.4489 -0.2063
 1171SOL    HW114972   3.495   2.266  11.525  0.9535 -1.6072  2.1308
 1171SOL    HW214973   3.377   2.174  11.556  2.8869 -0.3497  1.8348
 1172SOL     OW14974   3.822   2.324   9.180  0.5059  0.8156 -0.2211
 1172SOL    HW114975   3.746   2.381   9.170 -0.7036 -1.4211 -3.7656
 1172SOL    HW214976   3.890   2.370   9.131  1.0035 -1.5310 -1.7524
 1173SOL     OW14977   3.960   3.463  16.556 -0.1226 -1.0483 -0.0634
 1173SOL    HW114978   3.996   3.507  16.479  0.1480 -0.6169  0.3114
 1173SOL    HW214979   3.936   3.384  16.507  2.4023 -1.3670 -0.7854
 1174SOL     OW14980   0.294   0.852  10.958  0.5963  0.4035  0.4973
 1174SOL    HW114981   0.355   0.922  10.983  0.5755  0.2672  0.9218
 1174SOL    HW214982   0.270   0.831  11.048  0.3450 -0.2711  0.2721
 1175SOL     OW14983   4.454   3.606  16.127  0.1558 -0.2584  0.8556
 1175SOL    HW114984   4.399   3.580  16.054  0.2026  1.4550  0.2090
 1175SOL    HW214985   4.392   3.615  16.199  0.8541  2.2275  1.1664
 1176SOL     OW14986   2.881   0.941  16.770  0.2602  0.6436 -0.0133
 1176SOL    HW114987   2.812   0.875  16.769 -1.4860  2.4911  0.3657
 1176SOL    HW214988   2.838   1.019  16.805  2.2870  2.1289 -0.7962
 1177SOL     OW14989   2.648   3.730  15.186  0.1776  0.3378 -0.6716
 1177SOL    HW114990   2.627   3.756  15.096  1.1354  0.4203 -0.8687
 1177SOL    HW214991   2.719   3.667  15.175 -0.0505  0.2028 -1.3928
 1178SOL     OW14992   4.529   0.809  14.500  0.7141  0.4391  0.5978
 1178SOL    HW114993   4.561   0.888  14.543 -2.3671  1.9692  0.1055
 1178SOL    HW214994   4.571   0.816  14.415 -2.1434 -2.0686 -1.0375
 1179SOL     OW14995   1.153   4.646   5.083 -0.2638  0.2992  0.6820
 1179SOL    HW114996   1.073   4.616   5.126 -0.7284 -0.2306 -0.5525
 1179SOL    HW214997   1.125   4.643   4.991  1.2349  1.0518  0.1840
 1180SOL     OW14998   4.261   1.303   8.637  0.8537 -0.1490 -0.0159
 1180SOL    HW114999   4.265   1.350   8.554  0.7796  0.0251  0.0791
 1180SOL    HW215000   4.338   1.247   8.627  0.6445 -0.3525 -0.4692
 1181SOL     OW15001   0.616   1.890   8.110  0.1362 -0.1128 -0.0486
 1181SOL    HW115002   0.637   1.983   8.114 -1.5960  0.2927 -0.5598
 1181SOL    HW215003   0.634   1.877   8.017 -0.3910  1.1770 -0.3370
 1182SOL     OW15004   4.135   4.600   7.676 -0.5916  0.0813  0.7288
 1182SOL    HW115005   4.195   4.548   7.730  1.8551  3.1088  0.9020
 1182SOL    HW215006   4.143   4.686   7.717 -1.7258  0.8222 -0.6127
 1183SOL     OW15007   0.285   1.959   5.640  0.8029 -0.1361 -0.4415
 1183SOL    HW115008   0.375   1.971   5.671  0.0236  1.6428  1.1563
 1183SOL    HW215009   0.302   1.999   5.554  1.4627  1.0855  0.2664
 1184SOL     OW15010   0.484   1.104  17.685 -0.0862  0.2514  0.5614
 1184SOL    HW115011   0.501   1.186   0.045 -0.1044  0.2972  0.4858
 1184SOL    HW215012   0.432   1.067   0.071 -0.0019  1.4553  1.2468
 1185SOL     OW15013   0.813   1.803   2.316 -0.0832  0.1785  0.3339
 1185SOL    HW115014   0.734   1.754   2.336  0.5710 -1.4961 -1.2342
 1185SOL    HW215015   0.852   1.805   2.404  1.1510 -0.8021 -0.1863
 1186SOL     OW15016   2.738   2.159   2.904 -0.3454  0.0557  0.3646
 1186SOL    HW115017   2.728   2.065   2.915 -3.4889  0.2424 -0.8915
 1186SOL    HW215018   2.794   2.152   2.827  2.6858 -0.3214  2.6486
 1187SOL     OW15019   0.426   4.605   7.604  0.7502 -0.2284 -0.1422
 1187SOL    HW115020   0.382   4.635   7.525 -0.7500 -1.8665  0.0604
 1187SOL    HW215021   0.510   4.578   7.568  1.3576  0.0022  1.0852
 1188SOL     OW15022   2.586   2.340   2.989  0.1728  0.7124  0.1250
 1188SOL    HW115023   2.649   2.412   2.987 -0.0820  0.9560  0.8447
 1188SOL    HW215024   2.642   2.277   2.942  0.2954  1.3293 -0.5578
 1189SOL     OW15025   1.633   0.572  12.690  0.0147  0.3918 -0.0274
 1189SOL    HW115026   1.714   0.528  12.718 -0.1567 -0.5238 -0.9589
 1189SOL    HW215027   1.610   0.518  12.614 -1.3319 -0.0231  0.6770
 1190SOL     OW15028   2.720   0.553  14.229 -0.4709 -1.0467  0.0678
 1190SOL    HW115029   2.700   0.542  14.137  0.2966 -0.8118 -0.1280
 1190SOL    HW215030   2.654   0.490  14.258 -0.2757 -0.9988  0.6315
 1191SOL     OW15031   1.599   3.994  16.340 -0.1515 -0.0314 -0.0728
 1191SOL    HW115032   1.612   4.065  16.403  2.1167 -1.4784  1.0770
 1191SOL    HW215033   1.513   4.010  16.300  0.7790 -1.4107 -2.6306
 1192SOL     OW15034   1.826   1.107   3.842  0.0453 -0.3082  0.3176
 1192SOL    HW115035   1.737   1.115   3.807 -0.6298  0.4053  2.1875
 1192SOL    HW215036   1.808   1.135   3.932  1.8461 -0.8805  0.8389
 1193SOL     OW15037   3.407   3.380   0.219 -0.1381  0.0556 -0.4078
 1193SOL    HW115038   3.362   3.303   0.184  0.3086 -1.5958  2.6620
 1193SOL    HW215039   3.481   3.329   0.250 -0.8188 -0.7122 -0.0639
 1194SOL     OW15040   2.914   3.497   8.140 -0.6830 -0.0418  0.1906
 1194SOL    HW115041   2.972   3.457   8.075 -1.6427  0.7011 -1.1063
 1194SOL    HW215042   2.828   3.482   8.102 -1.3989 -1.0824  2.1859
 1195SOL     OW15043   3.944   2.684   3.261 -0.4716 -1.0611  0.5238
 1195SOL    HW115044   3.947   2.681   3.356 -3.6545  1.1382  0.6965
 1195SOL    HW215045   4.011   2.751   3.247 -0.5162 -1.0376  0.4171
 1196SOL     OW15046   0.428   1.986   7.526  0.0301 -0.1429 -0.7321
 1196SOL    HW115047   0.362   2.032   7.577 -1.0425 -0.3033 -1.9827
 1196SOL    HW215048   0.509   2.030   7.552 -0.8094  0.5510  0.6992
 1197SOL     OW15049   1.787   1.494   7.668 -0.4814 -0.5117 -0.2821
 1197SOL    HW115050   1.745   1.552   7.731  1.5808  0.3387  0.3061
 1197SOL    HW215051   1.765   1.408   7.704  0.5154  0.1573  1.9770
 1198SOL     OW15052   0.136   3.701   8.366 -0.0868  0.1014 -0.4724
 1198SOL    HW115053   0.195   3.766   8.329  2.1097 -0.0728  2.7791
 1198SOL    HW215054   0.136   3.723   8.459  0.3834  0.7215 -0.6197
 1199SOL     OW15055   0.707   3.573   3.159 -0.0011  0.4797  0.1102
 1199SOL    HW115056   0.659   3.530   3.230  1.6866 -2.0613 -0.2904
 1199SOL    HW215057   0.716   3.496   3.102 -0.3786 -1.8648  3.2286
 1200SOL     OW15058   1.289   1.924   7.251  0.0494 -0.0726 -0.8526
 1200SOL    HW115059   1.299   1.829   7.261  1.3819  0.0239 -1.2807
 1200SOL    HW215060   1.270   1.952   7.341  3.7396 -1.8250  0.4844
 1201SOL     OW15061   0.330   0.600   7.238 -0.4804 -0.0334  0.2494
 1201SOL    HW115062   0.399   0.553   7.285 -1.8739 -1.3906  0.9404
 1201SOL    HW215063   0.330   0.685   7.283  1.4617 -1.1463  2.3916
 1202SOL     OW15064   4.217   1.694  15.402 -0.0268 -0.1105  0.6009
 1202SOL    HW115065   4.260   1.628  15.458 -0.4046 -1.0820 -0.2539
 1202SOL    HW215066   4.282   1.704  15.334  0.1365 -0.9660  0.6259
 1203SOL     OW15067   3.309   2.733   9.993  0.2381  0.4881  0.3091
 1203SOL    HW115068   3.236   2.796   9.998 -0.1438 -0.1024  1.9466
 1203SOL    HW215069   3.377   2.796  10.017  1.0902 -0.4964  0.4831
 1204SOL     OW15070   2.522   2.665   4.790  0.2481 -0.1208 -0.2565
 1204SOL    HW115071   2.570   2.746   4.774 -2.1386  1.6470  1.4355
 1204SOL    HW215072   2.442   2.686   4.742  0.1587  2.5832  1.0921
 1205SOL     OW15073   1.187   1.953   2.777 -0.4624  0.1425  0.1839
 1205SOL    HW115074   1.251   1.891   2.811 -1.1371  1.2167  3.3672
 1205SOL    HW215075   1.241   2.010   2.722 -0.0526  0.8295  1.3158
 1206SOL     OW15076   2.560   3.730  11.743  0.0652  0.5104 -0.5342
 1206SOL    HW115077   2.541   3.645  11.702  0.6239 -0.2738  0.8276
 1206SOL    HW215078   2.508   3.780  11.681  2.0073  2.2850 -0.7108
 1207SOL     OW15079   3.315   3.529   1.816 -0.0060 -0.0699 -0.2319
 1207SOL    HW115080   3.237   3.572   1.851 -0.2241 -0.8610  0.2489
 1207SOL    HW215081   3.370   3.608   1.810 -1.6715  1.0667 -0.5423
 1208SOL     OW15082   1.102   0.718   5.066  0.6670 -0.8080 -0.5638
 1208SOL    HW115083   1.165   0.747   4.999  0.3333  0.4049 -0.3600
 1208SOL    HW215084   1.020   0.754   5.032  1.0473 -1.8277 -2.5407
 1209SOL     OW15085   4.601   3.911   1.139  0.7474 -0.2386 -0.0600
 1209SOL    HW115086   4.518   3.882   1.176  0.5540 -0.8387 -0.9708
 1209SOL    HW215087   4.582   3.875   1.052  2.1314 -1.0711 -0.0081
 1210SOL     OW15088   2.581   2.590   9.481  0.1106 -0.0403  0.1684
 1210SOL    HW115089   2.618   2.629   9.560 -0.8209  1.2466 -0.0137
 1210SOL    HW215090   2.509   2.646   9.450  0.6947 -0.0046 -1.1049
 1211SOL     OW15091   4.567   3.642   4.753  0.2035  0.0419  0.2908
 1211SOL    HW115092   4.497   3.684   4.703  0.3057 -0.4966 -0.3130
 1211SOL    HW215093   4.647   3.686   4.724  0.1762  1.2791  2.1103
 1212SOL     OW15094   1.483   2.457  14.803 -0.3050 -0.2015  0.1351
 1212SOL    HW115095   1.570   2.457  14.763  0.5490 -0.1222  1.9702
 1212SOL    HW215096   1.444   2.382  14.758 -3.0417  0.5850  1.1491
 1213SOL     OW15097   0.988   3.937   0.624  0.0993  0.2816  0.7250
 1213SOL    HW115098   0.989   3.855   0.673 -0.7373 -0.0049  0.2695
 1213SOL    HW215099   0.898   3.946   0.591  0.0266 -3.1513 -0.0296
 1214SOL     OW15100   0.926   1.359   8.517 -0.4555  0.3211  0.1188
 1214SOL    HW115101   0.886   1.441   8.543  0.9191  0.7402  0.8730
 1214SOL    HW215102   0.882   1.302   8.580  0.4720  1.2615  1.5954
 1215SOL     OW15103   0.102   3.121  16.999  0.1071  0.6861  0.2353
 1215SOL    HW115104   0.081   3.041  16.951 -0.4426  0.5338  0.7274
 1215SOL    HW215105   0.169   3.091  17.060  0.0607 -0.8101 -0.4476
 1216SOL     OW15106   2.341   2.350   2.877  0.0449  0.1533  0.7231
 1216SOL    HW115107   2.336   2.445   2.871 -2.1297 -0.0725 -0.8530
 1216SOL    HW215108   2.426   2.353   2.922  0.1176  1.9437  0.4761
 1217SOL     OW15109   0.387   1.039   8.484 -0.3657  0.0855  0.5832
 1217SOL    HW115110   0.343   1.059   8.401  1.3307 -0.0501 -0.3330
 1217SOL    HW215111   0.317   1.074   8.540  0.3403  1.4865  0.5916
 1218SOL     OW15112   2.391   2.390   0.917 -0.3819 -0.7882  0.1789
 1218SOL    HW115113   2.334   2.467   0.929  0.7724 -0.1909  1.7718
 1218SOL    HW215114   2.361   2.342   0.994 -0.8801  2.4986  2.0710
 1219SOL     OW15115   4.510   3.801   6.012 -0.1813 -0.2293  0.0767
 1219SOL    HW115116   4.481   3.890   5.993  0.0064 -0.0199  0.7838
 1219SOL    HW215117   4.570   3.833   6.079  1.0469 -0.6009 -0.8312
 1220SOL     OW15118   3.338   4.273  13.290  0.1102  0.3563 -0.1991
 1220SOL    HW115119   3.371   4.183  13.287 -0.4000  0.1643 -0.0587
 1220SOL    HW215120   3.330   4.294  13.197  1.9881  0.5029 -0.3407
 1221SOL     OW15121   3.728   0.448  16.648  0.0912  0.2833 -0.3225
 1221SOL    HW115122   3.712   0.537  16.617  1.6099  1.0860  1.2283
 1221SOL    HW215123   3.790   0.417  16.582  0.6985  2.6701 -0.8736
 1222SOL     OW15124   2.274   2.050   5.075  0.3677 -0.0181  0.4236
 1222SOL    HW115125   2.206   2.105   5.038  0.2170 -0.5353 -0.0871
 1222SOL    HW215126   2.357   2.090   5.049  0.7133 -1.4489 -0.7574
 1223SOL     OW15127   0.357   2.739   6.843 -0.5067  0.2710 -0.0456
 1223SOL    HW115128   0.263   2.755   6.852 -0.0169  2.5088  0.8950
 1223SOL    HW215129   0.395   2.773   6.924 -1.0729 -0.5147  0.5549
 1224SOL     OW15130   3.242   0.778   8.826 -0.3404  0.1154  0.7179
 1224SOL    HW115131   3.182   0.851   8.842  0.4524  0.5648  1.6842
 1224SOL    HW215132   3.187   0.709   8.864 -0.5162 -0.6428 -0.9110
 1225SOL     OW15133   4.622   1.105   1.836  0.0428 -0.4157 -0.0133
 1225SOL    HW115134   4.643   1.198   1.850 -1.2855 -0.2094  0.5946
 1225SOL    HW215135   4.698   1.054   1.864  1.5537  1.4673 -0.6726
 1226SOL     OW15136   2.801   0.484   3.934  0.6332  0.0245 -0.1961
 1226SOL    HW115137   2.719   0.521   3.901  1.5888  0.9191 -1.5765
 1226SOL    HW215138   2.837   0.565   3.971  0.2892 -0.3945  1.0322
 1227SOL     OW15139   2.809   3.960   4.959  0.1522  0.7840 -0.1312
 1227SOL    HW115140   2.752   3.891   4.924 -1.1430  0.5478  2.4920
 1227SOL    HW215141   2.872   3.903   5.002 -1.5655 -1.8365 -1.0071
 1228SOL     OW15142   3.943   4.166  17.181  0.1521 -0.0966  0.6229
 1228SOL    HW115143   3.900   4.106  17.120  0.5830  1.2368 -0.9650
 1228SOL    HW215144   3.883   4.240  17.181 -0.4432 -0.5834 -0.7150
 1229SOL     OW15145   1.616   4.666   5.194 -0.5037 -0.2581  0.4702
 1229SOL    HW115146   1.639   4.634   5.281  0.6782 -1.9637 -0.4805
 1229SOL    HW215147   1.662   4.601   5.141 -1.7656 -2.2893  1.8906
 1230SOL     OW15148   2.239   3.084  15.328 -0.0659  0.2044 -0.6727
 1230SOL    HW115149   2.269   3.127  15.248  1.9267  0.0571 -0.0018
 1230SOL    HW215150   2.318   3.083  15.382 -0.5382  0.9598  0.0368
 1231SOL     OW15151   4.449   1.398   2.652 -0.0976  0.3945 -0.1371
 1231SOL    HW115152   4.419   1.430   2.568  1.4411 -1.8326 -1.5524
 1231SOL    HW215153   4.428   1.305   2.639 -2.2163  0.9473 -0.6032
 1232SOL     OW15154   0.027   3.900   3.991 -0.1577  0.3786  0.0575
 1232SOL    HW115155   0.103   3.880   3.938  0.0926  0.5305  0.3570
 1232SOL    HW215156   0.050   3.843   4.064 -2.7042  0.7197  1.1412
 1233SOL     OW15157   3.290   2.476   6.237  0.1822  0.3068 -0.2261
 1233SOL    HW115158   3.253   2.505   6.154 -2.8060 -1.0392  0.6609
 1233SOL    HW215159   3.271   2.542   6.304 -1.7156  0.2420 -0.7068
 1234SOL     OW15160   4.063   3.294   2.926  0.6810  0.4949  0.1311
 1234SOL    HW115161   4.109   3.329   3.002  1.0887 -0.6024  0.3868
 1234SOL    HW215162   3.994   3.361   2.922 -0.0821 -0.1867  1.7691
 1235SOL     OW15163   3.293   2.187   3.191 -0.0347  0.1135  0.2851
 1235SOL    HW115164   3.222   2.123   3.193 -0.7592  0.8784 -0.5432
 1235SOL    HW215165   3.276   2.254   3.257  2.2828  0.1472  0.8499
 1236SOL     OW15166   4.147   2.039   6.438 -0.6562  0.0180 -0.4134
 1236SOL    HW115167   4.151   2.042   6.534 -0.9139 -0.2827 -0.3924
 1236SOL    HW215168   4.081   2.107   6.429 -1.1455 -0.3359  0.4185
 1237SOL     OW15169   1.764   3.865  14.883 -0.0818  0.3373  0.0427
 1237SOL    HW115170   1.733   3.816  14.959  0.4642 -1.4434 -0.8906
 1237SOL    HW215171   1.813   3.932  14.931 -1.9065  2.4993 -1.1167
 1238SOL     OW15172   3.907   1.586  11.055  0.4035  0.6984  0.3430
 1238SOL    HW115173   3.831   1.588  11.113  1.6660  1.1830  1.9794
 1238SOL    HW215174   3.977   1.629  11.105 -0.5430 -0.1475  2.4195
 1239SOL     OW15175   2.727   1.636   3.937  0.1428  0.7051  0.6643
 1239SOL    HW115176   2.701   1.603   4.023 -1.1299 -0.9325 -0.3481
 1239SOL    HW215177   2.695   1.572   3.873  3.3247  1.1045 -1.3597
 1240SOL     OW15178   3.646   2.157   3.126 -0.1838 -0.0702  0.0039
 1240SOL    HW115179   3.645   2.098   3.051  1.1129  2.0100 -1.6198
 1240SOL    HW215180   3.706   2.105   3.180  0.1672 -0.9496 -1.2232
 1241SOL     OW15181   1.529   1.754   6.413 -0.1051 -0.5342  0.0652
 1241SOL    HW115182   1.592   1.682   6.414  0.1790 -0.2437  2.4563
 1241SOL    HW215183   1.559   1.814   6.481 -0.1639 -1.4847  0.9193
 1242SOL     OW15184   0.790   1.524   3.618  0.1880 -0.5302  0.0864
 1242SOL    HW115185   0.725   1.574   3.667 -0.2749 -0.9793 -0.0774
 1242SOL    HW215186   0.730   1.470   3.566  0.4067  0.5221 -1.2601
 1243SOL     OW15187   1.720   1.064   7.467  0.3110 -0.7289 -0.3246
 1243SOL    HW115188   1.687   0.983   7.428  0.3830 -0.4272 -1.0141
 1243SOL    HW215189   1.666   1.051   7.545 -0.7398  0.0867 -0.9065
 1244SOL     OW15190   3.315   0.064  15.844  0.4481 -0.2641 -0.2503
 1244SOL    HW115191   3.370   0.051  15.921  0.8509  2.3840 -0.0797
 1244SOL    HW215192   3.370   0.016  15.782  1.1135 -2.6788  2.2431
 1245SOL     OW15193   2.578   3.317  14.700 -0.6452 -0.1891 -0.5102
 1245SOL    HW115194   2.655   3.366  14.668  0.3519 -0.4451  1.5227
 1245SOL    HW215195   2.523   3.323  14.622 -0.5045 -0.9490 -0.6686
 1246SOL     OW15196   0.455   0.587   2.735 -1.1314 -0.2548  0.2361
 1246SOL    HW115197   0.511   0.598   2.812 -0.8784  0.1183 -0.0033
 1246SOL    HW215198   0.376   0.620   2.778 -2.5720 -0.0943 -2.5064
 1247SOL     OW15199   3.396   3.203   2.199  0.0912  0.2490 -0.3685
 1247SOL    HW115200   3.463   3.270   2.209 -0.0986  0.1762  1.4640
 1247SOL    HW215201   3.372   3.222   2.109  0.9412  0.3697 -0.5753
 1248SOL     OW15202   0.413   3.311   9.048  0.5331 -0.2897 -0.1828
 1248SOL    HW115203   0.506   3.300   9.026 -0.1544 -0.9059 -2.8592
 1248SOL    HW215204   0.424   3.381   9.111 -0.8678  1.5306 -1.9867
 1249SOL     OW15205   0.808   1.480   4.637  0.5929 -0.4198  0.1735
 1249SOL    HW115206   0.889   1.473   4.587  0.3495 -1.6767 -0.0682
 1249SOL    HW215207   0.750   1.419   4.590 -0.7813  1.6628 -0.8115
 1250SOL     OW15208   0.475   2.595  13.161  0.3882 -0.4227  0.1350
 1250SOL    HW115209   0.570   2.585  13.172  0.5982  1.1165 -0.3981
 1250SOL    HW215210   0.465   2.648  13.083  2.9839 -0.9944 -0.5876
 1251SOL     OW15211   3.631   4.506   4.759 -0.3254 -0.5086 -0.4290
 1251SOL    HW115212   3.634   4.415   4.728 -2.4945 -0.9445  0.6500
 1251SOL    HW215213   3.603   4.552   4.680 -1.3420 -0.0869  0.1795
 1252SOL     OW15214   4.571   4.402   2.962 -0.1307 -0.1685  0.4783
 1252SOL    HW115215   4.557   4.369   2.873  2.2497  0.7295 -0.2312
 1252SOL    HW215216   4.499   4.362   3.010 -0.1306 -0.5518  0.1547
 1253SOL     OW15217   2.001   4.716   6.315 -0.5110 -0.1546 -0.1335
 1253SOL    HW115218   2.086   0.040   6.325  0.6200 -2.1537 -0.7083
 1253SOL    HW215219   2.034   4.627   6.326 -1.9250 -0.9072 -2.0301
 1254SOL     OW15220   4.433   1.609  13.733  0.4872  0.2216 -0.1815
 1254SOL    HW115221   4.364   1.544  13.746 -0.3257  0.8935 -1.1727
 1254SOL    HW215222   4.486   1.561  13.669  0.2337 -0.6562  0.2650
 1255SOL     OW15223   3.226   0.038   6.208  0.4097 -0.8168 -0.0575
 1255SOL    HW115224   3.138   0.073   6.203  1.1898  0.9578 -1.0737
 1255SOL    HW215225   3.225   4.709   6.290  1.3239 -0.7633 -0.0049
 1256SOL     OW15226   2.265   4.302   0.016 -0.4059  0.2049  0.2604
 1256SOL    HW115227   2.268   4.286  17.607  0.2258  1.8191  0.0038
 1256SOL    HW215228   2.174   4.331   0.019 -0.5349 -0.1261 -0.5436
 1257SOL     OW15229   0.490   0.490   7.657 -0.0648  0.0799 -0.5299
 1257SOL    HW115230   0.398   0.470   7.674  1.5699 -4.8175  2.9153
 1257SOL    HW215231   0.484   0.585   7.651  0.7379  0.2267  0.8628
 1258SOL     OW15232   0.052   0.343   1.478  0.2719  0.4531  0.4880
 1258SOL    HW115233   0.020   0.321   1.390 -0.5764 -1.1891  1.2031
 1258SOL    HW215234   0.016   0.272   1.531  0.1679  0.9433  1.0680
 1259SOL     OW15235   4.112   1.229   5.781 -0.0653  0.1883  0.4010
 1259SOL    HW115236   4.169   1.152   5.774  1.1829  1.0139  1.3665
 1259SOL    HW215237   4.025   1.191   5.791 -0.0504 -0.5765 -2.3974
 1260SOL     OW15238   0.112   2.819   2.693  0.0356  0.5306  0.5360
 1260SOL    HW115239   0.189   2.764   2.681 -1.6153 -1.9057  1.0437
 1260SOL    HW215240   0.143   2.904   2.662 -1.5038  0.8989 -0.0355
 1261SOL     OW15241   3.328   2.566   8.057  0.2436 -0.1925 -0.0705
 1261SOL    HW115242   3.363   2.547   8.144 -1.0977  0.9830  0.7325
 1261SOL    HW215243   3.348   2.487   8.007  3.3031  1.3302 -1.1853
 1262SOL     OW15244   2.045   3.132   8.669  0.7560 -0.2428 -0.6036
 1262SOL    HW115245   2.028   3.217   8.710  0.2605 -0.6672  0.0624
 1262SOL    HW215246   2.093   3.091   8.742  2.7983  2.8741 -0.1706
 1263SOL     OW15247   3.450   0.057   9.543 -0.6272  0.3595  0.1920
 1263SOL    HW115248   3.405   0.082   9.623 -2.8561  2.1589 -1.6489
 1263SOL    HW215249   3.513   0.129   9.540 -2.2954  1.8594  1.4624
 1264SOL     OW15250   2.069   1.725  11.469 -0.0651 -0.1844 -0.5044
 1264SOL    HW115251   2.157   1.749  11.441  0.2669 -1.4675 -0.5531
 1264SOL    HW215252   2.023   1.809  11.476  0.7148  0.1073  1.1721
 1265SOL     OW15253   0.175   3.714  13.413 -0.2026 -0.2056  0.4169
 1265SOL    HW115254   0.243   3.721  13.479  1.3226  3.4181 -1.5030
 1265SOL    HW215255   0.188   3.795  13.363 -4.8503  0.2723 -0.0513
 1266SOL     OW15256   1.589   4.426  15.129  0.0106  0.1862 -0.2860
 1266SOL    HW115257   1.556   4.343  15.093 -1.5709  1.7413 -2.4617
 1266SOL    HW215258   1.613   4.458  15.042  0.2208  0.6304 -0.0617
 1267SOL     OW15259   0.711   2.554   8.738  0.2225  0.1086 -0.0481
 1267SOL    HW115260   0.794   2.600   8.726 -0.4492  1.5562  0.8386
 1267SOL    HW215261   0.718   2.484   8.673 -0.1395 -1.2946  1.4264
 1268SOL     OW15262   3.542   1.444   5.144  0.1672 -0.0711 -0.1009
 1268SOL    HW115263   3.590   1.520   5.111  1.1517 -0.5555  0.2507
 1268SOL    HW215264   3.512   1.483   5.226  0.3612 -0.4822  0.1624
 1269SOL     OW15265   4.299   1.158   7.413  0.2094  0.2449 -0.6315
 1269SOL    HW115266   4.217   1.134   7.370 -0.2237 -0.1595  0.4240
 1269SOL    HW215267   4.274   1.132   7.501 -0.6698 -0.3321 -1.0479
 1270SOL     OW15268   3.075   4.005   0.749 -0.2287 -0.0432 -0.0224
 1270SOL    HW115269   3.053   4.000   0.656 -1.2057  1.5606  0.1420
 1270SOL    HW215270   2.996   4.046   0.783 -1.1381 -0.3992 -1.7338
 1271SOL     OW15271   3.363   2.401   9.233  0.4581 -0.0195  0.2804
 1271SOL    HW115272   3.311   2.476   9.261 -1.9593 -1.6443  0.1433
 1271SOL    HW215273   3.304   2.337   9.272  1.0703 -1.6756 -1.4876
 1272SOL     OW15274   1.370   3.823   3.721  0.0162  0.3029 -0.2062
 1272SOL    HW115275   1.406   3.890   3.779 -0.1920  0.1586  0.0948
 1272SOL    HW215276   1.387   3.746   3.776 -0.2436 -0.5250 -1.2831
 1273SOL     OW15277   4.102   2.080   7.464 -0.2067 -0.0541  0.1556
 1273SOL    HW115278   4.077   2.022   7.536 -1.9322  0.7729  0.2290
 1273SOL    HW215279   4.021   2.126   7.442  0.4855  1.3824  0.6472
 1274SOL     OW15280   0.892   2.802   5.775  0.1850 -0.2950 -0.5518
 1274SOL    HW115281   0.950   2.733   5.744 -0.6971 -0.4138 -1.9432
 1274SOL    HW215282   0.841   2.835   5.701  0.3534  1.7832  0.2467
 1275SOL     OW15283   2.593   0.585   5.530 -0.4783 -0.2912  0.4491
 1275SOL    HW115284   2.596   0.680   5.546  1.7417 -0.0393 -1.3339
 1275SOL    HW215285   2.510   0.576   5.482 -0.1105  2.4429 -0.7063
 1276SOL     OW15286   1.415   3.112   2.898  0.1837 -1.0791  0.4879
 1276SOL    HW115287   1.469   3.171   2.951 -1.0434 -0.2587  0.8079
 1276SOL    HW215288   1.434   3.029   2.942  1.3987 -0.7868  0.5374
 1277SOL     OW15289   4.418   2.631   4.283  0.0490  0.4765  0.3777
 1277SOL    HW115290   4.450   2.542   4.271  2.7733  1.7486 -1.6218
 1277SOL    HW215291   4.332   2.613   4.322  0.4806 -2.2069  0.1123
 1278SOL     OW15292   4.470   3.619   7.556  0.0129  0.6017 -0.3713
 1278SOL    HW115293   4.448   3.676   7.630 -0.4708  0.5347 -0.4611
 1278SOL    HW215294   4.398   3.558   7.572  2.5866 -2.5472 -0.8947
 1279SOL     OW15295   4.057   4.160   2.275  0.1995 -0.7264 -0.1711
 1279SOL    HW115296   4.147   4.190   2.279 -0.5121  1.5376 -1.2244
 1279SOL    HW215297   4.023   4.234   2.225 -1.3560 -1.3128  0.0076
 1280SOL     OW15298   1.701   1.647   5.323  0.0700 -0.2796  0.0300
 1280SOL    HW115299   1.689   1.594   5.402  0.1458 -0.9101 -0.3831
 1280SOL    HW215300   1.740   1.587   5.259  0.2208 -0.5877  0.4135
 1281SOL     OW15301   2.143   2.567   2.200  0.4619 -0.4834  0.1506
 1281SOL    HW115302   2.235   2.584   2.218  0.0262  0.9624  1.0224
 1281SOL    HW215303   2.127   2.636   2.135 -2.7504 -3.0070 -1.7175
 1282SOL     OW15304   1.721   0.556   3.652 -0.1527  0.0558 -0.1485
 1282SOL    HW115305   1.731   0.635   3.598  0.1265 -0.8374 -1.4046
 1282SOL    HW215306   1.679   0.586   3.732 -1.2055 -0.3328 -0.5574
 1283SOL     OW15307   1.523   2.791   2.571 -0.1665 -0.0411 -0.0562
 1283SOL    HW115308   1.547   2.792   2.663  0.9365  1.0840 -0.3493
 1283SOL    HW215309   1.604   2.827   2.534  0.1215  0.1417  0.7728
 1284SOL     OW15310   0.919   0.673   7.084  0.5951 -0.4365 -0.2688
 1284SOL    HW115311   0.973   0.627   7.021  0.6710  0.0606 -0.5678
 1284SOL    HW215312   0.838   0.622   7.084 -1.2646  2.4819  0.0303
 1285SOL     OW15313   2.495   2.837   7.222 -0.6791 -0.1235 -0.5253
 1285SOL    HW115314   2.434   2.776   7.265  0.3695  0.2432  1.4953
 1285SOL    HW215315   2.471   2.824   7.130  0.3985  1.0124 -0.9609
 1286SOL     OW15316   0.683   4.340  12.610  0.3103  0.3644 -0.0666
 1286SOL    HW115317   0.635   4.267  12.649  0.1316 -0.5612 -1.9989
 1286SOL    HW215318   0.630   4.415  12.637  3.4200  2.8144 -0.7934
 1287SOL     OW15319   4.522   2.144   4.849 -0.0130 -0.3597 -0.4275
 1287SOL    HW115320   4.429   2.140   4.870  0.1755  2.1369  0.8924
 1287SOL    HW215321   4.552   2.071   4.902  0.3549  0.3456  0.3380
 1288SOL     OW15322   3.040   1.224   1.672 -0.8195  0.2353  0.3323
 1288SOL    HW115323   3.047   1.305   1.723  0.8235  0.6205 -0.4907
 1288SOL    HW215324   2.950   1.230   1.641 -1.0952 -0.7857  0.9385
 1289SOL     OW15325   1.365   1.502   5.864  0.4467  0.4637  0.3007
 1289SOL    HW115326   1.434   1.563   5.889 -0.9829  2.1727  0.1505
 1289SOL    HW215327   1.285   1.554   5.877 -0.1946 -0.1111 -1.3415
 1290SOL     OW15328   0.560   4.120  14.902  0.2238  0.6704  0.2191
 1290SOL    HW115329   0.489   4.111  14.965 -0.6575 -1.3989 -1.0726
 1290SOL    HW215330   0.616   4.190  14.937 -0.6412  1.6117 -0.2693
 1291SOL     OW15331   0.855   4.542   5.819 -0.3066 -0.3798 -0.2624
 1291SOL    HW115332   0.829   4.455   5.789 -2.6768  0.1102  0.4243
 1291SOL    HW215333   0.783   4.575   5.873 -1.8059 -1.1588 -1.7904
 1292SOL     OW15334   1.775   0.207  13.461 -0.1117 -0.6069 -0.5208
 1292SOL    HW115335   1.714   0.279  13.446  1.5664  0.8564 -0.2745
 1292SOL    HW215336   1.858   0.244  13.429 -0.1622  2.2714  2.7121
 1293SOL     OW15337   2.095   0.844   9.460  0.4265  0.0101 -0.6176
 1293SOL    HW115338   2.093   0.845   9.556  0.3124  3.4540 -0.6548
 1293SOL    HW215339   2.062   0.757   9.437 -0.2701  0.1894 -0.3123
 1294SOL     OW15340   1.775   1.459   0.224  1.1796  0.0340 -0.0602
 1294SOL    HW115341   1.845   1.522   0.240 -1.1830  3.4478 -2.9488
 1294SOL    HW215342   1.702   1.512   0.257  0.8330 -0.8247  0.5496
 1295SOL     OW15343   0.764   3.897   4.504 -0.0533  0.1192 -0.1255
 1295SOL    HW115344   0.758   3.894   4.408  2.9678  0.7637 -0.3309
 1295SOL    HW215345   0.673   3.893   4.534  0.3143 -0.0760  0.9676
 1296SOL     OW15346   3.539   4.323   1.215  0.0723 -0.8838 -0.5235
 1296SOL    HW115347   3.559   4.346   1.305 -1.9445 -1.3533  0.0496
 1296SOL    HW215348   3.480   4.389   1.178  0.4129  0.0813  0.6658
 1297SOL     OW15349   1.596   1.706   1.974 -0.3341  0.3174  0.1876
 1297SOL    HW115350   1.590   1.656   1.892  1.2158 -0.4182  0.5191
 1297SOL    HW215351   1.674   1.662   2.007 -0.5595  0.8226  1.4093
 1298SOL     OW15352   3.725   2.880   1.627  0.7748 -0.2117 -0.2383
 1298SOL    HW115353   3.764   2.844   1.547 -0.3315 -0.1717 -0.8073
 1298SOL    HW215354   3.736   2.809   1.690  1.0247  0.2019  0.1791
 1299SOL     OW15355   4.430   1.909  12.634 -0.5522  0.1716 -0.4992
 1299SOL    HW115356   4.412   2.002  12.646  1.8602  0.3947  1.3886
 1299SOL    HW215357   4.448   1.882  12.724  0.2631  1.4898 -0.2701
 1300SOL     OW15358   1.302   0.706   5.607  0.3184 -0.3974  0.0897
 1300SOL    HW115359   1.302   0.612   5.587  0.3035 -0.8733  2.2960
 1300SOL    HW215360   1.282   0.735   5.518 -1.4128 -2.4023 -0.1706
 1301SOL     OW15361   4.063   4.433   5.419 -0.5745  0.0126  0.0131
 1301SOL    HW115362   4.011   4.427   5.339  0.2788 -3.0383 -0.3015
 1301SOL    HW215363   4.015   4.505   5.461  1.8544  2.7325 -1.9560
 1302SOL     OW15364   4.678   1.479   4.140  0.2546  0.0590 -0.1676
 1302SOL    HW115365   0.017   1.417   4.099 -1.4309 -2.3653  1.0519
 1302SOL    HW215366   4.668   1.434   4.224  0.0032  1.4911  0.5633
 1303SOL     OW15367   3.005   4.144   4.852 -0.7935 -0.0354  0.4588
 1303SOL    HW115368   2.962   4.073   4.899  0.1043 -0.8983 -0.0248
 1303SOL    HW215369   3.095   4.130   4.882 -1.4904 -0.2599  2.4434
 1304SOL     OW15370   1.584   2.683  15.484 -0.0790  0.4218  0.1378
 1304SOL    HW115371   1.662   2.630  15.472 -0.9533 -0.4214 -1.8696
 1304SOL    HW215372   1.513   2.619  15.485 -0.6854  1.0856 -0.1512
 1305SOL     OW15373   4.453   1.470  16.410  0.1383 -0.0468  0.5155
 1305SOL    HW115374   4.409   1.408  16.351  1.7564 -1.9087  1.2379
 1305SOL    HW215375   4.391   1.542  16.414 -2.1101 -1.9047 -1.0167
 1306SOL     OW15376   0.187   3.649   0.772  0.3382  0.5052 -0.2540
 1306SOL    HW115377   0.208   3.739   0.797  0.9723  0.2987 -0.0428
 1306SOL    HW215378   0.116   3.669   0.711 -0.8996 -1.1652  0.6379
 1307SOL     OW15379   1.912   4.424   3.161  0.4534  0.7031 -0.4126
 1307SOL    HW115380   1.863   4.495   3.201 -0.0326  1.2151 -1.9175
 1307SOL    HW215381   1.990   4.471   3.133  0.3963 -0.3497 -2.3514
 1308SOL     OW15382   2.190   0.876   6.271  0.4177 -0.0753  0.1127
 1308SOL    HW115383   2.177   0.824   6.192  3.5747 -0.6432 -0.0525
 1308SOL    HW215384   2.238   0.946   6.227  0.1674  0.4793  0.7220
 1309SOL     OW15385   4.350   1.845   8.324  0.1934  0.1640 -0.2307
 1309SOL    HW115386   4.362   1.801   8.240 -0.1523  2.5894 -1.5483
 1309SOL    HW215387   4.385   1.927   8.289  1.4103  0.6702  2.1599
 1310SOL     OW15388   0.011   3.717   5.167 -0.2225  0.5611 -0.0717
 1310SOL    HW115389   0.040   3.642   5.114  1.9445  0.6448  1.0153
 1310SOL    HW215390   4.710   3.787   5.106  1.7079  3.0486  2.1348
 1311SOL     OW15391   3.583   1.995   5.269  0.8005 -0.4407 -0.1374
 1311SOL    HW115392   3.498   1.953   5.282  1.4183 -1.9058 -0.8836
 1311SOL    HW215393   3.560   2.058   5.200  1.0977  0.8254  0.9153
 1312SOL     OW15394   2.848   0.322   8.898 -0.4995  0.8917  0.9599
 1312SOL    HW115395   2.820   0.231   8.886  0.5154  0.6605  0.3006
 1312SOL    HW215396   2.904   0.314   8.976 -0.9565  0.1178  1.2040
 1313SOL     OW15397   1.129   2.057   4.404  0.3425  0.1160 -0.4481
 1313SOL    HW115398   1.181   2.134   4.427  1.0602 -0.5877  0.2788
 1313SOL    HW215399   1.071   2.094   4.337  0.5453  1.0690 -0.0923
 1314SOL     OW15400   0.218   3.848  14.173  0.2333  0.6025  0.1475
 1314SOL    HW115401   0.177   3.935  14.179  1.1289  1.0512 -0.1510
 1314SOL    HW215402   0.281   3.861  14.244  2.2025  2.2053 -1.8656
 1315SOL     OW15403   0.722   3.223   8.992  0.1271 -0.4087 -0.3975
 1315SOL    HW115404   0.785   3.295   8.993  1.1924 -1.3515  0.8740
 1315SOL    HW215405   0.697   3.221   8.900  0.0259 -1.1441 -0.3524
 1316SOL     OW15406   2.972   0.032   1.432 -0.6192 -0.2738 -0.3789
 1316SOL    HW115407   3.033   0.076   1.492  0.9991 -1.9043 -0.8239
 1316SOL    HW215408   2.935   0.103   1.380 -0.1854 -0.6038 -1.1452
 1317SOL     OW15409   0.858   3.139  15.411 -0.4136  0.5382  0.3240
 1317SOL    HW115410   0.787   3.078  15.434  0.3070  0.9716  3.7258
 1317SOL    HW215411   0.811   3.222  15.412  0.2970  0.9526 -1.1973
 1318SOL     OW15412   0.514   1.271   2.837 -0.2796  0.1429  0.1540
 1318SOL    HW115413   0.440   1.315   2.796 -2.1759 -1.4479  1.8636
 1318SOL    HW215414   0.527   1.211   2.764 -0.4760  4.0537 -3.1035
 1319SOL     OW15415   1.171   1.967   7.491 -0.2154  0.1100 -0.4621
 1319SOL    HW115416   1.095   1.912   7.511  0.1604  1.6262  5.1166
 1319SOL    HW215417   1.228   1.949   7.566 -3.1054 -2.0590  1.2124
 1320SOL     OW15418   4.654   1.850   7.839 -0.4329 -0.0743  0.1576
 1320SOL    HW115419   4.633   1.767   7.798  0.2936 -0.3555  0.3468
 1320SOL    HW215420   0.029   1.844   7.837 -0.4287  0.4921 -1.1205
 1321SOL     OW15421   0.800   2.643  17.415  0.0814 -0.0204  0.4936
 1321SOL    HW115422   0.809   2.582  17.488 -1.2095  1.4244  1.8820
 1321SOL    HW215423   0.764   2.591  17.343  2.1884  1.2767 -1.4907
 1322SOL     OW15424   2.806   3.594  11.879  0.2113  0.3347 -0.5156
 1322SOL    HW115425   2.863   3.518  11.883  1.4240  1.1736 -1.9438
 1322SOL    HW215426   2.726   3.566  11.923  0.8190  0.2586  0.5395
 1323SOL     OW15427   3.577   2.764   9.823 -0.0432 -0.2438  0.6505
 1323SOL    HW115428   3.523   2.822   9.769 -0.7824 -0.1230  1.5179
 1323SOL    HW215429   3.548   2.794   9.910  0.6555  0.6318  0.5856
 1324SOL     OW15430   3.444   0.211   0.916 -0.6398 -0.2334  0.0091
 1324SOL    HW115431   3.379   0.143   0.898 -2.3568  0.6241  3.0932
 1324SOL    HW215432   3.515   0.180   0.859 -0.1585 -0.1033  0.5393
 1325SOL     OW15433   1.800   2.308   2.032 -0.3697 -0.1711  0.0451
 1325SOL    HW115434   1.768   2.223   2.061  1.0082 -0.6366  0.2065
 1325SOL    HW215435   1.718   2.357   2.039  0.0544  0.4399  0.9181
 1326SOL     OW15436   4.425   3.508  14.424 -0.0290 -0.3550  0.0353
 1326SOL    HW115437   4.366   3.436  14.403 -0.2433 -0.1030 -0.2394
 1326SOL    HW215438   4.486   3.473  14.360 -0.6245 -0.5183 -0.4434
 1327SOL     OW15439   4.002   1.565   5.203  0.3950  0.6042 -0.2877
 1327SOL    HW115440   3.984   1.572   5.296 -1.7910  2.9313 -0.8938
 1327SOL    HW215441   3.969   1.652   5.182  1.1182  1.0030  0.2656
 1328SOL     OW15442   1.096   0.724   3.814  0.1971 -0.3393 -0.3186
 1328SOL    HW115443   1.070   0.632   3.821  0.2650 -0.3357  0.0026
 1328SOL    HW215444   1.060   0.762   3.894  0.4771  1.8611 -1.2359
 1329SOL     OW15445   3.361   2.692   2.190  0.3898  0.3050 -0.0540
 1329SOL    HW115446   3.324   2.692   2.279 -1.3713  0.5628 -0.7790
 1329SOL    HW215447   3.402   2.778   2.181 -0.5043  0.6107 -1.1853
 1330SOL     OW15448   0.021   4.501  15.301  0.0167  0.2920  0.6664
 1330SOL    HW115449   0.038   4.407  15.294  1.4373  0.6369 -0.4620
 1330SOL    HW215450   0.101   4.540  15.266  1.4664 -0.5616  3.0358
 1331SOL     OW15451   1.054   3.753   5.459  0.1498 -0.3293 -0.2273
 1331SOL    HW115452   1.102   3.823   5.504  0.5357 -0.2424 -0.7777
 1331SOL    HW215453   0.977   3.751   5.517 -1.3099 -1.8416 -2.2066
 1332SOL     OW15454   0.129   3.183   7.000 -0.0515 -0.2312 -0.6239
 1332SOL    HW115455   0.101   3.091   6.999  0.3848 -0.3315 -2.6419
 1332SOL    HW215456   0.154   3.191   7.092 -1.8410 -0.5982 -0.0995
 1333SOL     OW15457   3.106   3.056   8.690  0.0890 -0.3051 -0.1884
 1333SOL    HW115458   3.164   3.109   8.635 -0.1752  2.1518  1.8524
 1333SOL    HW215459   3.163   2.988   8.726  0.8262  1.0530  1.2382
 1334SOL     OW15460   2.242   2.889   2.932 -0.4116  0.3983  0.1194
 1334SOL    HW115461   2.307   2.959   2.935 -0.2116  0.1679  0.9309
 1334SOL    HW215462   2.198   2.909   2.849  0.2268 -0.4008 -0.4093
 1335SOL     OW15463   4.350   4.596  11.919 -0.0680  0.4022  0.9583
 1335SOL    HW115464   4.420   4.532  11.906 -1.0271 -0.3050 -0.8099
 1335SOL    HW215465   4.382   4.668  11.865  0.9865 -0.2834  0.6714
 1336SOL     OW15466   3.011   0.334  12.095 -0.0664 -0.0847 -0.6012
 1336SOL    HW115467   3.029   0.398  12.163 -0.8399 -2.9550  2.3023
 1336SOL    HW215468   2.987   0.263  12.155 -2.2514  1.0531 -0.1630
 1337SOL     OW15469   4.598   1.360   4.372  0.6835 -0.2944 -0.5770
 1337SOL    HW115470   4.521   1.417   4.369 -0.2709 -1.4739  0.9014
 1337SOL    HW215471   4.559   1.289   4.424  2.0288 -0.7614 -0.2011
 1338SOL     OW15472   1.878   0.693   8.469 -0.2889 -0.6366  0.0628
 1338SOL    HW115473   1.895   0.651   8.385  1.2919 -1.1320  0.6298
 1338SOL    HW215474   1.888   0.622   8.533 -1.1617 -0.7381  0.0897
 1339SOL     OW15475   1.819   2.186   6.558  1.0353 -0.4808 -0.2506
 1339SOL    HW115476   1.900   2.164   6.512  0.7027 -1.3879 -0.4091
 1339SOL    HW215477   1.761   2.129   6.507 -2.4911  0.9297  2.1960
 1340SOL     OW15478   3.689   1.947   8.504  0.7592 -0.0601  0.2571
 1340SOL    HW115479   3.756   1.892   8.545  0.7664  1.6615  2.5328
 1340SOL    HW215480   3.710   2.027   8.551  2.6050  0.9776 -2.3387
 1341SOL     OW15481   3.834   1.526   3.032 -0.2155 -0.1412  0.2634
 1341SOL    HW115482   3.871   1.614   3.024 -1.9355  0.4873 -0.8337
 1341SOL    HW215483   3.808   1.511   2.941  0.0562  1.1478 -0.0252
 1342SOL     OW15484   4.324   1.805   2.813 -0.0857 -0.0670  0.5156
 1342SOL    HW115485   4.261   1.733   2.811  1.5984 -1.5730  1.5071
 1342SOL    HW215486   4.398   1.765   2.858  0.8697 -0.1226 -1.1067
 1343SOL     OW15487   3.893   3.072   3.001 -0.5374  0.3274  0.3936
 1343SOL    HW115488   3.800   3.066   2.980 -0.2229  0.4132 -1.0129
 1343SOL    HW215489   3.906   3.149   2.947  0.2916 -0.3003 -0.2995
 1344SOL     OW15490   0.191   1.147   4.668  0.0375 -0.6171 -0.3552
 1344SOL    HW115491   0.167   1.081   4.603  0.3837 -1.9747  0.9092
 1344SOL    HW215492   0.119   1.153   4.730  0.7389 -1.7736  0.5658
 1345SOL     OW15493   4.388   0.472   7.429 -0.4637  0.4782 -0.1500
 1345SOL    HW115494   4.341   0.491   7.348  0.6217  2.0559 -0.4153
 1345SOL    HW215495   4.444   0.547   7.451  0.0582 -0.3304  1.2948
 1346SOL     OW15496   4.012   4.261  11.749 -0.1775 -0.3362 -0.3650
 1346SOL    HW115497   4.062   4.339  11.725 -2.8877  1.6253  0.2869
 1346SOL    HW215498   4.011   4.274  11.844  0.6224  2.6769 -0.7577
 1347SOL     OW15499   0.570   1.215   6.926 -0.3303  0.1946 -0.6111
 1347SOL    HW115500   0.629   1.225   7.001  1.1291  0.0431 -1.7613
 1347SOL    HW215501   0.627   1.217   6.850  0.5221  1.5756  0.0622
 1348SOL     OW15502   4.007   2.881  10.988  0.1042 -0.0975 -0.2794
 1348SOL    HW115503   4.075   2.914  11.047 -1.7700  0.1690  1.7255
 1348SOL    HW215504   3.936   2.891  11.052  0.6539  0.0572  0.3117
 1349SOL     OW15505   3.336   1.546  15.298 -0.4008 -0.7926 -0.5338
 1349SOL    HW115506   3.278   1.615  15.328 -2.1486 -1.1524 -3.0797
 1349SOL    HW215507   3.292   1.472  15.339 -1.1380  0.2372  0.5110
 1350SOL     OW15508   1.444   1.498  12.603 -0.2009  0.7474  0.6490
 1350SOL    HW115509   1.485   1.583  12.618  1.5549  0.1650 -0.9393
 1350SOL    HW215510   1.479   1.440  12.670  1.6201  1.7411  0.5568
 1351SOL     OW15511   2.232   2.580   7.061 -0.3858  0.0508  0.1144
 1351SOL    HW115512   2.201   2.669   7.043  0.0602 -0.2021 -1.9118
 1351SOL    HW215513   2.252   2.550   6.972  0.1744  0.8323 -0.0261
 1352SOL     OW15514   3.654   0.312  13.317  0.2839 -0.1350  0.1022
 1352SOL    HW115515   3.621   0.302  13.406 -0.7521  1.6184 -0.0859
 1352SOL    HW215516   3.704   0.394  13.317  0.0943 -0.0185  0.6152
 1353SOL     OW15517   2.019   1.334   7.352 -0.3057 -0.0867 -0.3182
 1353SOL    HW115518   2.075   1.280   7.407  1.1877  1.1114 -0.6680
 1353SOL    HW215519   1.936   1.336   7.399 -0.4817  0.9734 -0.6644
 1354SOL     OW15520   0.632   0.804   2.543 -0.2431  0.6805 -0.4057
 1354SOL    HW115521   0.619   0.710   2.561 -1.3345  0.7090 -1.0323
 1354SOL    HW215522   0.723   0.793   2.517 -0.6616 -0.4110 -1.4563
 1355SOL     OW15523   2.249   1.126  13.028 -0.1406 -0.4398 -0.0459
 1355SOL    HW115524   2.167   1.077  13.033  0.4303 -1.4603 -0.6298
 1355SOL    HW215525   2.246   1.183  13.104  0.0101 -0.9527  0.3377
 1356SOL     OW15526   4.658   3.900   9.050  0.4255 -0.5027 -0.4318
 1356SOL    HW115527   4.689   3.928   9.136  1.4312 -0.4213 -0.8305
 1356SOL    HW215528   4.575   3.856   9.071  0.6987  0.9338  3.6417
 1357SOL     OW15529   4.174   3.089   0.033  0.9232 -0.2450  0.5786
 1357SOL    HW115530   4.262   3.051   0.027  0.0430 -2.1244 -0.2674
 1357SOL    HW215531   4.137   3.073  17.631  0.0203 -0.1959  0.9583
 1358SOL     OW15532   0.714   0.731  13.922 -0.0464  0.4459 -0.3819
 1358SOL    HW115533   0.779   0.795  13.891 -0.3568  1.6572  1.4818
 1358SOL    HW215534   0.700   0.770  14.008  0.4696 -0.8272  0.2718
 1359SOL     OW15535   2.350   0.481   3.510 -0.1023 -0.1588  0.2194
 1359SOL    HW115536   2.255   0.476   3.522 -0.2154  2.6473  0.5597
 1359SOL    HW215537   2.398   0.464   3.592 -1.5033 -0.9109  0.8849
 1360SOL     OW15538   0.651   0.209  16.161 -0.3270 -0.0138 -0.0385
 1360SOL    HW115539   0.617   0.194  16.249 -1.4186  0.4346 -0.3783
 1360SOL    HW215540   0.585   0.157  16.115  0.6568 -0.0064 -1.4483
 1361SOL     OW15541   3.890   1.142   7.517 -0.0774 -0.1384 -0.3835
 1361SOL    HW115542   3.952   1.087   7.469 -0.8519 -1.6040  0.2896
 1361SOL    HW215543   3.946   1.195   7.573  0.9578 -2.3309  0.6320
 1362SOL     OW15544   0.954   1.302  16.545 -0.0282  0.0300 -0.1958
 1362SOL    HW115545   1.039   1.338  16.521  0.4672 -0.3196  0.9940
 1362SOL    HW215546   0.893   1.375  16.537  0.0225 -0.0590 -1.3611
 1363SOL     OW15547   1.032   0.637   5.513 -0.6267  0.1938  0.4730
 1363SOL    HW115548   1.010   0.583   5.437  0.6719  2.1401 -1.2996
 1363SOL    HW215549   1.087   0.573   5.557  2.9713  1.3511 -2.3809
 1364SOL     OW15550   3.604   4.318   8.569 -0.0112  0.2293  0.2381
 1364SOL    HW115551   3.528   4.362   8.532 -1.6055 -1.6350  1.3230
 1364SOL    HW215552   3.626   4.362   8.652 -3.6110  0.6556  0.9591
 1365SOL     OW15553   3.170   0.511  10.839 -0.0617  0.1141 -0.2852
 1365SOL    HW115554   3.236   0.562  10.791 -1.4223  0.3936 -1.8835
 1365SOL    HW215555   3.127   0.480  10.759  1.5103 -1.1820 -0.6286
 1366SOL     OW15556   3.436   3.059   2.424  0.0640 -0.1342  0.3557
 1366SOL    HW115557   3.348   3.070   2.459 -0.5192  0.2389 -1.1979
 1366SOL    HW215558   3.424   3.122   2.352 -1.2929  0.1147  0.8070
 1367SOL     OW15559   2.905   3.474  12.766  0.0514 -0.4863 -0.0038
 1367SOL    HW115560   2.952   3.393  12.746 -0.7941  0.0286 -4.0560
 1367SOL    HW215561   2.955   3.532  12.709 -1.9958  2.6014  1.3421
 1368SOL     OW15562   4.280   2.642   2.260 -0.4951  0.0970  0.1093
 1368SOL    HW115563   4.209   2.695   2.224 -1.2725  1.0318  2.9868
 1368SOL    HW215564   4.232   2.597   2.330  1.1874 -0.4322  0.9242
 1369SOL     OW15565   3.174   1.707   5.523 -0.7508  0.0588  0.7546
 1369SOL    HW115566   3.242   1.771   5.544  0.7973 -1.2629 -0.2856
 1369SOL    HW215567   3.147   1.684   5.612  0.3134 -2.2265  0.4784
 1370SOL     OW15568   0.988   2.042  14.225  0.0376  0.0324  0.2057
 1370SOL    HW115569   0.941   1.959  14.234 -1.3976  0.5566 -2.5902
 1370SOL    HW215570   1.073   2.018  14.263 -0.5982 -1.0149  0.9756
 1371SOL     OW15571   4.204   2.148   8.900  0.4876  0.5774 -0.4181
 1371SOL    HW115572   4.129   2.148   8.959  0.3948 -0.7431 -0.5438
 1371SOL    HW215573   4.199   2.062   8.859  0.8098  0.3428  0.0243
 1372SOL     OW15574   3.380   4.309   5.013 -0.5336 -0.3464  0.1582
 1372SOL    HW115575   3.287   4.295   4.994 -0.6163 -0.0136  0.3052
 1372SOL    HW215576   3.429   4.245   4.962 -0.5818 -0.4501  0.2424
 1373SOL     OW15577   4.102   4.048   6.883  0.4764  0.3489  0.0069
 1373SOL    HW115578   4.041   4.035   6.809 -1.1364  1.6720  1.1130
 1373SOL    HW215579   4.044   4.052   6.959 -1.2344 -0.7350 -1.2143
 1374SOL     OW15580   4.489   2.809   0.434 -0.4812 -0.1929 -0.2622
 1374SOL    HW115581   4.550   2.736   0.418  1.1827  0.3406  3.6135
 1374SOL    HW215582   4.434   2.772   0.503  0.0336  0.0508  0.2818
 1375SOL     OW15583   2.250   0.109   8.868 -0.1358  0.1606 -0.3388
 1375SOL    HW115584   2.228   0.038   8.929 -0.2766 -0.9999 -1.7115
 1375SOL    HW215585   2.311   0.067   8.807 -0.0791 -0.3694  0.0858
 1376SOL     OW15586   2.548   4.488   9.729 -0.1154  0.0445  0.1355
 1376SOL    HW115587   2.606   4.450   9.795  0.3129 -0.1923 -0.3786
 1376SOL    HW215588   2.606   4.558   9.701 -0.5070 -0.1629 -1.1899
 1377SOL     OW15589   3.217   3.315  16.242 -0.2035 -0.2150 -0.0028
 1377SOL    HW115590   3.269   3.289  16.165  0.5003  1.7623 -0.1876
 1377SOL    HW215591   3.168   3.378  16.190 -0.7717  0.2060  1.0491
 1378SOL     OW15592   4.408   3.004   7.439  0.3443 -0.1994  0.1669
 1378SOL    HW115593   4.316   2.983   7.423  0.0036 -0.5086  2.5757
 1378SOL    HW215594   4.424   3.094   7.468  1.7360 -0.8737  1.4888
 1379SOL     OW15595   0.511   0.767  17.414  0.4634 -0.2788  0.2462
 1379SOL    HW115596   0.494   0.753  17.508 -1.3408  0.5518  0.0358
 1379SOL    HW215597   0.605   0.748  17.409  0.7054  1.6123 -2.0858
 1380SOL     OW15598   2.057   1.171  15.634  0.1131 -0.1760 -0.0674
 1380SOL    HW115599   2.036   1.234  15.565  0.1021  1.1066  1.0904
 1380SOL    HW215600   2.093   1.102  15.578 -1.3952 -0.3491 -0.8144
 1381SOL     OW15601   3.030   3.826   5.109  0.8750 -0.3522  0.4869
 1381SOL    HW115602   2.998   3.809   5.198  0.7844  1.1255  0.7356
 1381SOL    HW215603   3.108   3.877   5.126  0.5202  0.3972 -0.1415
 1382SOL     OW15604   0.763   0.413   1.997  0.1953 -0.0241 -0.0508
 1382SOL    HW115605   0.793   0.452   1.914 -0.4995 -0.3705 -0.4710
 1382SOL    HW215606   0.671   0.439   1.988  0.6708  0.9521 -2.2399
 1383SOL     OW15607   4.554   3.870  11.328  0.0868  0.2995  0.1424
 1383SOL    HW115608   4.570   3.869  11.234  1.3502 -1.5349  0.3853
 1383SOL    HW215609   4.460   3.851  11.323 -0.0170  1.4330 -2.2167
 1384SOL     OW15610   0.231   2.574  10.192  0.7671  0.1091  0.3319
 1384SOL    HW115611   0.172   2.589  10.265  0.5561 -0.6814  0.3289
 1384SOL    HW215612   0.170   2.553  10.121 -1.3022 -2.6731  2.9421
 1385SOL     OW15613   0.780   2.377   3.503  0.0656  0.2096  0.1703
 1385SOL    HW115614   0.851   2.393   3.441 -2.3806  2.9837 -1.9146
 1385SOL    HW215615   0.738   2.461   3.486 -0.9782 -0.4753 -0.7106
 1386SOL     OW15616   4.645   0.240  10.399  0.0744 -0.1235 -0.2361
 1386SOL    HW115617   4.686   0.162  10.435  1.4688  0.9930  0.5856
 1386SOL    HW215618   4.644   0.213  10.307  0.6685  0.2339 -0.3480
 1387SOL     OW15619   0.472   2.467   8.032 -0.0436  0.6928 -0.4941
 1387SOL    HW115620   0.404   2.399   8.023  2.2903 -1.5539 -1.1255
 1387SOL    HW215621   0.423   2.536   8.076 -1.1704 -0.2966 -0.1963
 1388SOL     OW15622   0.843   4.132   5.569 -0.0308 -0.0917  0.6551
 1388SOL    HW115623   0.754   4.116   5.538  0.1233  1.1245 -0.4167
 1388SOL    HW215624   0.876   4.195   5.505 -0.3020 -0.8954 -0.2701
 1389SOL     OW15625   4.690   2.355  11.942 -0.0773  0.7153 -0.4216
 1389SOL    HW115626   4.698   2.260  11.946  0.6452  0.9461  3.4840
 1389SOL    HW215627   4.604   2.363  11.901 -0.5515 -0.4904  0.3310
 1390SOL     OW15628   3.974   1.733   5.738  0.1103 -0.5287  0.3520
 1390SOL    HW115629   4.000   1.645   5.765  1.6708  0.1842  1.1608
 1390SOL    HW215630   3.965   1.762   5.829 -2.2095 -1.2182  0.3280
 1391SOL     OW15631   3.493   3.837   5.743 -0.1398 -0.3725  0.1284
 1391SOL    HW115632   3.496   3.747   5.774 -0.1814 -0.4552 -0.1130
 1391SOL    HW215633   3.477   3.884   5.825 -1.6866 -0.9935  0.1786
 1392SOL     OW15634   4.391   4.079  17.131 -0.1984  0.9368 -0.5927
 1392SOL    HW115635   4.466   4.136  17.148  0.0804  0.5455 -0.5173
 1392SOL    HW215636   4.368   4.103  17.041 -0.9511 -1.9426 -1.1664
 1393SOL     OW15637   3.416   0.576  14.094 -0.2555  0.1964  0.5070
 1393SOL    HW115638   3.381   0.567  14.005  0.6543 -0.2739  0.2030
 1393SOL    HW215639   3.500   0.531  14.093 -0.2526  0.2282 -0.9671
 1394SOL     OW15640   2.942   4.027  17.410 -0.1397  0.1499 -0.0642
 1394SOL    HW115641   3.019   4.019  17.465 -0.2309  1.3018  0.2335
 1394SOL    HW215642   2.937   4.122  17.408  1.6925  0.2713  1.4754
 1395SOL     OW15643   2.618   0.071   6.483  0.3341 -1.0010 -0.0697
 1395SOL    HW115644   2.694   0.029   6.442 -0.3755 -0.1138 -2.2702
 1395SOL    HW215645   2.567   4.719   6.520  0.2181 -1.1163 -0.4545
 1396SOL     OW15646   0.234   4.350   4.312 -0.1875  0.1659 -0.1977
 1396SOL    HW115647   0.156   4.299   4.333 -1.7093  2.1499 -1.0082
 1396SOL    HW215648   0.304   4.304   4.357 -0.8170 -0.9413 -0.3583
 1397SOL     OW15649   1.601   4.196  16.540 -0.1263 -0.1638 -0.4347
 1397SOL    HW115650   1.506   4.197  16.525 -0.2527 -1.2375  0.2777
 1397SOL    HW215651   1.599   4.225  16.631 -0.4336 -0.6466 -0.2859
 1398SOL     OW15652   2.717   1.317   8.778 -0.1760  0.3009  0.1803
 1398SOL    HW115653   2.735   1.411   8.788  0.2451  0.1541  0.8482
 1398SOL    HW215654   2.711   1.290   8.870 -1.6844  0.0768  0.0129
 1399SOL     OW15655   1.178   1.697   5.906  1.4477  0.0663  0.0370
 1399SOL    HW115656   1.137   1.712   5.821  1.4883 -0.2195 -0.0346
 1399SOL    HW215657   1.200   1.789   5.918  1.2329  0.1096  0.0938
 1400SOL     OW15658   0.988   2.110   3.396  0.6795  0.1667 -0.4303
 1400SOL    HW115659   1.038   2.187   3.421  1.3692  0.7044 -3.4503
 1400SOL    HW215660   1.002   2.105   3.301 -0.5069  2.2583 -0.7119
 1401SOL     OW15661   0.885   0.680   2.613 -0.5664 -0.5857  0.0312
 1401SOL    HW115662   0.844   0.610   2.563 -1.3047  0.3038 -0.6047
 1401SOL    HW215663   0.959   0.703   2.557 -1.1437 -1.6036 -1.1446
 1402SOL     OW15664   4.594   3.684  12.005 -0.3662 -0.1043 -0.0526
 1402SOL    HW115665   4.540   3.680  11.926 -0.9782 -0.2967  0.3815
 1402SOL    HW215666   4.532   3.662  12.074 -1.0357 -0.2526 -0.7019
 1403SOL     OW15667   3.417   2.602  10.688  0.3228  0.3984 -0.1430
 1403SOL    HW115668   3.447   2.649  10.766  0.2009  0.7701 -0.3193
 1403SOL    HW215669   3.503   2.584  10.649 -0.0146 -2.7559  0.5588
 1404SOL     OW15670   3.174   3.541   5.342  0.0769  0.4895 -0.2356
 1404SOL    HW115671   3.131   3.471   5.391  0.7234 -1.8498 -2.9791
 1404SOL    HW215672   3.133   3.619   5.379  1.2233  0.5395  0.9335
 1405SOL     OW15673   2.203   2.499  17.250 -0.0628  0.1495 -0.3931
 1405SOL    HW115674   2.211   2.493  17.155  0.1441 -0.5645 -0.3359
 1405SOL    HW215675   2.283   2.540  17.282  1.4104 -1.8999 -1.4089
 1406SOL     OW15676   2.889   0.304   2.829  0.6755  0.1086 -0.6140
 1406SOL    HW115677   2.950   0.234   2.856  1.4831  0.5264 -1.3349
 1406SOL    HW215678   2.855   0.255   2.754 -1.1856 -0.4247  0.5888
 1407SOL     OW15679   1.481   3.347   9.015  0.1902 -0.2154  0.2098
 1407SOL    HW115680   1.547   3.380   9.076  1.1968  0.5450 -1.2957
 1407SOL    HW215681   1.468   3.257   9.045  0.0768  0.3410  1.8693
 1408SOL     OW15682   0.106   0.922  11.913  0.0670 -0.1319  0.7666
 1408SOL    HW115683   0.195   0.957  11.910  0.8758 -2.0691  1.9685
 1408SOL    HW215684   0.117   0.839  11.867  0.8727  0.2973  0.1891
 1409SOL     OW15685   4.224   3.298  16.633  0.1656 -0.5430  0.3424
 1409SOL    HW115686   4.172   3.223  16.607  0.9915  0.0565 -3.0846
 1409SOL    HW215687   4.192   3.364  16.571  0.3409 -0.3750  0.4293
 1410SOL     OW15688   3.632   2.756  10.883 -0.3247 -0.2366 -0.4714
 1410SOL    HW115689   3.707   2.796  10.839 -1.9532  0.9952 -2.1482
 1410SOL    HW215690   3.622   2.824  10.950 -2.5384  0.4432 -1.4735
 1411SOL     OW15691   2.741   2.665  11.358 -0.1459 -0.2284  0.2779
 1411SOL    HW115692   2.819   2.719  11.371 -0.3211  0.2011 -0.4518
 1411SOL    HW215693   2.672   2.724  11.386 -0.6694 -2.1212  2.9841
 1412SOL     OW15694   0.831   1.323  16.890  0.1590 -0.2595  0.2575
 1412SOL    HW115695   0.897   1.262  16.858  0.4976  0.0133  0.4435
 1412SOL    HW215696   0.772   1.269  16.942  1.0111 -0.3204  1.1600
 1413SOL     OW15697   1.938   0.500   5.491  0.0425  0.0652  0.6660
 1413SOL    HW115698   2.019   0.449   5.483 -0.0414 -0.1268  1.0479
 1413SOL    HW215699   1.906   0.482   5.579  0.9898 -0.0118  0.9981
 1414SOL     OW15700   3.589   3.773   6.421  0.2726 -0.7965 -0.4855
 1414SOL    HW115701   3.682   3.795   6.409  0.1615 -0.0197  0.0684
 1414SOL    HW215702   3.597   3.683   6.454  0.4466 -1.4592 -2.3455
 1415SOL     OW15703   2.832   2.874  15.537  0.0203 -0.0148  0.3225
 1415SOL    HW115704   2.918   2.889  15.499  0.1593  2.0221  1.4196
 1415SOL    HW215705   2.793   2.960  15.522  0.3162  0.1060  0.2443
 1416SOL     OW15706   3.373   3.907   8.518  0.7232 -0.0683 -0.1490
 1416SOL    HW115707   3.307   3.959   8.565  1.3929  0.3295  0.3364
 1416SOL    HW215708   3.406   3.974   8.458  0.8730 -0.8955 -0.9942
 1417SOL     OW15709   3.780   3.555  13.236 -0.2629  0.0756 -0.2945
 1417SOL    HW115710   3.826   3.565  13.320  1.0847 -1.3333 -0.8912
 1417SOL    HW215711   3.711   3.621  13.244 -1.1764 -0.9082 -0.0479
 1418SOL     OW15712   2.790   1.299   5.185 -0.4062 -0.3603  0.4805
 1418SOL    HW115713   2.803   1.302   5.280  0.0346 -0.1751  0.4114
 1418SOL    HW215714   2.713   1.356   5.178  1.2252  1.5623 -1.7573
 1419SOL     OW15715   2.010   0.416   4.086  0.1703  0.3023 -0.1671
 1419SOL    HW115716   2.051   0.420   3.999  0.2608 -2.1528 -0.2464
 1419SOL    HW215717   1.916   0.417   4.070 -0.2121  1.8944  2.2320
 1420SOL     OW15718   0.659   1.729   7.603 -0.1635 -0.1110  0.3310
 1420SOL    HW115719   0.603   1.732   7.526 -0.5984  1.7461  0.7271
 1420SOL    HW215720   0.670   1.634   7.608 -0.5385 -0.1487  0.4316
 1421SOL     OW15721   0.180   2.854   3.991 -0.4459  0.4753 -0.0728
 1421SOL    HW115722   0.098   2.889   4.027 -0.8535  0.5194 -1.0295
 1421SOL    HW215723   0.230   2.936   3.994  0.2286 -0.0146  1.9499
 1422SOL     OW15724   2.023   1.164   7.995  0.4184 -0.1055 -0.3642
 1422SOL    HW115725   2.006   1.203   8.080 -1.6428  0.6787 -1.1399
 1422SOL    HW215726   1.999   1.072   8.003 -1.0975  0.4745  1.4713
 1423SOL     OW15727   1.998   3.940   3.715 -0.4337  0.0608  0.6558
 1423SOL    HW115728   1.993   3.863   3.659 -1.7994  0.8391 -0.2893
 1423SOL    HW215729   1.978   4.012   3.655  0.1061  0.5423  1.0439
 1424SOL     OW15730   4.196   3.363  17.653 -0.3571  0.4572  0.2717
 1424SOL    HW115731   4.140   3.358  17.576  0.0440 -1.4365  0.0890
 1424SOL    HW215732   4.179   3.282   0.016  0.4250 -0.9262 -1.7768
 1425SOL     OW15733   1.969   3.423   5.029 -0.4266  0.1480  0.5740
 1425SOL    HW115734   2.009   3.420   4.942 -0.3564 -1.1944  0.6525
 1425SOL    HW215735   1.877   3.406   5.012 -0.7365  2.1550  0.1517
 1426SOL     OW15736   3.731   0.129   7.989 -0.1013  0.3814  0.0085
 1426SOL    HW115737   3.756   0.128   7.896 -1.7041 -1.6708 -0.4118
 1426SOL    HW215738   3.818   0.121   8.029  0.3063  3.4411 -0.2986
 1427SOL     OW15739   2.917   0.664  12.400  0.1505  0.0106  0.6242
 1427SOL    HW115740   3.003   0.623  12.389 -0.1863  0.0033 -1.9196
 1427SOL    HW215741   2.887   0.675  12.310  0.1137  0.9479  0.7508
 1428SOL     OW15742   2.424   2.820   6.968  0.0679 -0.4397  0.3602
 1428SOL    HW115743   2.511   2.807   6.929 -0.3747 -0.0715 -0.7460
 1428SOL    HW215744   2.365   2.776   6.907 -0.8875  0.8682  0.3629
 1429SOL     OW15745   3.066   1.915   8.438 -0.4875  0.4749  0.7252
 1429SOL    HW115746   3.043   1.884   8.526 -1.0298 -0.5988  0.2064
 1429SOL    HW215747   2.993   1.975   8.423 -0.2266  0.2212 -1.5457
 1430SOL     OW15748   4.018   3.270   0.211 -0.0542 -0.3208  0.4397
 1430SOL    HW115749   4.005   3.254   0.117 -2.9401 -1.0704  0.9611
 1430SOL    HW215750   3.951   3.207   0.239 -0.9259  0.0800 -0.7311
 1431SOL     OW15751   2.810   2.559   7.140  0.4496 -0.0634 -0.2672
 1431SOL    HW115752   2.905   2.554   7.129  0.5222 -3.0468  1.7844
 1431SOL    HW215753   2.780   2.565   7.049  2.9466  0.2519 -1.0705
 1432SOL     OW15754   3.322   2.738   2.473 -0.1499 -0.0704  0.2358
 1432SOL    HW115755   3.331   2.833   2.477  2.0669 -0.3181  0.9933
 1432SOL    HW215756   3.325   2.720   2.567  0.6086  0.5633  0.3280
 1433SOL     OW15757   0.490   3.810  15.281  0.3094 -0.7578  0.3249
 1433SOL    HW115758   0.571   3.790  15.234  0.1694 -0.4791 -0.0288
 1433SOL    HW215759   0.521   3.896  15.308 -0.8468  0.1013 -1.1221
 1434SOL     OW15760   4.291   1.796   3.612  0.5203 -0.4581 -0.2221
 1434SOL    HW115761   4.315   1.887   3.625 -3.5187  0.3730  1.3380
 1434SOL    HW215762   4.257   1.789   3.523 -1.5554 -0.5416  0.5838
 1435SOL     OW15763   3.838   0.009   5.317  0.9507 -0.1538  0.1627
 1435SOL    HW115764   3.781   0.049   5.382  0.2090 -1.3753  0.2423
 1435SOL    HW215765   3.921   0.034   5.357  0.0585  1.4670  1.0139
 1436SOL     OW15766   4.099   0.959   7.276  0.3856  0.0309  0.6977
 1436SOL    HW115767   4.069   0.878   7.236  0.4901  1.1979 -1.7514
 1436SOL    HW215768   4.014   1.003   7.277  0.4246  0.1287 -0.1656
 1437SOL     OW15769   2.296   3.792   1.399 -0.4108 -0.4825  0.5708
 1437SOL    HW115770   2.354   3.717   1.410  3.1821  2.2683  0.8828
 1437SOL    HW215771   2.343   3.845   1.334 -2.2736  0.0304 -0.3336
 1438SOL     OW15772   0.798   0.953  13.728  0.4790  0.6339 -0.7493
 1438SOL    HW115773   0.788   1.029  13.671 -3.7232  1.6951  1.4613
 1438SOL    HW215774   0.712   0.960  13.769  1.3160 -0.6910  1.2140
 1439SOL     OW15775   3.539   4.376  14.353  0.4284  1.0446 -0.1910
 1439SOL    HW115776   3.468   4.312  14.356  1.2228  0.1097 -1.9121
 1439SOL    HW215777   3.619   4.325  14.346  1.0583  2.0545 -0.3468
 1440SOL     OW15778   1.069   0.695   2.930  0.3326 -0.2069 -0.4218
 1440SOL    HW115779   1.020   0.627   2.884 -1.2215  1.4266 -1.1900
 1440SOL    HW215780   1.134   0.724   2.866  0.6013  1.4640  0.6122
 1441SOL     OW15781   2.789   0.333   6.523 -0.1626 -0.2614  0.1605
 1441SOL    HW115782   2.769   0.249   6.481 -1.2462  0.7000 -1.2359
 1441SOL    HW215783   2.863   0.375   6.479  1.1918 -0.9912  1.7172
 1442SOL     OW15784   0.774   2.822  15.120  0.3137  0.0637 -0.0158
 1442SOL    HW115785   0.730   2.776  15.192  1.5655 -2.0350 -0.5833
 1442SOL    HW215786   0.738   2.910  15.115  1.0552  0.1989 -2.7379
 1443SOL     OW15787   0.533   0.864   5.213  0.5291 -0.0091 -0.0727
 1443SOL    HW115788   0.562   0.797   5.150  0.7599 -1.9354  2.0676
 1443SOL    HW215789   0.500   0.935   5.158  0.8983  0.0587 -0.2064
 1444SOL     OW15790   1.920   4.103  14.740  0.5232  0.8109 -0.5825
 1444SOL    HW115791   1.852   4.167  14.758  1.3578  1.7083 -0.5957
 1444SOL    HW215792   1.947   4.075  14.827  0.0957  2.7890  0.1646
 1445SOL     OW15793   0.780   1.486   9.464  0.1823  0.2654  0.6341
 1445SOL    HW115794   0.804   1.396   9.444 -1.3712  0.0767 -0.4118
 1445SOL    HW215795   0.836   1.499   9.541  0.1574  1.6476  0.4114
 1446SOL     OW15796   2.500   3.144   4.696  0.0819 -0.2350  0.1049
 1446SOL    HW115797   2.437   3.177   4.760  0.2916 -3.1604  1.8141
 1446SOL    HW215798   2.542   3.226   4.670 -0.3018 -0.0454  0.0854
 1447SOL     OW15799   0.353   3.519  11.146  0.8604 -0.3027 -0.9058
 1447SOL    HW115800   0.449   3.518  11.147  0.8680  1.4006  0.6759
 1447SOL    HW215801   0.338   3.440  11.095  0.1953 -0.5403 -0.3389
 1448SOL     OW15802   3.663   0.727  13.776  0.6149  0.2568 -0.0602
 1448SOL    HW115803   3.598   0.664  13.743 -0.1198  1.3561 -0.7250
 1448SOL    HW215804   3.741   0.700  13.728  1.7289 -0.2285  2.0496
 1449SOL     OW15805   4.318   0.968   3.770 -0.5000 -0.5117 -0.6249
 1449SOL    HW115806   4.257   0.950   3.842  0.4397 -0.0975  0.2829
 1449SOL    HW215807   4.391   1.000   3.823  0.2108 -1.0184 -1.2965
 1450SOL     OW15808   3.048   1.828   0.122  0.2380  0.8210  0.1295
 1450SOL    HW115809   3.110   1.901   0.117  1.2324  0.0093  0.5945
 1450SOL    HW215810   3.002   1.839   0.038  1.0136 -2.0439 -0.6454
 1451SOL     OW15811   0.066   1.813   4.761  1.2019 -0.5391  0.8665
 1451SOL    HW115812   0.116   1.841   4.684 -1.2865 -0.3411 -0.6526
 1451SOL    HW215813   0.128   1.756   4.808  0.8120 -0.7177  1.1581
 1452SOL     OW15814   1.039   2.496   9.006 -0.5381 -0.8210 -0.3299
 1452SOL    HW115815   1.125   2.495   8.965 -1.2387 -0.9815 -1.8050
 1452SOL    HW215816   1.012   2.408   8.978 -0.9056 -0.5556 -0.8023
 1453SOL     OW15817   4.444   3.931   5.377  0.0533  0.0158  0.4404
 1453SOL    HW115818   4.368   3.987   5.361  0.4533  0.6670  0.7763
 1453SOL    HW215819   4.468   3.892   5.294 -0.2209  1.8142 -0.4844
 1454SOL     OW15820   3.891   4.111  10.960  0.6603 -0.4872  0.4643
 1454SOL    HW115821   3.830   4.159  10.903  3.1191  1.5368 -0.4605
 1454SOL    HW215822   3.959   4.084  10.898 -1.9331 -0.9892 -2.1744
 1455SOL     OW15823   0.970   2.865   0.567 -0.2963 -0.4188 -0.3913
 1455SOL    HW115824   0.936   2.813   0.494  0.1667  0.4351 -1.2168
 1455SOL    HW215825   1.065   2.852   0.569 -0.4475 -1.4946 -0.3143
 1456SOL     OW15826   3.591   1.649  15.563 -0.1734  0.0045 -0.1356
 1456SOL    HW115827   3.622   1.626  15.475  0.2868  1.2254 -0.2933
 1456SOL    HW215828   3.627   1.570  15.602 -1.4213 -0.2194  0.5652
 1457SOL     OW15829   3.516   2.048   2.674 -0.1177  0.3651 -0.3039
 1457SOL    HW115830   3.480   2.135   2.689  0.8166  0.2031  2.9255
 1457SOL    HW215831   3.439   2.017   2.625  0.2830 -0.5424 -0.3640
 1458SOL     OW15832   2.690   2.516  12.194  0.8857  0.2866  0.7740
 1458SOL    HW115833   2.692   2.597  12.143  0.0861  1.0426  1.9619
 1458SOL    HW215834   2.640   2.546  12.270 -0.0559  0.7333 -0.0229
 1459SOL     OW15835   1.969   1.936  16.552  0.2343  0.0123 -0.4148
 1459SOL    HW115836   1.970   2.025  16.517 -0.0479  0.1384 -0.1061
 1459SOL    HW215837   1.875   1.926  16.566  0.2573 -0.4208 -0.5588
 1460SOL     OW15838   3.987   3.554  15.485  0.0624 -0.0279 -0.0139
 1460SOL    HW115839   3.947   3.477  15.443  0.4249 -1.0841  1.5522
 1460SOL    HW215840   3.922   3.575  15.552  1.4200 -0.0922  1.3008
 1461SOL     OW15841   1.911   4.465  12.951 -0.0666 -0.6418 -0.4872
 1461SOL    HW115842   1.957   4.383  12.930  1.6636  1.0643 -3.3641
 1461SOL    HW215843   1.968   4.529  12.907 -0.9978  0.4301 -0.1202
 1462SOL     OW15844   3.600   0.440   4.067 -0.3665 -0.2676 -0.0072
 1462SOL    HW115845   3.648   0.399   4.139 -0.4994 -2.3481 -1.1255
 1462SOL    HW215846   3.510   0.423   4.095 -0.5900  3.3211  1.4627
 1463SOL     OW15847   1.176   0.436   8.516 -0.2217 -0.1641  0.2870
 1463SOL    HW115848   1.263   0.471   8.534  0.8820 -2.7997  0.1349
 1463SOL    HW215849   1.135   0.487   8.586  0.9777 -1.3769  1.8577
 1464SOL     OW15850   3.079   3.473  14.933 -0.0445 -0.2273  0.0867
 1464SOL    HW115851   3.145   3.431  14.878  1.8802 -0.3347  2.4975
 1464SOL    HW215852   3.063   3.408  15.001  0.0807  0.2963  0.6144
 1465SOL     OW15853   3.860   0.010   1.974  0.2240 -0.3856  0.3985
 1465SOL    HW115854   3.932   0.035   2.032 -0.5354 -1.5457  1.8148
 1465SOL    HW215855   3.916   4.700   1.902 -0.7805 -3.1209  0.7988
 1466SOL     OW15856   1.011   3.632   3.281 -0.3049 -0.0661 -0.0974
 1466SOL    HW115857   0.941   3.569   3.264 -0.0359 -0.0200 -1.3742
 1466SOL    HW215858   1.058   3.581   3.347 -1.1287 -0.0951  0.4614
 1467SOL     OW15859   2.741   0.435   4.394  0.1914 -0.1925 -0.0165
 1467SOL    HW115860   2.708   0.398   4.475 -0.3009  1.5958  0.6137
 1467SOL    HW215861   2.656   0.457   4.354 -0.4834 -0.9642  1.0041
 1468SOL     OW15862   0.086   3.111   2.594 -0.1049 -0.5985 -0.9872
 1468SOL    HW115863   0.167   3.101   2.545  0.6971 -0.1557  0.2627
 1468SOL    HW215864   0.046   3.191   2.560 -0.8629 -0.3095  0.5761
 1469SOL     OW15865   3.638   3.016   3.846 -0.2392  0.5384  0.4488
 1469SOL    HW115866   3.549   3.000   3.879 -0.6251 -1.1468 -1.4313
 1469SOL    HW215867   3.627   2.997   3.753  1.9903  0.4187  0.2138
 1470SOL     OW15868   3.535   2.663  15.564  0.3967 -0.1405  0.3642
 1470SOL    HW115869   3.579   2.580  15.545 -0.7633 -0.3781 -1.2535
 1470SOL    HW215870   3.573   2.709  15.490 -0.9855 -0.4588 -0.5373
 1471SOL     OW15871   3.303   2.413   7.457 -0.0399 -0.0946 -0.0331
 1471SOL    HW115872   3.335   2.323   7.463 -0.1547 -0.1212  0.1879
 1471SOL    HW215873   3.265   2.427   7.544 -1.1199  1.5283 -0.7746
 1472SOL     OW15874   1.285   1.460   3.275  0.2722  0.1036 -0.0402
 1472SOL    HW115875   1.355   1.436   3.215  0.6536  1.9233 -0.3383
 1472SOL    HW215876   1.299   1.419   3.361  0.1787 -0.7799 -0.4520
 1473SOL     OW15877   0.206   3.650   3.098  0.3298 -0.3466  0.3274
 1473SOL    HW115878   0.180   3.566   3.062 -0.4952 -0.6259  1.5733
 1473SOL    HW215879   0.193   3.699   3.017 -0.3140 -2.5316 -0.8901
 1474SOL     OW15880   4.499   3.876  17.270 -0.1805  0.1264 -0.7888
 1474SOL    HW115881   4.446   3.934  17.216 -0.2559  2.1227  1.4483
 1474SOL    HW215882   4.580   3.872  17.219 -1.3672  1.1399 -2.7048
 1475SOL     OW15883   0.759   4.472  12.957  0.1004 -0.1051 -0.0766
 1475SOL    HW115884   0.764   4.394  13.012  0.5800 -1.6415 -2.3385
 1475SOL    HW215885   0.828   4.451  12.894  1.3157 -0.2443  1.2882
 1476SOL     OW15886   1.479   1.968   5.177 -0.5500  0.7635 -0.3324
 1476SOL    HW115887   1.473   1.874   5.160 -0.2922  0.4067  1.5667
 1476SOL    HW215888   1.391   2.001   5.157 -1.2293 -0.0735  1.2346
 1477SOL     OW15889   3.198   3.558   1.006  0.2838 -0.2070 -0.0365
 1477SOL    HW115890   3.112   3.517   1.008 -0.7868  2.1070  2.1120
 1477SOL    HW215891   3.184   3.640   0.959 -0.3432  1.1881  2.5851
 1478SOL     OW15892   2.249   2.273  10.001 -0.0520  0.4558  0.0423
 1478SOL    HW115893   2.329   2.236  10.039  0.2980 -1.3441 -2.3893
 1478SOL    HW215894   2.223   2.341  10.063 -1.2454  0.6731 -0.6906
 1479SOL     OW15895   3.105   4.717  12.268  0.0966 -0.6268 -0.0399
 1479SOL    HW115896   3.019   0.037  12.285  0.6623 -0.3426  2.1843
 1479SOL    HW215897   3.100   4.695  12.175  0.7555 -1.7774  0.2025
 1480SOL     OW15898   4.124   2.519   7.951 -0.2660  0.1741 -0.5052
 1480SOL    HW115899   4.193   2.505   8.015 -1.4354  2.1777  1.1604
 1480SOL    HW215900   4.075   2.592   7.988  0.2470  0.0892  0.3159
 1481SOL     OW15901   1.200   1.113   5.713 -0.2959 -0.0187 -0.5174
 1481SOL    HW115902   1.280   1.108   5.765 -0.7045  0.5826  0.1697
 1481SOL    HW215903   1.239   1.095   5.628 -1.3574  2.6889 -1.6030
 1482SOL     OW15904   3.499   0.849  10.593 -0.1596  0.0882  0.1764
 1482SOL    HW115905   3.570   0.800  10.634 -0.4617 -1.0129 -0.6139
 1482SOL    HW215906   3.511   0.940  10.620  1.3001  0.3461 -1.3557
 1483SOL     OW15907   2.224   3.909   3.951 -0.2192 -0.0252  0.7882
 1483SOL    HW115908   2.298   3.915   3.892 -1.1892 -0.2738 -0.4532
 1483SOL    HW215909   2.155   3.856   3.910 -0.3197  1.2777 -0.7474
 1484SOL     OW15910   2.192   0.567   1.233 -0.4347  0.3164  0.1027
 1484SOL    HW115911   2.182   0.565   1.138 -1.6851  2.1278  0.2027
 1484SOL    HW215912   2.101   0.564   1.262 -0.9074 -0.0379 -1.4375
 1485SOL     OW15913   3.057   1.525   1.754 -0.0531 -0.5509  0.2483
 1485SOL    HW115914   3.047   1.555   1.844 -1.0311  0.4649 -0.2033
 1485SOL    HW215915   2.965   1.507   1.733 -0.2080 -1.9474  2.2042
 1486SOL     OW15916   1.413   0.970   9.287 -0.3181 -0.3400  0.3245
 1486SOL    HW115917   1.442   0.945   9.374  1.4776  0.5991 -0.0020
 1486SOL    HW215918   1.486   0.936   9.235 -1.2482  0.7662 -1.7054
 1487SOL     OW15919   2.461   2.236  13.570  0.0976 -0.3446  0.3485
 1487SOL    HW115920   2.485   2.189  13.490  0.9318 -2.7964  2.0617
 1487SOL    HW215921   2.523   2.308  13.559 -1.5504  0.6042 -2.9150
 1488SOL     OW15922   3.991   0.296   6.378 -0.1064  0.1248  0.4793
 1488SOL    HW115923   3.897   0.287   6.358  0.1969 -0.2867 -0.7701
 1488SOL    HW215924   3.996   0.391   6.382 -0.6479  0.2606 -1.7193
 1489SOL     OW15925   0.503   0.868   1.501  0.0240  0.0183 -0.2128
 1489SOL    HW115926   0.493   0.963   1.495 -0.4449 -0.0844 -1.1047
 1489SOL    HW215927   0.557   0.853   1.579 -2.5724 -0.5256  1.4909
 1490SOL     OW15928   0.969   1.891   9.577  0.0676 -0.1053  0.0294
 1490SOL    HW115929   0.964   1.973   9.627 -0.7525  1.4722 -2.6718
 1490SOL    HW215930   1.035   1.910   9.510 -1.1385  0.0724 -1.1059
 1491SOL     OW15931   1.342   3.572   6.814 -0.0033  0.2160  0.4326
 1491SOL    HW115932   1.272   3.621   6.771 -0.2483 -0.8853 -0.4321
 1491SOL    HW215933   1.358   3.627   6.890  2.6795 -1.4002  0.9962
 1492SOL     OW15934   4.189   1.307   9.849 -0.2650 -0.7009 -0.7706
 1492SOL    HW115935   4.112   1.253   9.830 -0.6116 -0.5745  0.3108
 1492SOL    HW215936   4.259   1.242   9.855  1.3645  1.1105 -0.5499
 1493SOL     OW15937   2.148   3.246   1.921 -0.0531  0.2923 -0.0106
 1493SOL    HW115938   2.190   3.161   1.925 -1.1396 -0.2288  0.5522
 1493SOL    HW215939   2.189   3.278   1.841 -0.0569 -0.1596 -0.1904
 1494SOL     OW15940   3.703   3.777   2.003 -0.1666 -0.1240 -0.4065
 1494SOL    HW115941   3.754   3.697   1.999  1.5915  0.9899  0.0624
 1494SOL    HW215942   3.675   3.782   1.912  0.2590  0.4067 -0.5076
 1495SOL     OW15943   0.590   2.493   5.859  0.0683 -0.0865 -0.8032
 1495SOL    HW115944   0.500   2.463   5.871 -0.0430  0.5556 -0.0847
 1495SOL    HW215945   0.625   2.483   5.947 -1.9465 -1.4076 -0.1357
 1496SOL     OW15946   1.281   3.912  12.759  0.3653  0.5415 -0.2537
 1496SOL    HW115947   1.238   3.944  12.839 -0.0994 -2.0026  0.4935
 1496SOL    HW215948   1.374   3.911  12.781  0.1319 -0.5593  0.6652
 1497SOL     OW15949   4.196   2.817   7.717  0.0105 -0.1139 -0.8101
 1497SOL    HW115950   4.184   2.733   7.762 -1.7367  0.7461  0.3071
 1497SOL    HW215951   4.196   2.870   7.796 -2.4520  0.1089 -0.9678
 1498SOL     OW15952   1.968   1.276  12.062 -0.8711 -0.7642  0.0913
 1498SOL    HW115953   1.875   1.252  12.066 -0.7407 -1.1872  0.7052
 1498SOL    HW215954   2.007   1.189  12.055 -0.2206 -0.3382 -1.4282
 1499SOL     OW15955   1.514   2.561   3.267 -0.1521  0.4380 -0.5861
 1499SOL    HW115956   1.479   2.639   3.225 -2.0426 -0.5121 -0.7619
 1499SOL    HW215957   1.500   2.494   3.201 -0.4889 -0.9785  0.9020
 1500SOL     OW15958   2.923   0.804   2.719  0.6987 -0.1391  0.0550
 1500SOL    HW115959   2.907   0.898   2.709  0.8847 -0.2747 -1.5740
 1500SOL    HW215960   2.844   0.776   2.764 -0.1645 -0.6340 -1.7352
 1501SOL     OW15961   3.374   0.871   2.077  0.5784  0.2242 -0.0808
 1501SOL    HW115962   3.441   0.889   2.011  1.3137 -0.6396  0.4248
 1501SOL    HW215963   3.399   0.782   2.102  1.7996  1.2755  2.4311
 1502SOL     OW15964   0.016   3.649   3.685 -0.3227  0.0938  0.4544
 1502SOL    HW115965   4.650   3.638   3.723 -0.9551  0.6791 -0.8248
 1502SOL    HW215966   4.718   3.599   3.605  2.1921  1.9408 -1.3043
 1503SOL     OW15967   4.497   0.940   4.661 -0.5427 -0.0199 -0.6552
 1503SOL    HW115968   4.535   0.878   4.723  0.5274 -1.6466 -2.9516
 1503SOL    HW215969   4.406   0.912   4.651 -0.2817 -0.7665 -0.9979
 1504SOL     OW15970   3.186   2.276  16.918 -0.2877  0.2594  0.2865
 1504SOL    HW115971   3.127   2.348  16.896 -2.4582 -1.0249  1.8414
 1504SOL    HW215972   3.135   2.204  16.882  0.2903  0.0079 -0.0337
 1505SOL     OW15973   2.480   4.476  17.481  0.4462 -0.0528 -0.2250
 1505SOL    HW115974   2.488   4.561  17.525 -1.2653  0.3103 -0.6013
 1505SOL    HW215975   2.569   4.441  17.476  0.2083 -0.7184  0.2215
 1506SOL     OW15976   3.251   3.640  12.409 -0.3262  0.1620  0.3112
 1506SOL    HW115977   3.275   3.719  12.360 -0.2371  0.1831  0.3880
 1506SOL    HW215978   3.328   3.638  12.466 -0.6303  0.8184  0.7466
 1507SOL     OW15979   0.940   1.770   8.841 -0.2137  0.2585  0.4758
 1507SOL    HW115980   0.854   1.769   8.800  0.9702 -0.4606 -2.0206
 1507SOL    HW215981   0.977   1.685   8.817 -1.9846  0.0416 -1.5269
 1508SOL     OW15982   2.892   1.725  12.038 -0.2078 -0.4316  0.9547
 1508SOL    HW115983   2.928   1.703  11.952 -0.2379  0.9391  0.5992
 1508SOL    HW215984   2.880   1.819  12.030 -0.1011 -0.6307 -1.5468
 1509SOL     OW15985   3.495   3.112   4.516 -0.2827 -0.4688  0.1781
 1509SOL    HW115986   3.545   3.192   4.534  0.3321 -0.7935 -0.0915
 1509SOL    HW215987   3.424   3.139   4.457  0.2062 -1.5743 -0.8961
 1510SOL     OW15988   1.020   2.476  10.908  0.4028 -0.5952  0.2491
 1510SOL    HW115989   1.018   2.455  11.001  0.9562  3.2591  1.1110
 1510SOL    HW215990   1.105   2.441  10.883 -0.6051 -1.9166 -1.3540
 1511SOL     OW15991   1.382   4.256   7.861 -0.1540  0.0284 -0.2464
 1511SOL    HW115992   1.421   4.315   7.925  1.8686 -2.4465  0.7947
 1511SOL    HW215993   1.323   4.314   7.812 -2.1090 -0.4030  1.6167
 1512SOL     OW15994   1.796   3.985  12.450 -0.0606 -0.1078 -0.7219
 1512SOL    HW115995   1.740   4.046  12.499  0.4125 -0.0310 -0.2853
 1512SOL    HW215996   1.794   3.906  12.505  0.6857  0.7137  0.4755
 1513SOL     OW15997   0.677   2.271  10.574 -0.2391  0.0111 -0.3063
 1513SOL    HW115998   0.704   2.238  10.659  0.5300  1.2823 -0.0464
 1513SOL    HW215999   0.753   2.324  10.549 -1.4628  1.8428 -0.1166
 1514SOL     OW16000   4.431   0.527   2.958 -0.0066  0.5505 -0.0808
 1514SOL    HW116001   4.366   0.463   2.929  1.2947 -0.1040 -1.5984
 1514SOL    HW216002   4.460   0.485   3.039  2.2687  0.3992 -0.9887
 1515SOL     OW16003   4.322   4.073   2.048 -0.0751  0.2770  0.4265
 1515SOL    HW116004   4.329   4.130   2.124  1.1609 -0.1865  0.6575
 1515SOL    HW216005   4.250   4.012   2.065  0.6751 -0.6002  0.4607
 1516SOL     OW16006   4.589   2.660  15.952  0.4819 -0.0857 -0.3221
 1516SOL    HW116007   4.497   2.639  15.965 -0.3079  3.6408  0.0544
 1516SOL    HW216008   4.624   2.594  16.011  1.1850 -1.6424 -2.4658
 1517SOL     OW16009   3.150   3.187   4.507 -0.3842 -0.1757 -0.0705
 1517SOL    HW116010   3.194   3.118   4.556 -0.3186  0.8091  1.2565
 1517SOL    HW216011   3.209   3.260   4.529 -0.0062 -0.2148 -0.9841
 1518SOL     OW16012   0.984   4.510   6.527 -0.0346  0.9026  0.0780
 1518SOL    HW116013   1.009   4.427   6.568  0.0121  1.9610  2.1882
 1518SOL    HW216014   0.942   4.490   6.444  0.4574 -0.1451  0.0811
 1519SOL     OW16015   3.641   0.887  12.349  0.1915  0.0407 -0.1005
 1519SOL    HW116016   3.624   0.980  12.335 -0.3080  0.2160  1.7064
 1519SOL    HW216017   3.708   0.865  12.285  0.2991 -1.1528  0.4126
 1520SOL     OW16018   1.609   2.683  12.858  0.0844 -0.1018  0.3320
 1520SOL    HW116019   1.578   2.613  12.915  1.5809 -1.5304 -0.5942
 1520SOL    HW216020   1.688   2.646  12.818  0.3257 -0.7551  1.3999
 1521SOL     OW16021   1.775   2.317  15.128  0.1143 -0.8548 -0.3111
 1521SOL    HW116022   1.680   2.323  15.125  0.2684  0.6283 -2.2569
 1521SOL    HW216023   1.797   2.335  15.036  2.6502 -0.3670  0.3817
 1522SOL     OW16024   4.243   1.489   6.583 -0.2683 -0.1114  0.5179
 1522SOL    HW116025   4.213   1.407   6.543 -0.4694  0.6228 -0.8375
 1522SOL    HW216026   4.323   1.455   6.622  0.5857  0.2396 -0.9352
 1523SOL     OW16027   1.655   4.468  14.874  0.0888  0.0257  0.1133
 1523SOL    HW116028   1.613   4.549  14.844 -1.6563 -1.1031 -0.5254
 1523SOL    HW216029   1.747   4.481  14.853 -0.1350 -0.2866 -1.0750
 1524SOL     OW16030   3.058   4.183   9.692  0.2417  0.5228  0.0755
 1524SOL    HW116031   3.132   4.133   9.658  0.8412  2.2798 -1.2531
 1524SOL    HW216032   2.992   4.116   9.707  1.0152 -0.0896  0.7089
 1525SOL     OW16033   2.588   1.516   3.185  0.0692 -0.4265  0.7914
 1525SOL    HW116034   2.501   1.487   3.158  0.9573 -0.8020 -1.6633
 1525SOL    HW216035   2.591   1.510   3.281 -0.7502 -0.8325  0.7980
 1526SOL     OW16036   4.658   3.890   7.050 -0.0474  0.5424 -0.0524
 1526SOL    HW116037   4.687   3.973   7.010 -0.2894  0.4524 -0.4148
 1526SOL    HW216038   0.015   3.851   7.090  0.3533  1.7763  0.3796
 1527SOL     OW16039   3.074   0.560   7.041  0.8121  0.9546  0.2332
 1527SOL    HW116040   3.107   0.473   7.067 -2.4952 -0.5115 -0.4859
 1527SOL    HW216041   3.032   0.583   7.124  0.0529  1.9443 -0.4266
 1528SOL     OW16042   3.498   1.041  14.802  0.2972 -0.3581  0.5746
 1528SOL    HW116043   3.447   1.030  14.721 -0.3186  0.9824  0.7849
 1528SOL    HW216044   3.436   1.005  14.864  0.9937 -0.7396  1.0443
 1529SOL     OW16045   4.574   0.496   2.059  0.0401 -0.2563 -0.1731
 1529SOL    HW116046   4.570   0.467   2.150  2.2294  0.5818  0.1821
 1529SOL    HW216047   4.565   0.591   2.067  1.8562 -0.2543  1.8232
 1530SOL     OW16048   0.362   2.612   0.971 -0.3202 -0.0644  0.1221
 1530SOL    HW116049   0.293   2.672   0.998  1.5422  1.2152  2.0346
 1530SOL    HW216050   0.402   2.579   1.051  3.2496 -0.1199 -1.6593
 1531SOL     OW16051   2.188   2.181  11.921  0.2028 -0.1029  0.1679
 1531SOL    HW116052   2.191   2.098  11.872  3.6187  0.6605 -0.9392
 1531SOL    HW216053   2.158   2.146  12.004 -1.2472  1.3527  0.2627
 1532SOL     OW16054   1.807   1.518  15.282  0.4701  0.0204 -0.9452
 1532SOL    HW116055   1.868   1.476  15.343  0.7628  0.9205 -0.6290
 1532SOL    HW216056   1.801   1.445  15.220  0.8360 -2.1194  1.4984
 1533SOL     OW16057   1.695   2.483   7.185  0.0473 -0.1381  0.1292
 1533SOL    HW116058   1.679   2.575   7.207 -1.6043 -0.0172 -1.6197
 1533SOL    HW216059   1.755   2.496   7.111 -0.1178  2.8431  0.5114
 1534SOL     OW16060   0.351   3.698  13.625  0.1253  0.3839  0.1096
 1534SOL    HW116061   0.426   3.696  13.685 -1.2686 -0.2051  1.8160
 1534SOL    HW216062   0.290   3.760  13.666 -0.6016  1.0762 -2.0105
 1535SOL     OW16063   3.862   0.905   3.082 -0.5407  0.0842 -0.0099
 1535SOL    HW116064   3.955   0.923   3.098 -0.7589  1.7190 -0.5058
 1535SOL    HW216065   3.824   0.991   3.101 -0.0000  0.3372 -0.0534
 1536SOL     OW16066   3.329   4.568   2.521 -0.2301 -0.1560 -0.3420
 1536SOL    HW116067   3.322   4.577   2.426 -2.8304  0.9018 -0.0543
 1536SOL    HW216068   3.242   4.591   2.553 -0.9432 -0.6536 -1.9775
 1537SOL     OW16069   3.567   1.007   3.649  0.5467 -0.2077 -0.0086
 1537SOL    HW116070   3.624   0.930   3.654 -2.8466 -2.8770 -2.8150
 1537SOL    HW216071   3.507   0.978   3.581  0.7201  1.4120 -0.8451
 1538SOL     OW16072   0.949   3.478  15.553  0.1052  0.1305 -0.0159
 1538SOL    HW116073   1.004   3.544  15.510 -1.7554  2.1920  0.7811
 1538SOL    HW216074   0.878   3.528  15.591 -0.8391 -0.1206 -1.4338
 1539SOL     OW16075   3.251   3.086   7.439  0.2586 -0.3939  0.0283
 1539SOL    HW116076   3.247   3.049   7.527  1.1331  2.3801  1.2440
 1539SOL    HW216077   3.188   3.157   7.453  0.5213 -0.1405 -0.0861
 1540SOL     OW16078   4.598   0.424   5.038  0.0627 -0.0834 -0.0914
 1540SOL    HW116079   4.679   0.403   5.084  0.4511 -0.4539 -0.9309
 1540SOL    HW216080   4.561   0.503   5.077  2.8572 -0.0556  2.4593
 1541SOL     OW16081   2.326   2.480  10.937  0.5040  0.8244 -0.0864
 1541SOL    HW116082   2.405   2.528  10.913  1.1436 -1.1030 -1.7856
 1541SOL    HW216083   2.289   2.450  10.853  3.3639 -0.3931 -0.9146
 1542SOL     OW16084   3.970   0.563  13.910 -0.0594 -0.1311 -0.6278
 1542SOL    HW116085   4.037   0.587  13.974 -0.7970  1.1198 -0.3419
 1542SOL    HW216086   3.983   0.468  13.922  1.6719  0.5089  2.5950
 1543SOL     OW16087   0.449   2.304   2.905 -0.1946 -0.1003 -0.0809
 1543SOL    HW116088   0.433   2.317   2.998 -3.6603 -0.5746 -0.5834
 1543SOL    HW216089   0.543   2.288   2.900 -0.2112 -0.3153  0.2737
 1544SOL     OW16090   2.283   1.653   3.501  0.1839  0.3810  0.4449
 1544SOL    HW116091   2.238   1.569   3.511 -0.0518  0.4316 -0.1315
 1544SOL    HW216092   2.224   1.698   3.440 -0.6625 -1.0920  0.1773
 1545SOL     OW16093   0.280   2.616   6.008  0.1160  0.6202  0.0196
 1545SOL    HW116094   0.230   2.659   5.939  0.1357  0.9414  0.2054
 1545SOL    HW216095   0.224   2.639   6.082  0.8280 -2.1263  1.4112
 1546SOL     OW16096   1.353   0.168   1.735 -0.2538  0.1848 -0.4674
 1546SOL    HW116097   1.277   0.120   1.767 -0.3831 -0.3195 -1.5206
 1546SOL    HW216098   1.326   0.168   1.643 -0.3688 -1.7331 -0.4295
 1547SOL     OW16099   4.410   3.568   0.407  0.2014 -0.5404 -0.0904
 1547SOL    HW116100   4.471   3.626   0.362 -0.5272  1.1657  1.1129
 1547SOL    HW216101   4.343   3.552   0.340 -0.9591  0.1156  0.9036
 1548SOL     OW16102   4.224   0.336  14.751 -0.6562 -0.1676 -0.7479
 1548SOL    HW116103   4.286   0.270  14.782  0.0789  1.2321  0.7734
 1548SOL    HW216104   4.239   0.346  14.657 -0.6432 -0.6693 -0.8004
 1549SOL     OW16105   0.474   3.664  11.830  0.3611  0.0385 -0.4385
 1549SOL    HW116106   0.433   3.587  11.869 -0.5875 -0.3078 -2.0875
 1549SOL    HW216107   0.482   3.719  11.907 -2.7323  0.6882 -0.5638
 1550SOL     OW16108   4.550   3.489   4.971  0.2197 -0.2080 -0.2922
 1550SOL    HW116109   4.466   3.526   4.944  0.2703 -2.0751 -3.0865
 1550SOL    HW216110   4.608   3.548   4.922  2.8185 -2.3090  0.2662
 1551SOL     OW16111   2.309   0.911   7.080 -0.1296 -0.2374 -0.4361
 1551SOL    HW116112   2.324   0.882   6.990  0.9868  0.5293 -0.5080
 1551SOL    HW216113   2.399   0.927   7.109 -1.3240  1.8479  2.2071
 1552SOL     OW16114   2.594   1.588  13.127 -0.1897 -0.5176 -0.0661
 1552SOL    HW116115   2.605   1.582  13.222  2.7077  2.1030 -0.2394
 1552SOL    HW216116   2.596   1.497  13.097  0.7562 -0.0123 -1.5410
 1553SOL     OW16117   3.286   2.568   3.355 -0.0593  0.0988 -0.4153
 1553SOL    HW116118   3.355   2.610   3.407 -0.3783  1.6660 -1.2586
 1553SOL    HW216119   3.289   2.479   3.390 -0.0071  0.3935  0.3364
 1554SOL     OW16120   3.925   1.023  16.641  0.5233 -0.5999 -0.0463
 1554SOL    HW116121   3.871   1.052  16.567 -0.9940 -1.9326  0.5273
 1554SOL    HW216122   3.985   0.968  16.591 -0.7089 -0.7576 -1.3483
 1555SOL     OW16123   0.419   2.383  15.689 -0.5748 -0.3288  0.2388
 1555SOL    HW116124   0.444   2.320  15.621  0.8145  2.2190 -1.6285
 1555SOL    HW216125   0.375   2.334  15.758 -0.9784 -0.6022 -0.2133
 1556SOL     OW16126   4.116   1.150   9.070 -0.0016 -0.4052 -0.6709
 1556SOL    HW116127   4.158   1.209   9.007 -2.3907  0.9450 -0.9700
 1556SOL    HW216128   4.190   1.142   9.131  0.7859 -2.7077 -1.9207
 1557SOL     OW16129   2.710   1.598   8.791 -0.4217  0.2941 -0.3235
 1557SOL    HW116130   2.675   1.598   8.702 -0.1009 -2.0925 -0.4588
 1557SOL    HW216131   2.635   1.615   8.848 -0.1817 -2.2592  0.7585
 1558SOL     OW16132   0.677   4.635  16.258  0.2678  0.7945 -0.3868
 1558SOL    HW116133   0.589   4.656  16.230  0.5447  1.1791 -0.9706
 1558SOL    HW216134   0.656   4.571  16.326  0.4401  0.2886 -0.8038
 1559SOL     OW16135   2.877   2.790   9.682 -0.1054 -0.6501  0.1496
 1559SOL    HW116136   2.900   2.854   9.749 -1.0735 -0.8378  0.6608
 1559SOL    HW216137   2.785   2.811   9.663 -0.5713 -1.5934  1.3544
 1560SOL     OW16138   2.850   1.342   5.428 -0.1031 -0.0728 -0.2683
 1560SOL    HW116139   2.825   1.430   5.455 -0.0471 -0.1292 -0.0335
 1560SOL    HW216140   2.942   1.344   5.456 -0.0144  0.5276 -0.5927
 1561SOL     OW16141   1.092   3.636  14.691  0.3946  0.2137  1.0530
 1561SOL    HW116142   1.047   3.647  14.774  0.1674 -0.0306  0.9643
 1561SOL    HW216143   1.020   3.610  14.632  2.0883 -3.5737  0.6284
 1562SOL     OW16144   1.500   3.797   3.069  0.5316  0.0525  0.3960
 1562SOL    HW116145   1.456   3.859   3.127 -0.5769 -1.4332  1.1410
 1562SOL    HW216146   1.527   3.850   2.993 -3.6492  1.1134 -0.3215
 1563SOL     OW16147   1.957   0.303   3.431  0.3438  0.3593 -0.4581
 1563SOL    HW116148   2.002   0.280   3.349  0.2149 -4.7814  0.9154
 1563SOL    HW216149   1.938   0.221   3.476  0.2753  1.0441  0.7602
 1564SOL     OW16150   2.787   2.637  13.700 -0.7769 -0.6701  0.1207
 1564SOL    HW116151   2.745   2.555  13.674 -1.5023 -0.1638 -0.3036
 1564SOL    HW216152   2.820   2.665  13.614 -1.4076 -0.2713  0.0101
 1565SOL     OW16153   3.215   0.161   1.139 -0.8512  0.1461  0.1220
 1565SOL    HW116154   3.285   0.118   1.189  0.4346  0.1290 -1.7050
 1565SOL    HW216155   3.233   0.125   1.052  0.7175  1.6258 -0.1721
 1566SOL     OW16156   4.549   1.958  15.851  0.6038  0.0502  0.3891
 1566SOL    HW116157   4.542   1.868  15.882 -0.5415 -0.3092 -0.9173
 1566SOL    HW216158   4.593   1.948  15.766  1.2406  0.6483  0.6503
 1567SOL     OW16159   2.660   3.064   3.372  0.4106  0.1053  0.0916
 1567SOL    HW116160   2.664   3.059   3.468  2.3640 -1.7086 -0.0766
 1567SOL    HW216161   2.697   2.979   3.348  0.3802  0.1292 -0.0391
 1568SOL     OW16162   0.694   0.674   6.164  0.5416 -0.4014 -0.1996
 1568SOL    HW116163   0.790   0.680   6.164  0.3787  2.4111  0.8264
 1568SOL    HW216164   0.673   0.725   6.086 -2.1741 -2.2600 -0.6567
 1569SOL     OW16165   0.589   2.042   0.003  0.5700 -0.0984  0.1066
 1569SOL    HW116166   0.614   2.064   0.093  1.2805 -0.6261  0.0352
 1569SOL    HW216167   0.537   2.121  17.671  0.2752 -0.0971  0.9529
 1570SOL     OW16168   2.677   0.235   8.446  0.3854 -0.3688 -0.0828
 1570SOL    HW116169   2.772   0.244   8.439  0.3306  1.7931  2.0238
 1570SOL    HW216170   2.656   0.154   8.399  0.5132 -1.0879  1.0736
 1571SOL     OW16171   0.493   2.866  17.644  0.3648 -0.6695  0.3370
 1571SOL    HW116172   0.540   2.784  17.658  0.6087 -1.0984 -3.0996
 1571SOL    HW216173   0.447   2.866   0.042  2.0075  2.4149  1.2561
 1572SOL     OW16174   1.316   0.213  11.473  0.0629  0.0025  0.1556
 1572SOL    HW116175   1.310   0.127  11.514 -0.5482 -0.0619 -0.0713
 1572SOL    HW216176   1.248   0.213  11.405 -0.3145 -1.1975  0.5385
 1573SOL     OW16177   2.367   0.501   3.235 -0.0641  0.5482 -0.0132
 1573SOL    HW116178   2.390   0.514   3.327  0.2301 -1.5280  0.2078
 1573SOL    HW216179   2.454   0.462   3.224 -0.0943  1.2654 -2.9083
 1574SOL     OW16180   3.970   4.092   7.112  0.3245 -0.0561 -0.2705
 1574SOL    HW116181   4.039   4.106   7.176  1.2125  0.3378 -1.3042
 1574SOL    HW216182   3.902   4.151   7.145  1.0198 -0.0917  1.2233
 1575SOL     OW16183   0.257   0.133   8.757 -0.2508  0.6066 -0.4001
 1575SOL    HW116184   0.207   0.052   8.764 -2.0635  1.9799  2.4300
 1575SOL    HW216185   0.339   0.097   8.793 -0.5197  0.3609 -0.0348
 1576SOL     OW16186   2.089   0.487  12.310 -0.1255  0.0918 -0.7087
 1576SOL    HW116187   2.063   0.399  12.340  1.5482 -0.1753 -0.0335
 1576SOL    HW216188   2.087   0.532  12.394 -3.2088 -1.2899 -0.0510
 1577SOL     OW16189   3.915   0.509   9.148 -0.7817  0.0754  0.7388
 1577SOL    HW116190   3.890   0.598   9.123 -1.3026  0.4757  2.6992
 1577SOL    HW216191   3.904   0.476   9.059  0.3767 -0.9730  0.9778
 1578SOL     OW16192   2.985   2.768   7.336  0.0724 -0.6254  0.0430
 1578SOL    HW116193   2.930   2.837   7.372  1.4372  0.7556 -0.5390
 1578SOL    HW216194   2.921   2.717   7.287 -2.0649  0.4089  1.7838
 1579SOL     OW16195   0.791   0.278   5.587 -0.0313  0.3959 -0.2452
 1579SOL    HW116196   0.876   0.278   5.544  0.8770 -1.6606  1.5738
 1579SOL    HW216197   0.800   0.346   5.653  0.7474  0.9225 -0.9006
 1580SOL     OW16198   0.558   0.628   5.011  0.0925 -0.4666  0.0008
 1580SOL    HW116199   0.603   0.699   4.966 -0.2640 -0.2538 -0.0214
 1580SOL    HW216200   0.512   0.588   4.937 -0.2761  0.5358 -0.3041
 1581SOL     OW16201   2.182   0.918  15.546 -0.1950 -0.3477  0.6986
 1581SOL    HW116202   2.199   0.830  15.579  0.0987 -0.8556 -0.8370
 1581SOL    HW216203   2.244   0.962  15.604  0.1330 -2.8188  2.2140
 1582SOL     OW16204   1.494   4.521   7.625 -0.3718  0.5537 -0.5814
 1582SOL    HW116205   1.490   4.611   7.657  1.2202  0.8862 -1.3267
 1582SOL    HW216206   1.420   4.487   7.676  1.8676 -0.3254  2.0816
 1583SOL     OW16207   1.771   2.198  14.259 -0.0416  0.2477  0.2105
 1583SOL    HW116208   1.762   2.267  14.194 -0.0761 -0.1619 -0.2177
 1583SOL    HW216209   1.703   2.223  14.322 -1.0224  1.9596 -1.5410
 1584SOL     OW16210   3.195   1.693  15.470 -0.2838  0.2284 -0.3381
 1584SOL    HW116211   3.229   1.689  15.559 -0.0862 -2.2639 -0.5343
 1584SOL    HW216212   3.101   1.698  15.491 -0.7237  0.6356 -2.3622
 1585SOL     OW16213   1.105   2.404   7.245  0.1606  0.1683  0.2012
 1585SOL    HW116214   1.086   2.358   7.326  0.5825  0.9216  0.7274
 1585SOL    HW216215   1.035   2.468   7.233  0.4059  0.1724 -1.1772
 1586SOL     OW16216   0.438   3.870   4.337  0.1908  0.7520 -0.3365
 1586SOL    HW116217   0.389   3.788   4.330  1.8429 -0.1438 -1.5569
 1586SOL    HW216218   0.457   3.898   4.247 -0.8336  2.1073 -0.1252
 1587SOL     OW16219   3.133   2.040  11.592 -0.1119  0.6640 -0.4380
 1587SOL    HW116220   3.110   2.089  11.513 -0.3479  2.1767  0.5731
 1587SOL    HW216221   3.084   2.086  11.660  2.0585 -1.1253  2.3221
 1588SOL     OW16222   1.544   3.774   1.751  0.3314  0.9162  0.3841
 1588SOL    HW116223   1.448   3.774   1.753  0.3125 -0.4215 -0.2953
 1588SOL    HW216224   1.568   3.681   1.760 -0.2375  0.7231 -0.1181
 1589SOL     OW16225   2.037   2.461  11.677 -0.4017  0.0470 -0.6893
 1589SOL    HW116226   2.031   2.367  11.694 -1.8472  0.5671  1.7010
 1589SOL    HW216227   2.089   2.491  11.751  1.4816 -1.6510 -1.3043
 1590SOL     OW16228   2.455   3.585   3.730  0.2829  0.7833 -0.3299
 1590SOL    HW116229   2.392   3.536   3.783  0.2066 -0.2077 -1.3405
 1590SOL    HW216230   2.400   3.657   3.699 -1.3685 -0.5202 -0.4714
 1591SOL     OW16231   2.447   4.145   8.523 -0.6524 -0.1256  0.2102
 1591SOL    HW116232   2.390   4.071   8.542  0.5233 -1.3196 -0.9298
 1591SOL    HW216233   2.390   4.197   8.467 -0.5302  1.8438  1.9182
 1592SOL     OW16234   0.738   0.486   2.473 -0.4120 -0.4779 -0.4639
 1592SOL    HW116235   0.754   0.462   2.382 -2.0477 -0.0189 -0.8708
 1592SOL    HW216236   0.646   0.461   2.486  0.1319 -2.7404 -0.9331
 1593SOL     OW16237   0.743   2.913  12.003  0.5551  0.7151  0.1514
 1593SOL    HW116238   0.675   2.977  11.984  0.0029  0.3797  1.0018
 1593SOL    HW216239   0.780   2.897  11.916 -3.2872  3.5120 -2.0072
 1594SOL     OW16240   3.332   4.159   9.396 -0.0422 -0.0783  0.2392
 1594SOL    HW116241   3.263   4.223   9.411  0.4125  0.6356 -0.7067
 1594SOL    HW216242   3.293   4.081   9.435  0.2287 -0.0802  0.5061
 1595SOL     OW16243   1.806   3.740   6.651  0.3225  0.1073  0.5314
 1595SOL    HW116244   1.736   3.708   6.709 -1.4227  2.2053 -0.3944
 1595SOL    HW216245   1.855   3.660   6.636  0.0567  0.2808 -1.2859
 1596SOL     OW16246   0.321   4.121   3.932  0.5553 -0.0079 -0.3845
 1596SOL    HW116247   0.357   4.032   3.927 -1.1963 -0.7225 -0.2331
 1596SOL    HW216248   0.231   4.106   3.961  0.9366 -0.0905  0.7396
 1597SOL     OW16249   1.684   1.429   3.924 -0.3840 -0.6417 -0.2040
 1597SOL    HW116250   1.654   1.495   3.986  0.2208 -2.9274  2.5395
 1597SOL    HW216251   1.619   1.436   3.854 -0.3263 -0.8579 -0.2788
 1598SOL     OW16252   2.830   0.032   3.071 -0.1775  0.1012  0.4242
 1598SOL    HW116253   2.852   0.118   3.106  1.4333 -0.7734  1.5617
 1598SOL    HW216254   2.857   4.689   3.137 -0.0039  0.4529  0.6958
 1599SOL     OW16255   1.117   3.724   1.915  0.1877 -0.1519 -0.4276
 1599SOL    HW116256   1.039   3.767   1.883  0.5511  0.9755  0.2226
 1599SOL    HW216257   1.080   3.660   1.975 -0.4480 -0.4843 -1.1746
 1600SOL     OW16258   2.605   0.255   3.449 -0.5156  0.3814 -0.4103
 1600SOL    HW116259   2.613   0.301   3.365  1.1235  2.8406  1.1280
 1600SOL    HW216260   2.698   0.246   3.468 -0.4657  2.4420  0.2023
 1601SOL     OW16261   0.043   3.266   9.028 -0.2813 -0.3373  0.3482
 1601SOL    HW116262   0.003   3.187   9.063  0.9963 -0.5618  1.3020
 1601SOL    HW216263   0.083   3.300   9.108 -0.0693  1.2714 -0.4380
 1602SOL     OW16264   0.532   2.861  14.255  0.2986  0.0098 -0.3396
 1602SOL    HW116265   0.607   2.893  14.204  0.5930  1.1572  0.8187
 1602SOL    HW216266   0.508   2.947  14.289 -2.2112 -1.7477  2.3766
 1603SOL     OW16267   1.397   1.221   5.896  0.4430 -0.3827 -0.7540
 1603SOL    HW116268   1.390   1.316   5.898  1.0685 -0.3312 -1.1891
 1603SOL    HW216269   1.389   1.192   5.986 -1.0671 -2.0212 -1.4032
 1604SOL     OW16270   4.052   2.468   4.652  0.0619  0.2422 -0.2737
 1604SOL    HW116271   3.974   2.420   4.679  1.8522 -1.0802  2.6443
 1604SOL    HW216272   4.106   2.400   4.611 -0.3514 -0.1995 -0.0887
 1605SOL     OW16273   4.346   3.664   4.570  0.8092 -0.2426  0.1768
 1605SOL    HW116274   4.300   3.582   4.553  0.7893 -0.1917 -0.0096
 1605SOL    HW216275   4.275   3.709   4.616 -2.1084 -1.3617 -3.2742
 1606SOL     OW16276   0.067   0.947  16.897  0.2672 -0.1545 -0.1475
 1606SOL    HW116277   0.033   0.865  16.861  0.3715  0.1495 -0.9550
 1606SOL    HW216278   4.708   0.999  16.892  0.1136 -0.2346  1.4627
 1607SOL     OW16279   1.568   0.559   2.812 -0.1288  0.1089  0.1684
 1607SOL    HW116280   1.564   0.503   2.734 -0.8631 -1.1063  1.0783
 1607SOL    HW216281   1.657   0.593   2.809 -0.3971  0.7536 -0.5318
 1608SOL     OW16282   3.842   3.143  12.613 -0.1480  0.3556  0.4060
 1608SOL    HW116283   3.923   3.093  12.625 -1.0047 -1.5564 -1.7107
 1608SOL    HW216284   3.853   3.207  12.683 -1.1099  0.3586  0.5474
 1609SOL     OW16285   0.927   0.292  16.119 -0.1113  0.0515  0.2185
 1609SOL    HW116286   0.835   0.275  16.141  0.6717 -1.5015  2.2926
 1609SOL    HW216287   0.926   0.369  16.062  0.3388 -0.5604 -0.6078
 1610SOL     OW16288   4.671   1.937   1.851 -0.2641  0.0013  0.4302
 1610SOL    HW116289   4.665   1.875   1.923  1.9557 -1.1176 -0.3678
 1610SOL    HW216290   4.578   1.948   1.832 -0.4204 -0.8974  0.6841
 1611SOL     OW16291   2.842   2.584   6.081 -0.5863  0.5000 -0.0926
 1611SOL    HW116292   2.904   2.572   6.153 -0.4786  0.9986 -0.1001
 1611SOL    HW216293   2.891   2.553   6.005 -1.6004  1.9835 -1.3461
 1612SOL     OW16294   3.233   0.774   7.482 -0.2629  0.1815  0.2379
 1612SOL    HW116295   3.207   0.866   7.487  0.2320  0.2729  1.0737
 1612SOL    HW216296   3.320   0.781   7.444 -0.5775  1.0123 -0.3207
 1613SOL     OW16297   1.901   0.161   8.845  0.0977  0.4689  0.1376
 1613SOL    HW116298   1.929   0.072   8.866  0.9789  0.4455 -1.1607
 1613SOL    HW216299   1.810   0.157   8.872  0.1944 -3.8942 -0.2654
 1614SOL     OW16300   0.670   4.370   2.128  0.0691 -1.0126 -0.1519
 1614SOL    HW116301   0.583   4.341   2.103 -0.5218  1.0137 -0.4644
 1614SOL    HW216302   0.715   4.352   2.046 -0.2495 -1.9608 -0.1123
 1615SOL     OW16303   2.475   1.472   5.575  0.0412  0.2738  0.9795
 1615SOL    HW116304   2.386   1.488   5.542 -0.0277  0.3501  1.1976
 1615SOL    HW216305   2.524   1.540   5.529  1.7660 -1.3863  0.3837
 1616SOL     OW16306   4.600   2.357  16.371 -0.7935 -0.4500  0.6797
 1616SOL    HW116307   4.577   2.328  16.283  1.8431 -2.1366  0.5319
 1616SOL    HW216308   4.668   2.295  16.398 -0.6364 -0.3926  0.4171
 1617SOL     OW16309   3.129   2.045   6.031  0.1070 -0.1298  0.5711
 1617SOL    HW116310   3.045   2.088   6.043  0.3912  1.0178 -1.5210
 1617SOL    HW216311   3.124   2.035   5.936  0.3322 -0.2749  0.5737
 1618SOL     OW16312   1.154   3.196   3.261  0.1130 -0.0242  0.1714
 1618SOL    HW116313   1.232   3.140   3.259  0.5392  0.5660  0.6861
 1618SOL    HW216314   1.150   3.209   3.355 -0.3023 -3.1056  0.5973
 1619SOL     OW16315   3.268   4.047   8.094  0.2243 -0.2033  0.5160
 1619SOL    HW116316   3.178   4.018   8.078 -0.1200 -0.0685  2.2013
 1619SOL    HW216317   3.259   4.141   8.078 -0.2850 -0.0367  1.7579
 1620SOL     OW16318   1.085   3.230   2.910  0.1056  0.5205 -0.6295
 1620SOL    HW116319   1.153   3.162   2.916  0.3045  0.8731  0.9621
 1620SOL    HW216320   1.138   3.304   2.941  0.2273 -0.1458  0.7581
 1621SOL     OW16321   3.815   3.025   6.874  0.7465 -0.4513 -0.4681
 1621SOL    HW116322   3.887   3.080   6.905  1.3005 -1.4041 -0.0815
 1621SOL    HW216323   3.759   3.090   6.831  0.9564  1.2319  1.7930
 1622SOL     OW16324   3.622   1.730   2.191  0.2850  0.0450  0.3749
 1622SOL    HW116325   3.677   1.728   2.113  2.3674 -1.8089  1.8715
 1622SOL    HW216326   3.679   1.687   2.255 -0.1722 -1.3624 -0.1477
 1623SOL     OW16327   1.423   2.649   2.878  0.2433 -0.0653 -0.0235
 1623SOL    HW116328   1.437   2.591   2.803 -0.8858 -0.5502  0.1394
 1623SOL    HW216329   1.330   2.670   2.874  0.0273 -0.3503  4.1454
 1624SOL     OW16330   2.240   1.109   5.886  0.3253 -0.0349 -0.0426
 1624SOL    HW116331   2.328   1.076   5.903 -0.0990 -1.5652 -0.7416
 1624SOL    HW216332   2.254   1.125   5.793 -2.3144 -0.0707 -0.4576
 1625SOL     OW16333   3.473   0.183   4.232  0.1764  0.7105 -0.1213
 1625SOL    HW116334   3.471   0.094   4.197  0.1585 -0.0338  1.7863
 1625SOL    HW216335   3.418   0.235   4.172  2.1187  1.8319 -0.9198
 1626SOL     OW16336   0.449   2.069   6.119  0.0010 -0.7053  0.2049
 1626SOL    HW116337   0.467   1.980   6.149  2.0096 -0.5167 -0.4177
 1626SOL    HW216338   0.507   2.115   6.179  0.9318 -0.8056 -0.6149
 1627SOL     OW16339   2.098   0.312  11.047  0.1622 -0.6070 -0.1581
 1627SOL    HW116340   2.159   0.243  11.024 -0.1569 -0.9427 -0.0063
 1627SOL    HW216341   2.013   0.277  11.021  0.2216 -1.2501  0.5142
 1628SOL     OW16342   4.374   2.989   3.512 -0.1365  0.2868 -0.4728
 1628SOL    HW116343   4.464   3.017   3.498 -0.4889  1.5835 -0.2330
 1628SOL    HW216344   4.358   2.929   3.440 -0.1304 -1.2119  0.7714
 1629SOL     OW16345   1.513   0.215   6.774 -0.5681  0.6223  0.2829
 1629SOL    HW116346   1.457   0.195   6.699 -3.1165 -0.4767  2.4851
 1629SOL    HW216347   1.484   0.155   6.843  1.6615  1.0880  1.6253
 1630SOL     OW16348   0.591   1.024  17.271 -0.6270 -0.7428 -0.5300
 1630SOL    HW116349   0.593   0.929  17.260  0.3689 -0.6970 -0.7638
 1630SOL    HW216350   0.623   1.028  17.361 -1.8310  0.3973 -0.1409
 1631SOL     OW16351   2.882   0.515   3.643 -0.2948 -0.1701  0.2688
 1631SOL    HW116352   2.819   0.493   3.712 -0.6337  0.7786  0.2536
 1631SOL    HW216353   2.946   0.561   3.696 -0.6724  1.1077 -0.3836
 1632SOL     OW16354   3.484   4.653   5.728  0.0378 -0.1698  0.5065
 1632SOL    HW116355   3.468   4.682   5.818 -0.0725 -0.2072  0.4992
 1632SOL    HW216356   3.552   4.714   5.700 -0.0208  0.2126  1.1722
 1633SOL     OW16357   4.269   4.213   3.380 -0.1478 -0.0881  0.5994
 1633SOL    HW116358   4.319   4.133   3.395 -3.0297 -2.4616 -2.6489
 1633SOL    HW216359   4.280   4.259   3.463 -0.9741  1.3306 -0.0876
 1634SOL     OW16360   0.479   0.983   4.544 -0.0535 -0.6631 -0.1728
 1634SOL    HW116361   0.542   1.049   4.574  0.7973 -0.3754 -2.6521
 1634SOL    HW216362   0.439   1.032   4.472  1.0225 -1.3722 -1.2439
 1635SOL     OW16363   2.392   2.900  12.889 -0.0503  0.2559  0.3001
 1635SOL    HW116364   2.402   2.863  12.976  2.4589  0.5751  0.1608
 1635SOL    HW216365   2.299   2.924  12.889 -1.2634 -4.3174 -0.0521
 1636SOL     OW16366   3.446   2.372   4.588  0.3634  0.1026 -0.7993
 1636SOL    HW116367   3.386   2.304   4.556 -0.1973  0.2951 -0.1543
 1636SOL    HW216368   3.523   2.324   4.558  0.3030 -0.8850  0.6488
 1637SOL     OW16369   2.247   2.541  11.826  0.5797  0.1460  0.6915
 1637SOL    HW116370   2.251   2.591  11.745 -0.1304 -0.6836  0.1420
 1637SOL    HW216371   2.315   2.586  11.875 -0.7048  3.0004 -0.1845
 1638SOL     OW16372   3.989   3.122   4.492  0.3247  0.2055  0.4424
 1638SOL    HW116373   3.970   3.212   4.465 -0.0874 -0.1752 -0.5131
 1638SOL    HW216374   3.970   3.069   4.415  0.0043  0.2107  0.5199
 1639SOL     OW16375   3.982   1.468   7.403 -0.1255 -0.2899  0.2149
 1639SOL    HW116376   4.025   1.391   7.364 -0.2526  1.2999 -3.0481
 1639SOL    HW216377   4.061   1.512   7.435  0.4947 -0.3744 -1.1604
 1640SOL     OW16378   0.009   0.392  10.116 -0.2394  0.4120 -0.6250
 1640SOL    HW116379   0.090   0.388  10.167 -0.3660  1.3013 -0.3444
 1640SOL    HW216380   0.012   0.309  10.069 -0.8493  0.0390 -0.0107
 1641SOL     OW16381   1.297   2.242  15.015 -0.1063 -0.1171 -0.1087
 1641SOL    HW116382   1.271   2.259  14.924  0.6526 -1.6455 -0.6156
 1641SOL    HW216383   1.215   2.217  15.058 -0.0786  0.9041  0.5266
 1642SOL     OW16384   3.647   2.327   2.862  0.0728 -0.4139 -0.2591
 1642SOL    HW116385   3.737   2.357   2.875  0.6136 -1.4028 -1.7546
 1642SOL    HW216386   3.633   2.269   2.936  0.2257 -1.0818 -0.7593
 1643SOL     OW16387   1.039   2.065   8.553 -0.4045  0.2348 -0.4869
 1643SOL    HW116388   1.125   2.036   8.582 -0.5498 -1.2748 -1.5291
 1643SOL    HW216389   1.039   2.152   8.594 -0.2509 -0.6207  1.3021
 1644SOL     OW16390   0.895   2.680   6.668  0.2176 -0.1784  0.1807
 1644SOL    HW116391   0.844   2.612   6.712 -2.1874  1.0459 -0.7159
 1644SOL    HW216392   0.828   2.749   6.661  1.0550  0.5940 -0.2327
 1645SOL     OW16393   0.371   4.630   4.565 -0.0193  0.1582 -0.4547
 1645SOL    HW116394   0.416   4.551   4.593 -0.7979  0.2128  0.9508
 1645SOL    HW216395   0.357   4.680   4.646  0.8989  1.3196 -1.0174
 1646SOL     OW16396   3.040   1.958   4.758 -0.3065 -0.0259 -0.3806
 1646SOL    HW116397   2.963   1.906   4.779 -2.1058  2.6600 -0.3395
 1646SOL    HW216398   3.023   2.046   4.791  3.0738  1.5285 -2.7951
 1647SOL     OW16399   3.403   4.532   9.686 -0.0665 -0.1560 -0.6919
 1647SOL    HW116400   3.427   4.615   9.644  0.5982  1.6776  3.3248
 1647SOL    HW216401   3.315   4.508   9.655 -1.0347  1.3079  0.9342
 1648SOL     OW16402   3.210   2.703   7.465  0.1877  0.4982  0.6601
 1648SOL    HW116403   3.131   2.724   7.416  0.1722  1.6296  1.1669
 1648SOL    HW216404   3.267   2.673   7.394  0.4025  0.8962  0.6601
 1649SOL     OW16405   0.594   0.948   8.235  0.4808 -0.1802  0.5365
 1649SOL    HW116406   0.538   1.025   8.240 -0.5154 -0.9227  0.8650
 1649SOL    HW216407   0.535   0.885   8.275  2.2578 -1.9844  0.3546
 1650SOL     OW16408   2.070   4.589  15.752  0.2138 -0.3429  0.2442
 1650SOL    HW116409   1.992   4.595  15.806 -1.5694 -1.2921 -2.2224
 1650SOL    HW216410   2.061   4.505  15.708  2.0623  0.0783 -0.9515
 1651SOL     OW16411   3.871   2.180  15.040 -0.5019 -0.3695 -0.5055
 1651SOL    HW116412   3.854   2.101  15.091 -0.4142 -0.9292 -1.3383
 1651SOL    HW216413   3.956   2.193  15.083  0.1404 -0.0682 -1.8511
 1652SOL     OW16414   1.283   0.354   4.253 -0.1744 -0.1569  0.2615
 1652SOL    HW116415   1.301   0.281   4.312 -0.0654 -0.4909 -0.1864
 1652SOL    HW216416   1.369   0.368   4.215 -0.1258 -1.7260 -0.1990
 1653SOL     OW16417   2.244   4.404   7.469 -0.0513  0.1854 -0.9740
 1653SOL    HW116418   2.195   4.349   7.530  0.6189  1.6648  0.9200
 1653SOL    HW216419   2.269   4.475   7.529 -0.5221 -0.7675  0.3341
 1654SOL     OW16420   3.769   0.424  10.175 -0.3905  0.1121 -0.5410
 1654SOL    HW116421   3.730   0.444  10.090 -0.0599  3.1192 -0.0051
 1654SOL    HW216422   3.840   0.365  10.150 -0.6818 -1.3291  2.0565
 1655SOL     OW16423   2.284   2.469  16.967  0.2376  0.1379 -0.6474
 1655SOL    HW116424   2.304   2.430  16.882  0.4795 -1.6023  0.2146
 1655SOL    HW216425   2.362   2.524  16.970  0.7947 -0.7336  1.0188
 1656SOL     OW16426   2.738   1.737   7.016  0.0011  0.3844 -0.0963
 1656SOL    HW116427   2.803   1.774   7.075 -0.8182  0.0620  1.0167
 1656SOL    HW216428   2.716   1.653   7.057 -0.6532  0.4269 -0.3480
 1657SOL     OW16429   1.933   4.035   3.078  0.4286 -0.0389  0.8133
 1657SOL    HW116430   1.956   3.948   3.047 -0.0504  0.4945 -1.0029
 1657SOL    HW216431   1.896   4.076   3.000  0.1186 -3.2429 -0.6764
 1658SOL     OW16432   0.696   3.149   3.279 -0.0113 -0.3105 -0.4473
 1658SOL    HW116433   0.758   3.111   3.217 -0.5578 -0.4176 -0.9350
 1658SOL    HW216434   0.739   3.229   3.308  0.9542 -1.1296  0.3568
 1659SOL     OW16435   1.247   3.991   9.856  0.1979  0.2164  0.0734
 1659SOL    HW116436   1.262   3.897   9.864 -1.3241  0.1577  2.2133
 1659SOL    HW216437   1.245   4.016   9.948  0.2231 -1.4940  0.5339
 1660SOL     OW16438   4.658   2.820  11.321  0.3926  0.7090  0.5028
 1660SOL    HW116439   4.614   2.904  11.308  1.4765  1.3044  0.7130
 1660SOL    HW216440   4.607   2.795  11.398 -1.0551 -2.6621 -1.5164
 1661SOL     OW16441   1.602   4.595  13.844 -0.0328 -0.6491  0.0190
 1661SOL    HW116442   1.660   4.603  13.768 -0.1535  0.1876  0.0116
 1661SOL    HW216443   1.658   4.621  13.917  2.7369  1.0950 -2.7107
 1662SOL     OW16444   4.497   3.801   2.633 -0.0382  0.6463 -0.2980
 1662SOL    HW116445   4.489   3.738   2.705  2.0111  0.3610 -0.3198
 1662SOL    HW216446   4.522   3.740   2.563  1.3420  1.7948 -0.8168
 1663SOL     OW16447   2.810   1.222   7.421  0.0925  0.4278  0.4106
 1663SOL    HW116448   2.824   1.130   7.445 -3.1308 -0.8835 -2.6173
 1663SOL    HW216449   2.802   1.262   7.507 -1.6418 -0.5502  0.7161
 1664SOL     OW16450   1.694   3.873   0.009  0.1088  0.3336 -0.2080
 1664SOL    HW116451   1.704   3.895   0.102  2.3052 -1.8241  0.0608
 1664SOL    HW216452   1.679   3.778   0.007  0.1471  0.3404 -0.7601
 1665SOL     OW16453   0.706   1.903   4.635 -0.0428  0.5856  0.3559
 1665SOL    HW116454   0.675   1.977   4.583  1.8058 -0.1726 -1.8451
 1665SOL    HW216455   0.628   1.872   4.680 -0.2741  1.7448  0.7433
 1666SOL     OW16456   2.849   3.915  11.082  0.3098 -0.8885 -0.2150
 1666SOL    HW116457   2.780   3.931  11.018 -0.6947  0.8187  1.3098
 1666SOL    HW216458   2.915   3.873  11.026  0.9433  2.2795 -1.8034
 1667SOL     OW16459   0.848   1.051   1.464  0.3266 -0.0525  0.1494
 1667SOL    HW116460   0.766   1.079   1.424 -0.1118 -0.1815  0.9382
 1667SOL    HW216461   0.832   1.104   1.543 -0.9950  0.9471 -0.7853
 1668SOL     OW16462   1.880   4.329   2.911 -0.3837 -0.2572  0.1447
 1668SOL    HW116463   1.888   4.345   3.005  2.1361 -2.9490  0.3930
 1668SOL    HW216464   1.804   4.380   2.883 -1.8818 -2.7245 -0.2517
 1669SOL     OW16465   3.054   2.847   9.478 -0.6900 -0.0332 -0.0223
 1669SOL    HW116466   2.993   2.821   9.547 -1.7094 -1.1349 -1.3516
 1669SOL    HW216467   3.017   2.798   9.404 -1.4962  0.0406  0.3314
 1670SOL     OW16468   1.764   3.774   5.190 -0.4511  0.5071  0.0263
 1670SOL    HW116469   1.811   3.693   5.209  0.5041  0.8295 -0.9401
 1670SOL    HW216470   1.683   3.757   5.239 -0.7638 -0.4644 -0.8326
 1671SOL     OW16471   1.655   0.474  15.768  0.0791  0.3255 -0.2131
 1671SOL    HW116472   1.648   0.567  15.746  2.7868  0.1495 -1.7970
 1671SOL    HW216473   1.624   0.431  15.689 -0.3416 -0.7893  0.5633
 1672SOL     OW16474   4.702   3.137   8.776  0.1365  0.1518 -0.1383
 1672SOL    HW116475   0.069   3.099   8.766  1.1181  2.2588  0.5957
 1672SOL    HW216476   4.720   3.186   8.856  2.9923 -2.1431  0.6308
 1673SOL     OW16477   4.160   0.302  17.279 -0.6987 -0.7823 -0.5125
 1673SOL    HW116478   4.080   0.298  17.226 -0.6128  1.9482 -0.8819
 1673SOL    HW216479   4.200   0.389  17.272  1.0299 -1.5957 -0.8436
 1674SOL     OW16480   3.308   1.652  14.614  0.3336  0.1086  0.2945
 1674SOL    HW116481   3.330   1.715  14.683  1.3957 -0.3040  0.3370
 1674SOL    HW216482   3.213   1.651  14.600  0.5125  1.1254 -0.9841
 1675SOL     OW16483   2.428   2.685  11.958 -0.2344  0.4131 -0.3124
 1675SOL    HW116484   2.442   2.762  12.013  2.6714  1.3670 -2.4244
 1675SOL    HW216485   2.469   2.717  11.878 -1.9483 -0.5748 -1.5846
 1676SOL     OW16486   4.492   4.016   3.286 -0.3633 -0.0296 -0.0704
 1676SOL    HW116487   4.415   3.960   3.298 -0.2150 -0.0360  0.8502
 1676SOL    HW216488   4.517   3.993   3.197 -2.4483  1.3599 -1.0139
 1677SOL     OW16489   2.697   0.426  10.447  0.5165 -0.1456  0.1473
 1677SOL    HW116490   2.743   0.393  10.524  0.4759  1.0419  0.6819
 1677SOL    HW216491   2.719   0.351  10.392  1.1860 -0.6884  1.1541
 1678SOL     OW16492   1.109   1.568   8.771 -0.3420  0.7509  0.0226
 1678SOL    HW116493   1.146   1.503   8.712  0.4312 -0.4245  1.7814
 1678SOL    HW216494   1.090   1.519   8.852  0.4574 -1.5514 -1.1703
 1679SOL     OW16495   0.386   1.416   3.252 -0.5533  0.0869  0.6957
 1679SOL    HW116496   0.347   1.504   3.251 -0.1469  0.2667  0.7086
 1679SOL    HW216497   0.450   1.430   3.182 -0.4638 -2.0852  0.3450
 1680SOL     OW16498   0.789   0.270  11.375  0.4363  0.0647  0.0923
 1680SOL    HW116499   0.800   0.191  11.321  0.0416 -1.8027  2.7551
 1680SOL    HW216500   0.880   0.295  11.390  0.4712  1.9468 -3.1944
 1681SOL     OW16501   3.358   2.612   6.990  0.3054  0.6303  0.9556
 1681SOL    HW116502   3.446   2.581   6.967 -0.0730 -1.0256  1.7026
 1681SOL    HW216503   3.350   2.583   7.081  0.8347 -3.2190 -0.1976
 1682SOL     OW16504   4.507   3.487   7.940 -0.1577  0.3016 -0.6092
 1682SOL    HW116505   4.414   3.495   7.960 -0.2945 -1.7940 -0.4220
 1682SOL    HW216506   4.538   3.444   8.019 -1.8619 -0.9576 -0.6372
 1683SOL     OW16507   1.296   1.531   9.233  0.1803 -0.1784  0.0319
 1683SOL    HW116508   1.340   1.451   9.261 -1.2742 -0.1133  2.4635
 1683SOL    HW216509   1.209   1.493   9.233 -0.0328  0.3202  2.0031
 1684SOL     OW16510   2.510   1.887   6.433  0.4812  0.9238 -0.1889
 1684SOL    HW116511   2.600   1.893   6.464  0.7786 -2.7974 -0.2985
 1684SOL    HW216512   2.479   1.975   6.455  0.2929  0.6868  0.4833
 1685SOL     OW16513   0.761   2.981   5.028  0.0529  0.3581 -0.2434
 1685SOL    HW116514   0.699   3.054   5.028  0.2471  0.5274  0.2954
 1685SOL    HW216515   0.776   2.979   5.123 -1.5821 -0.3676 -0.0035
 1686SOL     OW16516   1.789   4.246   2.303 -0.2697  0.1581  0.2011
 1686SOL    HW116517   1.758   4.211   2.386  0.7645  1.7021  1.2328
 1686SOL    HW216518   1.874   4.202   2.301  0.3638  1.2707  3.5301
 1687SOL     OW16519   0.016   4.264   5.243 -0.5972  0.6421 -0.0617
 1687SOL    HW116520   0.047   4.203   5.310 -3.5707  1.0950  1.7326
 1687SOL    HW216521   0.099   4.277   5.196 -1.1072 -0.1619 -1.1837
 1688SOL     OW16522   0.527   1.505   8.536  0.3491 -0.1139 -0.0498
 1688SOL    HW116523   0.557   1.445   8.468  0.4772  0.7898 -0.7928
 1688SOL    HW216524   0.433   1.500   8.521 -0.1954  1.6421  2.7069
 1689SOL     OW16525   0.065   2.436   9.619 -1.0013  0.0534  0.3362
 1689SOL    HW116526   0.029   2.393   9.541 -0.0824  0.5341 -0.3476
 1689SOL    HW216527   4.706   2.457   9.667 -0.9467 -1.0121  0.9096
 1690SOL     OW16528   0.949   2.374   6.794 -0.2961 -0.4529  0.3357
 1690SOL    HW116529   1.008   2.437   6.834 -0.5520 -0.8997  1.4057
 1690SOL    HW216530   1.005   2.356   6.719 -3.2191  0.9422 -2.2054
 1691SOL     OW16531   2.028   4.628  16.814 -0.6756 -0.1994 -0.3472
 1691SOL    HW116532   2.101   4.647  16.873 -1.7622 -0.6247  1.1462
 1691SOL    HW216533   2.051   4.539  16.788 -0.7894 -0.9040  2.0149
 1692SOL     OW16534   3.537   0.606   6.523 -0.4236  0.1961 -0.0655
 1692SOL    HW116535   3.565   0.577   6.610  0.4873  1.2213 -0.0105
 1692SOL    HW216536   3.525   0.700   6.538  0.6453  0.1186  1.2885
 1693SOL     OW16537   2.796   1.518   0.379 -0.5657 -0.1482  0.1963
 1693SOL    HW116538   2.776   1.597   0.429  0.3891 -0.4822  1.1092
 1693SOL    HW216539   2.732   1.456   0.414 -0.5104  0.0959  0.7335
 1694SOL     OW16540   3.435   0.835   3.459 -0.0316  0.0893  0.2410
 1694SOL    HW116541   3.372   0.801   3.395  3.2956 -1.9253 -1.9160
 1694SOL    HW216542   3.519   0.826   3.416 -0.4228 -0.8244 -0.3184
 1695SOL     OW16543   1.407   3.263  11.285  0.2675 -0.5570  0.0688
 1695SOL    HW116544   1.447   3.343  11.249 -0.3196 -0.3855 -0.2081
 1695SOL    HW216545   1.410   3.291  11.376  0.4201  0.6054 -0.2841
 1696SOL     OW16546   4.069   0.206  16.825  0.3311 -0.2188 -0.0183
 1696SOL    HW116547   4.144   0.248  16.783  0.6195 -0.1271  0.5931
 1696SOL    HW216548   4.050   0.131  16.768  0.3266 -0.3738  0.1867
 1697SOL     OW16549   0.178   2.488   7.304  0.2479 -0.9852  0.1923
 1697SOL    HW116550   0.251   2.428   7.291  0.7002 -0.8196  1.9346
 1697SOL    HW216551   0.223   2.558   7.351 -0.1888  0.1799 -1.1391
 1698SOL     OW16552   4.391   1.085   2.036  0.7618 -0.0492  0.0505
 1698SOL    HW116553   4.461   1.054   1.977 -0.8323 -1.5142 -1.0620
 1698SOL    HW216554   4.422   1.167   2.075 -0.2946  1.1655 -1.6430
 1699SOL     OW16555   1.630   2.451  16.937  0.0243 -0.2904 -0.6740
 1699SOL    HW116556   1.725   2.461  16.928 -0.3556  2.1551 -2.2326
 1699SOL    HW216557   1.612   2.525  16.879  0.1953  0.6634  0.4873
 1700SOL     OW16558   0.823   0.356   2.697  0.1775 -0.0048 -0.1578
 1700SOL    HW116559   0.905   0.310   2.677  0.9505  0.3852  2.0606
 1700SOL    HW216560   0.792   0.387   2.612  0.1556  0.3125 -0.0328
 1701SOL     OW16561   0.736   2.647  13.056 -0.5665  0.5479  0.7865
 1701SOL    HW116562   0.771   2.726  13.016  1.5895 -0.6230  0.3719
 1701SOL    HW216563   0.794   2.585  13.013 -0.3053  3.2357 -2.6363
 1702SOL     OW16564   3.767   0.879   2.493  0.0822 -0.2771 -0.2565
 1702SOL    HW116565   3.824   0.802   2.489 -1.5741 -1.5364  0.2203
 1702SOL    HW216566   3.750   0.893   2.400  1.7712  2.6811 -0.1018
 1703SOL     OW16567   1.230   4.421  13.757  0.2082 -0.8317  0.1262
 1703SOL    HW116568   1.313   4.379  13.779  2.5341  2.8502 -1.6899
 1703SOL    HW216569   1.164   4.359  13.787 -1.7395  1.2683  0.2243
 1704SOL     OW16570   1.787   4.524   2.350 -0.5270  0.3250  0.5416
 1704SOL    HW116571   1.765   4.431   2.345 -0.1355  0.2556  0.1049
 1704SOL    HW216572   1.876   4.512   2.383 -0.4138 -0.8580 -0.1800
 1705SOL     OW16573   1.440   3.825   8.947  0.1354  0.8477  1.2297
 1705SOL    HW116574   1.360   3.779   8.972  0.4005  0.0112  0.5178
 1705SOL    HW216575   1.416   3.874   8.869  3.1382 -0.4226 -0.4633
 1706SOL     OW16576   0.825   4.169   3.970  0.2851  0.3089 -0.0889
 1706SOL    HW116577   0.856   4.216   3.893  1.8591 -2.7858 -1.3258
 1706SOL    HW216578   0.870   4.085   3.966  0.0695  0.0952  1.6815
 1707SOL     OW16579   3.696   4.562   9.830 -0.2630 -0.1775  0.1852
 1707SOL    HW116580   3.684   4.559   9.925  0.6834  1.7286  0.3606
 1707SOL    HW216581   3.787   4.540   9.812 -0.8315 -2.7125  0.4744
 1708SOL     OW16582   3.384   0.275   6.259 -0.6394 -0.1461  0.5346
 1708SOL    HW116583   3.398   0.250   6.351  2.0461 -1.7443 -0.3289
 1708SOL    HW216584   3.312   0.214   6.243  0.1385 -0.6935 -0.7790
 1709SOL     OW16585   1.281   0.800   2.764 -0.0779 -0.1292  0.0936
 1709SOL    HW116586   1.260   0.738   2.694  1.0286  0.3327 -0.6423
 1709SOL    HW216587   1.374   0.814   2.749 -0.3827  1.2435 -0.4808
 1710SOL     OW16588   0.388   2.148   3.299  0.2339 -0.3850  0.0039
 1710SOL    HW116589   0.482   2.155   3.316  0.3465 -0.0858 -0.7237
 1710SOL    HW216590   0.350   2.189   3.376  0.7246 -1.0697  0.6058
 1711SOL     OW16591   2.873   1.064   5.002  0.2905  0.8675 -0.3836
 1711SOL    HW116592   2.802   1.000   4.997  1.3392 -0.1330 -2.2424
 1711SOL    HW216593   2.827   1.147   5.020 -0.3620  0.4615 -0.1969
 1712SOL     OW16594   1.838   1.105  13.447  0.2129  0.6144 -0.0681
 1712SOL    HW116595   1.812   1.196  13.434 -1.3879  0.2542  0.7125
 1712SOL    HW216596   1.934   1.106  13.450  0.2455 -1.0819 -0.3064
 1713SOL     OW16597   1.584   3.961   5.981 -0.2132 -1.0628 -0.2737
 1713SOL    HW116598   1.669   3.958   6.025 -0.4892  0.6857  0.3724
 1713SOL    HW216599   1.537   3.995   6.057 -0.0920 -2.0015  0.2171
 1714SOL     OW16600   3.229   3.786  13.968 -0.1914 -0.1003 -0.1360
 1714SOL    HW116601   3.154   3.781  13.908 -0.1725 -1.1090 -0.0814
 1714SOL    HW216602   3.274   3.708  13.934  0.3846 -0.6141  1.8207
 1715SOL     OW16603   4.210   4.092   5.064  0.2808  0.3566 -0.3642
 1715SOL    HW116604   4.164   4.016   5.098  1.4901 -0.2142 -0.0075
 1715SOL    HW216605   4.245   4.122   5.148  2.8579 -0.5085 -1.1128
 1716SOL     OW16606   1.308   2.298  14.261  0.3374  0.5166 -0.4145
 1716SOL    HW116607   1.221   2.278  14.225  0.4059  1.4925 -1.1450
 1716SOL    HW216608   1.344   2.212  14.279  1.2208  0.7560 -1.0608
 1717SOL     OW16609   3.136   3.289  12.750 -0.3330  0.2794  0.2696
 1717SOL    HW116610   3.180   3.246  12.823  4.0158  1.8582 -1.4229
 1717SOL    HW216611   3.110   3.210  12.702  0.7028 -0.5210  1.0166
 1718SOL     OW16612   0.116   3.750  10.152 -0.1924 -0.2073  0.3861
 1718SOL    HW116613   0.203   3.711  10.148 -1.3711 -3.0188  2.3867
 1718SOL    HW216614   0.146   3.840  10.165 -2.6000  0.9873 -2.0281
 1719SOL     OW16615   0.082   1.377   7.500 -0.1624 -0.1784 -0.0354
 1719SOL    HW116616   4.710   1.361   7.514  0.3109 -0.8796  2.3888
 1719SOL    HW216617   0.110   1.300   7.450  1.3090 -0.2339  0.8775
 1720SOL     OW16618   0.802   4.148  12.846 -0.2058 -0.6740  0.4344
 1720SOL    HW116619   0.721   4.168  12.799  0.4060  0.4768 -0.1265
 1720SOL    HW216620   0.770   4.155  12.936 -0.0654  0.1586  0.4169
 1721SOL     OW16621   3.153   3.039  12.052 -0.1631 -0.0364 -0.1077
 1721SOL    HW116622   3.209   3.032  11.975 -0.5056 -0.6675 -0.2978
 1721SOL    HW216623   3.202   3.099  12.109  0.8013  0.9286 -1.9475
 1722SOL     OW16624   3.096   0.937   7.918 -0.0002  0.1956  0.3935
 1722SOL    HW116625   3.057   1.024   7.908  0.8283  0.4893 -0.3141
 1722SOL    HW216626   3.162   0.946   7.849 -3.1455 -0.5161 -2.6519
 1723SOL     OW16627   2.293   3.213  16.318 -1.1238  0.0161  0.0399
 1723SOL    HW116628   2.296   3.206  16.414 -1.1670  1.0803  0.1287
 1723SOL    HW216629   2.250   3.299  16.317  0.5219  0.8631  0.9426
 1724SOL     OW16630   3.264   4.623   9.923  0.2480  0.2871 -0.8052
 1724SOL    HW116631   3.276   4.707   9.879  1.2517  0.0604 -0.9658
 1724SOL    HW216632   3.341   4.576   9.889 -0.6899 -2.7710  1.3029
 1725SOL     OW16633   3.874   2.438   5.784 -0.1455  0.4388  0.0049
 1725SOL    HW116634   3.959   2.439   5.827 -0.7342  2.1282  1.1453
 1725SOL    HW216635   3.842   2.354   5.819 -1.2354  0.2882 -1.3751
 1726SOL     OW16636   3.602   1.523  14.452  0.3519 -0.8398  0.2593
 1726SOL    HW116637   3.545   1.593  14.418  2.0787 -0.4497 -1.8943
 1726SOL    HW216638   3.674   1.571  14.491 -0.8703  2.2334 -1.2438
 1727SOL     OW16639   3.278   1.235   3.341 -0.3636 -0.1133  0.1622
 1727SOL    HW116640   3.224   1.166   3.380  0.8031  0.4041  2.7087
 1727SOL    HW216641   3.230   1.314   3.365  0.8622  0.6165  0.1881
 1728SOL     OW16642   2.014   4.063   5.359 -0.0902  0.1260 -0.0388
 1728SOL    HW116643   2.020   3.968   5.370  1.2747  0.1898 -0.2845
 1728SOL    HW216644   2.052   4.071   5.271  0.4880 -0.6626  0.1492
 1729SOL     OW16645   1.164   4.626   6.795  0.1393 -0.1686  0.1237
 1729SOL    HW116646   1.242   4.578   6.820 -0.3970 -0.9374  0.3295
 1729SOL    HW216647   1.087   4.583   6.833 -0.5460  2.0130  1.2493
 1730SOL     OW16648   1.124   4.287   6.340 -0.1360 -0.2094 -0.1628
 1730SOL    HW116649   1.182   4.252   6.272  0.1744  0.1886 -0.1004
 1730SOL    HW216650   1.182   4.346   6.388 -0.5061  1.2890 -1.5627
 1731SOL     OW16651   2.051   1.091   4.524  0.1595 -0.0952 -1.0238
 1731SOL    HW116652   2.125   1.119   4.471 -0.7750 -0.7010 -2.6447
 1731SOL    HW216653   1.990   1.160   4.500  0.0941 -0.7468 -2.7023
 1732SOL     OW16654   2.139   0.133   4.815 -1.1501 -0.4106  0.1351
 1732SOL    HW116655   2.112   0.042   4.803  0.3228 -0.5157 -2.4406
 1732SOL    HW216656   2.144   0.159   4.723  0.2047  0.6272  0.5122
 1733SOL     OW16657   2.051   0.428   6.224 -0.1072  0.6979  0.0158
 1733SOL    HW116658   2.040   0.471   6.308 -1.1645  0.1872  0.1425
 1733SOL    HW216659   1.973   0.372   6.220  2.1652 -2.3814 -0.9785
 1734SOL     OW16660   3.960   3.381   4.450 -0.0635 -0.6714  0.4735
 1734SOL    HW116661   3.970   3.461   4.502  1.4177 -0.7605  0.3390
 1734SOL    HW216662   3.865   3.374   4.444 -0.0221 -0.3788 -0.5629
 1735SOL     OW16663   0.282   0.736  10.446 -0.4666  0.7271 -0.0730
 1735SOL    HW116664   0.223   0.670  10.482  3.0354 -1.8454  0.8702
 1735SOL    HW216665   0.318   0.764  10.530 -0.4211  1.8270 -0.4610
 1736SOL     OW16666   4.330   2.065   7.102 -0.0008 -0.5754 -0.3954
 1736SOL    HW116667   4.410   2.019   7.074 -1.8982 -2.9138 -1.9875
 1736SOL    HW216668   4.312   2.019   7.184  2.6371 -0.8642  0.0338
 1737SOL     OW16669   2.609   1.850   7.945 -0.7246 -0.8227 -0.1634
 1737SOL    HW116670   2.532   1.862   7.890  0.7033  3.3793 -1.2013
 1737SOL    HW216671   2.668   1.824   7.874  0.1712 -1.5071  0.8240
 1738SOL     OW16672   1.623   1.021   4.880 -0.0880  0.0766  0.0291
 1738SOL    HW116673   1.681   1.033   4.805  1.9852 -2.1861  1.2730
 1738SOL    HW216674   1.538   1.047   4.844  0.0765  0.8450  0.2068
 1739SOL     OW16675   0.340   0.297   6.279 -0.4005 -0.2128  0.3013
 1739SOL    HW116676   0.379   0.293   6.192 -1.5460  0.3820 -0.2442
 1739SOL    HW216677   0.259   0.250   6.257 -0.0859 -0.4124 -0.4430
 1740SOL     OW16678   3.568   1.893  14.657  0.0461 -0.0546  0.3791
 1740SOL    HW116679   3.505   1.962  14.634  1.1507  0.9238  0.2576
 1740SOL    HW216680   3.590   1.927  14.744  1.1051 -0.6523  0.3462
 1741SOL     OW16681   3.640   2.009   2.923 -0.0937 -0.2771 -0.1793
 1741SOL    HW116682   3.589   1.995   2.843  1.3671 -0.3498 -1.1085
 1741SOL    HW216683   3.725   1.990   2.883  0.5953 -1.1315  1.6931
 1742SOL     OW16684   2.994   1.980   0.758  0.1874  0.0008 -0.5043
 1742SOL    HW116685   3.000   1.885   0.755 -1.2173 -0.1681  2.0772
 1742SOL    HW216686   3.070   2.017   0.713 -0.2766  0.1691 -1.1613
 1743SOL     OW16687   2.342   1.175   7.265 -0.1240 -0.3354  0.0764
 1743SOL    HW116688   2.299   1.095   7.236  0.3588 -0.7472  0.5107
 1743SOL    HW216689   2.351   1.220   7.181  1.3556  0.3981  0.6218
 1744SOL     OW16690   0.410   1.582   6.033  0.4295  0.4436 -0.3701
 1744SOL    HW116691   0.363   1.555   5.953 -2.1074 -0.3010  1.3590
 1744SOL    HW216692   0.493   1.599   5.988  0.4941 -0.2257 -0.5087
 1745SOL     OW16693   4.250   3.059   0.373 -0.3641 -0.1542  0.8728
 1745SOL    HW116694   4.273   3.035   0.284 -0.1518 -0.9005  1.1296
 1745SOL    HW216695   4.190   3.131   0.352 -0.7028 -1.1013 -1.4361
 1746SOL     OW16696   2.781   1.643   3.017  0.3188 -0.2776  0.0574
 1746SOL    HW116697   2.845   1.585   2.978  0.0443  0.3090 -1.2600
 1746SOL    HW216698   2.720   1.586   3.065 -1.0440  0.7305 -0.4604
 1747SOL     OW16699   0.728   2.118  13.364  0.2275  0.0180 -0.7713
 1747SOL    HW116700   0.811   2.081  13.394 -0.3513  0.3438  1.2417
 1747SOL    HW216701   0.750   2.180  13.295  1.8288 -0.0757 -0.3326
 1748SOL     OW16702   2.552   0.763   8.961  0.5092  0.0941 -0.1971
 1748SOL    HW116703   2.459   0.763   8.942  0.7503  1.0929 -1.3422
 1748SOL    HW216704   2.574   0.675   8.932  1.3892  0.6882 -1.3234
 1749SOL     OW16705   0.006   0.726   7.101  0.1258 -0.4604 -0.5840
 1749SOL    HW116706   0.092   0.759   7.075 -0.2537  1.9327  1.1881
 1749SOL    HW216707   4.675   0.779   7.041  0.5391 -0.6491 -1.1113
 1750SOL     OW16708   0.238   3.240   6.730 -0.2061 -0.4078  0.3858
 1750SOL    HW116709   0.241   3.179   6.804 -1.4569 -1.5900 -0.5509
 1750SOL    HW216710   0.252   3.178   6.659  0.6287 -2.1583  2.0524
 1751SOL     OW16711   4.098   1.268   7.246  0.1039  0.0008  0.4784
 1751SOL    HW116712   4.177   1.296   7.199  1.2901 -0.7064  2.0446
 1751SOL    HW216713   4.038   1.235   7.179  1.3682  0.7239 -1.0263
 1752SOL     OW16714   0.123   2.832   8.197  0.4003  0.3150 -0.5411
 1752SOL    HW116715   0.191   2.872   8.144  0.3646 -0.0471 -0.8597
 1752SOL    HW216716   0.143   2.883   8.276  0.5800  1.0943 -1.0996
 1753SOL     OW16717   0.218   0.873   7.636  0.2453 -0.3166 -1.0834
 1753SOL    HW116718   0.311   0.851   7.636  0.6051  1.2731  2.2676
 1753SOL    HW216719   0.219   0.968   7.632  0.4083 -0.2154  1.6219
 1754SOL     OW16720   3.715   0.904   2.238  0.3878  0.2029  0.2784
 1754SOL    HW116721   3.718   0.847   2.162  0.4794  1.6529 -0.8084
 1754SOL    HW216722   3.692   0.987   2.196 -0.2723 -0.8503 -1.4096
 1755SOL     OW16723   2.138   1.292   3.904 -0.1821  0.4991 -0.4323
 1755SOL    HW116724   2.171   1.236   3.975 -0.3312  0.4676 -0.3877
 1755SOL    HW216725   2.095   1.224   3.851 -0.1268  1.2661 -1.4560
 1756SOL     OW16726   2.120   0.776   1.000  0.6700 -0.3270  0.0842
 1756SOL    HW116727   2.083   0.690   0.981  0.0397  0.2129 -1.1341
 1756SOL    HW216728   2.184   0.783   0.929  0.0288 -1.3333 -0.6025
 1757SOL     OW16729   2.490   0.218   6.292 -0.5721 -0.6185  0.6420
 1757SOL    HW116730   2.558   0.181   6.348 -0.2492  0.2301  0.8049
 1757SOL    HW216731   2.423   0.157   6.322  0.6888 -1.7852  1.1034
 1758SOL     OW16732   4.410   3.741  11.525 -0.0973  0.0203  0.2371
 1758SOL    HW116733   4.386   3.830  11.551  0.6315  0.4249 -0.4985
 1758SOL    HW216734   4.346   3.725  11.456 -1.4463  0.5854  1.3556
 1759SOL     OW16735   2.637   0.209  14.952 -0.4764 -0.3942 -0.3867
 1759SOL    HW116736   2.679   0.267  14.888  1.0324  1.2478  2.0617
 1759SOL    HW216737   2.699   0.220  15.024 -0.7890  0.9111 -0.3081
 1760SOL     OW16738   2.369   3.770   7.923 -0.3988 -0.2163 -0.0795
 1760SOL    HW116739   2.425   3.755   7.847  1.4126  1.1752  0.9755
 1760SOL    HW216740   2.287   3.797   7.881 -0.5185  1.8138  1.4767
 1761SOL     OW16741   0.727   2.957   1.928  0.0590  0.3410 -0.1340
 1761SOL    HW116742   0.685   2.871   1.940  0.5447  0.2622  0.9586
 1761SOL    HW216743   0.820   2.936   1.931 -0.1814 -0.7664 -0.1919
 1762SOL     OW16744   4.681   3.343   7.278 -0.5185  0.1159 -0.5404
 1762SOL    HW116745   4.657   3.349   7.371 -3.0444  1.2800 -1.2716
 1762SOL    HW216746   0.003   3.428   7.265  0.2747 -0.2510 -0.3541
 1763SOL     OW16747   1.159   4.257  14.811  0.2598  0.4052 -0.3049
 1763SOL    HW116748   1.193   4.194  14.747  0.0160 -2.2821  2.1731
 1763SOL    HW216749   1.234   4.315  14.823 -1.5831  2.6570  0.3518
 1764SOL     OW16750   1.919   1.999   2.820  0.1770  0.0169  0.0372
 1764SOL    HW116751   1.970   1.919   2.833  0.3321 -0.0414 -0.9544
 1764SOL    HW216752   1.989   2.062   2.838  2.1479 -1.7980 -1.3117
 1765SOL     OW16753   1.907   1.593   8.294  0.2306 -0.2494 -0.1589
 1765SOL    HW116754   1.991   1.597   8.248  1.0585  2.2111  1.5548
 1765SOL    HW216755   1.928   1.640   8.375 -0.2936  0.2424 -0.3087
 1766SOL     OW16756   2.080   0.798   2.154 -0.1062 -0.2268  0.3048
 1766SOL    HW116757   2.018   0.738   2.113  0.1512 -0.1804 -0.1476
 1766SOL    HW216758   2.159   0.803   2.100  0.7131  0.3941  1.5561
 1767SOL     OW16759   1.858   3.120   6.873  0.7309  0.4615  0.3919
 1767SOL    HW116760   1.928   3.136   6.935  1.3961 -1.4389  0.1265
 1767SOL    HW216761   1.812   3.046   6.912  1.1045  0.1218  0.1778
 1768SOL     OW16762   0.208   3.369   8.851  0.3658 -0.7982  0.5567
 1768SOL    HW116763   0.126   3.380   8.900 -0.5894  2.2508 -1.7477
 1768SOL    HW216764   0.275   3.356   8.919  0.1821 -0.3160  0.8288
 1769SOL     OW16765   3.256   3.787   6.384  0.3541  0.8188  0.1099
 1769SOL    HW116766   3.352   3.788   6.389  0.3167  0.8447  0.8491
 1769SOL    HW216767   3.240   3.697   6.355 -0.2788  1.3666 -1.2297
 1770SOL     OW16768   2.148   2.343   7.823 -0.4008  0.0289 -0.5485
 1770SOL    HW116769   2.103   2.265   7.854  1.5160 -1.5845 -1.8570
 1770SOL    HW216770   2.162   2.395   7.903  1.2969  0.8620 -1.3823
 1771SOL     OW16771   1.883   1.978   2.147 -0.0289  0.2145 -0.5369
 1771SOL    HW116772   1.859   1.896   2.191 -1.3689  0.9114  0.0298
 1771SOL    HW216773   1.797   1.995   2.109 -0.7383 -0.7078  0.6332
 1772SOL     OW16774   4.242   0.376   7.649 -0.4564  0.1746 -0.5800
 1772SOL    HW116775   4.273   0.407   7.564 -0.7733  0.1890 -0.6892
 1772SOL    HW216776   4.263   0.448   7.708 -1.6277 -0.0182  0.0716
 1773SOL     OW16777   1.163   3.971  15.892 -0.4912 -0.2589 -0.3494
 1773SOL    HW116778   1.256   3.978  15.913 -0.8075 -1.4606  1.4523
 1773SOL    HW216779   1.156   3.877  15.910  0.1176 -0.0745  0.8722
 1774SOL     OW16780   2.757   3.439   8.436  0.3214  0.2931 -0.2360
 1774SOL    HW116781   2.714   3.359   8.465 -0.7156  1.0683  0.3656
 1774SOL    HW216782   2.785   3.479   8.519  1.8597  0.0837 -0.6519
 1775SOL     OW16783   0.818   2.067  12.470 -0.1613  0.1381 -0.6322
 1775SOL    HW116784   0.783   1.993  12.519 -0.2093  1.6259  1.6029
 1775SOL    HW216785   0.756   2.081  12.398  0.3635  2.7107 -0.6099
 1776SOL     OW16786   2.029   2.722   7.314 -0.0490 -0.1330 -0.2864
 1776SOL    HW116787   2.072   2.637   7.316 -1.4130 -0.8405 -1.0544
 1776SOL    HW216788   2.034   2.742   7.221  2.8174  2.7476  0.4464
 1777SOL     OW16789   3.595   4.396   4.280  0.0739  0.0169  0.0683
 1777SOL    HW116790   3.544   4.318   4.304  0.6788 -0.7896 -1.2571
 1777SOL    HW216791   3.674   4.354   4.244  0.3835  2.3893 -2.0309
 1778SOL     OW16792   1.758   0.048  14.776 -0.2504  0.1000 -0.4096
 1778SOL    HW116793   1.665   0.068  14.787 -0.5867 -2.7827  1.9037
 1778SOL    HW216794   1.792   0.066  14.864  1.1048 -0.4170 -0.8186
 1779SOL     OW16795   3.016   3.278   9.636  0.0636 -0.0302  0.2267
 1779SOL    HW116796   3.002   3.337   9.709  1.7385  2.2085 -1.2337
 1779SOL    HW216797   3.082   3.327   9.586  0.1541  0.2521  0.6289
 1780SOL     OW16798   2.520   4.632   8.953  0.5570  0.0296  0.0080
 1780SOL    HW116799   2.603   4.678   8.943  0.5631  0.5357  2.3950
 1780SOL    HW216800   2.547   4.541   8.942  0.1229 -0.2511  1.2657
 1781SOL     OW16801   0.762   3.629  13.005 -0.1759  0.1195 -0.0234
 1781SOL    HW116802   0.727   3.695  12.945 -0.3384  0.4908  0.4841
 1781SOL    HW216803   0.673   3.598  13.022  0.0685 -0.8064 -0.3950
 1782SOL     OW16804   1.096   1.409   4.595 -0.0577 -0.3897 -0.0449
 1782SOL    HW116805   1.153   1.333   4.610  0.6819  0.6674  2.5248
 1782SOL    HW216806   1.074   1.437   4.684  0.8663 -1.6853  0.5970
 1783SOL     OW16807   1.401   2.875  16.760  0.5355 -0.2314 -0.1840
 1783SOL    HW116808   1.314   2.848  16.730 -0.8104  5.2256 -1.1884
 1783SOL    HW216809   1.387   2.858  16.853 -2.4133 -2.2439 -1.0240
 1784SOL     OW16810   4.609   3.870   1.855 -0.8101  0.1146 -0.0975
 1784SOL    HW116811   4.565   3.955   1.854  1.1775  1.1710  2.9550
 1784SOL    HW216812   4.584   3.846   1.944 -1.0513 -2.7025 -0.9205
 1785SOL     OW16813   1.206   2.627   4.561 -0.4392 -0.5387  0.1165
 1785SOL    HW116814   1.263   2.637   4.484 -2.0644 -0.7596 -1.1039
 1785SOL    HW216815   1.207   2.714   4.601  1.8769  0.5720 -2.3488
 1786SOL     OW16816   1.590   2.841   0.542  0.5622 -0.5041 -0.2257
 1786SOL    HW116817   1.534   2.811   0.613  1.2062  0.7109  0.7767
 1786SOL    HW216818   1.604   2.934   0.558  0.7630 -0.8631  1.6002
 1787SOL     OW16819   1.482   1.616  10.371  0.2608 -0.2323 -0.2987
 1787SOL    HW116820   1.453   1.583  10.286  0.2081 -1.6165  0.2728
 1787SOL    HW216821   1.441   1.566  10.441  2.3297 -1.0003  0.3881
 1788SOL     OW16822   2.649   3.502   0.165  0.0671  0.2964  0.4760
 1788SOL    HW116823   2.693   3.530   0.085 -2.5551  0.9985 -0.7482
 1788SOL    HW216824   2.677   3.574   0.221  0.5109  0.2974  0.2561
 1789SOL     OW16825   1.013   0.050  15.204  0.5248  0.0637  0.4256
 1789SOL    HW116826   1.066   0.037  15.125 -0.8004  1.0338 -0.6455
 1789SOL    HW216827   1.027   4.683  15.238 -1.7038 -0.0503  1.0498
 1790SOL     OW16828   2.022   1.699   9.096 -0.1758 -0.2593 -0.1856
 1790SOL    HW116829   1.996   1.661   9.180 -0.5342  1.6236  0.5490
 1790SOL    HW216830   2.117   1.698   9.108 -0.3819 -2.1303  1.2641
 1791SOL     OW16831   4.220   1.556   8.746 -0.4725  0.3880 -0.3601
 1791SOL    HW116832   4.223   1.461   8.732  0.6697  0.1969  1.2568
 1791SOL    HW216833   4.141   1.567   8.799 -0.8969 -0.6817 -0.7704
 1792SOL     OW16834   4.485   2.266  10.496 -0.1443 -0.4533 -0.3354
 1792SOL    HW116835   4.512   2.209  10.568  0.2680  0.0930 -0.0544
 1792SOL    HW216836   4.488   2.230  10.408  0.1835 -1.8107  0.2325
 1793SOL     OW16837   2.892   2.627   5.512 -0.0978  0.6507 -0.0225
 1793SOL    HW116838   2.913   2.572   5.588 -1.1270 -2.8280 -2.2310
 1793SOL    HW216839   2.803   2.602   5.489 -0.3946  1.1707  0.5735
 1794SOL     OW16840   3.569   4.625   6.993 -0.3658 -0.2643 -0.2074
 1794SOL    HW116841   3.626   4.634   7.069 -0.3654  0.9249 -0.3481
 1794SOL    HW216842   3.495   4.589   7.040 -0.1277 -1.5500 -0.8214
 1795SOL     OW16843   3.859   1.088   7.161 -0.4313  0.4125 -0.3513
 1795SOL    HW116844   3.788   1.087   7.096 -0.8516 -0.2864  0.1198
 1795SOL    HW216845   3.817   1.140   7.228 -2.0283  0.2372 -1.2071
 1796SOL     OW16846   1.926   0.309   3.041 -0.1199 -0.0402 -0.1156
 1796SOL    HW116847   1.982   0.369   3.091  1.3929 -0.6278 -1.0943
 1796SOL    HW216848   1.836   0.326   3.070 -0.7372 -1.0724 -1.4273
 1797SOL     OW16849   4.298   0.828   7.594 -0.0425 -0.2407  0.2640
 1797SOL    HW116850   4.215   0.803   7.553 -0.9301  1.1654  1.2153
 1797SOL    HW216851   4.316   0.761   7.660 -0.1394  0.8163  1.3549
 1798SOL     OW16852   2.441   2.159   4.343 -0.2043 -0.0869 -0.3990
 1798SOL    HW116853   2.348   2.178   4.352  0.1092  0.6238  1.2680
 1798SOL    HW216854   2.476   2.246   4.361 -0.1730 -0.2646  0.3957
 1799SOL     OW16855   1.014   4.172  15.850 -0.0229 -0.0690  0.4993
 1799SOL    HW116856   0.992   4.220  15.929 -0.8200  1.5489 -0.7070
 1799SOL    HW216857   1.073   4.098  15.865 -2.0584 -1.7459  0.3585
 1800SOL     OW16858   2.635   1.045   4.195  0.1893 -0.0836  0.0466
 1800SOL    HW116859   2.674   1.066   4.280 -0.8578  0.3509  0.4169
 1800SOL    HW216860   2.610   1.129   4.157  1.2453 -0.4053 -1.3972
 1801SOL     OW16861   2.621   0.938   2.975 -0.3287 -0.0763  0.1723
 1801SOL    HW116862   2.681   0.939   3.049 -0.3170 -1.1650  0.1705
 1801SOL    HW216863   2.632   0.858   2.923  1.5107  2.0413 -2.6700
 1802SOL     OW16864   2.370   2.614   3.318 -0.3024  0.7932 -0.2067
 1802SOL    HW116865   2.361   2.680   3.386 -1.7819 -1.2583  1.5572
 1802SOL    HW216866   2.334   2.533   3.355 -1.9050  0.8561 -1.6393
 1803SOL     OW16867   4.647   0.635   1.341  0.3987  0.1989 -0.3335
 1803SOL    HW116868   4.607   0.552   1.314  1.5278 -0.8331  1.1535
 1803SOL    HW216869   0.013   0.599   1.361 -0.0797 -1.7174 -1.7026
 1804SOL     OW16870   1.032   3.361   7.808  0.3702 -0.3680  0.2742
 1804SOL    HW116871   1.031   3.327   7.719  0.7438 -1.2277  0.5989
 1804SOL    HW216872   0.980   3.442   7.803 -0.1227 -0.5903  1.6414
 1805SOL     OW16873   2.601   4.531  10.744 -0.5684 -0.2800 -0.5711
 1805SOL    HW116874   2.668   4.554  10.809 -1.5805 -1.5015  0.8741
 1805SOL    HW216875   2.555   4.455  10.780 -0.0843  0.1886  1.0460
 1806SOL     OW16876   1.494   3.302   3.864  0.0179 -0.4528 -0.5914
 1806SOL    HW116877   1.528   3.292   3.953 -0.8379 -0.2441 -0.2407
 1806SOL    HW216878   1.407   3.264   3.874 -0.7546  1.7346  1.0535
 1807SOL     OW16879   1.329   4.577   2.055 -1.0071  0.2954 -0.5666
 1807SOL    HW116880   1.394   4.622   2.000 -0.0193 -0.0672  0.3229
 1807SOL    HW216881   1.301   4.503   2.001 -1.0066  3.2140 -4.5987
 1808SOL     OW16882   3.936   4.496  12.245  0.2189  0.2942  0.0431
 1808SOL    HW116883   3.902   4.576  12.284 -0.7234  0.7244 -1.6292
 1808SOL    HW216884   4.005   4.541  12.196  1.7115  0.2216  2.1242
 1809SOL     OW16885   1.154   4.538  15.281 -0.1170  0.2074 -0.4381
 1809SOL    HW116886   1.174   4.476  15.211  2.2159  0.9713 -0.4581
 1809SOL    HW216887   1.165   4.475  15.352 -1.6242 -0.3561 -0.7124
 1810SOL     OW16888   1.934   2.873   9.378 -0.3256  0.1603 -0.2831
 1810SOL    HW116889   2.006   2.928   9.348  0.0825  0.9646  2.1640
 1810SOL    HW216890   1.905   2.830   9.298  1.5787 -0.2827 -0.7353
 1811SOL     OW16891   0.078   4.225   6.592  0.6134 -0.5923 -0.4488
 1811SOL    HW116892   0.139   4.298   6.583  0.2232  0.1906  2.9457
 1811SOL    HW216893   0.000   4.256   6.545  1.2031  0.7331 -0.5495
 1812SOL     OW16894   1.052   1.784   8.345  0.4663 -0.3807 -0.0784
 1812SOL    HW116895   1.086   1.700   8.376  0.3318 -0.6825 -0.7255
 1812SOL    HW216896   0.977   1.803   8.401  0.1448 -1.0372 -0.2859
 1813SOL     OW16897   2.650   1.646   4.208  0.2089  0.2306 -0.2503
 1813SOL    HW116898   2.692   1.642   4.294 -1.2904 -0.3107  0.4526
 1813SOL    HW216899   2.562   1.666   4.240 -0.3793 -1.8874 -0.5568
 1814SOL     OW16900   2.145   2.933   2.682 -0.3377  0.1202  0.5862
 1814SOL    HW116901   2.162   2.973   2.597  0.8374  0.9942  1.2237
 1814SOL    HW216902   2.056   2.964   2.696 -1.6720 -2.7173 -1.7390
 1815SOL     OW16903   3.720   2.666   1.806 -0.4585 -0.2432 -0.4323
 1815SOL    HW116904   3.647   2.676   1.867 -0.1076  2.3065 -0.4369
 1815SOL    HW216905   3.732   2.571   1.807  0.2392 -0.1436  0.2590
 1816SOL     OW16906   3.041   0.084   3.762  0.1518  0.0137 -0.3752
 1816SOL    HW116907   3.114   0.040   3.719  0.2772 -1.2284  1.1236
 1816SOL    HW216908   2.968   0.084   3.700 -0.0479 -1.2546 -0.1328
 1817SOL     OW16909   4.194   3.356  17.329  0.1693  0.4529 -0.3936
 1817SOL    HW116910   4.283   3.379  17.301 -1.0708  4.3241 -1.0667
 1817SOL    HW216911   4.154   3.441  17.347 -1.2674 -0.2872 -0.0887
 1818SOL     OW16912   4.082   0.764   5.043 -0.1526  0.3419  0.5358
 1818SOL    HW116913   4.039   0.686   5.079  1.4195 -1.3003 -1.1462
 1818SOL    HW216914   4.030   0.833   5.083 -0.1300  0.0610  1.0507
 1819SOL     OW16915   3.701   3.108   8.090  0.1285 -0.7691 -0.0805
 1819SOL    HW116916   3.670   3.112   7.999 -1.9024 -2.9262  0.5228
 1819SOL    HW216917   3.616   3.103   8.134 -0.0291 -1.3269 -0.4545
 1820SOL     OW16918   4.176   1.581   6.941 -0.4419 -0.7614 -0.2097
 1820SOL    HW116919   4.200   1.640   6.870  1.8102 -2.3479 -0.7797
 1820SOL    HW216920   4.258   1.534   6.958  0.2830  1.2271  1.6701
 1821SOL     OW16921   1.821   0.994   9.511 -0.4029 -0.0924  0.3614
 1821SOL    HW116922   1.898   0.995   9.567  0.4089  3.6560 -0.8961
 1821SOL    HW216923   1.749   0.997   9.574 -0.5938 -0.5071  0.1688
 1822SOL     OW16924   1.381   2.995  11.228 -0.3200 -0.0819  0.1990
 1822SOL    HW116925   1.402   3.080  11.268 -0.6806  0.2500 -0.3210
 1822SOL    HW216926   1.438   3.004  11.152 -0.4059  0.1092  0.1587
 1823SOL     OW16927   1.048   1.523   2.075  0.0702  0.0182  0.1504
 1823SOL    HW116928   1.131   1.477   2.083  0.6407  1.0783  0.3099
 1823SOL    HW216929   1.072   1.614   2.089  3.4283 -1.0815  1.5082
 1824SOL     OW16930   3.021   3.065   6.748  0.3961 -0.2849  1.0711
 1824SOL    HW116931   2.985   3.152   6.763  1.2150  0.0831  0.8949
 1824SOL    HW216932   2.945   3.011   6.771  1.3932 -2.4379 -0.6932
 1825SOL     OW16933   0.578   0.187   3.689 -0.5886 -0.1560 -0.9893
 1825SOL    HW116934   0.630   0.196   3.769 -0.5622 -1.3183 -0.8672
 1825SOL    HW216935   0.512   0.130   3.728  2.0476 -1.9046  0.9908
 1826SOL     OW16936   3.092   3.291   6.365 -0.2360  0.1968  0.0231
 1826SOL    HW116937   3.167   3.247   6.323  0.9988  2.0159  0.3191
 1826SOL    HW216938   3.022   3.261   6.307 -0.4395 -1.0219  0.8979
 1827SOL     OW16939   1.051   0.474  16.744 -0.2238 -0.5163  0.1087
 1827SOL    HW116940   1.046   0.481  16.649  0.7214  1.4069  0.2118
 1827SOL    HW216941   1.139   0.507  16.761  0.0761 -2.3801  2.2945
 1828SOL     OW16942   0.054   4.047  11.125 -0.6485  0.2567  0.4836
 1828SOL    HW116943   4.719   3.983  11.081  0.8708 -1.6953  1.3909
 1828SOL    HW216944   0.005   4.129  11.119  0.3034  0.6143 -2.4901
 1829SOL     OW16945   4.575   3.237   4.955  0.3423  0.4229 -0.6889
 1829SOL    HW116946   4.657   3.238   4.906  0.3205  3.6695 -0.6482
 1829SOL    HW216947   4.536   3.324   4.946  0.7894  0.5509 -1.3271
 1830SOL     OW16948   4.622   3.539   8.889  0.0300  0.3968 -0.0678
 1830SOL    HW116949   4.675   3.525   8.968 -1.0666 -1.2967  0.3804
 1830SOL    HW216950   4.568   3.616   8.907 -0.7549 -0.2023  0.1311
 1831SOL     OW16951   1.777   2.491  17.577 -0.3037  0.1043 -0.0527
 1831SOL    HW116952   1.694   2.444  17.586  0.7471 -2.3235 -2.8550
 1831SOL    HW216953   1.756   2.553  17.508  4.9043  1.5453 -0.3544
 1832SOL     OW16954   0.064   4.706  16.985 -0.7258  0.5489  0.1254
 1832SOL    HW116955   4.692   4.688  16.999 -0.6079  0.1515  0.3937
 1832SOL    HW216956   0.067   4.646  16.911  1.2242  0.4016  0.3435
 1833SOL     OW16957   0.239   3.671   5.003  0.1430  0.2307 -0.4588
 1833SOL    HW116958   0.201   3.583   5.010 -0.4222  0.3866 -1.4549
 1833SOL    HW216959   0.328   3.651   5.030 -0.1643  0.6668  0.8380
 1834SOL     OW16960   2.803   0.637  10.030  0.0795  0.1718 -0.0409
 1834SOL    HW116961   2.852   0.582   9.969 -1.7769 -0.5878 -0.8501
 1834SOL    HW216962   2.811   0.726   9.997  0.9176  0.2885  0.4772
 1835SOL     OW16963   2.183   4.335   3.315 -0.1155 -0.1640  0.2723
 1835SOL    HW116964   2.259   4.303   3.363 -0.7942 -1.6172  0.3875
 1835SOL    HW216965   2.186   4.429   3.330  2.5402 -0.2739  0.4155
 1836SOL     OW16966   1.518   2.460   1.353 -0.1372  0.5703 -0.6269
 1836SOL    HW116967   1.517   2.538   1.410  0.5253 -0.8154  1.2943
 1836SOL    HW216968   1.610   2.436   1.357 -0.3586 -0.3030 -0.7429
 1837SOL     OW16969   2.986   1.850   0.432  0.1069  0.0830  0.1862
 1837SOL    HW116970   2.972   1.877   0.341 -1.3746 -1.0894  0.0811
 1837SOL    HW216971   2.895   1.868   0.455 -1.3778 -3.4242 -2.9126
 1838SOL     OW16972   3.846   2.205   2.099  0.8613 -0.3438 -0.0056
 1838SOL    HW116973   3.804   2.132   2.054  0.1607 -0.3525  0.6396
 1838SOL    HW216974   3.811   2.278   2.047 -2.1302 -0.8123  1.2934
 1839SOL     OW16975   3.677   1.271   7.317  0.4343  0.4623 -0.2377
 1839SOL    HW116976   3.652   1.184   7.348  2.4659 -0.5543 -1.4491
 1839SOL    HW216977   3.720   1.318   7.389 -0.8688  1.1576  0.0796
 1840SOL     OW16978   3.525   3.355   7.991 -0.2457 -0.2250 -0.3811
 1840SOL    HW116979   3.619   3.337   7.995  0.0946  1.8978  1.3571
 1840SOL    HW216980   3.496   3.279   7.941  0.5228  0.5960 -2.0550
 1841SOL     OW16981   2.750   0.787  13.984  0.5295  0.1337  0.2206
 1841SOL    HW116982   2.718   0.868  13.943 -0.9629  0.0066  1.1795
 1841SOL    HW216983   2.797   0.821  14.060  0.5071  1.2695 -0.2774
 1842SOL     OW16984   2.522   3.265   3.590 -0.0135 -0.5732 -0.4304
 1842SOL    HW116985   2.458   3.224   3.531  0.3159  0.8721 -1.7956
 1842SOL    HW216986   2.588   3.198   3.575 -0.7209 -1.0908 -1.2325
 1843SOL     OW16987   0.192   2.348   6.673  0.1550 -0.2329  0.0734
 1843SOL    HW116988   0.281   2.318   6.691 -0.9663 -2.4148  1.9622
 1843SOL    HW216989   0.181   2.334   6.579 -0.7974 -1.0676  0.3108
 1844SOL     OW16990   3.353   0.703  14.706 -0.2569  0.2079  0.0074
 1844SOL    HW116991   3.430   0.699  14.650  0.5577 -1.5004  1.2483
 1844SOL    HW216992   3.288   0.662  14.649 -1.6100  2.4522 -0.0714
 1845SOL     OW16993   4.344   2.808   9.364  0.0923  0.1502 -0.0908
 1845SOL    HW116994   4.325   2.840   9.452  2.3422  0.4375  0.2763
 1845SOL    HW216995   4.311   2.718   9.358 -0.4428  0.2967  0.6201
 1846SOL     OW16996   4.609   3.695   1.643  0.4524 -0.1352 -0.1894
 1846SOL    HW116997   4.585   3.742   1.722  0.6681 -1.0143  0.3978
 1846SOL    HW216998   4.547   3.724   1.576  1.1793  0.3544 -0.6468
 1847SOL     OW16999   3.039   1.614   6.194  0.4575  0.4286  0.3518
 1847SOL    HW117000   3.105   1.684   6.186 -2.4496  3.0346 -0.8319
 1847SOL    HW217001   3.019   1.615   6.287 -1.7962 -1.0673 -0.1103
 1848SOL     OW17002   1.672   0.652   4.770  0.4336 -0.3897  0.5697
 1848SOL    HW117003   1.667   0.687   4.859 -1.0797 -1.4302  0.9085
 1848SOL    HW217004   1.722   0.724   4.734 -1.5384 -1.2824 -3.9803
 1849SOL     OW17005   0.529   0.903  16.644 -0.0630 -0.0076 -0.1676
 1849SOL    HW117006   0.526   0.992  16.679 -1.4752 -0.3879  0.6788
 1849SOL    HW217007   0.569   0.916  16.558 -3.5968  0.3397 -1.7740
 1850SOL     OW17008   3.906   1.312   6.264  0.2393 -0.1744  0.4791
 1850SOL    HW117009   3.886   1.380   6.199 -0.4153 -0.5740  0.2583
 1850SOL    HW217010   3.862   1.236   6.226 -1.1436 -0.4371  2.6268
 1851SOL     OW17011   1.071   3.083  14.216 -0.3849 -0.3050 -0.3631
 1851SOL    HW117012   1.107   3.138  14.285 -0.3678  1.2750 -1.6342
 1851SOL    HW217013   1.001   3.140  14.186  0.4798  1.4215  0.9115
 1852SOL     OW17014   2.552   0.195   7.608 -0.0845  0.0516  0.6504
 1852SOL    HW117015   2.629   0.195   7.665  0.9950  0.0946 -0.8129
 1852SOL    HW217016   2.487   0.167   7.673 -0.6077  1.0137  0.5441
 1853SOL     OW17017   1.836   3.011   7.643 -0.5704 -0.3614  0.0681
 1853SOL    HW117018   1.852   2.926   7.603  0.7437  1.0858 -2.5301
 1853SOL    HW217019   1.842   2.980   7.733 -2.0488  2.2452  1.0498
 1854SOL     OW17020   1.340   1.603   5.560 -0.0770  0.0752 -0.1172
 1854SOL    HW117021   1.304   1.619   5.472  1.9793  0.7006 -0.8550
 1854SOL    HW217022   1.271   1.646   5.610  0.4960  0.9259 -0.0414
 1855SOL     OW17023   1.868   1.650   0.414 -0.8825  0.4696  0.0317
 1855SOL    HW117024   1.908   1.727   0.456 -4.3630  0.6882  2.9252
 1855SOL    HW217025   1.776   1.671   0.400 -0.4381  0.5893 -2.7509
 1856SOL     OW17026   3.653   4.712   1.144  0.1306  0.5070  0.6034
 1856SOL    HW117027   3.701   0.042   1.078 -1.2144  0.1142 -0.6776
 1856SOL    HW217028   3.723   4.698   1.208 -0.6507 -2.4282  0.8255
 1857SOL     OW17029   2.802   0.346  17.626 -0.2041 -0.1010 -0.2344
 1857SOL    HW117030   2.770   0.331   0.029 -0.1414 -0.2517 -0.2383
 1857SOL    HW217031   2.806   0.441  17.641 -1.6529 -0.5181  2.5998
 1858SOL     OW17032   3.894   4.181   4.791  0.3240  0.0607 -0.1471
 1858SOL    HW117033   3.864   4.181   4.882 -0.9813 -0.4559 -0.5703
 1858SOL    HW217034   3.853   4.097   4.772 -0.4314 -0.1459  2.3790
 1859SOL     OW17035   3.344   1.499   7.343  0.4622 -0.2087  0.7266
 1859SOL    HW117036   3.415   1.559   7.318 -0.7413  1.1919  0.7192
 1859SOL    HW217037   3.301   1.483   7.259 -0.5001 -1.7927  1.5174
 1860SOL     OW17038   3.752   1.899   9.931  0.2248  0.1547  0.1904
 1860SOL    HW117039   3.685   1.843   9.972 -0.8219  1.1493 -0.1497
 1860SOL    HW217040   3.705   1.917   9.849 -1.1208 -1.0883  0.6737
 1861SOL     OW17041   4.068   3.131   3.723 -0.2851  1.0936  0.5446
 1861SOL    HW117042   4.045   3.058   3.780 -0.2595 -0.1362 -1.0008
 1861SOL    HW217043   4.046   3.096   3.636  0.0110  0.7096  0.6282
 1862SOL     OW17044   4.633   4.489   2.125 -0.0765 -0.6117  0.4201
 1862SOL    HW117045   4.684   4.559   2.085 -1.1083 -0.4750 -0.6667
 1862SOL    HW217046   4.612   4.428   2.055  1.2233  1.3710 -1.6905
 1863SOL     OW17047   1.357   1.980   7.735 -0.6602  0.0845  1.1844
 1863SOL    HW117048   1.382   1.954   7.823  0.5181 -3.7321 -0.2661
 1863SOL    HW217049   1.439   1.975   7.685 -0.6461  1.2205  1.0804
 1864SOL     OW17050   0.012   2.370   2.298 -0.2595  0.2813 -0.0054
 1864SOL    HW117051   4.660   2.389   2.357  0.1233 -2.1313  1.2279
 1864SOL    HW217052   4.718   2.433   2.227  1.5178 -0.2164 -0.8186
 1865SOL     OW17053   2.382   2.183   7.950  0.6897 -0.1612  0.2005
 1865SOL    HW117054   2.417   2.154   8.034  0.8350  0.0091  0.2011
 1865SOL    HW217055   2.344   2.103   7.916 -0.4196 -0.3187  1.8211
 1866SOL     OW17056   0.390   1.300  16.653  0.0164  0.2728 -0.0268
 1866SOL    HW117057   0.338   1.275  16.730  1.5878 -1.5264  0.4766
 1866SOL    HW217058   0.369   1.228  16.593 -0.0432  0.7988 -0.6270
 1867SOL     OW17059   3.473   0.373   3.488 -0.2858  0.1926  0.1104
 1867SOL    HW117060   3.568   0.380   3.482 -0.3139  0.2172 -0.2667
 1867SOL    HW217061   3.460   0.371   3.583 -1.4673  1.0161 -0.0238
 1868SOL     OW17062   4.180   3.376   5.276  0.3626  1.2002  0.6495
 1868SOL    HW117063   4.231   3.452   5.305  1.9053  1.0358 -1.6164
 1868SOL    HW217064   4.182   3.386   5.180  0.0183 -1.7014  0.3314
 1869SOL     OW17065   0.696   4.416   9.909 -0.2219  0.4951 -0.1615
 1869SOL    HW117066   0.671   4.503   9.878 -1.2343  0.1357 -0.3485
 1869SOL    HW217067   0.733   4.375   9.831 -0.0030  1.5736 -0.6305
 1870SOL     OW17068   3.566   4.713   2.507  0.1097  0.0497 -0.0960
 1870SOL    HW117069   3.489   4.656   2.512 -1.0682  1.8869  3.0832
 1870SOL    HW217070   3.526   0.069   2.465 -2.2260 -0.7566  0.6227
 1871SOL     OW17071   0.441   4.391   2.414  0.1559  0.4401  0.4389
 1871SOL    HW117072   0.491   4.465   2.380 -3.2159  2.3889 -0.2386
 1871SOL    HW217073   0.489   4.372   2.494 -0.6497  2.8137  1.4816
 1872SOL     OW17074   3.133   3.651   4.673 -0.1346  0.6453 -0.1849
 1872SOL    HW117075   3.077   3.641   4.751  1.3500  2.4674  1.1046
 1872SOL    HW217076   3.218   3.667   4.714 -1.3485  0.0164  2.6104
 1873SOL     OW17077   3.558   4.111   3.241  0.0691 -0.3044  0.4979
 1873SOL    HW117078   3.548   4.105   3.336  2.9559  1.4730  0.8969
 1873SOL    HW217079   3.539   4.019   3.220 -1.1068 -0.1806  1.0501
 1874SOL     OW17080   0.102   0.323  11.944 -0.0404  0.2917 -0.3921
 1874SOL    HW117081   0.153   0.265  11.886 -2.1301 -1.7535 -0.2007
 1874SOL    HW217082   0.117   0.288  12.032  0.9671 -0.5338 -0.8861
 1875SOL     OW17083   4.206   3.063   8.597  0.4181  0.3440 -0.2570
 1875SOL    HW117084   4.125   3.012   8.587  1.4843 -1.4352  0.2330
 1875SOL    HW217085   4.235   3.065   8.506  0.3912 -0.1290 -0.2781
 1876SOL     OW17086   4.071   0.009   4.051  0.0312  0.2437 -1.4011
 1876SOL    HW117087   3.988   4.705   4.009 -0.5968 -0.9813  0.5247
 1876SOL    HW217088   4.084   4.644   4.092 -0.0738  0.7227 -0.3608
 1877SOL     OW17089   1.361   3.710  14.720  0.5993  0.5429  0.1279
 1877SOL    HW117090   1.371   3.708  14.815  0.5825 -0.5173  0.1105
 1877SOL    HW217091   1.268   3.695  14.703  0.2180  1.7058  1.1630
 1878SOL     OW17092   1.456   0.489   3.878 -0.1050 -0.1611 -0.0038
 1878SOL    HW117093   1.457   0.522   3.788 -2.8640  0.1877  0.0825
 1878SOL    HW217094   1.380   0.538   3.910  0.5096 -0.1822  1.4786
 1879SOL     OW17095   1.968   1.684   1.014  0.2587  0.1665  0.1605
 1879SOL    HW117096   1.984   1.596   0.980  2.2740  0.1069  1.2637
 1879SOL    HW217097   1.926   1.730   0.941 -0.7256 -3.5728 -1.6357
 1880SOL     OW17098   2.098   3.594   3.236 -0.2326 -0.5178 -0.2958
 1880SOL    HW117099   2.072   3.502   3.230  0.9112 -1.0022  2.5233
 1880SOL    HW217100   2.091   3.609   3.330  1.6096 -1.8068  0.0544
 1881SOL     OW17101   1.290   4.161   6.698  0.1382 -0.5143  0.2825
 1881SOL    HW117102   1.356   4.193   6.760 -2.3933 -0.2073  2.8159
 1881SOL    HW217103   1.344   4.152   6.619 -0.0111  1.5185 -0.0766
 1882SOL     OW17104   1.855   0.918   8.229 -0.1709  0.1453  0.1879
 1882SOL    HW117105   1.812   0.834   8.240 -0.3118  0.2940  0.7623
 1882SOL    HW217106   1.827   0.966   8.307 -1.8022  0.3542 -0.5353
 1883SOL     OW17107   3.398   1.846   1.205 -0.3212  0.3155  0.5840
 1883SOL    HW117108   3.401   1.761   1.250  0.3156 -0.7712 -1.5293
 1883SOL    HW217109   3.473   1.857   1.147  0.1047 -0.5656  0.9516
 1884SOL     OW17110   2.402   3.767  11.971 -0.0489 -0.0499 -0.1500
 1884SOL    HW117111   2.468   3.813  11.919  0.4817 -0.1191  0.4611
 1884SOL    HW217112   2.457   3.691  11.984  0.6866  0.9320  2.5855
 1885SOL     OW17113   2.469   2.443   7.880  0.0113 -0.1238  0.0519
 1885SOL    HW117114   2.416   2.366   7.900  0.5812 -0.2905  0.9209
 1885SOL    HW217115   2.491   2.464   7.970  1.1396 -2.0507  0.2385
 1886SOL     OW17116   0.774   1.349   3.134 -0.0182  0.2981 -0.3535
 1886SOL    HW117117   0.848   1.408   3.139  0.0265  0.3732 -1.9553
 1886SOL    HW217118   0.797   1.277   3.076 -0.2876 -1.0997  1.2514
 1887SOL     OW17119   1.750   2.676  10.187  0.0420 -0.3102 -0.7705
 1887SOL    HW117120   1.761   2.592  10.230  0.9631 -0.3496 -1.0759
 1887SOL    HW217121   1.842   2.699  10.197 -0.4795  0.3827  2.3441
 1888SOL     OW17122   2.127   3.705   8.412 -0.1752 -0.0045 -0.3821
 1888SOL    HW117123   2.038   3.727   8.440  0.0119  0.5440 -0.2137
 1888SOL    HW217124   2.137   3.635   8.476  1.1206 -0.1480 -0.7288
 1889SOL     OW17125   4.184   0.330   8.393  0.0390 -0.4472  0.4155
 1889SOL    HW117126   4.254   0.317   8.328  0.4437  1.5596  0.4481
 1889SOL    HW217127   4.142   0.245   8.379  0.6408 -0.8411  0.9826
 1890SOL     OW17128   1.597   3.883   1.025  0.2284 -0.6170  0.3890
 1890SOL    HW117129   1.623   3.858   1.114 -2.7768 -1.0937  1.1333
 1890SOL    HW217130   1.683   3.883   0.984  0.4120 -0.3088  0.7716
 1891SOL     OW17131   2.745   2.881  15.927 -1.1273  0.2605 -0.9150
 1891SOL    HW117132   2.687   2.932  15.870 -3.2364  1.6840  2.5111
 1891SOL    HW217133   2.679   2.862  15.993 -1.4823 -2.7521 -2.1190
 1892SOL     OW17134   4.436   2.300   5.447  0.0386  0.5132  0.3423
 1892SOL    HW117135   4.340   2.309   5.447  0.1284  1.4867  0.8064
 1892SOL    HW217136   4.454   2.390   5.473 -0.0312  0.5021  0.4276
 1893SOL     OW17137   1.492   4.597   2.316  0.1333 -0.5847  0.9885
 1893SOL    HW117138   1.426   4.558   2.259 -0.8848  1.4752  0.7561
 1893SOL    HW217139   1.547   4.519   2.325  0.9177 -0.1610 -0.1078
 1894SOL     OW17140   0.858   3.314   6.927  0.3498  0.1267  0.5165
 1894SOL    HW117141   0.882   3.321   6.834 -0.1307 -0.3810  0.3567
 1894SOL    HW217142   0.816   3.229   6.929  2.6398 -1.1253 -3.1283
 1895SOL     OW17143   1.507   2.862   4.275  0.4358  0.0724  0.0075
 1895SOL    HW117144   1.444   2.796   4.247 -0.9014  2.0436 -1.5985
 1895SOL    HW217145   1.543   2.818   4.352  1.9198 -2.2456 -1.9962
 1896SOL     OW17146   2.563   0.984  12.800 -0.2803  0.8460 -0.0981
 1896SOL    HW117147   2.619   0.918  12.759 -0.1451 -0.0051  1.4698
 1896SOL    HW217148   2.545   1.042  12.726 -0.4819  0.0568 -0.6710
 1897SOL     OW17149   1.526   1.159   6.539  1.0473  1.1812  0.0248
 1897SOL    HW117150   1.451   1.099   6.543  1.6400  0.4656  0.2085
 1897SOL    HW217151   1.566   1.126   6.459  0.1390  1.3566 -0.5120
 1898SOL     OW17152   2.801   2.591  13.105  0.1228 -0.2756  0.2703
 1898SOL    HW117153   2.882   2.550  13.135  1.0268  2.2265  1.2783
 1898SOL    HW217154   2.792   2.639  13.187 -0.3437 -1.6876  1.0310
 1899SOL     OW17155   4.246   1.421  13.745 -0.2119  0.3954  0.5206
 1899SOL    HW117156   4.171   1.405  13.801  0.2319 -0.5459  0.8388
 1899SOL    HW217157   4.299   1.342  13.754 -0.5765  0.1827  0.7663
 1900SOL     OW17158   0.574   4.609   5.325  0.1078 -0.3133 -0.5654
 1900SOL    HW117159   0.668   4.626   5.332 -0.2228  1.1283  0.4354
 1900SOL    HW217160   0.552   4.656   5.406  2.9464 -0.3061  0.1931
 1901SOL     OW17161   2.193   3.001   1.461 -0.0696 -0.1338 -0.4103
 1901SOL    HW117162   2.245   3.064   1.410  0.5986 -1.3480 -1.2320
 1901SOL    HW217163   2.157   2.953   1.387  0.1930  0.5272 -0.9636
 1902SOL     OW17164   3.508   4.101  10.473 -0.3941 -0.1744  0.1850
 1902SOL    HW117165   3.537   4.108  10.564 -2.7471  0.8148  0.8532
 1902SOL    HW217166   3.518   4.005  10.468 -0.1596 -0.1333 -0.1570
 1903SOL     OW17167   0.360   0.035   0.523 -0.4129 -0.6120  0.3917
 1903SOL    HW117168   0.394   0.040   0.612  3.0912 -1.5557 -0.8654
 1903SOL    HW217169   0.400   0.113   0.484  0.1005 -1.0944 -0.0587
 1904SOL     OW17170   0.109   2.846   3.226 -0.2812  0.5084 -0.0325
 1904SOL    HW117171   0.168   2.832   3.153 -0.8304  1.5014 -0.6627
 1904SOL    HW217172   0.027   2.875   3.186 -1.0990 -2.9807 -0.8224
 1905SOL     OW17173   0.013   4.112   6.910 -0.5581 -0.1833 -0.4294
 1905SOL    HW117174   4.692   4.198   6.900  1.4264  0.5737 -2.2082
 1905SOL    HW217175   0.098   4.144   6.881 -0.6203 -0.0043 -0.4170
 1906SOL     OW17176   2.154   0.051   7.917  0.1175  0.4432  0.6021
 1906SOL    HW117177   2.145   0.021   8.007 -1.3428 -0.0090  0.2998
 1906SOL    HW217178   2.073   0.021   7.875  0.8946  0.6630 -1.0595
 1907SOL     OW17179   2.850   4.543  13.041 -0.4606 -0.7967  0.0790
 1907SOL    HW117180   2.860   4.638  13.045  0.6475 -0.9610  1.0853
 1907SOL    HW217181   2.872   4.519  13.131  0.2077  3.1831  0.9696
 1908SOL     OW17182   2.270   0.382   7.742 -0.4218  0.3190 -0.0998
 1908SOL    HW117183   2.244   0.437   7.816 -0.0647 -0.8305  0.8807
 1908SOL    HW217184   2.273   0.442   7.668 -0.3889 -1.6158 -1.6872
 1909SOL     OW17185   4.253   3.494   7.647 -0.0401  0.5011 -0.4876
 1909SOL    HW117186   4.158   3.504   7.641 -0.4209 -1.6850  1.9271
 1909SOL    HW217187   4.259   3.401   7.669 -0.8229  0.9666  1.7471
 1910SOL     OW17188   0.871   4.134   8.179  0.9184  0.2543  0.4822
 1910SOL    HW117189   0.891   4.216   8.222  0.4377 -0.7790  2.6579
 1910SOL    HW217190   0.946   4.123   8.119  0.1764 -1.0011 -0.2181
 1911SOL     OW17191   3.107   2.555   7.095 -0.1017  0.1434  0.3164
 1911SOL    HW117192   3.148   2.471   7.116  0.7192  0.3206 -0.5596
 1911SOL    HW217193   3.183   2.588   7.048  0.4455  0.5259  1.4796
 1912SOL     OW17194   0.426   3.612   2.071  0.0193 -0.8258  0.8045
 1912SOL    HW117195   0.522   3.605   2.063  0.0059  1.4813 -1.5784
 1912SOL    HW217196   0.425   3.704   2.046 -1.4893 -0.7100  1.3389
 1913SOL     OW17197   3.947   0.900   1.462  0.4373 -0.3291 -0.0029
 1913SOL    HW117198   3.964   0.806   1.463  1.0870 -0.2279 -1.2562
 1913SOL    HW217199   3.982   0.923   1.548 -1.2276  1.2704  0.2342
 1914SOL     OW17200   0.955   4.000   8.803 -0.6926  0.3472 -0.0379
 1914SOL    HW117201   0.926   4.056   8.731 -1.3245 -1.7559 -1.4097
 1914SOL    HW217202   0.899   3.923   8.787 -2.3366  1.5814 -0.2184
 1915SOL     OW17203   0.354   2.639  15.770  0.1642 -0.1271 -0.0220
 1915SOL    HW117204   0.258   2.641  15.765  0.2485 -0.5780 -1.8677
 1915SOL    HW217205   0.372   2.555  15.726 -0.2252  1.3573 -3.0237
 1916SOL     OW17206   3.269   4.481  15.571  0.2955  0.3899  0.8553
 1916SOL    HW117207   3.264   4.392  15.605 -0.6060  0.3424  0.5798
 1916SOL    HW217208   3.340   4.534  15.609 -1.4687  1.8167  2.1447
 1917SOL     OW17209   4.649   2.881  17.502 -0.1179 -0.3843  0.1279
 1917SOL    HW117210   4.632   2.975  17.495  1.0931 -0.1477  0.3522
 1917SOL    HW217211   4.685   2.867  17.415 -1.1417  3.3152 -0.9018
 1918SOL     OW17212   0.197   4.017   8.574  0.6536  0.2240 -0.3309
 1918SOL    HW117213   0.158   3.930   8.581 -1.3749  1.2210  0.7130
 1918SOL    HW217214   0.289   4.001   8.598  0.2340  0.2172  1.2434
 1919SOL     OW17215   1.704   4.421   3.566 -0.5805 -0.3892 -0.0805
 1919SOL    HW117216   1.758   4.381   3.498 -0.8205  0.3849 -0.7250
 1919SOL    HW217217   1.631   4.452   3.512  1.2610  1.0740 -1.7067
 1920SOL     OW17218   2.191   0.162   3.677 -0.4634 -0.3364 -0.3182
 1920SOL    HW117219   2.267   0.128   3.630 -1.1498  0.6260 -2.1006
 1920SOL    HW217220   2.128   0.091   3.667  1.9843 -2.4991 -0.4069
 1921SOL     OW17221   1.602   3.012   5.327 -0.5838  0.2804  0.1065
 1921SOL    HW117222   1.510   3.030   5.349 -0.2131 -0.6976  2.4972
 1921SOL    HW217223   1.638   2.988   5.412  0.6760  2.1433  0.0962
 1922SOL     OW17224   1.880   1.838   0.814 -0.0851 -0.3941 -0.0529
 1922SOL    HW117225   1.812   1.873   0.757 -1.2878 -1.6674  0.5685
 1922SOL    HW217226   1.925   1.913   0.853 -3.8380  0.6274  2.3558
 1923SOL     OW17227   3.893   2.977   2.656  0.1511 -0.1343 -0.4074
 1923SOL    HW117228   3.817   2.958   2.712 -1.4292 -0.3991 -2.6504
 1923SOL    HW217229   3.862   2.996   2.568  0.0512 -2.5946 -0.9009
 1924SOL     OW17230   2.356   0.140   7.777  0.0014 -0.0247 -0.5556
 1924SOL    HW117231   2.326   0.228   7.755 -1.4735 -0.7250 -1.3076
 1924SOL    HW217232   2.301   0.120   7.853 -1.0020 -1.5169 -1.7052
 1925SOL     OW17233   0.534   0.190   3.422  0.2197 -0.3302 -0.0578
 1925SOL    HW117234   0.565   0.107   3.387  0.9560 -0.3261  0.5937
 1925SOL    HW217235   0.550   0.169   3.514  0.3399  1.6796  0.3885
 1926SOL     OW17236   1.577   2.121   4.865 -0.0699  0.1760  0.7302
 1926SOL    HW117237   1.661   2.074   4.865  0.2349  0.7097  0.7901
 1926SOL    HW217238   1.616   2.209   4.868  1.1311 -0.2341 -2.5040
 1927SOL     OW17239   1.605   2.091  16.015 -0.3727  0.2971  0.5793
 1927SOL    HW117240   1.527   2.136  15.984  0.5025  0.4931 -1.3594
 1927SOL    HW217241   1.578   2.064  16.102  0.7574 -0.0759  0.8181
 1928SOL     OW17242   2.173   2.692  10.863  0.8853 -0.2703 -0.0603
 1928SOL    HW117243   2.222   2.616  10.894  2.8258  0.8507 -0.3525
 1928SOL    HW217244   2.081   2.667  10.875  1.1339 -0.2095  1.9364
 1929SOL     OW17245   1.635   1.159   9.356 -0.5055  0.1150 -0.3009
 1929SOL    HW117246   1.660   1.203   9.274 -0.2459  2.7914  1.2092
 1929SOL    HW217247   1.716   1.118   9.384  0.8638  3.5348  0.7503
 1930SOL     OW17248   3.113   2.749   3.739  0.1900  0.0649 -0.0014
 1930SOL    HW117249   3.028   2.719   3.706 -0.2650  1.7687 -0.4239
 1930SOL    HW217250   3.143   2.820   3.682 -0.2027 -0.5443 -0.9837
 1931SOL     OW17251   0.729   0.849  14.162  0.1702 -0.3115 -0.2004
 1931SOL    HW117252   0.749   0.817  14.250 -1.9428 -0.4663  0.2233
 1931SOL    HW217253   0.645   0.893  14.151 -0.2536 -1.0036  0.2627
 1932SOL     OW17254   3.758   0.793   5.901 -0.0198 -0.2605 -0.1859
 1932SOL    HW117255   3.680   0.764   5.949  0.2950  0.1935  0.5993
 1932SOL    HW217256   3.824   0.769   5.966 -0.5397 -1.0982  0.0393
 1933SOL     OW17257   1.855   4.577   6.878 -0.3880 -0.0086  0.0086
 1933SOL    HW117258   1.831   4.665   6.850 -0.6810  0.1574  0.7735
 1933SOL    HW217259   1.788   4.562   6.945 -1.6191  2.6186 -0.6496
 1934SOL     OW17260   4.133   4.292  16.302 -0.3086 -0.2944  0.0209
 1934SOL    HW117261   4.093   4.239  16.371  1.4642  0.8623  1.9243
 1934SOL    HW217262   4.183   4.225  16.255  2.3628  1.6743  0.0303
 1935SOL     OW17263   0.906   1.653   9.679 -0.4981  0.3617  0.4233
 1935SOL    HW117264   0.844   1.691   9.741 -0.7662  0.1336  0.2989
 1935SOL    HW217265   0.938   1.736   9.644  3.0021  0.0073  2.7660
 1936SOL     OW17266   0.199   2.255   2.803  0.8209  0.1370  0.1299
 1936SOL    HW117267   0.173   2.224   2.889 -1.8748  2.6331  0.2166
 1936SOL    HW217268   0.291   2.269   2.826  0.8472 -0.2346  0.2497
 1937SOL     OW17269   0.958   4.422  11.081 -0.1933 -0.1729  0.4388
 1937SOL    HW117270   0.996   4.447  10.996 -3.6188  1.8729 -0.4913
 1937SOL    HW217271   0.871   4.388  11.058 -0.1094 -0.8597  1.1276
 1938SOL     OW17272   1.089   2.300  13.557  0.1768 -0.2684  0.0338
 1938SOL    HW117273   1.097   2.373  13.495 -0.0584 -0.6820 -0.4818
 1938SOL    HW217274   0.996   2.307  13.578  0.4665 -1.2214  1.6174
 1939SOL     OW17275   3.210   2.989  12.394 -0.1125 -0.3504  0.0914
 1939SOL    HW117276   3.269   3.062  12.410  0.5399 -0.9593  0.4685
 1939SOL    HW217277   3.138   3.005  12.455 -1.1120 -0.8629 -0.9476
 1940SOL     OW17278   4.542   2.133   1.071  0.1584  0.1187 -0.2088
 1940SOL    HW117279   4.565   2.041   1.078  2.7585  0.9347  1.8634
 1940SOL    HW217280   4.609   2.177   1.124  1.5510  0.3538 -2.1385
 1941SOL     OW17281   2.551   1.822   7.318 -0.0561 -0.5156  0.4311
 1941SOL    HW117282   2.561   1.854   7.229  3.3245 -1.2798  0.5631
 1941SOL    HW217283   2.457   1.803   7.316  0.1555 -1.8265  2.4833
 1942SOL     OW17284   0.260   2.097   5.878  0.3233 -0.1568 -0.2846
 1942SOL    HW117285   0.323   2.041   5.832 -0.5258 -1.4958  0.1678
 1942SOL    HW217286   0.304   2.114   5.961  0.7372  0.2143 -0.5833
 1943SOL     OW17287   4.347   3.634   8.836  0.3440 -0.3695 -0.7422
 1943SOL    HW117288   4.369   3.584   8.758  0.7640 -1.1794 -0.1008
 1943SOL    HW217289   4.342   3.718   8.790 -1.5255 -0.9698 -1.6564
 1944SOL     OW17290   1.120   2.873  15.314 -0.2578  0.2131  0.1892
 1944SOL    HW117291   1.181   2.800  15.307 -0.8432 -0.1942 -0.7135
 1944SOL    HW217292   1.160   2.929  15.247 -0.5780  0.1224 -0.0823
 1945SOL     OW17293   0.113   1.316   5.820  0.1477  0.6431  0.0863
 1945SOL    HW117294   0.119   1.233   5.774  0.3734  0.5681  0.2490
 1945SOL    HW217295   0.116   1.287   5.911 -0.0148  0.5629  0.0664
 1946SOL     OW17296   3.146   1.328   6.433 -0.2316 -0.2764  0.4235
 1946SOL    HW117297   3.167   1.239   6.461  0.6478 -0.7819 -1.7737
 1946SOL    HW217298   3.222   1.355   6.381  0.3504 -1.6399  0.5648
 1947SOL     OW17299   3.118   4.631   3.382  0.1478  0.2158  0.1879
 1947SOL    HW117300   3.166   4.692   3.438 -0.9309  1.5899 -0.3879
 1947SOL    HW217301   3.176   4.622   3.307  1.3454  0.9685  1.0248
 1948SOL     OW17302   4.686   3.464  11.083 -0.1073  0.1353  0.7486
 1948SOL    HW117303   4.694   3.522  11.008 -0.9524 -2.1387 -1.0939
 1948SOL    HW217304   4.655   3.383  11.043 -0.9373  0.7911  0.0584
 1949SOL     OW17305   2.169   2.754   4.924 -0.1044 -0.2075 -0.2074
 1949SOL    HW117306   2.096   2.794   4.971 -0.2021 -0.0637 -0.4827
 1949SOL    HW217307   2.213   2.712   4.998  0.1971  1.4783  0.5539
 1950SOL     OW17308   0.956   3.008   7.996 -0.0732 -0.5830 -0.6210
 1950SOL    HW117309   0.941   2.914   7.990 -0.4391 -0.6174  0.8510
 1950SOL    HW217310   0.955   3.034   8.088  1.4519  0.9105 -1.0360
 1951SOL     OW17311   0.521   3.756  15.749  0.1176  0.2661  0.1512
 1951SOL    HW117312   0.480   3.704  15.680 -0.7447 -0.8076  1.4894
 1951SOL    HW217313   0.541   3.836  15.700 -0.1385  0.1008 -0.2210
 1952SOL     OW17314   0.413   2.198   6.712 -0.5101 -0.2212  0.0053
 1952SOL    HW117315   0.457   2.134   6.656 -0.0888 -0.6034  0.7621
 1952SOL    HW217316   0.466   2.195   6.792 -0.3396 -1.4965 -0.1544
 1953SOL     OW17317   2.487   0.596  16.410 -0.1502  0.1525  0.3885
 1953SOL    HW117318   2.440   0.679  16.409  1.3011  0.9429 -1.5401
 1953SOL    HW217319   2.521   0.600  16.320  0.4853  1.4743  0.6964
 1954SOL     OW17320   0.584   1.134   6.212 -0.2288 -0.3310  0.7135
 1954SOL    HW117321   0.565   1.065   6.275 -0.7703 -0.7618  0.0802
 1954SOL    HW217322   0.678   1.128   6.195  0.0203  1.4085  1.4818
 1955SOL     OW17323   0.486   4.212  16.963 -0.2553 -0.2501  0.0640
 1955SOL    HW117324   0.550   4.186  16.897 -1.5888 -2.5177 -0.3662
 1955SOL    HW217325   0.537   4.206  17.044 -1.6826 -0.7102  0.9320
 1956SOL     OW17326   1.905   2.812  14.687  0.4241  0.7528  0.3551
 1956SOL    HW117327   1.813   2.805  14.711 -0.2851  2.2047 -1.9308
 1956SOL    HW217328   1.903   2.889  14.630 -1.4383 -0.6828 -1.5347
 1957SOL     OW17329   4.459   3.382   0.920 -0.6341  0.6536  0.4527
 1957SOL    HW117330   4.431   3.397   0.830 -0.0163  2.8981  0.6585
 1957SOL    HW217331   4.477   3.288   0.923 -2.2497  0.3584  1.0958
 1958SOL     OW17332   0.029   0.278   1.198  0.3822 -0.7707 -0.8360
 1958SOL    HW117333   4.666   0.324   1.197 -0.6382 -2.6321 -1.5915
 1958SOL    HW217334   0.002   0.187   1.214 -1.5733  0.2315  1.6511
 1959SOL     OW17335   4.546   3.111   5.341 -0.1285  0.1666  0.4463
 1959SOL    HW117336   4.575   3.038   5.397  1.4733 -0.1636 -0.8222
 1959SOL    HW217337   4.457   3.126   5.375  0.0842  0.6666  0.7750
 1960SOL     OW17338   3.763   0.298  17.188 -0.2509 -0.6825  0.1132
 1960SOL    HW117339   3.842   0.314  17.137 -1.2840  0.0193 -1.2740
 1960SOL    HW217340   3.797   0.291  17.277  1.9206 -1.1887 -0.7498
 1961SOL     OW17341   1.181   2.074   0.733 -0.6594  0.6599  0.2063
 1961SOL    HW117342   1.173   2.090   0.639 -0.1748 -0.4262 -0.0226
 1961SOL    HW217343   1.153   2.159   0.768 -0.3766  0.7565  0.1953
 1962SOL     OW17344   1.712   2.085  13.950 -0.3704  0.0709 -0.5717
 1962SOL    HW117345   1.673   2.001  13.924 -0.2920 -0.2583  0.3632
 1962SOL    HW217346   1.647   2.149  13.919 -1.9695 -0.7565  1.0690
 1963SOL     OW17347   1.189   4.378   6.996  0.0986 -0.1218  0.2156
 1963SOL    HW117348   1.153   4.293   7.019 -0.0474  0.7964  3.3411
 1963SOL    HW217349   1.282   4.358   6.983 -0.0948 -0.1827 -1.0571
 1964SOL     OW17350   2.974   4.633   6.114  0.1676  0.1478 -0.3155
 1964SOL    HW117351   3.012   4.677   6.038  1.6236  0.6741  0.7115
 1964SOL    HW217352   2.998   4.541   6.102  1.3683  0.4483 -0.2721
 1965SOL     OW17353   0.825   4.190  15.671  0.5381 -0.3023 -0.6338
 1965SOL    HW117354   0.910   4.187  15.714 -0.0354 -0.6118  0.4715
 1965SOL    HW217355   0.794   4.271  15.710 -0.3785 -2.3338  2.8720
 1966SOL     OW17356   0.401   4.634   6.259 -0.1702  0.1303 -0.1066
 1966SOL    HW117357   0.337   4.660   6.325 -0.9155 -0.2495 -0.6794
 1966SOL    HW217358   0.455   4.568   6.303 -0.2959 -0.0085 -0.1626
 1967SOL     OW17359   3.978   1.855   8.587 -1.2071 -0.1073  0.1579
 1967SOL    HW117360   3.949   1.819   8.671 -0.9411 -0.3008  0.1627
 1967SOL    HW217361   3.996   1.778   8.534  1.6694  1.3428 -0.9230
 1968SOL     OW17362   0.539   1.871  12.181 -0.4963  0.3738  0.1556
 1968SOL    HW117363   0.448   1.842  12.187 -0.2962 -0.8961 -2.9391
 1968SOL    HW217364   0.580   1.810  12.242  0.5511  0.3551 -0.5702
 1969SOL     OW17365   4.624   0.828   9.217 -0.2791  0.3119  0.5674
 1969SOL    HW117366   4.533   0.840   9.190  0.3775  1.3065 -1.1651
 1969SOL    HW217367   4.651   0.919   9.232 -0.5579  0.4533  0.2066
 1970SOL     OW17368   4.506   4.664   7.704  0.5220  0.0084 -0.2716
 1970SOL    HW117369   4.459   4.692   7.625 -2.0951 -2.7231  0.3430
 1970SOL    HW217370   4.595   4.688   7.678  1.4883 -2.0884  1.1300
 1971SOL     OW17371   1.997   4.275   3.779 -0.7126  0.1101 -0.0906
 1971SOL    HW117372   1.980   4.229   3.861 -0.6810  1.9175  0.9338
 1971SOL    HW217373   1.969   4.207   3.719  2.6929  0.3426 -1.9471
 1972SOL     OW17374   3.605   1.387   3.141 -0.6154  0.0018  0.0950
 1972SOL    HW117375   3.553   1.459   3.179 -1.2454 -1.9265  2.9119
 1972SOL    HW217376   3.683   1.442   3.134 -0.4193 -0.3123 -0.1387
 1973SOL     OW17377   2.683   2.479  11.156  0.2124  0.0745 -0.1583
 1973SOL    HW117378   2.739   2.555  11.176 -1.3213  0.8931  1.0013
 1973SOL    HW217379   2.696   2.430  11.238 -1.3645  0.5292  0.3573
 1974SOL     OW17380   2.140   2.427   2.718  0.1169 -0.3025  0.1675
 1974SOL    HW117381   2.212   2.373   2.750  0.6236  0.5841  0.5333
 1974SOL    HW217382   2.178   2.459   2.636 -1.3782 -2.5299 -1.3775
 1975SOL     OW17383   2.363   4.139   6.629  0.3385  0.2631 -0.1007
 1975SOL    HW117384   2.307   4.066   6.658  0.4059  0.7442  1.2412
 1975SOL    HW217385   2.455   4.116   6.637  0.6512  0.3783 -3.4462
 1976SOL     OW17386   2.732   2.174   9.390 -0.0499  0.2557 -0.2251
 1976SOL    HW117387   2.686   2.139   9.314 -0.3129 -3.5985  1.7324
 1976SOL    HW217388   2.720   2.102   9.451  0.9108 -1.1487 -1.7031
 1977SOL     OW17389   0.982   1.049  12.298  0.6283 -1.0102 -0.6393
 1977SOL    HW117390   0.908   1.062  12.239  1.0926  1.9700 -0.5365
 1977SOL    HW217391   1.049   1.083  12.238 -0.9892  1.8480 -0.7666
 1978SOL     OW17392   0.469   0.423   2.515 -0.3449 -0.0260  0.2379
 1978SOL    HW117393   0.449   0.502   2.564  0.9656 -0.3731  1.3224
 1978SOL    HW217394   0.384   0.394   2.481  0.2514 -1.2049 -0.2621
 1979SOL     OW17395   3.343   0.059   3.461 -0.1201  0.3919  0.3552
 1979SOL    HW117396   3.355   0.066   3.556 -0.6073 -1.3048  0.5468
 1979SOL    HW217397   3.432   0.075   3.430 -0.5694 -0.3615 -1.3528
 1980SOL     OW17398   0.192   2.351   0.961  0.1184 -0.0760 -0.0663
 1980SOL    HW117399   0.248   2.422   0.992  0.5567 -0.7060  0.5737
 1980SOL    HW217400   0.251   2.294   0.913 -0.6832 -0.0049 -1.1444
 1981SOL     OW17401   2.700   3.517   7.975  0.2265 -0.2452 -0.7758
 1981SOL    HW117402   2.746   3.599   7.959  1.1593 -0.9575 -1.6942
 1981SOL    HW217403   2.647   3.512   7.896  1.2148  0.2070 -1.4568
 1982SOL     OW17404   1.797   1.604   8.659  0.2399  0.0886  0.4581
 1982SOL    HW117405   1.815   1.614   8.753  1.7215  0.1055  0.1703
 1982SOL    HW217406   1.786   1.509   8.659  0.4561  0.0663 -1.3175
 1983SOL     OW17407   1.578   4.159  15.030  0.0936 -0.6281  0.3136
 1983SOL    HW117408   1.640   4.092  15.059  2.3536  1.5909  0.6401
 1983SOL    HW217409   1.523   4.160  15.108 -0.3844 -0.2479 -0.0266
 1984SOL     OW17410   0.258   0.735   3.244  0.6339  0.6561 -0.0058
 1984SOL    HW117411   0.321   0.804   3.263  1.2814  0.6170 -1.9759
 1984SOL    HW217412   0.207   0.734   3.324  0.2175 -2.6084 -0.3133
 1985SOL     OW17413   0.634   1.239   4.510 -0.0617  0.1939  0.2013
 1985SOL    HW117414   0.604   1.284   4.431 -2.4743 -2.4382 -0.4149
 1985SOL    HW217415   0.728   1.229   4.494 -0.0296 -0.6812  0.9295
 1986SOL     OW17416   3.331   4.634  10.469  0.5498  0.4768  0.7050
 1986SOL    HW117417   3.256   4.583  10.501  1.6918 -2.1064 -0.8039
 1986SOL    HW217418   3.352   4.594  10.385 -0.2210  1.3687  0.0791
 1987SOL     OW17419   2.240   2.162   6.141  0.0407  0.7790 -0.4007
 1987SOL    HW117420   2.190   2.222   6.086 -1.4816 -0.9667 -0.9081
 1987SOL    HW217421   2.209   2.190   6.228  0.0990 -0.8718  0.1571
 1988SOL     OW17422   4.110   3.781  14.836  0.3271  0.0713 -0.3296
 1988SOL    HW117423   4.158   3.863  14.824  1.7781 -0.5816  1.0181
 1988SOL    HW217424   4.021   3.804  14.809 -0.4842 -0.5334  1.8092
 1989SOL     OW17425   2.360   2.632   9.145  0.1834  0.1153  0.3877
 1989SOL    HW117426   2.337   2.676   9.227 -0.0281  0.3605  0.2011
 1989SOL    HW217427   2.452   2.651   9.131  0.2634 -1.7618 -1.6264
 1990SOL     OW17428   1.621   4.065  11.292  0.3123  0.2811 -0.6673
 1990SOL    HW117429   1.587   4.086  11.205  1.7298 -1.6929 -1.7095
 1990SOL    HW217430   1.711   4.097  11.291  0.1559  0.7473  0.2690
 1991SOL     OW17431   1.975   3.441   2.001 -0.0762 -0.1778 -0.0106
 1991SOL    HW117432   1.907   3.398   2.053  0.2240 -1.9298 -1.0776
 1991SOL    HW217433   2.024   3.359   1.995  1.6815  0.8026  1.2788
 1992SOL     OW17434   2.639   2.593   5.904  0.0831 -0.0166  0.0050
 1992SOL    HW117435   2.711   2.555   5.954 -1.2634 -2.7601 -0.1571
 1992SOL    HW217436   2.639   2.535   5.828  0.2926 -0.2854  0.2096
 1993SOL     OW17437   1.469   1.472   3.759  0.0172 -0.1198  0.2651
 1993SOL    HW117438   1.418   1.397   3.729  0.3571  0.7741 -2.5698
 1993SOL    HW217439   1.401   1.519   3.806  1.1379  0.1310  1.6201
 1994SOL     OW17440   3.911   2.694   6.080  0.2604 -0.5200 -0.0705
 1994SOL    HW117441   3.936   2.617   6.131  1.8779  0.2690  0.3511
 1994SOL    HW217442   3.988   2.704   6.024  0.3134  0.7384  0.2117
 1995SOL     OW17443   1.700   1.737   9.406 -0.1982  0.2778 -0.6303
 1995SOL    HW117444   1.788   1.761   9.436 -1.6001  0.4172  3.3633
 1995SOL    HW217445   1.653   1.821   9.398  2.4627  2.0034  1.6430
 1996SOL     OW17446   1.351   3.890   0.341 -0.0563  0.0511  0.2002
 1996SOL    HW117447   1.370   3.827   0.411  2.1771  0.8653  0.3025
 1996SOL    HW217448   1.395   3.851   0.266 -0.4768  1.4717 -0.7823
 1997SOL     OW17449   0.951   3.076   3.904  0.2243 -0.3927 -0.5754
 1997SOL    HW117450   0.907   3.077   3.819 -1.3389 -0.1986  0.2214
 1997SOL    HW217451   1.042   3.054   3.887  0.3245 -0.2672 -0.1949
 1998SOL     OW17452   2.538   1.434   5.204 -0.0654 -0.0334 -0.0128
 1998SOL    HW117453   2.558   1.501   5.270  1.9589 -2.6011  1.9782
 1998SOL    HW217454   2.457   1.470   5.168 -0.0278  0.0445 -0.0203
 1999SOL     OW17455   0.171   4.193   3.594 -0.3283 -0.3875 -0.2834
 1999SOL    HW117456   0.086   4.155   3.570 -0.0995 -0.8789 -0.3192
 1999SOL    HW217457   0.224   4.190   3.514  0.6721 -1.3945  0.4198
 2000SOL     OW17458   4.145   1.733  13.867 -0.2685  0.3263 -0.1968
 2000SOL    HW117459   4.221   1.778  13.905 -1.2246  2.4201 -0.8131
 2000SOL    HW217460   4.172   1.641  13.862  0.2585  0.4523  0.2915
 2001SOL     OW17461   3.842   0.368  17.445 -0.1084 -0.0112  0.0810
 2001SOL    HW117462   3.906   0.367  17.517  0.4666 -3.0397 -0.4817
 2001SOL    HW217463   3.769   0.413  17.487 -0.0262 -0.6561  0.9202
 2002SOL     OW17464   2.234   1.607   4.484 -0.0831  0.3577 -0.2721
 2002SOL    HW117465   2.179   1.555   4.426  1.3002 -1.5695  0.1456
 2002SOL    HW217466   2.182   1.687   4.496 -0.4620  0.2661 -1.3371
 2003SOL     OW17467   2.817   2.743   5.243  0.2267  0.6307  0.1717
 2003SOL    HW117468   2.811   2.724   5.150 -2.2027 -1.0295  0.6665
 2003SOL    HW217469   2.756   2.687   5.291  2.6336 -1.9206  0.2660
 2004SOL     OW17470   3.099   3.857   2.880 -0.4019 -0.0202 -0.3538
 2004SOL    HW117471   3.189   3.881   2.861 -1.0650  1.9938 -0.9246
 2004SOL    HW217472   3.056   3.871   2.796  0.1911 -1.4444 -0.8968
 2005SOL     OW17473   0.328   0.484   2.161  0.0516  0.3675  0.1745
 2005SOL    HW117474   0.259   0.429   2.124 -0.5227  1.2508 -0.0838
 2005SOL    HW217475   0.382   0.419   2.205 -0.6152 -0.3948 -0.1371
 2006SOL     OW17476   1.290   1.249   3.705 -0.0643  0.0304  0.0607
 2006SOL    HW117477   1.224   1.225   3.640 -0.6423 -1.3915  1.1708
 2006SOL    HW217478   1.247   1.292   3.779  1.1875 -0.8866  1.3047
 2007SOL     OW17479   3.031   4.716   4.012 -0.1088 -0.2700 -0.1443
 2007SOL    HW117480   3.010   0.036   3.928  2.1819 -2.7424 -1.9361
 2007SOL    HW217481   3.084   4.642   3.982 -0.9507 -0.0952 -2.0534
 2008SOL     OW17482   0.204   0.997  15.258  0.2510  0.1659  0.5257
 2008SOL    HW117483   0.206   0.996  15.354 -0.5612 -2.7583  0.5050
 2008SOL    HW217484   0.260   1.072  15.240  0.3437 -0.7097 -2.7068
 2009SOL     OW17485   4.252   2.623   6.590 -0.0274 -0.0452  0.4926
 2009SOL    HW117486   4.196   2.545   6.599 -0.8734  0.3099 -1.6418
 2009SOL    HW217487   4.268   2.640   6.682 -3.0155 -1.2565  1.2616
 2010SOL     OW17488   1.615   0.266   8.229 -0.1338 -0.2479  0.0371
 2010SOL    HW117489   1.687   0.290   8.287 -1.4936  0.2358  1.5133
 2010SOL    HW217490   1.537   0.311   8.263  0.3809  0.3073  0.4975
 2011SOL     OW17491   0.700   2.197  10.823 -0.2245  0.1420  0.6895
 2011SOL    HW117492   0.745   2.155  10.896 -1.2607  0.0857  1.2949
 2011SOL    HW217493   0.607   2.177  10.830  0.1941 -1.5981  1.2235
 2012SOL     OW17494   3.162   2.823   4.529 -0.5690  0.0125  0.2513
 2012SOL    HW117495   3.152   2.881   4.605 -1.0407  1.0173 -0.5704
 2012SOL    HW217496   3.195   2.746   4.573  0.3792 -1.0302 -2.2716
 2013SOL     OW17497   0.452   1.378  13.799 -0.3294  0.1929  0.4283
 2013SOL    HW117498   0.544   1.392  13.824  0.1634 -2.9943  0.4911
 2013SOL    HW217499   0.439   1.461  13.754 -0.7908  0.4879  1.1121
 2014SOL     OW17500   4.392   3.271   3.873 -0.3346 -0.3699  0.4221
 2014SOL    HW117501   4.359   3.194   3.827  0.5215  0.0272 -0.8454
 2014SOL    HW217502   4.312   3.323   3.863  0.0728 -0.4775 -3.4759
 2015SOL     OW17503   4.036   4.603   2.991  0.2878 -0.2303 -0.0604
 2015SOL    HW117504   4.060   4.517   3.028  0.0335 -0.8162 -1.2678
 2015SOL    HW217505   4.082   4.655   3.057  0.8010 -1.5639  0.6526
 2016SOL     OW17506   4.167   3.448  10.323 -0.0385  0.3135 -0.5271
 2016SOL    HW117507   4.167   3.538  10.356 -2.8215  0.1162 -0.0203
 2016SOL    HW217508   4.075   3.436  10.301  0.1398  0.9547 -1.6110
 2017SOL     OW17509   3.497   2.936  11.049 -0.0107  0.4017 -0.0595
 2017SOL    HW117510   3.569   2.996  11.069  1.4023 -0.6201 -2.0689
 2017SOL    HW217511   3.455   2.984  10.977  0.4693  1.8507  0.6346
 2018SOL     OW17512   4.040   2.819   8.539  0.3628  0.0164  0.6370
 2018SOL    HW117513   4.072   2.736   8.575 -0.8955 -0.9542 -0.5519
 2018SOL    HW217514   4.059   2.815   8.446 -1.0999  0.1841  0.3440
 2019SOL     OW17515   3.502   3.135   9.199  0.1119 -0.1958 -0.0309
 2019SOL    HW117516   3.549   3.211   9.234 -4.1559  1.3377  2.3452
 2019SOL    HW217517   3.577   3.095   9.156  0.8490  0.7094  0.4187
 2020SOL     OW17518   1.809   4.068   2.813 -0.0681 -0.1365  0.3223
 2020SOL    HW117519   1.836   4.061   2.721 -0.6974  1.3522  0.0322
 2020SOL    HW217520   1.785   4.160   2.810 -1.3805 -0.5072 -0.6464
 2021SOL     OW17521   0.544   4.558   8.410  0.3190 -0.3047  0.2351
 2021SOL    HW117522   0.460   4.582   8.370  0.2319  1.6625  1.6090
 2021SOL    HW217523   0.535   4.463   8.400  0.3463 -0.3218  0.3643
 2022SOL     OW17524   2.323   3.761  15.733  1.1516 -0.2020  0.0254
 2022SOL    HW117525   2.251   3.703  15.709 -0.1764  0.2358  3.0101
 2022SOL    HW217526   2.320   3.827  15.664 -0.1408 -2.0156 -1.6639
 2023SOL     OW17527   2.758   1.610   6.656  0.2715 -0.5684  0.8372
 2023SOL    HW117528   2.742   1.545   6.725  1.7966  2.3535  3.9067
 2023SOL    HW217529   2.676   1.656   6.671 -0.3475 -1.6920  0.9447
 2024SOL     OW17530   4.552   1.698   5.654  0.1692  0.0450 -0.2810
 2024SOL    HW117531   4.579   1.643   5.727 -0.0682  0.7285  0.3147
 2024SOL    HW217532   4.603   1.778   5.657  1.0650 -0.5855  1.2344
 2025SOL     OW17533   0.940   4.086   6.387 -0.1759  0.7974  0.4126
 2025SOL    HW117534   1.003   4.151   6.356  1.7268  0.1572  2.9415
 2025SOL    HW217535   0.951   4.097   6.482 -0.7117 -0.8013  0.6496
 2026SOL     OW17536   0.503   4.589   2.178  0.0729  0.2133  0.2542
 2026SOL    HW117537   0.525   4.671   2.134 -0.9728  0.9816  1.1305
 2026SOL    HW217538   0.583   4.540   2.162  0.2171  0.6459 -0.3478
 2027SOL     OW17539   0.731   1.961   6.846 -0.4056 -0.3326 -0.7855
 2027SOL    HW117540   0.774   1.889   6.801 -1.4473 -0.5054 -1.5131
 2027SOL    HW217541   0.784   1.985   6.922  2.4920 -1.3784 -2.4627
 2028SOL     OW17542   4.351   0.152   4.337  0.2578  0.4572  0.0117
 2028SOL    HW117543   4.421   0.087   4.344 -0.2209  0.1871  2.3670
 2028SOL    HW217544   4.385   0.221   4.395  1.3179 -0.7139  0.7820
 2029SOL     OW17545   3.343   4.530   7.071 -0.4377  0.2460 -0.3455
 2029SOL    HW117546   3.294   4.547   7.152  0.3073 -2.0541  0.5939
 2029SOL    HW217547   3.275   4.511   7.007 -0.7047  1.5129 -0.4374
 2030SOL     OW17548   4.042   2.917  10.606  0.9037  0.9741 -0.2833
 2030SOL    HW117549   4.079   2.992  10.560 -0.8382  0.8340 -1.8986
 2030SOL    HW217550   3.963   2.903  10.553  0.7814  0.5747  0.0018
 2031SOL     OW17551   4.311   2.360   8.764 -0.5849  0.5146 -0.2461
 2031SOL    HW117552   4.254   2.289   8.794  1.2992 -1.5664 -1.5110
 2031SOL    HW217553   4.397   2.319   8.771 -1.0201 -0.6359 -1.7035
 2032SOL     OW17554   1.251   4.431   3.848 -0.1707 -0.2942  0.1495
 2032SOL    HW117555   1.255   4.482   3.767 -0.0246  1.6031  1.3602
 2032SOL    HW217556   1.346   4.426   3.860 -0.0955 -0.4525 -0.4775
 2033SOL     OW17557   0.195   0.387   8.661 -0.2282  0.1952 -0.9845
 2033SOL    HW117558   0.279   0.432   8.668  0.5962 -1.4704 -0.3618
 2033SOL    HW217559   0.217   0.306   8.707  0.2732  0.4025 -0.8655
 2034SOL     OW17560   0.134   2.388   9.099 -0.2548  0.2918 -0.0558
 2034SOL    HW117561   0.172   2.348   9.177  1.0659  2.4871  0.4282
 2034SOL    HW217562   0.198   2.375   9.029  0.4416  1.9411  0.2938
 2035SOL     OW17563   3.342   2.279   5.373 -0.3071 -0.0515  0.3783
 2035SOL    HW117564   3.411   2.331   5.414 -2.1855  0.0321  3.4832
 2035SOL    HW217565   3.274   2.346   5.367 -0.3783 -0.0157  1.4810
 2036SOL     OW17566   2.642   4.045   8.135  0.3424  0.0573 -0.2008
 2036SOL    HW117567   2.652   4.042   8.040 -0.2694 -0.6249 -0.2478
 2036SOL    HW217568   2.547   4.034   8.146  0.2723  0.2649 -0.5966
 2037SOL     OW17569   0.283   3.142   4.654  0.0652  0.0105 -0.1786
 2037SOL    HW117570   0.345   3.118   4.585 -0.0694  0.1575 -0.3524
 2037SOL    HW217571   0.195   3.145   4.616 -0.3203  0.3147  0.7327
 2038SOL     OW17572   4.031   4.424   3.360  0.9252  0.2111  0.2815
 2038SOL    HW117573   4.054   4.512   3.388  0.9294  0.4179 -0.3648
 2038SOL    HW217574   4.115   4.388   3.334  1.0261 -0.1891  1.1741
 2039SOL     OW17575   4.333   3.354   6.655  0.0786  0.0465  0.0375
 2039SOL    HW117576   4.373   3.294   6.592 -1.4641 -4.1607  3.0636
 2039SOL    HW217577   4.387   3.430   6.633  0.7800 -0.8551 -1.3477
 2040SOL     OW17578   3.529   1.744  10.030 -0.5065  0.1860 -0.0709
 2040SOL    HW117579   3.449   1.758   9.980 -0.1287  1.9057 -0.2006
 2040SOL    HW217580   3.503   1.715  10.118  0.9080  0.9163  0.5876
 2041SOL     OW17581   3.184   1.417   4.318  0.4343  0.5535  0.2443
 2041SOL    HW117582   3.221   1.363   4.388 -0.8418 -0.1343  0.3989
 2041SOL    HW217583   3.095   1.407   4.351  0.3585  1.3880  0.2908
 2042SOL     OW17584   1.112   4.062   5.498 -0.2683  0.1473  0.3878
 2042SOL    HW117585   1.023   4.064   5.532 -1.1199 -0.9158 -1.7824
 2042SOL    HW217586   1.149   4.141   5.536 -0.4863 -0.1415  1.2016
 2043SOL     OW17587   2.973   2.051  12.859 -0.4693  0.3190 -0.2591
 2043SOL    HW117588   2.897   2.039  12.916 -1.0722 -0.9387 -1.3220
 2043SOL    HW217589   3.032   2.094  12.921 -0.7699  1.1717 -0.5800
 2044SOL     OW17590   0.212   2.165   3.063  0.7652 -0.3246 -0.3830
 2044SOL    HW117591   0.240   2.179   3.154 -0.1991 -1.4128  0.0865
 2044SOL    HW217592   0.261   2.087   3.038  0.6871 -0.8275  1.0089
 2045SOL     OW17593   1.789   2.206   8.980 -0.0175  0.0923  0.2400
 2045SOL    HW117594   1.790   2.254   8.897  2.3904 -0.8057 -0.2561
 2045SOL    HW217595   1.698   2.176   8.982 -0.5862  1.6481 -1.9563
 2046SOL     OW17596   2.013   3.749   4.801 -0.1488  0.2357 -0.2465
 2046SOL    HW117597   1.987   3.698   4.724 -1.4581  2.3439 -1.1846
 2046SOL    HW217598   1.933   3.747   4.852  1.7041  1.3214  2.6913
 2047SOL     OW17599   1.120   4.254  13.012  0.3022 -0.0497  0.0064
 2047SOL    HW117600   1.194   4.263  12.952  0.1550 -0.2094 -0.1983
 2047SOL    HW217601   1.055   4.292  12.954  0.4987 -1.0273 -0.8516
 2048SOL     OW17602   0.993   2.613   7.521  0.0611  0.1832 -0.1180
 2048SOL    HW117603   0.964   2.592   7.432 -0.2985  1.6993 -0.3497
 2048SOL    HW217604   0.945   2.692   7.547 -0.3755 -0.6066  1.4850
 2049SOL     OW17605   0.004   1.920   2.697  0.5405  0.1871  0.5255
 2049SOL    HW117606   0.026   1.828   2.711 -1.2503 -0.0912  1.4444
 2049SOL    HW217607   4.706   1.951   2.785 -1.5476 -0.9164  0.4714
 2050SOL     OW17608   2.822   4.621   8.154 -0.2612  0.0075  0.0994
 2050SOL    HW117609   2.730   4.595   8.152 -0.1207 -0.4885 -0.0030
 2050SOL    HW217610   2.818   4.715   8.136  0.8649  0.4064  2.0031
 2051SOL     OW17611   2.321   2.881   6.208  0.2046 -0.9362 -0.1432
 2051SOL    HW117612   2.372   2.807   6.174  0.1936 -0.5391 -1.0043
 2051SOL    HW217613   2.391   2.943   6.230 -1.8700  0.3019  3.0021
 2052SOL     OW17614   2.929   1.126   0.749 -0.0705 -0.0622  0.0582
 2052SOL    HW117615   2.880   1.049   0.777 -0.7037 -0.8898 -3.2694
 2052SOL    HW217616   2.949   1.162   0.835 -0.2398 -0.0672  0.0976
 2053SOL     OW17617   0.943   4.502   0.229  0.3060 -0.0266  0.3647
 2053SOL    HW117618   1.015   4.456   0.271 -1.1595 -1.4539  1.3225
 2053SOL    HW217619   0.869   4.477   0.285  1.2546 -0.4236  1.4465
 2054SOL     OW17620   1.973   1.816   4.068 -0.2525 -0.0112  0.4875
 2054SOL    HW117621   1.887   1.828   4.028 -0.1824  0.3899  0.4544
 2054SOL    HW217622   2.034   1.829   3.996  0.6181 -0.7975  1.0955
 2055SOL     OW17623   1.787   3.688   7.465  0.8749  0.6247 -0.1319
 2055SOL    HW117624   1.745   3.754   7.410 -0.0873  0.0651 -0.0756
 2055SOL    HW217625   1.706   3.644   7.491  1.2603 -0.7417 -1.2425
 2056SOL     OW17626   1.074   3.910   3.623  0.2284 -0.9455  0.4136
 2056SOL    HW117627   1.013   3.873   3.559  0.1460  2.5859 -1.5710
 2056SOL    HW217628   1.159   3.867   3.614 -0.4006 -1.7431 -1.6977
 2057SOL     OW17629   1.189   0.601   7.826  0.4332 -0.0637  0.9216
 2057SOL    HW117630   1.246   0.677   7.811  1.6015 -0.9790  0.6728
 2057SOL    HW217631   1.253   0.532   7.844 -0.1899 -0.6056  1.0627
 2058SOL     OW17632   1.568   3.477   4.668  0.5597 -0.2737  0.3088
 2058SOL    HW117633   1.475   3.498   4.663  0.3585 -0.8631  1.4641
 2058SOL    HW217634   1.586   3.484   4.762 -0.2217 -0.5274  0.4839
 2059SOL     OW17635   1.147   3.847   5.945 -0.5245 -0.1744  0.6060
 2059SOL    HW117636   1.082   3.904   5.903 -0.5351 -0.0083  0.8532
 2059SOL    HW217637   1.133   3.871   6.036 -1.6146  1.2669  0.0619
 2060SOL     OW17638   0.338   2.602   2.891 -0.6691  0.3604  0.0672
 2060SOL    HW117639   0.349   2.628   2.800  1.4527  3.6621  1.2598
 2060SOL    HW217640   0.391   2.522   2.889 -1.7311 -0.3272 -0.6347
 2061SOL     OW17641   1.102   1.623  10.904 -0.0044 -0.3468 -0.3619
 2061SOL    HW117642   1.105   1.533  10.873 -1.7752 -0.7389  0.6209
 2061SOL    HW217643   1.049   1.617  10.983 -1.3695  0.2360 -1.2270
 2062SOL     OW17644   1.082   0.003   0.955  0.2236 -0.1243  0.1485
 2062SOL    HW117645   1.011   4.703   1.017 -0.7876  2.2012 -0.2599
 2062SOL    HW217646   1.119   0.081   0.996 -1.6721  1.1387 -0.5413
 2063SOL     OW17647   3.342   3.599   2.770  0.0101 -0.2102 -0.2745
 2063SOL    HW117648   3.333   3.624   2.677  0.5422 -0.3235 -0.3560
 2063SOL    HW217649   3.321   3.685   2.807  0.3118  0.6004 -1.9658
 2064SOL     OW17650   0.321   3.611   5.943 -0.0590  0.3101 -0.1805
 2064SOL    HW117651   0.338   3.699   5.911 -0.8407  0.9316  1.1274
 2064SOL    HW217652   0.312   3.627   6.037  0.1268  2.8816 -0.6133
 2065SOL     OW17653   2.128   2.728   9.963  0.1500  0.5173  0.2929
 2065SOL    HW117654   2.219   2.737   9.938 -0.0686  0.6639 -0.4340
 2065SOL    HW217655   2.095   2.815   9.940  0.8145  1.0546  1.3842
 2066SOL     OW17656   0.322   0.688  17.231  0.1379 -0.1650  0.3940
 2066SOL    HW117657   0.370   0.702  17.312 -0.8373 -0.9602  1.1043
 2066SOL    HW217658   0.394   0.703  17.169 -0.4831  1.9490  0.1759
 2067SOL     OW17659   1.943   2.210   7.123 -0.6273 -0.4815 -0.4481
 2067SOL    HW117660   1.943   2.114   7.117  2.7220 -0.4746 -0.0856
 2067SOL    HW217661   1.948   2.231   7.030  0.8731  1.3944  0.0678
 2068SOL     OW17662   2.204   1.041  17.358 -0.6171  0.0537 -1.1614
 2068SOL    HW117663   2.172   0.972  17.415  0.1507  0.5260 -0.1710
 2068SOL    HW217664   2.268   1.001  17.299  1.1007 -1.5266  1.7732
 2069SOL     OW17665   2.194   1.153   4.755 -0.1483 -0.3633 -0.0562
 2069SOL    HW117666   2.169   1.089   4.689 -0.2751  0.0657 -0.4198
 2069SOL    HW217667   2.140   1.227   4.729  0.4284  0.5774  1.3849
 2070SOL     OW17668   0.598   1.077   7.217  0.4429  0.0155  0.7917
 2070SOL    HW117669   0.642   1.009   7.166 -0.0884 -0.1578  0.5618
 2070SOL    HW217670   0.505   1.061   7.200  0.1260 -0.6903  3.0931
 2071SOL     OW17671   4.690   1.297   2.501  0.3781 -0.0237  0.2099
 2071SOL    HW117672   4.690   1.219   2.556  0.7976 -0.6533 -0.6868
 2071SOL    HW217673   4.633   1.358   2.548  0.1296  0.9124 -1.2765
 2072SOL     OW17674   3.139   0.982   1.984 -0.0143  0.3508 -0.1605
 2072SOL    HW117675   3.216   0.935   2.015  0.9381  1.3555 -1.0235
 2072SOL    HW217676   3.154   1.061   2.037 -1.7859  0.6276 -0.0642
 2073SOL     OW17677   0.490   2.677   5.647  0.4927  0.3287 -1.0301
 2073SOL    HW117678   0.522   2.621   5.718 -1.5583 -0.9898 -1.1233
 2073SOL    HW217679   0.514   2.625   5.571 -1.0445 -0.5987 -0.8922
 2074SOL     OW17680   0.046   4.510  13.050  0.2564 -0.5628 -0.2998
 2074SOL    HW117681   4.690   4.483  13.101  0.0173  0.8943  0.1080
 2074SOL    HW217682   0.069   4.438  12.991  0.5838 -0.2404 -0.5685
 2075SOL     OW17683   0.340   3.451   6.557 -0.3638 -0.3362 -0.1403
 2075SOL    HW117684   0.431   3.455   6.587 -0.2492 -0.5451 -0.4601
 2075SOL    HW217685   0.303   3.373   6.598  1.8603 -0.2688  2.0574
 2076SOL     OW17686   0.856   0.001   8.173  0.0420 -0.2855 -0.0248
 2076SOL    HW117687   0.764   4.697   8.166 -0.0791  0.4343 -0.9352
 2076SOL    HW217688   0.889   4.685   8.091  0.8425  1.1307 -0.3361
 2077SOL     OW17689   1.809   3.867   7.020 -0.2508 -0.5530  0.1615
 2077SOL    HW117690   1.749   3.795   6.996  0.3301 -1.0297  0.1472
 2077SOL    HW217691   1.891   3.819   7.009  0.7800  1.4859 -1.0049
 2078SOL     OW17692   0.716   0.048  13.917  0.2837  0.5027  0.1110
 2078SOL    HW117693   0.707   4.674  13.903 -0.1096  0.0917  3.3119
 2078SOL    HW217694   0.624   0.076  13.913 -0.4588 -1.6302  2.3102
 2079SOL     OW17695   1.767   0.771   5.008  0.0132 -0.1598  0.0428
 2079SOL    HW117696   1.735   0.861   5.008  0.3962 -0.0204  1.1352
 2079SOL    HW217697   1.860   0.786   5.025  0.4482 -2.7037  0.0462
 2080SOL     OW17698   1.470   2.362   1.861  0.0708 -0.0624  0.4987
 2080SOL    HW117699   1.430   2.421   1.798 -0.9501 -0.4582  0.7730
 2080SOL    HW217700   1.562   2.383   1.842  0.7341 -1.4078  2.1439
 2081SOL     OW17701   0.395   4.272   1.550  0.2798 -0.1631 -0.0857
 2081SOL    HW117702   0.452   4.334   1.506 -0.4185  2.0232  2.1074
 2081SOL    HW217703   0.308   4.296   1.519  0.2125  0.2984  0.4449
 2082SOL     OW17704   3.604   2.597  15.274  0.7631  0.0516 -0.4098
 2082SOL    HW117705   3.636   2.641  15.195  0.8472 -0.5934 -0.7322
 2082SOL    HW217706   3.664   2.523  15.283 -0.6139 -1.1412 -1.2428
 2083SOL     OW17707   0.574   4.206   9.605  0.6264 -0.3093 -0.4491
 2083SOL    HW117708   0.624   4.187   9.526  1.0995  0.9505 -0.4475
 2083SOL    HW217709   0.623   4.286   9.623  2.2947 -1.5077  0.4449
 2084SOL     OW17710   2.553   0.666  13.587 -0.1613 -0.0919  0.0379
 2084SOL    HW117711   2.633   0.689  13.540 -0.1243  1.5453  0.8941
 2084SOL    HW217712   2.536   0.583  13.542 -3.2679 -0.4079  1.7409
 2085SOL     OW17713   2.558   3.401   6.867 -0.5237 -0.1742 -0.4182
 2085SOL    HW117714   2.547   3.419   6.774  0.2834  1.0851 -0.2640
 2085SOL    HW217715   2.628   3.337   6.861  0.2976  0.6161  0.7260
 2086SOL     OW17716   0.687   3.404   8.009 -0.3607 -0.1991 -0.2910
 2086SOL    HW117717   0.690   3.445   7.923  1.3322  2.7244  1.1485
 2086SOL    HW217718   0.761   3.450   8.049  0.3164 -1.9357  0.4332
 2087SOL     OW17719   4.352   4.663   4.619  0.3519 -0.0095  0.0524
 2087SOL    HW117720   4.391   4.602   4.556  0.9105  1.5697 -1.1220
 2087SOL    HW217721   4.336   4.604   4.693  1.1710 -1.9356 -1.3027
 2088SOL     OW17722   3.564   1.779   8.319  0.6783  0.1965  0.3535
 2088SOL    HW117723   3.610   1.848   8.367  1.4573  0.5710 -0.9367
 2088SOL    HW217724   3.472   1.806   8.311  1.1767  1.5164 -1.0210
 2089SOL     OW17725   4.646   1.505  11.740  0.1171 -0.1279 -0.5707
 2089SOL    HW117726   4.693   1.513  11.657  0.8725  0.0618 -0.1250
 2089SOL    HW217727   4.654   1.593  11.775 -2.3592  0.1051 -0.6098
 2090SOL     OW17728   1.598   0.839   9.100  0.1581 -0.5804  0.1771
 2090SOL    HW117729   1.687   0.835   9.066 -0.3364  1.4854 -1.3914
 2090SOL    HW217730   1.576   0.753   9.136 -0.0028 -0.0189  1.4268
 2091SOL     OW17731   1.893   0.900   5.547 -0.5145 -0.0874 -0.5450
 2091SOL    HW117732   1.957   0.904   5.618 -1.5653  1.1869  0.3318
 2091SOL    HW217733   1.939   0.861   5.473 -1.0929  0.6201 -1.2695
 2092SOL     OW17734   3.025   2.322   8.181  0.1089  0.3658  0.2998
 2092SOL    HW117735   3.016   2.411   8.215 -0.6472 -0.0397  1.1481
 2092SOL    HW217736   3.115   2.328   8.150  0.7781 -2.8379  1.6407
 2093SOL     OW17737   1.595   0.246   2.365  0.1443  0.0687 -0.1529
 2093SOL    HW117738   1.578   0.210   2.277  0.3013  0.3541 -0.3003
 2093SOL    HW217739   1.690   0.237   2.371 -0.1215 -1.1530  2.1045
 2094SOL     OW17740   1.860   1.477   9.859 -0.2928  0.1798  0.0173
 2094SOL    HW117741   1.869   1.554   9.915 -0.1184  0.5927 -0.5861
 2094SOL    HW217742   1.886   1.506   9.772 -1.6727  0.1835 -0.3948
 2095SOL     OW17743   0.903   2.964   2.343 -0.4023 -0.0798 -0.4186
 2095SOL    HW117744   0.972   3.025   2.370 -2.1806  2.3063 -1.2229
 2095SOL    HW217745   0.926   2.955   2.250 -0.2444 -1.4105 -0.2476
 2096SOL     OW17746   4.713   3.051   3.866 -0.1356 -0.0250 -0.1072
 2096SOL    HW117747   4.692   3.061   3.959 -2.3862  0.8477 -0.7042
 2096SOL    HW217748   4.671   3.131   3.834  0.6085  0.7018  0.7308
 2097SOL     OW17749   1.251   4.694  15.475  0.0116 -0.3585  0.4015
 2097SOL    HW117750   1.171   0.011  15.510  0.9392  0.2022  1.9198
 2097SOL    HW217751   1.219   4.647  15.398 -1.5748  0.8361  0.3475
 2098SOL     OW17752   3.416   1.611   4.306  0.3796 -0.0650 -0.0601
 2098SOL    HW117753   3.330   1.589   4.341  1.3304 -3.0459  0.4484
 2098SOL    HW217754   3.388   1.674   4.240 -1.0129 -1.0247 -0.3744
 2099SOL     OW17755   1.886   2.745   9.172  0.1294  0.3443  0.0264
 2099SOL    HW117756   1.872   2.733   9.078  0.3394 -1.9968  0.2780
 2099SOL    HW217757   1.878   2.654   9.202 -0.5557  0.5661  0.4996
 2100SOL     OW17758   3.116   0.909   7.163  0.3069 -0.0493  0.0387
 2100SOL    HW117759   3.181   0.912   7.234  1.0592  1.4940 -0.7198
 2100SOL    HW217760   3.058   0.840   7.194  1.7798 -1.1327  0.3432
 2101SOL     OW17761   2.857   2.917  16.884  0.3183  0.4135 -0.6212
 2101SOL    HW117762   2.771   2.889  16.854 -0.4824  0.9608  1.1770
 2101SOL    HW217763   2.870   2.993  16.828 -1.5008  1.3096  0.1557
 2102SOL     OW17764   1.087   1.387   9.552 -0.4767  0.2651 -0.5841
 2102SOL    HW117765   1.148   1.406   9.624  1.4868 -0.7815 -1.9845
 2102SOL    HW217766   1.102   1.462   9.495  0.7145  1.3149  1.1055
 2103SOL     OW17767   4.445   0.853   5.980  0.8304  0.3527  0.0678
 2103SOL    HW117768   4.365   0.836   5.931  1.5640 -0.3394 -0.8857
 2103SOL    HW217769   4.427   0.813   6.066 -1.1632  0.0608 -0.4900
 2104SOL     OW17770   3.741   1.655  10.771  0.5788 -0.0935 -0.2145
 2104SOL    HW117771   3.683   1.607  10.830  1.8748 -1.2940  0.0950
 2104SOL    HW217772   3.807   1.689  10.831  0.4486 -3.7556  2.0490
 2105SOL     OW17773   0.583   3.988   3.798 -1.1333 -0.2897  0.0833
 2105SOL    HW117774   0.592   4.033   3.883 -0.5448  0.9409 -0.6222
 2105SOL    HW217775   0.586   4.068   3.745  0.9905 -0.3012  0.1599
 2106SOL     OW17776   1.501   1.270   3.046  0.2324 -0.3102  0.8565
 2106SOL    HW117777   1.460   1.241   2.964 -2.1074  2.2558  1.1186
 2106SOL    HW217778   1.449   1.229   3.116 -1.4632 -1.4543 -1.0801
 2107SOL     OW17779   0.695   2.153   8.382 -0.5106 -0.8124 -0.2217
 2107SOL    HW117780   0.642   2.229   8.356  0.5211 -0.1391 -0.3567
 2107SOL    HW217781   0.699   2.118   8.293  1.6898  1.1509 -0.8870
 2108SOL     OW17782   0.329   0.803   4.125 -0.2468 -0.1106 -0.5770
 2108SOL    HW117783   0.235   0.786   4.119 -0.2366 -0.4290  0.0817
 2108SOL    HW217784   0.342   0.841   4.038 -1.3449  1.7957  0.1092
 2109SOL     OW17785   1.733   3.949   7.368  0.2988  0.6185  0.1060
 2109SOL    HW117786   1.735   4.019   7.433  1.6508 -0.6067  1.3833
 2109SOL    HW217787   1.823   3.949   7.336 -0.3973 -2.6864 -1.9277
 2110SOL     OW17788   4.684   4.058   7.385 -0.1744 -0.2125 -0.0890
 2110SOL    HW117789   0.023   4.072   7.312 -0.2001  0.1175 -0.0488
 2110SOL    HW217790   4.607   4.105   7.352  0.5252  0.4242 -0.8282
 2111SOL     OW17791   0.928   2.894  12.928 -0.8915  0.4565  0.1626
 2111SOL    HW117792   1.012   2.850  12.937 -1.1189 -0.2599 -1.1928
 2111SOL    HW217793   0.911   2.883  12.834 -0.1494 -0.6100  0.1499
 2112SOL     OW17794   0.991   3.516   1.634 -0.1788 -0.3302 -0.9018
 2112SOL    HW117795   0.950   3.507   1.549 -1.3451  2.4117 -0.6346
 2112SOL    HW217796   1.082   3.526   1.604  0.3949  0.8859  1.2360
 2113SOL     OW17797   2.079   3.403   5.936 -0.1350  0.0893  0.5401
 2113SOL    HW117798   2.163   3.358   5.928 -1.3240 -1.7448 -1.2324
 2113SOL    HW217799   2.057   3.386   6.028  0.8979 -1.4564  0.5063
 2114SOL     OW17800   1.746   3.888  12.188  0.3258 -0.2302 -0.2778
 2114SOL    HW117801   1.689   3.813  12.204 -0.3497  0.5041  0.7373
 2114SOL    HW217802   1.749   3.936  12.271  2.0407 -0.8254  0.0158
 2115SOL     OW17803   1.814   2.946   7.097  0.2758 -0.6304  0.3159
 2115SOL    HW117804   1.801   2.879   7.164 -0.8180 -0.4358  0.2983
 2115SOL    HW217805   1.863   3.012   7.145 -0.6785  0.0779  0.3226
 2116SOL     OW17806   0.627   3.632   9.020  0.1637 -0.3638 -0.0801
 2116SOL    HW117807   0.621   3.596   9.108 -0.5082 -0.1788 -0.0465
 2116SOL    HW217808   0.715   3.666   9.006  0.9626 -1.8584  1.3046
 2117SOL     OW17809   2.715   3.999   8.554  0.3468  0.0594 -0.4988
 2117SOL    HW117810   2.622   4.001   8.573  0.3795 -0.8538 -0.2614
 2117SOL    HW217811   2.733   4.093   8.558 -3.1620  0.6006  2.0328
 2118SOL     OW17812   3.686   3.354   7.137 -0.3294 -0.1889 -0.4066
 2118SOL    HW117813   3.623   3.314   7.197 -0.3621  0.1507 -0.2197
 2118SOL    HW217814   3.631   3.354   7.059 -1.8246  0.4969  0.6600
 2119SOL     OW17815   3.668   1.029   2.687  0.2445  0.3466 -0.6704
 2119SOL    HW117816   3.753   1.055   2.723 -1.6818  2.4205  2.4195
 2119SOL    HW217817   3.709   0.967   2.628  1.7635 -0.2943  1.0715
 2120SOL     OW17818   2.908   3.286   4.827 -0.0936 -0.3016  0.8281
 2120SOL    HW117819   3.003   3.293   4.824 -0.1045 -2.7574 -4.7599
 2120SOL    HW217820   2.879   3.361   4.776 -1.0214  0.0174  1.8164
 2121SOL     OW17821   1.053   3.463   4.730 -0.1509 -0.0998  0.5975
 2121SOL    HW117822   0.988   3.396   4.712 -1.0580  0.0005  3.5529
 2121SOL    HW217823   1.038   3.520   4.654  1.6904  1.5040  1.4443
 2122SOL     OW17824   2.939   1.646  15.144  0.3200 -0.4335  0.6973
 2122SOL    HW117825   2.990   1.725  15.160 -2.6638  1.5865  0.2484
 2122SOL    HW217826   3.014   1.586  15.144  1.4771  1.0262  0.4758
 2123SOL     OW17827   0.473   3.268   6.963  0.4083  0.2130  0.4311
 2123SOL    HW117828   0.441   3.222   7.041  1.4274  1.2789  1.4646
 2123SOL    HW217829   0.422   3.349   6.965  0.3900  0.1845  1.2690
 2124SOL     OW17830   4.305   2.773   3.071  0.0937  0.1149 -0.6235
 2124SOL    HW117831   4.269   2.784   3.159  3.8667 -1.8603  1.1731
 2124SOL    HW217832   4.225   2.779   3.019 -0.2873  0.4048  0.0037
 2125SOL     OW17833   0.306   0.790   2.916  0.3715 -0.0143  0.0956
 2125SOL    HW117834   0.324   0.744   2.998  1.4035 -0.5171 -0.4160
 2125SOL    HW217835   0.372   0.859   2.927  0.3778  0.0872 -0.5552
 2126SOL     OW17836   4.395   4.512   2.263 -0.1079  0.0039 -0.1769
 2126SOL    HW117837   4.420   4.503   2.355  0.9710  2.1483 -0.2599
 2126SOL    HW217838   4.477   4.510   2.214  0.0998  2.3310  0.0529
 2127SOL     OW17839   0.676   0.979   5.790  0.1429  0.4158  0.2654
 2127SOL    HW117840   0.761   0.935   5.784 -0.4480 -0.7068  0.2409
 2127SOL    HW217841   0.706   1.059   5.746  1.2682  0.7626  1.6662
 2128SOL     OW17842   0.699   3.389  16.457  0.7272 -0.0294 -0.2216
 2128SOL    HW117843   0.793   3.405  16.448  0.4489  2.5237  1.4276
 2128SOL    HW217844   0.668   3.476  16.429  0.8707 -1.3159 -4.4085
 2129SOL     OW17845   4.447   0.756   0.360 -0.4331 -0.3260 -0.2433
 2129SOL    HW117846   4.368   0.706   0.339  0.3489 -0.9429 -1.7464
 2129SOL    HW217847   4.431   0.778   0.452  0.5933  1.4551 -0.4966
 2130SOL     OW17848   1.818   1.873  14.171 -0.0731 -0.3421  0.0955
 2130SOL    HW117849   1.842   1.801  14.230  1.2241  1.0119  1.2044
 2130SOL    HW217850   1.787   1.818  14.098 -1.0435  2.8321 -1.8903
 2131SOL     OW17851   2.440   1.244   8.059  0.3413  0.5239  0.4448
 2131SOL    HW117852   2.476   1.157   8.077  2.5649  1.2804 -0.3291
 2131SOL    HW217853   2.501   1.273   7.991 -2.2415 -0.2441 -2.1919
 2132SOL     OW17854   4.410   3.252   1.702 -0.6126  0.0699 -0.1816
 2132SOL    HW117855   4.484   3.313   1.695 -1.1869  0.8258  0.3010
 2132SOL    HW217856   4.369   3.293   1.778  1.7656 -0.7534  1.5445
 2133SOL     OW17857   4.427   3.925  10.589 -0.1671 -0.4091  0.0971
 2133SOL    HW117858   4.372   3.992  10.548  1.1126 -0.1856 -1.2770
 2133SOL    HW217859   4.360   3.865  10.620  0.8059 -1.5576 -0.0364
 2134SOL     OW17860   4.068   2.342   2.272 -0.1176  0.3727 -0.2682
 2134SOL    HW117861   4.138   2.389   2.318 -1.4407  1.0904  1.0103
 2134SOL    HW217862   4.003   2.413   2.262 -2.3044 -1.7461 -1.0500
 2135SOL     OW17863   4.382   2.218  16.530  0.4618 -0.2909 -0.0608
 2135SOL    HW117864   4.455   2.222  16.469  0.6341 -5.2501 -0.1996
 2135SOL    HW217865   4.427   2.198  16.612 -0.2172 -2.0934 -0.1409
 2136SOL     OW17866   4.225   3.678   6.843  0.5999  0.4305 -0.1312
 2136SOL    HW117867   4.281   3.641   6.775  0.2252  0.3009 -0.3641
 2136SOL    HW217868   4.256   3.769   6.850  1.6892 -0.0395  1.2695
 2137SOL     OW17869   1.682   4.432  11.404  0.2537  0.4632  0.1179
 2137SOL    HW117870   1.742   4.434  11.479  0.0952  0.4287  0.2473
 2137SOL    HW217871   1.608   4.386  11.442  0.0387  0.7220  0.0181
 2138SOL     OW17872   0.918   4.495   4.019  0.0236 -0.3707 -0.2691
 2138SOL    HW117873   0.858   4.429   4.053 -1.2060 -0.3632 -2.3868
 2138SOL    HW217874   0.860   4.567   3.993 -0.5198 -0.5787  0.3830
 2139SOL     OW17875   1.694   3.239   3.030  0.2232 -0.2887  0.0819
 2139SOL    HW117876   1.733   3.167   3.080  0.8959  0.5278  0.7382
 2139SOL    HW217877   1.669   3.293   3.105 -0.4382  0.1614 -0.4614
 2140SOL     OW17878   0.611   4.378   5.594  0.7673  0.4784  0.0803
 2140SOL    HW117879   0.678   4.361   5.660  0.1290  0.6013  0.7609
 2140SOL    HW217880   0.582   4.466   5.618 -0.1852  0.1084  0.2946
 2141SOL     OW17881   3.437   3.427  12.313 -0.4540  0.0655 -0.2845
 2141SOL    HW117882   3.511   3.367  12.322 -1.0550 -0.6273  0.0491
 2141SOL    HW217883   3.461   3.505  12.364 -3.8012 -0.1086  1.6375
 2142SOL     OW17884   4.662   0.726   5.084 -0.0711  1.0144 -0.2835
 2142SOL    HW117885   4.667   0.742   4.990  2.5427  1.1560 -0.1077
 2142SOL    HW217886   4.569   0.708   5.100  0.8181 -1.8349  1.6177
 2143SOL     OW17887   3.546   4.642   7.370  0.7425 -0.8685  0.3358
 2143SOL    HW117888   3.624   4.673   7.324 -0.0050 -4.8605 -3.6150
 2143SOL    HW217889   3.574   4.561   7.411  0.3402 -0.2815  1.7733
 2144SOL     OW17890   3.454   4.067   1.172  0.4656 -0.5206 -0.4691
 2144SOL    HW117891   3.431   4.154   1.205  0.4705 -1.2833  1.5668
 2144SOL    HW217892   3.476   4.027   1.256 -4.2663 -1.6741  0.2271
 2145SOL     OW17893   2.163   3.089   2.439  0.3508 -0.2261 -0.1783
 2145SOL    HW117894   2.095   3.106   2.375  0.0727  0.9544  0.4448
 2145SOL    HW217895   2.241   3.071   2.387  0.2151  0.6189 -0.6558
 2146SOL     OW17896   1.826   0.742   3.504 -0.1096 -0.2257 -0.2017
 2146SOL    HW117897   1.796   0.826   3.467  1.5489  0.6705  0.5183
 2146SOL    HW217898   1.921   0.747   3.494 -0.5338  0.1542 -4.0156
 2147SOL     OW17899   2.905   2.700   4.075  0.9285  0.1119  0.2643
 2147SOL    HW117900   2.919   2.695   4.170  2.7151 -0.1599 -0.0140
 2147SOL    HW217901   2.992   2.710   4.037  0.7345 -0.7085 -0.4101
 2148SOL     OW17902   3.682   2.360  13.932 -0.5269 -0.1164  0.4895
 2148SOL    HW117903   3.776   2.352  13.916 -0.7545 -0.0779 -0.8780
 2148SOL    HW217904   3.677   2.427  14.001  1.0101  0.7754 -0.2554
 2149SOL     OW17905   4.536   4.294   6.477 -0.5529 -0.4651 -0.1947
 2149SOL    HW117906   4.445   4.319   6.496 -0.6734  1.2378 -3.0004
 2149SOL    HW217907   4.524   4.239   6.400  0.6759 -0.2557 -0.5198
 2150SOL     OW17908   1.950   3.453   7.812  0.2184 -0.0440  0.9719
 2150SOL    HW117909   1.892   3.410   7.750  1.9655 -0.6599 -0.2409
 2150SOL    HW217910   2.011   3.382   7.832 -0.3427 -0.9647 -0.6164
 2151SOL     OW17911   0.529   1.313   1.566  0.7808  0.1531  0.1035
 2151SOL    HW117912   0.578   1.245   1.519 -0.7523 -0.3557 -0.7678
 2151SOL    HW217913   0.543   1.291   1.658  2.4914 -0.7095 -0.3617
 2152SOL     OW17914   0.973   0.941   4.368 -0.2396  0.4090 -0.1858
 2152SOL    HW117915   0.931   0.930   4.454  3.1408  0.8405  1.5325
 2152SOL    HW217916   0.903   0.903   4.315 -1.7087 -0.5607  2.4692
 2153SOL     OW17917   1.424   1.087   8.374  0.0624  0.1399  0.0023
 2153SOL    HW117918   1.330   1.077   8.362 -0.1124  0.1337  1.4072
 2153SOL    HW217919   1.425   1.183   8.364  0.7469  0.1220 -0.0794
 2154SOL     OW17920   2.597   3.913  10.353 -0.2972 -0.4116 -0.2742
 2154SOL    HW117921   2.607   3.828  10.397 -0.4679 -0.3200 -0.0553
 2154SOL    HW217922   2.680   3.939  10.392  0.7383 -0.9488 -2.1369
 2155SOL     OW17923   4.294   1.208   6.207  0.1619  0.5310  0.4656
 2155SOL    HW117924   4.359   1.241   6.269  1.4152 -2.2154  0.6241
 2155SOL    HW217925   4.281   1.290   6.160 -0.1572 -0.4555 -1.1347
 2156SOL     OW17926   1.521   0.469   2.164  0.2957  0.1298  0.0598
 2156SOL    HW117927   1.541   0.419   2.085 -1.1562 -0.8068  0.2787
 2156SOL    HW217928   1.608   0.500   2.187 -0.1607  1.7376 -0.3382
 2157SOL     OW17929   0.467   1.009   2.969  0.2621  0.1308 -0.0782
 2157SOL    HW117930   0.511   1.083   3.010 -0.1295 -0.1390  0.8248
 2157SOL    HW217931   0.497   1.015   2.878  0.4383 -0.8745 -0.0873
 2158SOL     OW17932   0.748   4.007   0.512  0.2313  0.5246 -0.6685
 2158SOL    HW117933   0.694   4.056   0.450 -1.1731 -0.6930 -0.4150
 2158SOL    HW217934   0.736   4.051   0.596  1.0756  1.5969 -1.1093
 2159SOL     OW17935   0.818   4.141   4.655 -0.3352  0.2515 -0.1099
 2159SOL    HW117936   0.815   4.051   4.623  0.6454  0.3021 -0.3625
 2159SOL    HW217937   0.895   4.186   4.619  1.2389  0.5277  3.5322
 2160SOL     OW17938   4.475   2.748   1.503 -0.2225 -0.1902  0.0963
 2160SOL    HW117939   4.437   2.828   1.538  1.6840  1.8997 -2.6579
 2160SOL    HW217940   4.570   2.760   1.495  0.0009 -0.7295  2.0203
 2161SOL     OW17941   1.111   1.179   7.150 -0.3003 -0.0483 -0.3268
 2161SOL    HW117942   1.054   1.233   7.205 -0.5810 -1.3614  0.6834
 2161SOL    HW217943   1.195   1.223   7.133 -0.2034  0.6951  2.0554
 2162SOL     OW17944   4.232   4.591   8.298 -0.2993 -0.4934  0.5987
 2162SOL    HW117945   4.304   4.604   8.358  1.4578  1.8848 -2.0354
 2162SOL    HW217946   4.169   4.543   8.352 -1.4054  0.7708  0.4399
 2163SOL     OW17947   1.838   1.856   6.758 -0.5949 -0.7091  0.1905
 2163SOL    HW117948   1.919   1.868   6.806  1.6918 -1.5631 -3.4945
 2163SOL    HW217949   1.878   1.861   6.672 -0.0944 -1.6286  0.3792
 2164SOL     OW17950   1.503   1.427  17.391 -0.8433  0.3086 -0.1945
 2164SOL    HW117951   1.439   1.373  17.435 -1.1903  0.2468 -0.7716
 2164SOL    HW217952   1.465   1.425  17.303 -0.3957  0.7525 -0.4061
 2165SOL     OW17953   1.957   3.753   1.115  0.3248 -0.0226 -0.0268
 2165SOL    HW117954   1.978   3.844   1.095  1.3295  0.2357  2.2275
 2165SOL    HW217955   2.046   3.718   1.114 -0.4138 -1.9319  0.8320
 2166SOL     OW17956   3.248   2.461   2.862 -0.1255 -0.3749  0.2553
 2166SOL    HW117957   3.208   2.470   2.948 -2.5292 -2.8451 -0.5904
 2166SOL    HW217958   3.184   2.510   2.810  2.1101  2.9592  0.6548
 2167SOL     OW17959   1.456   3.879   2.599 -0.2973 -0.1605  0.1816
 2167SOL    HW117960   1.434   3.826   2.522  3.7977  1.0202 -1.8255
 2167SOL    HW217961   1.551   3.883   2.589 -0.2916  0.1399  0.3714
 2168SOL     OW17962   1.124   4.227   3.538 -0.5162 -0.4329  0.0988
 2168SOL    HW117963   1.073   4.166   3.486 -3.3088 -0.4242  2.8113
 2168SOL    HW217964   1.152   4.171   3.610  0.3186 -1.1621 -0.7867
 2169SOL     OW17965   4.696   4.141  10.240  0.6993 -0.0753 -0.1888
 2169SOL    HW117966   4.640   4.063  10.232 -0.6072  0.7918  0.4757
 2169SOL    HW217967   0.063   4.108  10.219  0.4080  0.0161 -1.5330
 2170SOL     OW17968   1.296   3.772  15.267  0.2675  0.0551  0.1375
 2170SOL    HW117969   1.375   3.813  15.230  0.5909  0.5338  1.3756
 2170SOL    HW217970   1.225   3.777  15.203 -0.7103 -0.5207  1.1834
 2171SOL     OW17971   0.502   3.863   2.013 -0.1171  0.4350 -0.0457
 2171SOL    HW117972   0.523   3.918   1.937  0.9994 -0.2749 -0.2512
 2171SOL    HW217973   0.552   3.912   2.079  2.7381 -1.1769 -0.9799
 2172SOL     OW17974   0.837   2.817   9.403  0.0695 -0.3138  0.2410
 2172SOL    HW117975   0.786   2.773   9.334 -1.3165  3.0077 -0.8830
 2172SOL    HW217976   0.870   2.893   9.355 -1.4462 -0.3748 -0.9224
 2173SOL     OW17977   4.626   2.722   1.214  0.0202  0.8697 -0.2300
 2173SOL    HW117978   4.573   2.677   1.280 -0.7444  0.9329 -0.8041
 2173SOL    HW217979   4.591   2.671   1.141 -1.5779  0.8615  0.5469
 2174SOL     OW17980   0.368   2.766  15.524  0.0688  0.0758 -0.0207
 2174SOL    HW117981   0.386   2.740  15.614 -1.1881  0.2411  0.2736
 2174SOL    HW217982   0.387   2.681  15.482 -2.0099 -0.9679  1.2015
 2175SOL     OW17983   1.164   2.890   4.802  0.2945 -0.2737 -0.2118
 2175SOL    HW117984   1.088   2.886   4.745 -0.8180 -0.5670  1.2824
 2175SOL    HW217985   1.115   2.893   4.884  0.1664 -0.5594 -0.2770
 2176SOL     OW17986   2.624   3.721   3.146  0.4499  0.3130 -0.4838
 2176SOL    HW117987   2.551   3.775   3.114  0.0807  0.4401  0.5736
 2176SOL    HW217988   2.704   3.753   3.106  0.8236 -1.7760 -1.4343
 2177SOL     OW17989   1.833   0.506   5.800 -0.0686  0.9541 -0.4772
 2177SOL    HW117990   1.787   0.590   5.798 -1.5034  0.1656 -0.5314
 2177SOL    HW217991   1.908   0.530   5.855 -0.4514  0.8737  0.0801
 2178SOL     OW17992   2.772   2.815   8.112  0.1172 -0.4139  0.4936
 2178SOL    HW117993   2.707   2.822   8.041 -0.5646 -0.4406  1.1187
 2178SOL    HW217994   2.746   2.737   8.160 -1.1211 -0.5721 -0.4013
 2179SOL     OW17995   4.122   2.005  16.033 -0.5120  0.3654  0.5062
 2179SOL    HW117996   4.112   2.080  15.974  1.4462  0.5135  0.3550
 2179SOL    HW217997   4.066   2.032  16.107 -2.1500  0.2163 -0.6805
 2180SOL     OW17998   2.347   0.810   4.031  0.0750  0.2184 -0.0390
 2180SOL    HW117999   2.438   0.792   4.054 -0.3289 -0.1656  1.2445
 2180SOL    HW218000   2.339   0.812   3.935  0.6885  0.5539 -0.0859
 2181SOL     OW18001   1.535   4.205   6.575 -0.2145  0.2723 -0.1441
 2181SOL    HW118002   1.574   4.200   6.487  0.4407  1.8527  0.0646
 2181SOL    HW218003   1.489   4.289   6.574  0.1312  0.4800  2.4371
 2182SOL     OW18004   3.348   3.933   2.790 -0.6954 -0.5183 -0.2364
 2182SOL    HW118005   3.326   4.025   2.771 -1.1838 -0.3206  1.2669
 2182SOL    HW218006   3.442   3.932   2.772 -0.3860  1.7620  1.1614
 2183SOL     OW18007   2.780   3.891  10.010  0.5072  0.6491  0.3733
 2183SOL    HW118008   2.865   3.854  10.031  0.8756  0.7721 -0.9558
 2183SOL    HW218009   2.762   3.963  10.071  0.7139 -1.5336  3.0056
 2184SOL     OW18010   3.189   3.073   9.746  0.2200 -0.1343 -0.7340
 2184SOL    HW118011   3.115   3.120   9.707 -1.4780 -1.4384  0.9334
 2184SOL    HW218012   3.174   2.989   9.702  0.6193 -0.2734 -0.6076
 2185SOL     OW18013   4.592   3.950   6.708  0.1810 -0.6774 -0.1326
 2185SOL    HW118014   4.667   3.969   6.764 -0.4238  1.0835  0.0837
 2185SOL    HW218015   4.547   4.034   6.701 -1.6241 -1.4096  3.1226
 2186SOL     OW18016   3.666   1.525   6.927 -0.2507 -0.2789  0.0047
 2186SOL    HW118017   3.713   1.561   7.001  0.8991 -0.3481 -0.6962
 2186SOL    HW218018   3.736   1.489   6.872 -0.3377  1.3481 -1.1860
 2187SOL     OW18019   2.906   0.655   8.514  0.0584  0.0441  0.1772
 2187SOL    HW118020   2.823   0.607   8.519  0.6935 -1.1402 -0.5824
 2187SOL    HW218021   2.855   0.733   8.536  0.7309  0.4347  0.3460
 2188SOL     OW18022   3.920   1.754   8.848  1.2847  0.5888 -0.1388
 2188SOL    HW118023   3.899   1.818   8.915  0.3191 -1.7685  1.8122
 2188SOL    HW218024   3.862   1.686   8.884 -0.3027  1.2110 -1.5330
 2189SOL     OW18025   0.627   2.132   0.275  0.0806  0.4057 -0.4080
 2189SOL    HW118026   0.552   2.101   0.326  1.1528  0.6648  1.3564
 2189SOL    HW218027   0.692   2.134   0.346 -0.6601 -1.6729  0.3393
 2190SOL     OW18028   4.539   2.892   3.103 -0.5566  0.2997  0.3211
 2190SOL    HW118029   4.559   2.825   3.169 -0.4496  0.3127  0.3018
 2190SOL    HW218030   4.447   2.869   3.087 -0.0073  0.1704 -2.4980
 2191SOL     OW18031   2.471   3.424  11.157  0.0942  0.0978  0.3186
 2191SOL    HW118032   2.529   3.497  11.180  0.7047 -1.1847  2.9576
 2191SOL    HW218033   2.435   3.409  11.244  1.1730 -0.4719  0.6720
 2192SOL     OW18034   3.341   0.124  13.267 -0.4659  0.0173  0.0447
 2192SOL    HW118035   3.385   0.155  13.188  0.3833 -1.7360 -0.1666
 2192SOL    HW218036   3.411   0.099  13.327 -1.7592 -0.2365  1.4402
 2193SOL     OW18037   2.900   3.447  16.894  0.0068 -0.4392  0.1736
 2193SOL    HW118038   2.816   3.486  16.870 -0.9772 -1.6365  1.6557
 2193SOL    HW218039   2.888   3.353  16.877 -2.5415 -0.0842 -0.0268
 2194SOL     OW18040   1.074   2.147  10.489 -0.5438 -0.5586 -0.8125
 2194SOL    HW118041   1.118   2.141  10.404 -1.9615  0.9509 -1.6650
 2194SOL    HW218042   1.024   2.066  10.494  2.1129 -2.1365  0.4129
 2195SOL     OW18043   4.278   3.314   9.100 -0.0691  0.3972  0.3039
 2195SOL    HW118044   4.323   3.301   9.016 -0.7478 -0.0963  0.0168
 2195SOL    HW218045   4.350   3.302   9.163 -0.2009  0.6857  0.5072
 2196SOL     OW18046   0.972   2.295   8.306 -0.4617  0.2848  0.3300
 2196SOL    HW118047   1.025   2.310   8.227 -1.4406 -2.2190 -0.7939
 2196SOL    HW218048   0.976   2.200   8.313  0.6644  0.2025 -1.4839
 2197SOL     OW18049   3.875   2.690   6.469  0.7080 -0.5757  0.2074
 2197SOL    HW118050   3.886   2.783   6.489  0.1659  0.0511 -2.4050
 2197SOL    HW218051   3.954   2.667   6.419 -1.1270 -0.7058 -2.6055
 2198SOL     OW18052   2.748   2.456   2.362 -0.3228 -0.3673  0.1631
 2198SOL    HW118053   2.815   2.389   2.348  0.0213  0.1751 -0.8476
 2198SOL    HW218054   2.673   2.417   2.317  2.3723 -2.3133 -2.6909
 2199SOL     OW18055   0.786   2.926   8.390  0.2738 -0.5076  0.2063
 2199SOL    HW118056   0.860   2.956   8.337 -0.8623  0.2536 -0.9415
 2199SOL    HW218057   0.834   2.925   8.473  2.8890  1.9368 -1.2569
 2200SOL     OW18058   3.337   0.954   7.747  0.4155  0.4001 -0.2858
 2200SOL    HW118059   3.376   0.931   7.832  3.3525 -0.6996 -1.9132
 2200SOL    HW218060   3.388   0.900   7.687  0.3069 -0.7185  0.6217
 2201SOL     OW18061   3.774   3.295   5.513  0.1149 -0.4833  0.0703
 2201SOL    HW118062   3.750   3.205   5.535 -2.3015  0.4615  1.2791
 2201SOL    HW218063   3.835   3.285   5.439  1.7392  1.8124  1.0948
 2202SOL     OW18064   4.362   0.956  17.004  0.3750 -0.3023  0.3989
 2202SOL    HW118065   4.294   1.001  16.953  1.3730 -0.6303 -1.2401
 2202SOL    HW218066   4.388   1.015  17.074  1.0048 -3.1520  2.5520
 2203SOL     OW18067   1.861   3.567  17.061  0.1788 -0.0192 -0.2143
 2203SOL    HW118068   1.832   3.525  16.980 -1.6194 -0.4557  0.6493
 2203SOL    HW218069   1.816   3.651  17.051 -2.2599 -1.5452 -2.2325
 2204SOL     OW18070   2.234   4.330  16.707 -0.0906 -0.3230 -0.7047
 2204SOL    HW118071   2.279   4.323  16.791 -0.8491  0.6368 -0.2293
 2204SOL    HW218072   2.301   4.281  16.659  0.6045  0.2988 -0.3647
 2205SOL     OW18073   3.933   0.295   7.858 -0.0320  0.3445  0.7826
 2205SOL    HW118074   3.980   0.287   7.941  1.8858 -2.1592 -0.5352
 2205SOL    HW218075   3.933   0.388   7.834  0.5088  0.2131  0.2641
 2206SOL     OW18076   0.068   0.445   4.117  0.2394 -0.2388  0.0638
 2206SOL    HW118077   0.112   0.443   4.201 -1.8257  1.8374  1.1941
 2206SOL    HW218078   0.005   0.373   4.128  1.4366 -1.3694 -0.4069
 2207SOL     OW18079   1.384   2.781   4.911  0.9497 -1.0518 -0.3620
 2207SOL    HW118080   1.303   2.823   4.883  0.9988  0.9755  2.5270
 2207SOL    HW218081   1.394   2.826   4.995  0.2092 -1.9958  0.2205
 2208SOL     OW18082   1.724   4.656   5.923 -0.0740 -0.1388  0.1521
 2208SOL    HW118083   1.816   4.643   5.946 -0.0513  2.0473  1.2753
 2208SOL    HW218084   1.739   4.714   5.848 -0.1146  1.2500  1.2196
 2209SOL     OW18085   1.320   2.245  13.296  0.4504  0.2084  0.0193
 2209SOL    HW118086   1.345   2.265  13.387  1.2135 -0.9683  0.0680
 2209SOL    HW218087   1.379   2.172  13.279 -1.1694 -0.3707 -2.9846
 2210SOL     OW18088   2.291   0.809   8.971 -0.0624 -0.0392 -0.0316
 2210SOL    HW118089   2.297   0.904   8.978 -0.4046 -0.0326  0.1621
 2210SOL    HW218090   2.245   0.780   9.050 -2.3496 -0.4403 -1.4921
 2211SOL     OW18091   2.828   3.523  16.073 -0.0667  0.0242  0.4717
 2211SOL    HW118092   2.841   3.445  16.127 -0.4183 -0.8984 -0.7830
 2211SOL    HW218093   2.733   3.532  16.079 -0.1642  0.4195 -1.6692
 2212SOL     OW18094   2.649   2.521   5.234  0.0903 -0.2368 -0.0526
 2212SOL    HW118095   2.650   2.430   5.204  0.8284  0.3604 -1.8522
 2212SOL    HW218096   2.605   2.557   5.157  1.3818  0.2231 -0.5675
 2213SOL     OW18097   2.406   0.393  16.140 -0.2670  0.5003 -0.1247
 2213SOL    HW118098   2.410   0.486  16.118 -3.8690  0.7713  0.4198
 2213SOL    HW218099   2.349   0.399  16.217 -0.3234 -0.7174 -0.0760
 2214SOL     OW18100   4.499   3.274   9.295 -0.0397  0.4618 -0.5599
 2214SOL    HW118101   4.594   3.266   9.285 -0.3457 -3.3016 -0.4463
 2214SOL    HW218102   4.482   3.207   9.361  0.7715 -0.9709 -1.7966
 2215SOL     OW18103   0.443   3.085   4.876  0.1595  0.4867 -0.1726
 2215SOL    HW118104   0.422   3.108   4.785 -0.1582  2.4541  0.3955
 2215SOL    HW218105   0.396   3.002   4.888  1.0854 -0.1152 -0.7088
 2216SOL     OW18106   0.176   4.459   2.751 -0.2352  0.3894 -0.1256
 2216SOL    HW118107   0.245   4.489   2.810  0.1641  3.5164 -2.1978
 2216SOL    HW218108   0.200   4.367   2.742 -2.1216 -0.3501  2.1198
 2217SOL     OW18109   4.039   2.788   8.276  0.0235 -0.4009 -0.2136
 2217SOL    HW118110   4.030   2.766   8.183 -2.3371 -2.3868  0.5126
 2217SOL    HW218111   3.961   2.839   8.294 -0.0868 -0.2568 -1.1051
 2218SOL     OW18112   2.691   4.297   6.561 -0.4513 -0.5036 -0.4944
 2218SOL    HW118113   2.752   4.238   6.604  0.0637  0.1866 -0.2780
 2218SOL    HW218114   2.709   4.269   6.471 -1.4835  0.6044 -1.0500
 2219SOL     OW18115   3.386   4.276   5.411  0.0623 -0.4471 -0.6619
 2219SOL    HW118116   3.320   4.346   5.405 -0.7414 -1.2322 -0.9668
 2219SOL    HW218117   3.319   4.210   5.429 -0.6728  0.9268  1.6461
 2220SOL     OW18118   0.732   0.453   7.901  0.0202  0.1140 -0.3976
 2220SOL    HW118119   0.814   0.500   7.912 -1.6658  2.5800  1.7543
 2220SOL    HW218120   0.694   0.438   7.988  0.0174 -0.0111 -0.4204
 2221SOL     OW18121   4.086   4.479   4.136  0.0376  0.3003  0.2957
 2221SOL    HW118122   4.050   4.481   4.225 -0.7276 -0.5044  0.0039
 2221SOL    HW218123   4.122   4.390   4.139  0.5019  0.4217 -1.5116
 2222SOL     OW18124   1.729   4.466   7.821 -0.3529 -0.2580  0.6330
 2222SOL    HW118125   1.698   4.382   7.789  0.1848  0.5078 -1.9463
 2222SOL    HW218126   1.673   4.481   7.897 -1.2987 -0.5558 -0.0077
 2223SOL     OW18127   3.253   2.923   6.297 -0.6274  0.7162  0.1375
 2223SOL    HW118128   3.298   2.930   6.213  0.2809 -1.4962  0.4411
 2223SOL    HW218129   3.298   2.997   6.339  1.6266 -0.1199 -0.8016
 2224SOL     OW18130   3.212   1.241  14.683  0.2095 -0.3825  0.0528
 2224SOL    HW118131   3.300   1.277  14.668 -0.0363 -0.0718 -0.6602
 2224SOL    HW218132   3.236   1.149  14.679 -0.8394 -0.8077  3.5377
 2225SOL     OW18133   3.496   1.272   2.928 -0.3083 -0.2450  0.6222
 2225SOL    HW118134   3.576   1.225   2.904 -0.6366  0.2105 -1.3453
 2225SOL    HW218135   3.530   1.330   2.995  0.0308 -1.1967  1.2786
 2226SOL     OW18136   3.279   1.778   8.609  0.6558  0.0341  0.0025
 2226SOL    HW118137   3.226   1.858   8.606  1.7420  0.7046 -1.3634
 2226SOL    HW218138   3.340   1.791   8.681  0.7991 -1.9863  0.2467
 2227SOL     OW18139   1.493   2.607   6.488 -0.4141  0.2168 -0.4889
 2227SOL    HW118140   1.520   2.689   6.529  1.7534 -0.9466  0.4161
 2227SOL    HW218141   1.554   2.543   6.524 -1.0917  0.3848  0.9965
 2228SOL     OW18142   2.566   2.613   7.632  0.6135 -0.1508  0.3410
 2228SOL    HW118143   2.501   2.551   7.667 -2.5746  1.3510 -2.8883
 2228SOL    HW218144   2.612   2.640   7.712 -0.3160  2.1352  0.0997
 2229SOL     OW18145   2.742   0.506  15.764 -0.1753 -0.1591 -0.1350
 2229SOL    HW118146   2.781   0.540  15.844  2.0092 -1.0255 -0.8377
 2229SOL    HW218147   2.688   0.436  15.799  1.2582  0.5490  3.4772
 2230SOL     OW18148   0.197   1.137  16.560  0.2399  0.4611  0.3176
 2230SOL    HW118149   0.223   1.045  16.553 -0.7834  0.1860  0.0735
 2230SOL    HW218150   0.137   1.127  16.487  2.1602 -1.1181 -1.0452
 2231SOL     OW18151   3.396   0.208   6.858  0.2319  0.3472 -0.0452
 2231SOL    HW118152   3.414   0.141   6.792  0.2315 -0.3093  0.6197
 2231SOL    HW218153   3.390   0.150   6.934  1.1131  0.4257  0.0862
 2232SOL     OW18154   0.257   1.920  13.364  0.0813  0.3588  0.2076
 2232SOL    HW118155   0.173   1.948  13.328  0.0585  0.6870  0.5144
 2232SOL    HW218156   0.300   2.006  13.365  2.0597 -0.6336 -0.2029
 2233SOL     OW18157   2.716   4.424  11.731 -0.3626 -0.1638 -0.3665
 2233SOL    HW118158   2.806   4.401  11.708 -0.6571 -2.5904  0.8931
 2233SOL    HW218159   2.682   4.338  11.755 -1.9647  0.4413 -0.4675
 2234SOL     OW18160   2.407   2.429   4.135 -0.1039  0.4514  0.2711
 2234SOL    HW118161   2.495   2.411   4.101 -0.1080  0.1516  0.4137
 2234SOL    HW218162   2.409   2.378   4.217  1.2921 -1.3823 -0.9110
 2235SOL     OW18163   2.738   4.151   2.564  0.2911 -0.0267 -0.5207
 2235SOL    HW118164   2.770   4.064   2.540  1.7232  0.4603 -0.3644
 2235SOL    HW218165   2.651   4.116   2.584  0.5886 -2.2313 -3.0755
 2236SOL     OW18166   0.291   3.937   5.181  0.7260 -0.2416  0.0643
 2236SOL    HW118167   0.230   3.879   5.136 -1.0149  0.7081  1.1828
 2236SOL    HW218168   0.328   3.973   5.100  0.1344  0.2448  0.0044
 2237SOL     OW18169   3.240   0.682   5.690 -0.4565  0.1940  0.2453
 2237SOL    HW118170   3.269   0.765   5.653 -0.7970  0.1471 -0.1319
 2237SOL    HW218171   3.145   0.691   5.704 -0.7600 -0.5989 -1.2800
 2238SOL     OW18172   0.945   2.895   0.204  0.3259  0.2622  0.6596
 2238SOL    HW118173   0.975   2.961   0.266 -1.3056  3.6561 -2.1439
 2238SOL    HW218174   0.850   2.888   0.218  0.3716  0.0931  0.8883
 2239SOL     OW18175   3.460   2.336   0.380  0.1101 -0.3171 -0.0970
 2239SOL    HW118176   3.504   2.318   0.463  0.3821  0.4243 -0.0729
 2239SOL    HW218177   3.379   2.372   0.416 -0.4828 -2.1296  0.3444
 2240SOL     OW18178   1.009   0.982  10.018 -0.2799 -0.2001 -0.0488
 2240SOL    HW118179   0.951   1.027  10.079 -1.9849 -1.9734 -0.3715
 2240SOL    HW218180   0.963   0.984   9.935 -1.6006  0.6026  0.7128
 2241SOL     OW18181   1.667   1.595   9.163 -0.7948 -0.2444 -0.5878
 2241SOL    HW118182   1.693   1.647   9.238 -2.0042  0.7370 -0.8407
 2241SOL    HW218183   1.601   1.653   9.124  0.6200  0.3150 -2.1380
 2242SOL     OW18184   2.648   1.133   7.192  0.7927 -0.2426 -0.7087
 2242SOL    HW118185   2.682   1.192   7.260 -1.3117  1.6538 -1.2851
 2242SOL    HW218186   2.690   1.166   7.113 -0.2513 -1.6437 -1.8347
 2243SOL     OW18187   1.619   2.871   8.474 -0.1439  0.0364  0.3730
 2243SOL    HW118188   1.660   2.954   8.498  0.5880  0.3641 -2.0794
 2243SOL    HW218189   1.686   2.806   8.494 -0.1896  0.1690  0.9707
 2244SOL     OW18190   0.592   1.203   8.084  0.2244  0.0662  0.7010
 2244SOL    HW118191   0.667   1.239   8.036 -0.6300  1.2404  0.2310
 2244SOL    HW218192   0.563   1.134   8.024 -3.4967  1.7858  0.4979
 2245SOL     OW18193   4.042   2.560   3.034  0.1193 -0.6429 -0.2202
 2245SOL    HW118194   4.034   2.652   3.008 -0.7385 -0.5725  0.3024
 2245SOL    HW218195   4.016   2.575   3.125  0.7645 -2.0964  0.1958
 2246SOL     OW18196   0.193   2.379   8.324  0.2329 -0.3001 -0.5603
 2246SOL    HW118197   0.120   2.413   8.272 -0.0350  2.2315  1.4686
 2246SOL    HW218198   0.239   2.462   8.338  0.5573 -0.9535  2.3432
 2247SOL     OW18199   1.818   2.474   8.319 -0.3946  0.0654  0.2279
 2247SOL    HW118200   1.855   2.431   8.242 -0.0779 -0.1342  0.4925
 2247SOL    HW218201   1.896   2.516   8.355  1.0374 -0.8334 -1.8182
 2248SOL     OW18202   0.027   0.579  11.948  0.1970 -0.0694  0.2466
 2248SOL    HW118203   0.006   0.597  12.039  2.7411  2.3040  0.3857
 2248SOL    HW218204   0.050   0.487  11.950 -1.1359 -0.3685  1.1916
 2249SOL     OW18205   4.027   4.711   1.742 -0.1208  0.0040  0.1410
 2249SOL    HW118206   3.951   0.022   1.692 -1.4832 -2.3147  0.7285
 2249SOL    HW218207   4.016   4.616   1.737 -1.1159  0.1462 -0.4649
 2250SOL     OW18208   3.400   3.873  12.881 -0.1438 -0.5137 -0.2174
 2250SOL    HW118209   3.323   3.919  12.915 -2.0690 -2.7938 -1.4086
 2250SOL    HW218210   3.462   3.919  12.936 -0.5723  0.2719 -0.3928
 2251SOL     OW18211   0.132   1.620   7.118  0.3295  0.1432  0.3716
 2251SOL    HW118212   0.116   1.713   7.135  0.6485  0.3240 -0.2839
 2251SOL    HW218213   0.178   1.592   7.197  0.6704 -0.9617 -0.2109
 2252SOL     OW18214   4.088   3.248   2.453  0.0003  0.2469 -1.4633
 2252SOL    HW118215   4.084   3.338   2.484  2.1509 -0.1358 -0.0634
 2252SOL    HW218216   4.177   3.231   2.484  1.2505  2.5391 -3.8062
 2253SOL     OW18217   3.284   2.538   4.393 -0.1632 -0.2818 -0.0732
 2253SOL    HW118218   3.222   2.574   4.329 -2.0618 -0.0843  1.8670
 2253SOL    HW218219   3.304   2.610   4.452  0.5717 -1.4713  1.1246
 2254SOL     OW18220   1.352   2.003   3.023 -0.8422  0.7343  0.1896
 2254SOL    HW118221   1.413   1.967   2.958 -0.6861 -0.8400  1.2055
 2254SOL    HW218222   1.391   1.985   3.108 -1.7919 -2.5254 -0.0439
 2255SOL     OW18223   0.790   3.609  14.193 -0.2701 -0.1292  0.1968
 2255SOL    HW118224   0.803   3.548  14.120 -0.7919  2.7660 -2.3166
 2255SOL    HW218225   0.712   3.654  14.161 -0.6002 -1.6461 -1.1439
 2256SOL     OW18226   1.939   2.932  13.487  0.0662  0.0128 -0.4037
 2256SOL    HW118227   1.931   2.899  13.398 -1.6073  0.2077 -0.3215
 2256SOL    HW218228   2.034   2.942  13.497 -0.1179  2.1307 -0.6970
 2257SOL     OW18229   0.145   0.040   5.037  0.1795 -0.3698  0.0379
 2257SOL    HW118230   0.089   0.042   5.114  1.5047 -1.7905  1.0245
 2257SOL    HW218231   0.077   0.023   4.971  0.9347 -2.0355 -0.3255
 2258SOL     OW18232   2.616   4.338   7.849 -0.7015  0.0247  0.9407
 2258SOL    HW118233   2.554   4.394   7.804  0.6929 -0.3466 -1.4328
 2258SOL    HW218234   2.669   4.404   7.894 -1.1620  0.5388  0.7313
 2259SOL     OW18235   1.253   0.006   3.258  0.1903  0.0432  0.0010
 2259SOL    HW118236   1.282   4.696   3.172 -1.1474  0.1766 -0.4952
 2259SOL    HW218237   1.198   4.654   3.288 -0.1136  0.5662  0.7026
 2260SOL     OW18238   3.388   1.732   7.951 -0.0118  0.1996 -0.1593
 2260SOL    HW118239   3.455   1.678   7.992  0.3584  1.2193  0.5868
 2260SOL    HW218240   3.313   1.747   8.009  0.0037  2.1916 -0.6318
 2261SOL     OW18241   0.995   4.331   1.076 -0.1837  0.5339 -0.3109
 2261SOL    HW118242   1.013   4.369   0.990 -0.3540  0.0227 -0.5714
 2261SOL    HW218243   1.048   4.251   1.081  0.3312  0.8792 -0.2321
 2262SOL     OW18244   0.363   4.544  17.162  0.2624 -0.1815 -0.5222
 2262SOL    HW118245   0.434   4.569  17.102  2.5270 -2.5816  1.1273
 2262SOL    HW218246   0.309   4.477  17.119  1.0228 -0.1572 -1.5240
 2263SOL     OW18247   1.159   0.423  12.629  0.1690 -0.6155  0.1635
 2263SOL    HW118248   1.149   0.517  12.639  0.7956 -0.5176 -0.1529
 2263SOL    HW218249   1.212   0.412  12.708 -1.3748  0.0416  1.3044
 2264SOL     OW18250   0.823   1.366  15.466 -0.7931 -0.4454 -0.2000
 2264SOL    HW118251   0.733   1.388  15.491 -0.6971 -1.3504  0.9531
 2264SOL    HW218252   0.844   1.435  15.403  0.0342 -0.5886 -0.0799
 2265SOL     OW18253   3.646   1.860   3.588 -0.1876  0.4194  0.7637
 2265SOL    HW118254   3.605   1.911   3.519 -1.0881 -2.1104 -0.5423
 2265SOL    HW218255   3.680   1.782   3.545 -2.7496 -0.5299  0.4729
 2266SOL     OW18256   3.865   1.873   7.858 -0.0573 -0.7528 -0.3728
 2266SOL    HW118257   3.879   1.889   7.952 -1.7609  2.1657 -0.5909
 2266SOL    HW218258   3.782   1.915   7.833 -0.9157 -0.9064  2.1402
 2267SOL     OW18259   3.264   0.805   2.656  1.1131  0.4121 -0.0134
 2267SOL    HW118260   3.290   0.895   2.673  0.5424  0.4353  0.7439
 2267SOL    HW218261   3.278   0.794   2.562  0.0776  1.8262 -0.3340
 2268SOL     OW18262   3.066   4.330   5.339 -0.6804  0.1951  0.5560
 2268SOL    HW118263   3.065   4.322   5.243  0.0955 -2.4926  0.7761
 2268SOL    HW218264   3.125   4.405   5.348  0.1433 -0.0917 -2.4086
 2269SOL     OW18265   4.015   3.682   7.036  0.1032  0.5109  0.4672
 2269SOL    HW118266   4.099   3.704   6.995  0.1128 -2.5287 -1.1124
 2269SOL    HW218267   3.976   3.620   6.974  0.6884  0.8201 -0.2094
 2270SOL     OW18268   0.425   2.354   6.471 -0.3051  0.2986 -0.7351
 2270SOL    HW118269   0.376   2.337   6.391 -1.4090 -2.8902  0.6111
 2270SOL    HW218270   0.381   2.289   6.527 -2.3456 -0.4716 -3.2215
 2271SOL     OW18271   3.608   3.363   9.284  0.0158  0.0073 -0.1282
 2271SOL    HW118272   3.536   3.402   9.334 -0.2741  1.0797 -1.3819
 2271SOL    HW218273   3.596   3.415   9.205 -0.5687 -0.3022 -0.2353
 2272SOL     OW18274   1.876   2.965  16.647 -0.3564  0.3190  0.5164
 2272SOL    HW118275   1.825   2.965  16.728  0.1555 -0.4608  0.8422
 2272SOL    HW218276   1.820   3.021  16.593 -0.1381  1.3848  1.4149
 2273SOL     OW18277   1.305   1.166   3.264  0.3822  0.0211 -0.4622
 2273SOL    HW118278   1.387   1.176   3.312 -0.6580  1.2604  1.0468
 2273SOL    HW218279   1.247   1.201   3.331  2.5527  0.3739  1.2101
 2274SOL     OW18280   2.158   4.300   2.865 -0.1104 -0.5033  0.4479
 2274SOL    HW118281   2.070   4.321   2.896  0.3228  2.2009 -0.1251
 2274SOL    HW218282   2.175   4.250   2.944 -1.6787 -1.2857  0.2856
 2275SOL     OW18283   4.360   3.205  10.436  0.0202 -0.0638 -0.2838
 2275SOL    HW118284   4.393   3.123  10.398  1.3302 -0.6318  2.0665
 2275SOL    HW218285   4.438   3.259  10.444  1.5710 -2.1653 -1.2888
 2276SOL     OW18286   2.050   2.496  13.257 -0.4478 -0.2127  0.2485
 2276SOL    HW118287   2.133   2.464  13.221 -0.7542  0.0990 -0.7381
 2276SOL    HW218288   2.027   2.430  13.322  1.0289 -1.6714 -0.7049
 2277SOL     OW18289   0.469   4.714  13.168  0.1786  0.5721  0.1735
 2277SOL    HW118290   0.442   4.695  13.078  1.3207 -0.1274 -0.0331
 2277SOL    HW218291   0.558   0.017  13.142  0.3759 -0.3476 -0.0153
 2278SOL     OW18292   0.287   3.004  14.303  0.7412 -0.0415 -0.0275
 2278SOL    HW118293   0.311   2.933  14.243  0.5470 -0.0295 -0.1189
 2278SOL    HW218294   0.192   3.002  14.303  0.6709  2.6156 -0.4675
 2279SOL     OW18295   2.620   2.255  12.747  0.1380 -0.3243  0.3056
 2279SOL    HW118296   2.683   2.205  12.695  0.1328  2.3417 -2.2899
 2279SOL    HW218297   2.684   2.295  12.806  1.1409  0.3311 -1.2038
 2280SOL     OW18298   4.489   4.242  12.808 -0.3138  0.0566  0.5332
 2280SOL    HW118299   4.423   4.192  12.857 -1.0496  1.8854  1.4209
 2280SOL    HW218300   4.441   4.323  12.789 -2.1087 -0.9927  0.5927
 2281SOL     OW18301   1.482   2.471   0.935  0.4337 -0.3183  0.2896
 2281SOL    HW118302   1.464   2.553   0.980  1.0337  0.6873 -1.3037
 2281SOL    HW218303   1.463   2.407   1.004 -0.0181  0.5563  0.9645
 2282SOL     OW18304   2.434   2.240   4.973  0.1207 -0.2098 -0.3612
 2282SOL    HW118305   2.523   2.217   4.996 -0.6591 -2.4257  0.3783
 2282SOL    HW218306   2.414   2.304   5.042 -1.7128 -1.6894  0.4805
 2283SOL     OW18307   0.723   2.380   4.322 -0.4467  1.0363  0.3721
 2283SOL    HW118308   0.640   2.413   4.288 -1.3404  0.4553  1.9770
 2283SOL    HW218309   0.783   2.422   4.261  1.8524 -2.1910  0.3661
 2284SOL     OW18310   2.164   1.216  16.604  0.5152  0.2804  0.2827
 2284SOL    HW118311   2.214   1.246  16.680 -1.4514 -0.0994  1.7273
 2284SOL    HW218312   2.148   1.128  16.638 -1.3518  0.1838 -0.8253
 2285SOL     OW18313   1.401   4.382  14.848  0.8570 -0.4163  0.1538
 2285SOL    HW118314   1.389   4.445  14.776  1.0271  0.2896  0.7370
 2285SOL    HW218315   1.496   4.382  14.863  0.9097 -0.2190 -0.1689
 2286SOL     OW18316   2.851   4.126   4.631  0.3088  0.1109  0.5938
 2286SOL    HW118317   2.888   4.164   4.711  0.8825  1.9029 -0.5334
 2286SOL    HW218318   2.928   4.094   4.585  0.2763  0.3863  0.3483
 2287SOL     OW18319   0.331   2.999   7.654 -0.0515 -0.0233  0.7860
 2287SOL    HW118320   0.339   2.914   7.696  0.4824 -1.3188 -1.8942
 2287SOL    HW218321   0.415   3.042   7.671  0.7643 -0.2680 -2.6331
 2288SOL     OW18322   1.642   0.159   8.987 -0.0215  0.6696 -0.2878
 2288SOL    HW118323   1.613   0.068   8.986  1.8715  0.0261  1.4720
 2288SOL    HW218324   1.697   0.150   9.065 -1.8881  1.8964  1.1489
 2289SOL     OW18325   3.729   0.251   3.017  0.1348 -0.5089  0.1411
 2289SOL    HW118326   3.706   0.159   3.004  0.4886 -0.3962 -1.3066
 2289SOL    HW218327   3.813   0.254   2.970 -0.2959 -0.2645 -0.6018
 2290SOL     OW18328   0.876   2.963   5.541  0.0659 -0.3458 -0.2177
 2290SOL    HW118329   0.797   3.004   5.505  0.7460  0.4564 -0.7965
 2290SOL    HW218330   0.930   3.035   5.575  0.1629 -1.3653  1.7649
 2291SOL     OW18331   0.813   1.822  14.185  0.2968  0.5788 -0.2378
 2291SOL    HW118332   0.862   1.798  14.107  0.7785  1.2940 -0.1519
 2291SOL    HW218333   0.728   1.785  14.163  0.9618 -0.4509 -1.0731
 2292SOL     OW18334   1.211   1.586   5.301 -0.1127  0.0210  0.3041
 2292SOL    HW118335   1.233   1.530   5.226 -0.9491  1.0637 -0.7183
 2292SOL    HW218336   1.144   1.639   5.258 -0.6691  0.9625  2.3642
 2293SOL     OW18337   0.689   1.395   7.856  0.0342  0.0882 -0.3352
 2293SOL    HW118338   0.754   1.370   7.921  0.4300  0.1689 -0.7038
 2293SOL    HW218339   0.745   1.432   7.788 -0.3209 -0.1279 -0.7503
 2294SOL     OW18340   2.632   1.570  13.385  0.0134  0.2575 -0.3393
 2294SOL    HW118341   2.571   1.644  13.393 -0.2168 -0.1114  1.3784
 2294SOL    HW218342   2.701   1.589  13.448  0.4183 -0.3524 -0.6022
 2295SOL     OW18343   0.368   1.105   8.200  0.3106  0.0305 -0.1561
 2295SOL    HW118344   0.402   1.132   8.115 -1.2733  3.3754  0.2484
 2295SOL    HW218345   0.307   1.173   8.228  0.7538  0.3024  0.1484
 2296SOL     OW18346   1.334   0.851   8.686  1.1166  0.7333  0.1971
 2296SOL    HW118347   1.355   0.858   8.779 -0.4722  1.7690  0.4845
 2296SOL    HW218348   1.418   0.828   8.647  0.9632  1.1614 -0.3878
 2297SOL     OW18349   0.471   2.535   7.683  0.0987 -0.0546  0.0835
 2297SOL    HW118350   0.512   2.450   7.663 -0.9993 -0.3902 -0.7173
 2297SOL    HW218351   0.514   2.585   7.614 -1.2411  1.7360  0.5533
 2298SOL     OW18352   1.691   4.627   7.112 -0.3842  0.1572  0.1418
 2298SOL    HW118353   1.597   4.622   7.130  0.1924 -1.6191  2.6526
 2298SOL    HW218354   1.728   4.688   7.175 -0.3067 -0.2589  0.4984
 2299SOL     OW18355   0.206   0.553   4.961  0.0627 -0.1610 -0.1757
 2299SOL    HW118356   0.144   0.626   4.958  1.5472  1.0522 -1.0852
 2299SOL    HW218357   0.245   0.577   5.045 -0.5401  2.1160 -0.5507
 2300SOL     OW18358   2.048   1.674   3.322 -0.1469  0.2134  0.2123
 2300SOL    HW118359   2.005   1.734   3.382  0.2916  2.4357 -1.6617
 2300SOL    HW218360   2.004   1.593   3.346  0.4757  0.6925  2.8942
 2301SOL     OW18361   3.233   2.092   5.523  0.7786  0.1584 -0.3561
 2301SOL    HW118362   3.260   2.166   5.469  2.5062 -0.2261  0.0075
 2301SOL    HW218363   3.141   2.088   5.496  2.2506  0.8468 -5.4410
 2302SOL     OW18364   0.606   4.410   6.661  0.4693 -0.3179  0.3626
 2302SOL    HW118365   0.630   4.432   6.571 -1.4883  0.4426  0.0158
 2302SOL    HW218366   0.596   4.316   6.650 -0.6299 -0.1302 -0.3746
 2303SOL     OW18367   0.362   4.673  13.751  1.3211  0.3284  0.0590
 2303SOL    HW118368   0.338   4.617  13.825 -0.1836  1.4108  0.3835
 2303SOL    HW218369   0.402   4.607  13.695 -0.2201 -0.7411  0.2397
 2304SOL     OW18370   2.843   1.802   5.129  0.0394 -0.1737  0.2440
 2304SOL    HW118371   2.875   1.767   5.212  2.2619  0.4138 -0.3656
 2304SOL    HW218372   2.748   1.792   5.136  0.2463 -0.4544  2.5070
 2305SOL     OW18373   3.834   3.512  16.786  0.0917 -0.1222  0.4020
 2305SOL    HW118374   3.800   3.598  16.764 -1.3657 -1.0578 -1.0505
 2305SOL    HW218375   3.886   3.492  16.708 -1.1112 -2.5196  0.1982
 2306SOL     OW18376   3.893   4.461   4.945  0.4272  0.5142 -0.2884
 2306SOL    HW118377   3.864   4.552   4.943 -0.3320  0.2856  0.2684
 2306SOL    HW218378   3.917   4.431   4.857 -0.3155 -0.0670 -0.2946
 2307SOL     OW18379   2.351   3.801   4.167  0.6073 -0.1201  0.5484
 2307SOL    HW118380   2.311   3.845   4.092 -1.2450  1.5176  2.4969
 2307SOL    HW218381   2.296   3.839   4.236  1.1322  3.4105 -0.9863
 2308SOL     OW18382   3.710   1.167   4.729  0.2228  0.4481 -0.0840
 2308SOL    HW118383   3.643   1.202   4.670  1.2272  0.3848 -1.2635
 2308SOL    HW218384   3.687   1.200   4.815 -0.2224  0.3424 -0.1642
 2309SOL     OW18385   4.146   2.623   3.970  0.4198  0.2167  0.3257
 2309SOL    HW118386   4.224   2.590   4.014 -0.5707 -1.1915  1.0403
 2309SOL    HW218387   4.180   2.643   3.883  0.5214  0.5886  0.4488
 2310SOL     OW18388   1.034   0.152   2.668  0.4466  0.1057 -0.3960
 2310SOL    HW118389   1.041   0.137   2.574 -0.6944 -1.2629 -0.2646
 2310SOL    HW218390   1.119   0.195   2.676  0.8025 -0.9947  1.7598
 2311SOL     OW18391   4.661   1.849   7.394  0.4969 -0.3598 -0.0401
 2311SOL    HW118392   0.024   1.865   7.436  1.1633  1.5900 -2.1439
 2311SOL    HW218393   4.692   1.827   7.306 -0.1899 -0.3401 -0.2925
 2312SOL     OW18394   3.349   1.704   1.883  0.1376 -0.2169  0.1458
 2312SOL    HW118395   3.277   1.660   1.929 -0.3118  2.8464  2.3854
 2312SOL    HW218396   3.324   1.795   1.902  0.3151  0.0255 -0.8078
 2313SOL     OW18397   2.478   2.999  15.456 -0.3405 -0.1392 -0.5164
 2313SOL    HW118398   2.558   3.030  15.415  0.9406  1.0375  2.8657
 2313SOL    HW218399   2.474   2.913  15.414 -0.3810 -1.0003  1.2307
 2314SOL     OW18400   2.011   2.167   8.298 -0.1776 -0.1812  0.4263
 2314SOL    HW118401   2.005   2.231   8.228  0.8027 -0.1068  0.4054
 2314SOL    HW218402   2.089   2.117   8.273 -0.3430 -0.4100  0.3677
 2315SOL     OW18403   0.399   3.931   9.448  0.4771 -0.5672  0.0661
 2315SOL    HW118404   0.395   3.956   9.541 -0.2930  0.2197 -0.1739
 2315SOL    HW218405   0.443   3.846   9.444 -0.0817 -0.7769 -1.7849
 2316SOL     OW18406   3.245   4.685   3.145  0.1304 -0.8287 -0.1986
 2316SOL    HW118407   3.324   4.717   3.102 -0.1397  0.1102  0.0158
 2316SOL    HW218408   3.203   4.634   3.076 -1.0705 -0.5755  0.3346
 2317SOL     OW18409   4.667   0.732   5.748  0.7918 -0.4870 -0.5843
 2317SOL    HW118410   4.716   0.663   5.704  3.1330  0.9448 -0.2192
 2317SOL    HW218411   4.667   0.796   5.677 -0.0515  1.5916  1.2815
 2318SOL     OW18412   4.284   0.315  16.247  0.2657  0.0452 -0.5114
 2318SOL    HW118413   4.192   0.337  16.260  0.5805  1.3853 -0.5979
 2318SOL    HW218414   4.277   0.236  16.193  0.2391  0.3502 -0.9540
 2319SOL     OW18415   3.993   2.291   7.899 -0.0498 -0.4001  0.1251
 2319SOL    HW118416   4.051   2.367   7.911  0.2524 -0.6050 -0.0202
 2319SOL    HW218417   3.914   2.332   7.865 -0.7421 -1.6850  0.1788
 2320SOL     OW18418   2.015   2.640   8.935  0.1978 -0.3194 -0.8080
 2320SOL    HW118419   2.009   2.700   8.861 -1.9503  2.6559  1.7980
 2320SOL    HW218420   2.081   2.686   8.988 -2.5766  1.5648  0.9872
 2321SOL     OW18421   3.697   1.237   9.488  0.9253  0.0778 -0.0028
 2321SOL    HW118422   3.711   1.148   9.456 -3.8272 -1.8697  3.3062
 2321SOL    HW218423   3.709   1.228   9.582  1.9839  2.3399  0.0817
 2322SOL     OW18424   1.200   2.640   3.657  0.0133 -0.7196  0.0585
 2322SOL    HW118425   1.125   2.650   3.599  1.0932  1.7807 -0.9391
 2322SOL    HW218426   1.172   2.560   3.701 -0.6100 -0.4463  0.1661
 2323SOL     OW18427   2.909   4.559   8.437  0.6726  0.4034  0.0010
 2323SOL    HW118428   2.999   4.593   8.440  1.0023 -0.5020  0.5257
 2323SOL    HW218429   2.867   4.587   8.356  1.3048 -2.3301 -1.2408
 2324SOL     OW18430   4.085   1.277   3.493  0.0502 -0.3611 -0.2669
 2324SOL    HW118431   4.108   1.184   3.489  1.3978 -0.0179 -0.6696
 2324SOL    HW218432   4.006   1.274   3.547  0.6487 -4.0229  0.4364
 2325SOL     OW18433   2.346   4.517   8.086  0.0465  0.0386  0.6959
 2325SOL    HW118434   2.391   4.438   8.115 -0.1945 -0.0156  0.9340
 2325SOL    HW218435   2.402   4.532   8.011 -1.7165  1.1331 -0.4147
 2326SOL     OW18436   2.113   3.196  13.579 -0.0097 -0.1368  0.1462
 2326SOL    HW118437   2.045   3.164  13.638 -1.3028 -0.9848 -1.8369
 2326SOL    HW218438   2.151   3.119  13.538  1.7910 -0.1471  1.8062
 2327SOL     OW18439   2.274   3.162   4.084 -0.0658  0.2664  0.1637
 2327SOL    HW118440   2.214   3.168   4.158  1.1450  1.0241  1.0832
 2327SOL    HW218441   2.345   3.202   4.134 -0.5176  0.6196  0.5325
 2328SOL     OW18442   4.406   3.905  17.671 -0.5583 -0.1687 -0.0993
 2328SOL    HW118443   4.428   3.837  17.607 -2.7780 -0.1007 -0.9415
 2328SOL    HW218444   4.492   3.946  17.680 -1.4403  1.0558  2.9102
 2329SOL     OW18445   4.457   1.153   5.988 -0.5819 -0.7706 -0.5700
 2329SOL    HW118446   4.396   1.171   6.060  0.4455  0.9326 -0.1208
 2329SOL    HW218447   4.481   1.063   6.009 -0.3605 -0.5638  0.0602
 2330SOL     OW18448   2.959   2.273   7.353  0.8423 -0.0471  0.5668
 2330SOL    HW118449   2.975   2.361   7.388 -3.0936 -0.1377  2.6128
 2330SOL    HW218450   2.885   2.230   7.395  1.7116 -3.2257 -1.1670
 2331SOL     OW18451   3.786   3.741  10.961  0.2113  0.2238 -0.1206
 2331SOL    HW118452   3.711   3.684  10.977  0.9031 -0.8397 -0.7110
 2331SOL    HW218453   3.783   3.748  10.866 -3.1544 -3.5460 -0.3122
 2332SOL     OW18454   2.463   0.951   0.798 -0.4045  0.0979 -0.1571
 2332SOL    HW118455   2.473   0.935   0.892 -2.5001  1.1747  0.2560
 2332SOL    HW218456   2.395   0.884   0.785  1.6481 -2.0870  0.2589
 2333SOL     OW18457   3.982   1.839   2.768  0.2691  0.4824  0.0301
 2333SOL    HW118458   4.010   1.856   2.858  0.4586 -1.6754  0.3780
 2333SOL    HW218459   3.933   1.915   2.737 -1.7423 -1.3121 -1.2585
 2334SOL     OW18460   0.812   1.265   8.762 -0.2601 -0.4369 -0.1587
 2334SOL    HW118461   0.848   1.215   8.836  0.2552  0.1673 -0.0006
 2334SOL    HW218462   0.726   1.221   8.759  0.0933 -1.3567  2.8154
 2335SOL     OW18463   2.097   4.097  13.513  0.1379 -0.4284  0.0830
 2335SOL    HW118464   2.140   4.037  13.574  3.3248  1.3490 -0.4210
 2335SOL    HW218465   2.165   4.108  13.447  0.9729  0.5349  1.0958
 2336SOL     OW18466   3.143   2.533  13.422  0.1424  0.2246  0.5999
 2336SOL    HW118467   3.174   2.619  13.393  0.2063 -0.4483 -1.3201
 2336SOL    HW218468   3.230   2.502  13.448 -1.1223 -3.8534 -0.1253
 2337SOL     OW18469   4.027   3.332   6.018  0.2169  0.1739  0.1212
 2337SOL    HW118470   4.054   3.242   6.035 -2.2286 -0.5384  0.2612
 2337SOL    HW218471   3.990   3.332   5.930 -2.3254  3.3232  1.1887
 2338SOL     OW18472   3.820   4.625  13.312  0.1373  0.8522  0.6849
 2338SOL    HW118473   3.783   4.574  13.384  0.2542 -0.9291 -0.5152
 2338SOL    HW218474   3.913   4.630  13.333  0.7023 -0.5391 -1.5085
 2339SOL     OW18475   2.794   3.169   2.850 -0.4140 -0.0150 -0.4270
 2339SOL    HW118476   2.811   3.093   2.905  0.9174  0.7880  0.2740
 2339SOL    HW218477   2.853   3.234   2.890 -0.6582  0.1654 -0.3587
 2340SOL     OW18478   1.280   4.333   5.340  0.0524  0.0536 -0.7221
 2340SOL    HW118479   1.368   4.348   5.375  0.5593 -0.5235 -1.7625
 2340SOL    HW218480   1.233   4.371   5.415 -0.9893 -0.9191 -0.8929
 2341SOL     OW18481   0.995   2.070  13.406  0.1116  0.1709 -0.1889
 2341SOL    HW118482   1.031   2.005  13.467 -0.1321 -0.4131 -0.6637
 2341SOL    HW218483   1.038   2.150  13.436 -1.1073  0.2291  1.3946
 2342SOL     OW18484   2.468   1.102   1.478 -0.6034  0.9387  0.2177
 2342SOL    HW118485   2.441   1.024   1.526 -0.5322  1.3600  0.9303
 2342SOL    HW218486   2.561   1.102   1.501 -0.5151  1.0037 -0.1280
 2343SOL     OW18487   0.470   0.956   6.905  0.0189  0.3583 -0.5525
 2343SOL    HW118488   0.517   1.038   6.920 -1.3402  1.0717 -0.1712
 2343SOL    HW218489   0.539   0.896   6.931  0.5246  1.1454 -0.0763
 2344SOL     OW18490   1.960   2.767  13.279  0.2410  0.4666  0.1397
 2344SOL    HW118491   2.047   2.732  13.264  0.3640  0.4726  0.8237
 2344SOL    HW218492   1.922   2.691  13.323 -0.0251  1.6366  1.9407
 2345SOL     OW18493   1.611   2.485   2.096 -0.1175 -0.2258  0.1339
 2345SOL    HW118494   1.601   2.535   2.178  1.2931  0.5388 -0.1711
 2345SOL    HW218495   1.522   2.496   2.062  0.7413 -2.4143 -2.7666
 2346SOL     OW18496   1.807   1.326   6.006 -0.3856 -0.1728  0.0293
 2346SOL    HW118497   1.804   1.231   6.022 -1.4095 -0.0462  0.6481
 2346SOL    HW218498   1.884   1.339   5.951  0.7177  0.5999  1.7475
 2347SOL     OW18499   3.795   3.950   4.699 -0.1848  0.4032  0.1771
 2347SOL    HW118500   3.755   3.889   4.637  0.9425  0.1595 -0.3235
 2347SOL    HW218501   3.787   3.883   4.767  3.8948 -2.8235 -2.4683
 2348SOL     OW18502   1.026   2.681   8.352  0.2345  0.8962  0.3477
 2348SOL    HW118503   0.970   2.619   8.399 -0.1621  1.7550  1.0213
 2348SOL    HW218504   0.969   2.731   8.295  0.8341  0.3898 -0.6828
 2349SOL     OW18505   0.769   2.975   9.807  0.4348  0.1243  0.3604
 2349SOL    HW118506   0.769   2.885   9.775  0.7717  0.5998 -0.9807
 2349SOL    HW218507   0.729   2.958   9.892  0.0869  1.6147  0.4920
 2350SOL     OW18508   2.057   2.142  16.408  0.4556 -0.1702  0.1504
 2350SOL    HW118509   2.098   2.056  16.397 -1.2819 -0.8959 -0.6321
 2350SOL    HW218510   2.031   2.151  16.316 -1.3756 -1.1501  0.5670
 2351SOL     OW18511   4.562   4.587   3.169 -0.0569 -0.2987 -0.5134
 2351SOL    HW118512   4.611   4.555   3.244 -2.0454  0.8773  1.3130
 2351SOL    HW218513   4.599   4.548   3.090 -2.5263 -0.6048 -1.5264
 2352SOL     OW18514   0.244   3.745   3.616  0.1972  0.4955 -0.5294
 2352SOL    HW118515   0.207   3.810   3.556 -0.1402 -0.2831 -1.1827
 2352SOL    HW218516   0.165   3.704   3.652  0.4784  1.0118  0.6628
 2353SOL     OW18517   2.979   4.144  13.756  0.7046 -0.3585  0.0398
 2353SOL    HW118518   3.050   4.142  13.691 -1.3225 -0.9738 -2.1741
 2353SOL    HW218519   2.988   4.061  13.802  0.9738 -0.0038  0.6273
 2354SOL     OW18520   4.531   1.870   1.089  0.5251  0.1776  0.0614
 2354SOL    HW118521   4.495   1.797   1.039  2.4557 -1.2982  0.8030
 2354SOL    HW218522   4.457   1.930   1.088 -0.6041 -1.2788 -2.0461
 2355SOL     OW18523   2.459   0.013   2.680 -0.5816  0.4754 -0.4034
 2355SOL    HW118524   2.505   0.036   2.760  1.8339 -1.8059 -1.1049
 2355SOL    HW218525   2.414   4.655   2.711  0.7267 -0.4483 -0.8458
 2356SOL     OW18526   2.553   1.346   6.031 -0.2982 -0.1861 -0.5133
 2356SOL    HW118527   2.599   1.269   5.998  0.8510  0.2400  0.1086
 2356SOL    HW218528   2.487   1.306   6.088  0.6632 -0.4106  0.4457
 2357SOL     OW18529   1.867   3.614  15.022  0.2935 -0.3831  0.2558
 2357SOL    HW118530   1.854   3.618  14.927  0.0203 -1.6808  0.2413
 2357SOL    HW218531   1.810   3.540  15.043 -0.3248  0.5218  1.7671
 2358SOL     OW18532   4.387   3.626  13.983 -0.2929  0.3640  0.5971
 2358SOL    HW118533   4.346   3.666  13.906  3.0496  2.2101 -0.2642
 2358SOL    HW218534   4.352   3.672  14.059  0.0341  3.1577 -0.9457
 2359SOL     OW18535   0.477   2.208   5.654 -0.2456  0.2862  0.0485
 2359SOL    HW118536   0.408   2.267   5.684 -1.7186 -0.4538 -1.8407
 2359SOL    HW218537   0.526   2.181   5.731  0.6490 -2.0864 -1.3379
 2360SOL     OW18538   1.509   4.447  13.444  0.2238  0.0203  0.8696
 2360SOL    HW118539   1.446   4.512  13.412 -1.2382 -0.6621  2.3890
 2360SOL    HW218540   1.450   4.374  13.462 -1.6104  1.3585  0.3244
 2361SOL     OW18541   1.686   4.422   8.716  0.1741 -0.1909  0.1610
 2361SOL    HW118542   1.616   4.391   8.659  2.5414 -1.8724 -1.8237
 2361SOL    HW218543   1.656   4.424   8.807  2.5470 -0.3646  0.9676
 2362SOL     OW18544   0.454   2.265  17.630  0.6954  1.1166  0.5425
 2362SOL    HW118545   0.497   2.351  17.631  0.1059  1.4534 -1.9689
 2362SOL    HW218546   0.359   2.279  17.621  0.0242 -2.2533  2.6201
 2363SOL     OW18547   0.660   1.966   8.937 -0.0344 -0.0558  0.1974
 2363SOL    HW118548   0.743   2.011   8.919  0.8510 -1.9586 -0.4741
 2363SOL    HW218549   0.686   1.876   8.954  0.1538 -0.3018 -1.3332
 2364SOL     OW18550   0.350   0.004   8.125 -0.0142 -0.0850  0.3432
 2364SOL    HW118551   0.378   0.060   8.198  0.3753 -0.9720  0.8648
 2364SOL    HW218552   0.425   0.018   8.067  0.5758 -3.3420  0.3576
 2365SOL     OW18553   2.030   0.869  17.494 -0.3695  0.2734  0.0446
 2365SOL    HW118554   1.941   0.861  17.530  1.2078 -2.3240  3.3173
 2365SOL    HW218555   2.049   0.799  17.433  0.1461 -0.7207  1.3323
 2366SOL     OW18556   1.006   1.594   7.375  0.4393 -0.1515 -0.3720
 2366SOL    HW118557   0.990   1.667   7.435 -0.9488 -1.0192  0.3006
 2366SOL    HW218558   1.097   1.583   7.404 -0.0627 -2.1771  0.4106
 2367SOL     OW18559   3.037   2.697   0.867  0.0454 -0.5198 -0.4291
 2367SOL    HW118560   2.968   2.730   0.925 -0.4976  1.6578 -2.3117
 2367SOL    HW218561   2.998   2.617   0.832  1.9218 -2.3274  1.6545
 2368SOL     OW18562   3.311   0.448  12.158 -0.3223 -0.4059 -0.0970
 2368SOL    HW118563   3.381   0.478  12.216  2.1328 -0.7160 -2.8876
 2368SOL    HW218564   3.360   0.374  12.120 -0.3876 -0.1306 -0.7096
 2369SOL     OW18565   2.066   3.886  11.954 -0.1138 -0.4643 -0.0798
 2369SOL    HW118566   2.112   3.969  11.945  0.6620 -0.6802  1.9067
 2369SOL    HW218567   1.979   3.910  11.922  0.2109  1.5759  0.5447
 2370SOL     OW18568   1.057   2.036   1.705  0.3699  0.0631  0.6211
 2370SOL    HW118569   0.984   2.037   1.644 -0.2957 -1.6452  1.3985
 2370SOL    HW218570   1.023   2.077   1.784 -0.5119  0.4716  0.0207
 2371SOL     OW18571   2.194   1.008   2.754  0.5945  0.5531 -0.0527
 2371SOL    HW118572   2.135   1.082   2.739  0.9859  0.6104 -1.3796
 2371SOL    HW218573   2.265   1.026   2.692  1.3062  2.2926  1.2772
 2372SOL     OW18574   0.291   1.005   7.228 -0.4810  0.5614 -0.2950
 2372SOL    HW118575   0.249   1.081   7.189 -1.7484 -0.3488 -0.7482
 2372SOL    HW218576   0.290   0.949   7.150  1.0672 -0.6799  0.5735
 2373SOL     OW18577   3.519   1.604  16.771 -0.0144  0.2360  0.0718
 2373SOL    HW118578   3.505   1.555  16.852 -1.2935  0.7862  0.1921
 2373SOL    HW218579   3.446   1.560  16.727 -0.5205 -0.1175  1.2689
 2374SOL     OW18580   1.428   0.553   2.417  0.0017  0.5097  0.1639
 2374SOL    HW118581   1.461   0.476   2.371  1.5122  0.4676  1.2943
 2374SOL    HW218582   1.483   0.621   2.378  1.1281  0.4000  1.5493
 2375SOL     OW18583   0.950   1.366  12.352 -0.3502  0.1832  0.3063
 2375SOL    HW118584   0.934   1.272  12.342  2.8779 -0.2375 -1.0261
 2375SOL    HW218585   0.951   1.379  12.447  0.5786  1.2278  0.1554
 2376SOL     OW18586   1.430   2.710   7.577 -0.1182  0.1757  0.4449
 2376SOL    HW118587   1.360   2.648   7.599  1.6003 -2.3453 -1.2325
 2376SOL    HW218588   1.448   2.763   7.655 -0.8223  0.9240  0.1024
 2377SOL     OW18589   0.778   4.489   2.799  0.6947  0.4385 -0.0754
 2377SOL    HW118590   0.683   4.500   2.805  0.4859 -0.8585 -0.8717
 2377SOL    HW218591   0.804   4.576   2.768  0.5848  0.3922 -0.2966
 2378SOL     OW18592   1.089   3.341   3.766  0.1868 -0.3441 -0.5983
 2378SOL    HW118593   1.117   3.405   3.832  2.7874 -2.0570 -0.0653
 2378SOL    HW218594   1.048   3.276   3.823 -0.1338  0.6204  0.2971
 2379SOL     OW18595   3.560   1.312   4.522 -0.2612  0.5767  0.4140
 2379SOL    HW118596   3.470   1.282   4.530 -0.4836  0.8145 -1.1422
 2379SOL    HW218597   3.570   1.303   4.427 -3.1482 -0.2923  0.1916
 2380SOL     OW18598   2.765   3.445   3.714  0.1967  0.4426  0.2847
 2380SOL    HW118599   2.730   3.369   3.761  0.3796 -0.4999 -1.0760
 2380SOL    HW218600   2.843   3.467   3.764  0.5706  4.1605 -1.9426
 2381SOL     OW18601   3.245   4.530   5.957 -0.0488 -0.6592 -0.6696
 2381SOL    HW118602   3.213   4.449   5.918  1.0352 -1.6895  0.5814
 2381SOL    HW218603   3.178   4.595   5.936  3.5274  2.3315 -2.7834
 2382SOL     OW18604   1.275   0.916  10.839 -0.2562 -0.0298  0.7683
 2382SOL    HW118605   1.369   0.904  10.835 -0.6927 -2.2795 -2.4593
 2382SOL    HW218606   1.263   0.940  10.931 -0.5364  3.4165 -0.1399
 2383SOL     OW18607   2.402   2.862   2.084 -0.1998  0.4382  0.3158
 2383SOL    HW118608   2.423   2.791   2.145  1.9985  1.7179  1.0444
 2383SOL    HW218609   2.488   2.869   2.042  0.4038  3.1254  2.0413
 2384SOL     OW18610   1.425   0.540   5.409 -0.2538  0.4084  0.1303
 2384SOL    HW118611   1.416   0.513   5.318  2.1070  1.1457 -0.3192
 2384SOL    HW218612   1.518   0.563   5.407 -0.7558  2.2601 -1.7216
 2385SOL     OW18613   0.638   3.734   7.262  0.3603  0.6620 -0.0014
 2385SOL    HW118614   0.626   3.709   7.171 -1.7566  2.5995 -0.2521
 2385SOL    HW218615   0.566   3.684   7.300  1.8519 -2.6211 -1.5762
 2386SOL     OW18616   2.656   1.864   2.813  0.0488 -0.2728 -0.4770
 2386SOL    HW118617   2.642   1.770   2.830  0.6679 -0.5424 -1.4337
 2386SOL    HW218618   2.700   1.864   2.729  0.2121 -1.4541 -0.3997
 2387SOL     OW18619   1.947   4.529   3.683  0.4095 -0.2051  0.3474
 2387SOL    HW118620   1.999   4.450   3.698 -0.7214 -0.4665  2.9382
 2387SOL    HW218621   1.875   4.494   3.630  1.6075 -0.7112 -0.9496
 2388SOL     OW18622   4.214   3.669   3.597  0.4744  0.2887 -0.1944
 2388SOL    HW118623   4.136   3.663   3.652  0.8481 -0.7660  0.2089
 2388SOL    HW218624   4.241   3.579   3.577 -1.7524 -0.8299  1.9387
 2389SOL     OW18625   3.439   2.372  14.765 -0.2906 -0.6571 -0.0015
 2389SOL    HW118626   3.390   2.354  14.845  0.5043 -0.3254  0.5569
 2389SOL    HW218627   3.503   2.436  14.797 -2.4128  0.6588  1.5662
 2390SOL     OW18628   3.370   2.848   6.038 -0.3546  0.5358  0.4470
 2390SOL    HW118629   3.356   2.942   6.026 -0.8343  0.5488  1.1293
 2390SOL    HW218630   3.465   2.843   6.024 -0.6657 -0.5811 -1.2375
 2391SOL     OW18631   1.440   3.685  14.151 -0.2585  0.4356 -0.4548
 2391SOL    HW118632   1.454   3.643  14.236 -0.9231  0.6511 -0.2400
 2391SOL    HW218633   1.450   3.778  14.167 -1.7274  0.2816  1.3628
 2392SOL     OW18634   1.432   0.117   4.486  0.4033 -0.1402  0.1554
 2392SOL    HW118635   1.448   0.088   4.575  1.1814  0.2142  0.1324
 2392SOL    HW218636   1.348   0.160   4.503 -0.0186 -1.1897  0.7206
 2393SOL     OW18637   4.594   1.858   4.253 -0.3898  0.2898  0.1646
 2393SOL    HW118638   4.667   1.797   4.245  1.0179  1.7890  1.5592
 2393SOL    HW218639   4.581   1.902   4.169 -0.7117 -1.9466 -0.9513
 2394SOL     OW18640   1.398   3.542  12.278  0.0313  0.0487 -0.0250
 2394SOL    HW118641   1.342   3.610  12.240 -1.3821  0.7226  3.2833
 2394SOL    HW218642   1.324   3.486  12.301 -0.7702  0.4068 -1.7199
 2395SOL     OW18643   2.836   0.224  11.211  0.1404 -0.3858 -0.2332
 2395SOL    HW118644   2.761   0.186  11.257  2.8093 -3.2818  1.7596
 2395SOL    HW218645   2.818   0.226  11.117  1.7022 -2.3745 -0.5866
 2396SOL     OW18646   4.421   1.104   2.620  0.5266 -0.2684  0.4052
 2396SOL    HW118647   4.415   1.049   2.541 -1.0560  0.7508 -0.1968
 2396SOL    HW218648   4.491   1.060   2.667 -0.2397 -0.6892  1.1533
 2397SOL     OW18649   2.604   3.594   8.256 -0.3311  0.4807  0.2864
 2397SOL    HW118650   2.661   3.537   8.308  0.0031 -0.9085 -1.5840
 2397SOL    HW218651   2.652   3.676   8.266  0.2506  0.2351 -0.5078
 2398SOL     OW18652   4.607   1.877   6.391  0.1974 -0.0960 -0.1615
 2398SOL    HW118653   4.656   1.889   6.310 -0.0714  0.5472 -0.2278
 2398SOL    HW218654   4.671   1.894   6.460  0.7769 -0.8243 -0.5168
 2399SOL     OW18655   3.770   0.532   2.310 -0.0412  0.3927  0.3474
 2399SOL    HW118656   3.771   0.595   2.238  0.3850 -1.5758 -1.3394
 2399SOL    HW218657   3.821   0.588   2.369 -1.3011 -0.3961  2.1843
 2400SOL     OW18658   4.058   4.330   7.847  0.1452  0.2787 -0.1105
 2400SOL    HW118659   4.125   4.312   7.781  0.5935 -2.0401  0.9880
 2400SOL    HW218660   4.100   4.385   7.914 -1.0831  0.7553  0.2615
 2401SOL     OW18661   2.187   3.268   9.016  0.3788 -0.4395 -0.2831
 2401SOL    HW118662   2.171   3.324   8.939  1.4634  0.5933  0.2437
 2401SOL    HW218663   2.104   3.283   9.062  0.1572  0.3487 -0.9315
 2402SOL     OW18664   0.658   4.471   8.091  0.0570 -0.0379 -0.4078
 2402SOL    HW118665   0.597   4.545   8.083  0.0166  0.2474  2.4145
 2402SOL    HW218666   0.591   4.405   8.072  1.6414 -2.4694  2.4978
 2403SOL     OW18667   3.049   2.932   8.130 -0.0193  0.4948 -0.4043
 2403SOL    HW118668   2.961   2.895   8.125 -0.3968  1.1517  1.1516
 2403SOL    HW218669   3.095   2.857   8.092  0.9672  1.3300 -0.8613
 2404SOL     OW18670   4.144   2.887   3.317  0.4097  0.3007 -0.4424
 2404SOL    HW118671   4.105   2.928   3.395 -0.7186 -2.4211  0.4170
 2404SOL    HW218672   4.166   2.959   3.259 -0.1662  1.2838  0.5481
 2405SOL     OW18673   2.564   0.031   5.638  0.0050 -0.4003  0.1614
 2405SOL    HW118674   2.489   4.698   5.611 -0.7593  0.8839 -0.2595
 2405SOL    HW218675   2.599   0.059   5.554 -0.5759 -0.2542 -0.0316
 2406SOL     OW18676   1.061   1.759   4.030 -0.4964  0.5414 -0.0014
 2406SOL    HW118677   1.137   1.804   3.993 -0.2959  0.1203 -0.1013
 2406SOL    HW218678   1.081   1.772   4.123 -1.8504  1.7587  0.1224
 2407SOL     OW18679   2.456   1.778   4.382  0.5898  1.0774 -0.2025
 2407SOL    HW118680   2.374   1.761   4.427 -1.1949 -0.1675 -3.9142
 2407SOL    HW218681   2.416   1.810   4.301 -1.5533 -0.6436  0.1789
 2408SOL     OW18682   4.718   1.165  15.506 -0.9578  0.5381  0.1865
 2408SOL    HW118683   4.648   1.158  15.571 -0.1760  0.5098  1.0238
 2408SOL    HW218684   4.687   1.093  15.451 -1.5388 -0.1919  1.4667
 2409SOL     OW18685   2.351   0.531   2.107 -0.7987 -0.9824  0.2725
 2409SOL    HW118686   2.378   0.571   2.189  1.0141 -1.8996  0.1146
 2409SOL    HW218687   2.419   0.467   2.089  0.7329 -0.4658  4.2584
 2410SOL     OW18688   3.051   2.400   5.174 -0.2483 -0.3971  0.7810
 2410SOL    HW118689   2.990   2.405   5.101 -0.6747  0.6863  1.2183
 2410SOL    HW218690   3.052   2.306   5.193 -0.3469 -1.0309 -2.2189
 2411SOL     OW18691   1.496   1.539   3.101  0.4927  0.0307 -0.1014
 2411SOL    HW118692   1.506   1.589   3.020  1.9253  0.2889  0.2430
 2411SOL    HW218693   1.503   1.447   3.080 -1.9580  0.4526 -2.7611
 2412SOL     OW18694   3.100   1.704   5.797 -0.0416  0.5335  0.3469
 2412SOL    HW118695   3.130   1.715   5.887  1.4732 -2.1346  0.1762
 2412SOL    HW218696   3.037   1.632   5.804  0.4498  0.0166 -0.4971
 2413SOL     OW18697   0.864   4.423   1.807  1.0939  0.1627 -0.5013
 2413SOL    HW118698   0.934   4.392   1.750  0.3649  0.7919 -1.7673
 2413SOL    HW218699   0.908   4.417   1.892  0.0751 -1.0599 -0.0580
 2414SOL     OW18700   4.296   2.499   5.006  0.4673 -0.7311 -0.0983
 2414SOL    HW118701   4.308   2.418   5.056 -0.6035 -0.0259  1.2860
 2414SOL    HW218702   4.382   2.541   5.001  0.8139 -1.5078 -0.6486
 2415SOL     OW18703   4.706   0.610   2.537 -0.0299 -0.5103 -0.0751
 2415SOL    HW118704   4.714   0.573   2.625 -0.2483 -0.8401 -0.1933
 2415SOL    HW218705   4.619   0.651   2.538  0.7929  1.1717  3.8435
 2416SOL     OW18706   1.081   0.844   4.062 -0.2700 -0.0163  0.2304
 2416SOL    HW118707   1.053   0.848   4.153  0.8837  0.0489  0.5791
 2416SOL    HW218708   1.064   0.937   4.050  0.0788  0.2453  1.7999
 2417SOL     OW18709   3.506   4.363   3.726 -0.0718  0.0240 -0.2380
 2417SOL    HW118710   3.470   4.359   3.637 -1.3065  4.0136  0.0818
 2417SOL    HW218711   3.547   4.448   3.711 -0.3663  0.3492  0.8043
 2418SOL     OW18712   1.045   3.511  10.164 -0.2443  0.4573 -0.5034
 2418SOL    HW118713   1.093   3.434  10.132 -0.5141 -0.1499  0.5481
 2418SOL    HW218714   0.979   3.467  10.219 -0.2383 -2.0417 -2.4748
 2419SOL     OW18715   0.083   0.884  17.246  0.1972  0.2529 -0.0139
 2419SOL    HW118716   0.026   0.947  17.290  1.1421  1.0853  0.0294
 2419SOL    HW218717   0.146   0.855  17.312 -0.8001 -1.8589  0.0099
 2420SOL     OW18718   2.465   1.087  11.978  0.5783 -0.5547 -0.0585
 2420SOL    HW118719   2.545   1.062  11.931  0.4664 -0.6453 -0.2015
 2420SOL    HW218720   2.422   1.135  11.907  2.2220  0.4182 -0.3884
 2421SOL     OW18721   1.838   0.852   4.635  0.6200  0.1308 -0.4521
 2421SOL    HW118722   1.838   0.838   4.541 -3.2334  2.7794 -0.8305
 2421SOL    HW218723   1.840   0.947   4.645  2.2330 -0.1449  1.8391
 2422SOL     OW18724   2.869   4.087   7.120  0.1834 -0.0271 -0.3366
 2422SOL    HW118725   2.915   4.156   7.169  2.9029 -2.3800  0.4040
 2422SOL    HW218726   2.930   4.015   7.133  0.2855 -0.1133 -1.2742
 2423SOL     OW18727   4.394   1.755   8.608  0.1193 -0.6156 -0.3513
 2423SOL    HW118728   4.384   1.737   8.514 -1.9802 -2.2614  0.2059
 2423SOL    HW218729   4.326   1.695   8.637 -0.3958 -0.1668 -0.6203
 2424SOL     OW18730   0.047   1.188   5.540 -0.4882 -0.2882 -0.1993
 2424SOL    HW118731   0.034   1.283   5.539 -1.5777 -0.4218  1.9886
 2424SOL    HW218732   4.692   1.165   5.593  1.0012 -2.9757  0.7852
 2425SOL     OW18733   4.394   2.845  10.793 -0.4798 -0.1167  0.4672
 2425SOL    HW118734   4.324   2.898  10.754  0.7725  0.1277 -1.4421
 2425SOL    HW218735   4.392   2.759  10.751 -0.1695 -0.1626  0.5419
 2426SOL     OW18736   1.625   0.331   3.540  0.1795 -0.4167  0.1908
 2426SOL    HW118737   1.668   0.399   3.591  2.8033 -0.8023 -1.4804
 2426SOL    HW218738   1.662   0.252   3.580  0.0813  0.9086  2.8579
 2427SOL     OW18739   4.148   1.760   3.367 -0.3476 -0.0071 -0.3324
 2427SOL    HW118740   4.101   1.677   3.359  1.2205 -1.0443  1.0880
 2427SOL    HW218741   4.080   1.827   3.375 -0.0939  0.1376  0.6016
 2428SOL     OW18742   0.147   3.414   5.028 -0.0717  0.1595 -0.3629
 2428SOL    HW118743   0.151   3.333   4.977 -1.8733 -0.7098  0.8655
 2428SOL    HW218744   0.175   3.376   5.111 -2.6074  1.2407  0.9801
 2429SOL     OW18745   4.023   4.074   1.269 -0.6630  0.0236 -0.0618
 2429SOL    HW118746   3.941   4.120   1.254 -1.8278 -1.2422  2.4559
 2429SOL    HW218747   4.023   4.063   1.364  0.3089  1.3494  0.0898
 2430SOL     OW18748   1.409   2.271   6.468 -0.1246  0.0690 -0.9075
 2430SOL    HW118749   1.395   2.222   6.387 -0.2099 -0.5506 -0.5223
 2430SOL    HW218750   1.505   2.273   6.474 -0.2867  1.0396  1.4646
 2431SOL     OW18751   2.855   0.689  12.134  0.3333  0.3302 -0.1553
 2431SOL    HW118752   2.897   0.667  12.051  0.0856 -0.8101  0.0199
 2431SOL    HW218753   2.824   0.778  12.114  2.4045  0.7333 -1.5344
 2432SOL     OW18754   4.334   2.689   1.911  0.1348 -0.0939 -0.4585
 2432SOL    HW118755   4.343   2.597   1.937  1.8800  0.2239  0.0973
 2432SOL    HW218756   4.418   2.709   1.869  0.6238 -0.3765  0.3914
 2433SOL     OW18757   1.974   2.253   4.653 -0.1074  0.5917 -0.0211
 2433SOL    HW118758   2.027   2.329   4.630  0.9028 -0.1586 -0.1601
 2433SOL    HW218759   1.960   2.212   4.568 -2.2039 -0.2215  0.7130
 2434SOL     OW18760   4.584   4.169   6.205 -0.3239 -0.0365 -0.2673
 2434SOL    HW118761   4.676   4.144   6.197  0.0824  1.5923 -0.6692
 2434SOL    HW218762   4.538   4.087   6.221  1.3537 -0.8915  0.1216
 2435SOL     OW18763   4.452   0.773  10.711 -0.4107 -0.7266 -0.0173
 2435SOL    HW118764   4.393   0.804  10.642  0.1656 -0.7690 -0.5375
 2435SOL    HW218765   4.438   0.678  10.710 -2.0147 -0.5010  2.2000
 2436SOL     OW18766   4.199   1.953   2.983  0.0692 -0.2162  0.1989
 2436SOL    HW118767   4.223   1.904   3.061 -1.9538  1.0191  1.6140
 2436SOL    HW218768   4.240   1.904   2.912  0.0688 -0.8554  0.6378
 2437SOL     OW18769   1.062   0.945  14.211  0.1814  0.0335  0.3007
 2437SOL    HW118770   1.020   1.021  14.170  1.7048  0.1765 -0.9764
 2437SOL    HW218771   1.019   0.926  14.294  0.0486  2.2583  0.7578
 2438SOL     OW18772   0.073   2.139   3.625  0.6465 -0.5001 -0.6349
 2438SOL    HW118773   0.151   2.134   3.680  0.6527  0.9027 -0.5322
 2438SOL    HW218774   0.009   2.160   3.693 -0.3243 -1.4241 -1.2578
 2439SOL     OW18775   2.696   0.681   2.850 -0.3129  0.4145  0.4015
 2439SOL    HW118776   2.612   0.640   2.871 -1.0202  1.9087  0.4950
 2439SOL    HW218777   2.748   0.652   2.925 -1.5625 -2.7713  0.0396
 2440SOL     OW18778   3.478   1.350   7.141  0.0174  0.2880  0.0714
 2440SOL    HW118779   3.548   1.340   7.207 -1.6333 -0.3092  1.7310
 2440SOL    HW218780   3.529   1.386   7.068  2.8294 -0.7902  1.4696
 2441SOL     OW18781   0.344   2.459   9.686 -0.1059  0.3751  0.0171
 2441SOL    HW118782   0.250   2.441   9.687 -0.0453 -0.0143 -2.1564
 2441SOL    HW218783   0.339   2.538   9.740 -0.1242 -1.2705  2.4177
 2442SOL     OW18784   2.633   4.533  12.855  0.3940 -0.3043 -0.3137
 2442SOL    HW118785   2.667   4.516  12.767  2.2533 -1.0513  0.5361
 2442SOL    HW218786   2.713   4.525  12.906  0.3491 -1.2057 -0.3845
 2443SOL     OW18787   2.215   2.528  11.433  0.2415 -0.0788  0.3692
 2443SOL    HW118788   2.306   2.539  11.407 -0.2913  2.4833 -0.4268
 2443SOL    HW218789   2.192   2.447  11.389  0.0659  1.7375 -2.8783
 2444SOL     OW18790   4.613   2.809  12.778  0.1912  0.0362 -0.6990
 2444SOL    HW118791   4.675   2.859  12.832  1.8781 -0.6752 -1.9946
 2444SOL    HW218792   4.529   2.842  12.809  1.5330  2.4533  0.4273
 2445SOL     OW18793   0.510   0.286  13.861  0.1590  0.0630 -0.1322
 2445SOL    HW118794   0.498   0.355  13.796  4.4852  0.9884  0.0177
 2445SOL    HW218795   0.422   0.250  13.858  0.2360 -0.0970 -0.5159
 2446SOL     OW18796   2.972   0.082   7.794  0.6279  0.3939  0.2378
 2446SOL    HW118797   2.886   0.091   7.754  0.4331  1.6181  0.9316
 2446SOL    HW218798   2.998   0.174   7.793  2.0579  0.0234  3.3041
 2447SOL     OW18799   1.173   2.154   0.464 -0.0461  0.1181  0.0876
 2447SOL    HW118800   1.122   2.235   0.461  1.7483  1.2095 -0.8822
 2447SOL    HW218801   1.122   2.101   0.402 -0.8118  3.2541 -1.9536
 2448SOL     OW18802   0.236   3.046   5.255 -0.1208 -0.1474 -0.5029
 2448SOL    HW118803   0.182   3.068   5.330  0.9282 -0.3147  0.2982
 2448SOL    HW218804   0.176   2.995   5.200 -0.6306 -0.8894  0.7497
 2449SOL     OW18805   3.058   4.001   7.912 -0.2507 -0.0366  0.2018
 2449SOL    HW118806   3.027   4.017   7.823  0.0730 -1.6436 -0.2011
 2449SOL    HW218807   2.981   3.951   7.939  1.1053 -0.1671  3.8392
 2450SOL     OW18808   3.286   3.767   2.556  0.1306  0.8531  0.3396
 2450SOL    HW118809   3.224   3.838   2.571  2.6054  3.3220 -1.0107
 2450SOL    HW218810   3.359   3.809   2.509 -0.4299  1.2245 -0.1991
 2451SOL     OW18811   1.852   3.699  12.697  0.2534 -0.2611  0.4925
 2451SOL    HW118812   1.772   3.647  12.694 -0.1810  0.2462  3.2433
 2451SOL    HW218813   1.906   3.651  12.635  0.9704  0.1538  0.7899
 2452SOL     OW18814   0.822   0.050   3.547  0.2965 -0.1561 -0.2763
 2452SOL    HW118815   0.758   4.710   3.511  0.8212  0.6892 -2.6393
 2452SOL    HW218816   0.759   0.122   3.556 -0.0648 -0.4770 -0.2590
 2453SOL     OW18817   4.644   3.318   3.756  0.1693 -0.3299  0.3620
 2453SOL    HW118818   4.652   3.413   3.746  0.3693 -0.1939  1.8118
 2453SOL    HW218819   4.559   3.306   3.797 -0.6525 -1.1255 -1.5831
 2454SOL     OW18820   3.217   2.819  12.752  0.4200  0.5746  0.6894
 2454SOL    HW118821   3.200   2.905  12.714  3.0921  0.4937 -0.6529
 2454SOL    HW218822   3.123   2.798  12.757  0.1179  1.3420 -1.7238
 2455SOL     OW18823   0.261   3.188   5.620 -0.3048  0.3850 -0.0663
 2455SOL    HW118824   0.222   3.124   5.561  1.9554 -1.1616  0.1274
 2455SOL    HW218825   0.297   3.126   5.684 -2.6190  0.4706  1.3182
 2456SOL     OW18826   4.511   0.997   4.219  0.0248  0.0285  0.1990
 2456SOL    HW118827   4.421   0.988   4.247  0.0413  0.0824  0.2695
 2456SOL    HW218828   4.555   1.036   4.294 -1.2400 -1.0337  1.4797
 2457SOL     OW18829   2.762   1.911   2.550 -0.1896 -0.0197  0.2235
 2457SOL    HW118830   2.800   1.923   2.463  1.2091 -0.9155  0.7099
 2457SOL    HW218831   2.723   1.998   2.559  0.4840  0.4036 -0.9691
 2458SOL     OW18832   1.000   2.113   9.406  0.0319 -0.1735 -0.1281
 2458SOL    HW118833   0.983   2.195   9.452  1.2968 -1.0603  1.9088
 2458SOL    HW218834   0.928   2.110   9.343 -1.5065 -0.2817  1.6295
 2459SOL     OW18835   2.279   1.450   9.214  0.6082  0.6789 -0.0904
 2459SOL    HW118836   2.211   1.422   9.153  0.3393 -1.8819  1.3709
 2459SOL    HW218837   2.250   1.412   9.297  1.6884 -3.2474 -1.4728
 2460SOL     OW18838   3.192   4.041   3.502 -0.2856 -0.2962 -0.4671
 2460SOL    HW118839   3.226   4.065   3.588  0.4377 -3.5801  0.1627
 2460SOL    HW218840   3.149   4.117   3.462 -0.0330  0.6250  1.0103
 2461SOL     OW18841   3.235   3.664   8.427 -0.1114  0.4193  0.5480
 2461SOL    HW118842   3.211   3.617   8.507 -1.4053 -1.7340 -1.1385
 2461SOL    HW218843   3.301   3.729   8.452  0.3936  0.1106  0.0015
 2462SOL     OW18844   0.157   1.148   8.401  0.3777 -0.1750  0.2558
 2462SOL    HW118845   0.102   1.226   8.408  1.5777  0.6286  0.7042
 2462SOL    HW218846   0.100   1.077   8.429 -0.1808  0.6712  1.2591
 2463SOL     OW18847   2.768   2.464   9.307  0.0573  0.8127 -0.4213
 2463SOL    HW118848   2.805   2.390   9.355 -0.6317 -1.3756 -3.2528
 2463SOL    HW218849   2.689   2.488   9.354  0.5269 -2.2939  1.9400
 2464SOL     OW18850   1.266   1.926   6.012  0.0101 -0.0700  0.1818
 2464SOL    HW118851   1.273   1.978   6.092 -0.9534  0.4745 -0.0882
 2464SOL    HW218852   1.353   1.903   5.981  0.8685  0.9761  1.8571
 2465SOL     OW18853   3.920   1.092   4.576  0.1045 -0.5727  0.5929
 2465SOL    HW118854   3.899   1.023   4.513 -0.3435 -0.7595  0.9498
 2465SOL    HW218855   3.837   1.127   4.609  1.1782  1.9627  0.6468
 2466SOL     OW18856   3.705   2.122   7.326  0.1641  0.1547 -0.4487
 2466SOL    HW118857   3.766   2.050   7.345 -0.3550 -0.3375 -0.6615
 2466SOL    HW218858   3.687   2.107   7.234 -2.4101 -2.6476  0.5149
 2467SOL     OW18859   0.679   1.748   4.146 -0.3659 -0.0510 -0.0061
 2467SOL    HW118860   0.759   1.727   4.096 -0.5737 -0.7700 -0.0316
 2467SOL    HW218861   0.711   1.751   4.236 -0.0113  0.3426 -0.1425
 2468SOL     OW18862   0.461   1.246  17.377 -0.2230 -0.4176 -0.1957
 2468SOL    HW118863   0.516   1.172  17.351  1.9129  0.9308  0.4457
 2468SOL    HW218864   0.424   1.205  17.456  1.5555 -0.2038  0.7581
 2469SOL     OW18865   4.595   0.025   2.457 -0.3287  0.0446  0.0476
 2469SOL    HW118866   4.644   4.714   2.533 -0.5521  0.5158  0.3893
 2469SOL    HW218867   4.506   4.715   2.477  0.3732 -1.7474  0.4723
 2470SOL     OW18868   2.534   0.638  12.657 -0.7410  0.0324 -0.1603
 2470SOL    HW118869   2.447   0.667  12.630 -0.8575  0.5917  0.8217
 2470SOL    HW218870   2.575   0.722  12.639  0.2912 -0.3585  0.4078
 2471SOL     OW18871   2.972   3.726   6.338 -0.2503 -0.8883 -0.0808
 2471SOL    HW118872   2.927   3.649   6.305 -0.5109  0.0226 -1.8674
 2471SOL    HW218873   3.044   3.690   6.390 -1.2740 -1.7010  0.7737
 2472SOL     OW18874   0.637   4.546  11.301 -0.2476  0.4896  0.0117
 2472SOL    HW118875   0.627   4.452  11.287 -0.9427  0.6134 -0.3298
 2472SOL    HW218876   0.562   4.571  11.355  0.0648  0.2843  0.5390
 2473SOL     OW18877   1.722   2.061   5.725  0.2206 -0.3442 -0.1180
 2473SOL    HW118878   1.726   1.965   5.726  0.0708 -0.3692 -1.8683
 2473SOL    HW218879   1.657   2.081   5.658  0.5470  5.0065  1.1916
 2474SOL     OW18880   4.390   1.780  10.877 -0.2621  0.0771 -0.6727
 2474SOL    HW118881   4.467   1.806  10.827 -0.4108  0.0426 -0.9173
 2474SOL    HW218882   4.395   1.685  10.882 -1.8599  0.0682  1.1721
 2475SOL     OW18883   2.917   3.178   7.270 -0.0709  0.5074 -0.5003
 2475SOL    HW118884   2.945   3.098   7.314 -3.2283 -0.1821  0.2240
 2475SOL    HW218885   2.896   3.234   7.345 -2.1039 -0.5627 -0.2714
 2476SOL     OW18886   4.032   3.757   0.061 -0.0771  0.2011 -0.6550
 2476SOL    HW118887   4.071   3.843   0.050 -0.4364  0.5763  1.1238
 2476SOL    HW218888   3.978   3.756  17.667 -0.7374  1.2544 -0.2198
 2477SOL     OW18889   2.613   3.210   8.474 -0.0053  0.0743  0.5662
 2477SOL    HW118890   2.653   3.153   8.409 -0.9595 -2.3687  2.1008
 2477SOL    HW218891   2.564   3.141   8.519  1.0586 -0.9991  0.0821
 2478SOL     OW18892   3.977   2.196  16.527 -0.2756  0.4582 -0.7688
 2478SOL    HW118893   3.925   2.276  16.535 -0.3890  0.5830 -2.6713
 2478SOL    HW218894   4.015   2.185  16.614  1.5120 -1.5118 -1.7895
 2479SOL     OW18895   4.512   0.315   1.872 -0.0690  0.4065 -0.4990
 2479SOL    HW118896   4.528   0.389   1.931 -0.1315 -1.2914  1.6535
 2479SOL    HW218897   4.428   0.284   1.906  0.7996 -0.0877  1.2128
 2480SOL     OW18898   1.389   1.067   2.821  0.6174  0.6673 -0.9596
 2480SOL    HW118899   1.461   1.010   2.792  0.6665  0.3076 -0.1337
 2480SOL    HW218900   1.354   1.081   2.733 -1.4253  1.5024 -0.0070
 2481SOL     OW18901   0.107   1.800  17.198  0.2663  0.2518 -0.1586
 2481SOL    HW118902   0.066   1.875  17.242 -0.8058 -0.1152 -0.5240
 2481SOL    HW218903   0.135   1.849  17.121  1.2244  0.3668  0.2542
 2482SOL     OW18904   1.885   1.472   3.384  0.3765 -0.6556 -0.2461
 2482SOL    HW118905   1.812   1.474   3.445  1.1946 -1.2123  0.7357
 2482SOL    HW218906   1.869   1.384   3.348  0.3669 -0.9165  0.4103
 2483SOL     OW18907   4.101   3.493   0.991 -0.6173  0.4092 -0.2740
 2483SOL    HW118908   4.049   3.425   0.948  1.3763 -0.1410 -1.8189
 2483SOL    HW218909   4.055   3.497   1.075  1.1652 -2.6488  0.8808
 2484SOL     OW18910   4.623   3.382   8.173 -0.2691 -0.2819 -0.4925
 2484SOL    HW118911   4.577   3.436   8.237  1.9810  1.5678 -0.4144
 2484SOL    HW218912   4.712   3.384   8.210 -0.4461  0.3965 -0.0863
 2485SOL     OW18913   1.326   1.587   7.816 -0.5807 -0.1312 -0.0918
 2485SOL    HW118914   1.417   1.603   7.842 -1.1699  1.1140  1.1821
 2485SOL    HW218915   1.331   1.493   7.798 -0.3613 -0.2983  0.8869
 2486SOL     OW18916   0.655   2.204  14.545 -0.1733  0.0241 -0.3618
 2486SOL    HW118917   0.694   2.290  14.558  0.4772 -0.5013  1.2946
 2486SOL    HW218918   0.696   2.173  14.465 -0.5360  1.2322 -1.0062
 2487SOL     OW18919   3.497   2.025  14.177  0.4950  0.1889  0.1383
 2487SOL    HW118920   3.497   2.020  14.273 -0.8016  3.2516  0.2921
 2487SOL    HW218921   3.573   1.969  14.162 -0.7182 -1.1093 -1.0934
 2488SOL     OW18922   2.623   1.913   3.129 -0.0389 -0.3210 -0.2811
 2488SOL    HW118923   2.549   1.859   3.159 -1.8675  1.9355 -0.6827
 2488SOL    HW218924   2.673   1.844   3.086 -0.1550 -2.2652  2.6761
 2489SOL     OW18925   0.816   1.264   6.398  0.2709 -0.3957 -0.1831
 2489SOL    HW118926   0.754   1.266   6.325 -0.8886  1.4555  0.8658
 2489SOL    HW218927   0.866   1.342   6.373  0.2944 -0.6021 -0.7841
 2490SOL     OW18928   2.308   2.217  13.790  0.3772 -0.1469 -0.4199
 2490SOL    HW118929   2.372   2.203  13.720  0.9014 -0.8209  0.2013
 2490SOL    HW218930   2.307   2.312  13.798 -1.3860 -0.4354  2.7178
 2491SOL     OW18931   3.323   2.196  14.929  1.1621  0.3610  0.4484
 2491SOL    HW118932   3.312   2.132  15.000 -0.9272  2.4261  1.9554
 2491SOL    HW218933   3.405   2.162  14.893 -0.8445 -1.1527 -2.6648
 2492SOL     OW18934   2.749   3.521   5.949  0.0089  0.6673 -0.5631
 2492SOL    HW118935   2.654   3.509   5.958 -0.1039  1.8331 -0.1105
 2492SOL    HW218936   2.763   3.615   5.960  0.2789  0.6516 -0.7871
 2493SOL     OW18937   1.449   1.660   3.495 -0.1266  0.1808 -1.0024
 2493SOL    HW118938   1.539   1.672   3.527  0.0063 -2.0731 -0.4881
 2493SOL    HW218939   1.469   1.630   3.407  2.8175 -0.0608 -0.2634
 2494SOL     OW18940   4.085   1.403   5.507 -0.5018 -0.1693 -0.1004
 2494SOL    HW118941   4.061   1.340   5.575 -1.5701  0.4796  0.1244
 2494SOL    HW218942   4.165   1.439   5.545 -1.8821  0.0159  2.6370
 2495SOL     OW18943   3.093   2.162  13.064  0.4128 -0.0733  0.1161
 2495SOL    HW118944   3.080   2.254  13.088  0.2716 -0.2401  0.6738
 2495SOL    HW218945   3.083   2.119  13.149  2.9266 -0.3402  0.2692
 2496SOL     OW18946   0.684   2.933   3.681 -0.0668  0.4927 -0.1933
 2496SOL    HW118947   0.605   2.922   3.735 -0.1996 -0.7277 -0.6529
 2496SOL    HW218948   0.713   3.017   3.717  1.1142 -0.0826  0.1998
 2497SOL     OW18949   3.248   0.011   0.824  0.3469 -0.0107 -0.5152
 2497SOL    HW118950   3.304   4.695   0.756  0.4765  0.0692 -0.4508
 2497SOL    HW218951   3.165   4.685   0.827  0.0315  0.7689  2.5545
 2498SOL     OW18952   2.619   4.413   0.407  0.2878 -0.2327  0.0570
 2498SOL    HW118953   2.564   4.483   0.443 -1.0920 -0.9100 -0.7490
 2498SOL    HW218954   2.568   4.404   0.327  0.5910  0.1154 -0.1792
 2499SOL     OW18955   0.278   3.052   6.526  0.5830 -0.8569 -0.0004
 2499SOL    HW118956   0.341   2.994   6.570 -0.5870 -1.1338  1.3130
 2499SOL    HW218957   0.280   3.010   6.441 -0.2240 -0.4797 -0.2029
 2500SOL     OW18958   2.850   3.250  16.292  0.0591  0.4322 -0.1994
 2500SOL    HW118959   2.843   3.183  16.224 -1.8445 -0.7614  1.1650
 2500SOL    HW218960   2.761   3.241  16.328  0.1253 -1.8828 -0.6294
 2501SOL     OW18961   0.607   1.140   3.215  0.1424  0.6135  0.5113
 2501SOL    HW118962   0.658   1.059   3.212 -1.5555 -0.4792  0.9625
 2501SOL    HW218963   0.681   1.199   3.202  0.4124  0.2683  0.4892
 2502SOL     OW18964   0.408   2.096   5.431  0.6861 -0.0292 -0.3532
 2502SOL    HW118965   0.494   2.067   5.402  0.5988 -0.2738 -0.3710
 2502SOL    HW218966   0.434   2.133   5.515  0.6666  0.9467 -0.7687
 2503SOL     OW18967   3.434   2.446   8.289  0.3680  0.6202 -0.0129
 2503SOL    HW118968   3.523   2.448   8.324 -0.3460  0.1849  1.8417
 2503SOL    HW218969   3.404   2.355   8.295 -0.4725  0.9699  1.2073
 2504SOL     OW18970   0.603   2.870  10.285  0.2446  0.7348 -0.5211
 2504SOL    HW118971   0.655   2.870  10.365 -0.7506  0.9269  0.1287
 2504SOL    HW218972   0.553   2.791  10.306 -0.4185  1.3006  0.0444
 2505SOL     OW18973   3.738   4.206   5.068  0.2007 -0.5993 -0.2722
 2505SOL    HW118974   3.736   4.301   5.064  0.3049 -0.4931  2.1082
 2505SOL    HW218975   3.706   4.193   5.158  1.3610 -0.7523  0.1228
 2506SOL     OW18976   0.414   1.532   4.728 -0.8204  0.2160 -0.1207
 2506SOL    HW118977   0.440   1.470   4.795 -0.0033  2.3046  1.5043
 2506SOL    HW218978   0.338   1.562   4.777 -0.9491  1.1966 -0.9178
 2507SOL     OW18979   3.308   0.884   9.213  0.0691 -0.5983  0.7528
 2507SOL    HW118980   3.390   0.853   9.174 -1.5469 -1.2002 -2.2538
 2507SOL    HW218981   3.335   0.968   9.249  1.3228  0.0614 -1.6947
 2508SOL     OW18982   0.843   3.747  16.931 -0.4258 -0.0490 -0.2989
 2508SOL    HW118983   0.922   3.797  16.952 -2.0716  1.0009  3.2446
 2508SOL    HW218984   0.872   3.656  16.920 -2.1510 -0.8081  1.4421
 2509SOL     OW18985   1.296   4.218   6.131 -0.2120 -0.0927 -0.0997
 2509SOL    HW118986   1.227   4.249   6.072  0.1724  0.7362 -0.1221
 2509SOL    HW218987   1.345   4.300   6.118 -1.9294  0.6507 -1.9835
 2510SOL     OW18988   1.873   4.655   4.428  0.6120  0.2351  0.5328
 2510SOL    HW118989   1.876   4.587   4.495  0.4076 -0.0573  0.2446
 2510SOL    HW218990   1.884   4.602   4.349 -3.9133  0.2542 -0.0603
 2511SOL     OW18991   0.759   2.754   2.788  0.0134  0.0351 -0.5103
 2511SOL    HW118992   0.723   2.824   2.842 -2.1044 -0.1642 -1.6481
 2511SOL    HW218993   0.677   2.706   2.780 -0.8666  1.7841 -2.1669
 2512SOL     OW18994   0.511   3.607   2.390  0.2209  0.3162 -0.6465
 2512SOL    HW118995   0.434   3.658   2.363 -1.8327 -1.9369  0.9882
 2512SOL    HW218996   0.577   3.674   2.405 -1.0954  0.9134  2.4282
 2513SOL     OW18997   2.745   3.199  15.988  0.1442  0.0361 -0.4777
 2513SOL    HW118998   2.658   3.192  15.950 -0.1000  2.0226 -0.2945
 2513SOL    HW218999   2.789   3.250  15.920  1.3315 -0.7166 -0.2632
 2514SOL     OW19000   0.893   3.818   3.436 -0.4210 -0.2732 -0.5237
 2514SOL    HW119001   0.819   3.763   3.461 -0.3044  0.1345  0.7076
 2514SOL    HW219002   0.938   3.751   3.384  1.7794 -0.2326  1.3358
 2515SOL     OW19003   4.702   1.824   3.954 -0.1884  0.1967 -1.0458
 2515SOL    HW119004   4.632   1.763   3.976 -0.9040  1.7960  1.1155
 2515SOL    HW219005   0.033   1.769   3.896 -1.4553 -1.6414 -0.4199
 2516SOL     OW19006   1.215   4.145   0.760  0.0351  0.1933  0.6076
 2516SOL    HW119007   1.277   4.133   0.688 -0.2568  0.4904  0.3059
 2516SOL    HW219008   1.276   4.180   0.825  0.9491 -1.1913  0.4963
 2517SOL     OW19009   1.823   2.514  15.454  0.3469 -0.3037 -0.3292
 2517SOL    HW119010   1.875   2.495  15.532 -1.1678 -0.7002  0.5816
 2517SOL    HW219011   1.903   2.521  15.402  0.8284 -1.1027  0.2830
 2518SOL     OW19012   4.077   4.113   2.887 -0.5382  0.4507 -0.0658
 2518SOL    HW119013   4.038   4.025   2.889 -0.1972  0.3244  1.2634
 2518SOL    HW219014   4.111   4.120   2.976 -1.6609  0.2477  0.3787
 2519SOL     OW19015   3.961   3.605   4.599  0.3751 -0.1045  0.0346
 2519SOL    HW119016   3.926   3.692   4.581 -0.0956 -0.2892  0.0509
 2519SOL    HW219017   3.932   3.601   4.690 -0.6218 -1.7061 -0.3434
 2520SOL     OW19018   3.101   2.650  17.058  0.5481  0.0896 -0.5153
 2520SOL    HW119019   3.009   2.633  17.038  1.0197 -1.4638 -1.4234
 2520SOL    HW219020   3.103   2.646  17.153  0.9163  0.3952 -0.5090
 2521SOL     OW19021   0.052   0.652   7.617  0.4235  1.0967  0.0583
 2521SOL    HW119022   0.072   0.617   7.530  1.0246 -1.4362  1.2020
 2521SOL    HW219023   0.090   0.739   7.612  0.9385  0.7670 -1.5895
 2522SOL     OW19024   3.647   1.875  12.612 -0.5631 -0.5465  0.5794
 2522SOL    HW119025   3.587   1.801  12.615 -2.1445  0.7990  1.4239
 2522SOL    HW219026   3.609   1.948  12.564  0.4211  1.2360  2.5261
 2523SOL     OW19027   0.080   1.470   2.778 -0.1632 -0.3482 -0.7237
 2523SOL    HW119028   0.016   1.403   2.803 -0.1287  0.0435  0.4139
 2523SOL    HW219029   0.046   1.505   2.696 -1.1320 -1.2287 -0.6959
 2524SOL     OW19030   3.602   1.519  15.309 -0.0747  0.2325  0.1353
 2524SOL    HW119031   3.606   1.466  15.230  0.8847  1.0409 -0.3596
 2524SOL    HW219032   3.508   1.535  15.309  0.4078  3.2011  2.6964
 2525SOL     OW19033   0.950   1.889   5.404  0.0221  0.2525 -0.0612
 2525SOL    HW119034   0.932   1.868   5.313  0.4538  1.1511 -0.3497
 2525SOL    HW219035   0.873   1.936   5.436 -1.0739  0.4455 -3.0250
 2526SOL     OW19036   2.497   2.869   4.308 -0.1403 -0.0304  0.1601
 2526SOL    HW119037   2.572   2.926   4.290 -2.6635  3.1941 -0.2492
 2526SOL    HW219038   2.459   2.836   4.226 -1.2602 -2.2356  1.5609
 2527SOL     OW19039   0.500   0.219   0.929 -0.3122 -0.0784 -0.0223
 2527SOL    HW119040   0.477   0.274   0.854  0.3192  1.7206  1.1094
 2527SOL    HW219041   0.472   0.281   0.996  0.2234  0.7898 -0.6048
 2528SOL     OW19042   2.773   2.495  16.568 -0.3022 -0.2579  0.5569
 2528SOL    HW119043   2.699   2.537  16.612  0.8048  2.6970 -0.4310
 2528SOL    HW219044   2.813   2.573  16.531  0.7941 -1.1033 -0.0498
 2529SOL     OW19045   4.051   2.509  17.019 -0.0580 -0.6280 -0.0066
 2529SOL    HW119046   4.009   2.492  16.934 -2.4335  0.6845  0.9128
 2529SOL    HW219047   4.139   2.535  16.990 -0.4032  1.3342  0.6972
 2530SOL     OW19048   4.374   2.906  17.008 -0.0331  0.8957  0.1097
 2530SOL    HW119049   4.293   2.927  17.055  0.4365 -1.1146  1.8682
 2530SOL    HW219050   4.356   2.945  16.923 -1.4582 -0.7933 -0.3738
 2531SOL     OW19051   3.063   2.573   9.718  0.2597  0.9037 -0.3769
 2531SOL    HW119052   3.043   2.530   9.636  4.8098 -1.1072 -0.4637
 2531SOL    HW219053   2.998   2.643   9.722 -1.1567 -0.4772  0.5464
 2532SOL     OW19054   2.613   0.902  12.344  0.0345  0.1759  0.0192
 2532SOL    HW119055   2.679   0.942  12.400 -0.7047  2.3603 -0.6646
 2532SOL    HW219056   2.532   0.908  12.394 -1.1893  2.6714 -2.2583
 2533SOL     OW19057   0.585   1.876   7.084 -0.4079  0.4490 -0.3581
 2533SOL    HW119058   0.667   1.885   7.133 -0.8106 -0.1508  0.4382
 2533SOL    HW219059   0.606   1.898   6.994  2.9914  2.0834  0.8411
 2534SOL     OW19060   1.807   2.916  15.673 -0.3099  0.4489  0.3455
 2534SOL    HW119061   1.867   2.843  15.661  1.7863  1.9386  1.8398
 2534SOL    HW219062   1.804   2.936  15.767  2.8422 -1.3887  0.8244
 2535SOL     OW19063   3.296   1.649   3.414  0.5576  0.8978  0.0730
 2535SOL    HW119064   3.309   1.600   3.495 -0.9789 -0.4466 -0.4925
 2535SOL    HW219065   3.319   1.738   3.439  0.9561  1.3904 -2.0784
 2536SOL     OW19066   1.251   1.187   2.595 -0.3328 -0.5057  0.0283
 2536SOL    HW119067   1.250   1.109   2.540  0.6956 -0.6216  0.1757
 2536SOL    HW219068   1.320   1.240   2.553 -0.6031 -1.2755 -1.4012
 2537SOL     OW19069   0.107   0.984   2.295  0.1108  0.2195  0.1135
 2537SOL    HW119070   0.114   0.973   2.390  0.0736 -1.2158 -0.0462
 2537SOL    HW219071   0.132   0.898   2.260  0.8886  0.2521  0.5695
 2538SOL     OW19072   2.499   3.213  12.538 -0.5100 -0.5344  0.1003
 2538SOL    HW119073   2.501   3.307  12.555  2.5179 -0.2707 -1.8247
 2538SOL    HW219074   2.520   3.179  12.625  2.8348  1.2257 -0.0327
 2539SOL     OW19075   2.985   0.716   6.753 -0.2953 -0.2018  0.2044
 2539SOL    HW119076   2.987   0.790   6.814 -1.1399 -0.9911  1.1839
 2539SOL    HW219077   2.903   0.669   6.765  0.2010 -1.2154 -0.4133
 2540SOL     OW19078   1.487   1.300   5.340  0.7230  0.6233  0.4937
 2540SOL    HW119079   1.445   1.360   5.279 -0.9839 -0.5820  0.4743
 2540SOL    HW219080   1.552   1.249   5.291 -0.3767 -0.4111  0.0874
 2541SOL     OW19081   3.309   1.200   7.838  0.4610  0.4003  0.1332
 2541SOL    HW119082   3.324   1.112   7.803  1.1272 -0.6982  3.1902
 2541SOL    HW219083   3.380   1.250   7.797 -1.1570  2.1896 -0.4936
 2542SOL     OW19084   3.071   0.659   3.773 -0.7020 -0.1463  0.5804
 2542SOL    HW119085   3.115   0.742   3.752  1.1528 -1.3189 -0.1818
 2542SOL    HW219086   3.125   0.625   3.845 -1.2375 -0.9442  0.6076
 2543SOL     OW19087   2.840   3.372   7.479 -0.1621 -0.0182 -0.8569
 2543SOL    HW119088   2.745   3.381   7.472 -0.3497 -1.1108  0.2790
 2543SOL    HW219089   2.865   3.464   7.475 -0.9081  0.3406  2.5678
 2544SOL     OW19090   0.949   4.017  10.009  0.3075 -0.4243  0.0214
 2544SOL    HW119091   0.864   3.994   9.971  0.0418  0.7706 -0.0942
 2544SOL    HW219092   0.982   3.933  10.041  0.8497  0.3387  1.4527
 2545SOL     OW19093   2.258   3.712   6.097  0.1264  0.7032  0.0524
 2545SOL    HW119094   2.214   3.792   6.123  0.2936  0.3811  1.3481
 2545SOL    HW219095   2.263   3.724   6.003  1.2036  4.6559  0.6305
 2546SOL     OW19096   2.344   4.454   8.393 -0.0433 -0.8186 -0.2805
 2546SOL    HW119097   2.260   4.499   8.389  0.5192  0.5789  3.6047
 2546SOL    HW219098   2.312   4.366   8.374 -1.9384 -0.0814 -0.4729
 2547SOL     OW19099   2.741   2.102   7.096  0.3592  0.0161  0.1064
 2547SOL    HW119100   2.760   2.145   7.013  1.5168  1.2427  0.9962
 2547SOL    HW219101   2.696   2.175   7.138 -0.7723 -0.9409  0.5542
 2548SOL     OW19102   1.100   4.625  14.877 -0.5168 -0.4606 -0.8585
 2548SOL    HW119103   1.065   4.629  14.788  1.4710  0.3841 -1.5916
 2548SOL    HW219104   1.024   4.581  14.916 -0.6015  0.9753  0.6079
 2549SOL     OW19105   1.317   2.099   7.057  0.3501 -0.0902 -0.0194
 2549SOL    HW119106   1.230   2.091   7.018  0.1320 -0.1630  0.4795
 2549SOL    HW219107   1.310   2.025   7.117  1.3048 -0.4049 -0.3035
 2550SOL     OW19108   4.456   3.825   5.114  0.4611  0.2603 -1.3693
 2550SOL    HW119109   4.530   3.884   5.097  0.2171  0.4852 -1.6425
 2550SOL    HW219110   4.441   3.772   5.035  3.6004 -0.7332 -1.3009
 2551SOL     OW19111   2.208   1.572   5.739  0.0243 -0.2623 -0.1253
 2551SOL    HW119112   2.131   1.574   5.796 -1.1701 -0.5286 -1.7380
 2551SOL    HW219113   2.274   1.546   5.803 -0.6539 -2.2258 -0.2450
 2552SOL     OW19114   2.085   3.482  12.134  0.0431 -0.5299 -0.3177
 2552SOL    HW119115   2.138   3.562  12.139 -1.5594  0.5994 -1.3707
 2552SOL    HW219116   2.002   3.517  12.102  0.4580 -0.8024 -1.7049
 2553SOL     OW19117   3.643   4.478  16.748 -0.3545  0.0874  0.3785
 2553SOL    HW119118   3.555   4.438  16.749  0.0565 -0.7471  3.2063
 2553SOL    HW219119   3.626   4.555  16.695 -2.2080 -1.0073 -0.6438
 2554SOL     OW19120   4.445   0.753   4.113  0.2895 -0.2421 -0.3512
 2554SOL    HW119121   4.474   0.843   4.127 -0.9464 -0.1176  1.4278
 2554SOL    HW219122   4.375   0.757   4.178  0.2238  2.5591 -0.6198
 2555SOL     OW19123   3.090   1.400  15.352  0.0595  0.0927 -0.4891
 2555SOL    HW119124   3.006   1.438  15.376  1.0859  2.8464 -1.2182
 2555SOL    HW219125   3.095   1.326  15.413 -0.6854 -0.5044 -1.1571
 2556SOL     OW19126   1.901   3.876   8.428  0.6490  0.8122 -0.4548
 2556SOL    HW119127   1.845   3.938   8.475 -1.3778 -1.0324 -0.4584
 2556SOL    HW219128   1.834   3.841   8.369  0.3988  0.4936  0.0212
 2557SOL     OW19129   1.827   1.578   8.939  0.9364  0.6969  0.2335
 2557SOL    HW119130   1.764   1.589   9.010 -0.6212 -2.2260 -0.6788
 2557SOL    HW219131   1.904   1.620   8.977  1.2538  0.3676 -0.0477
 2558SOL     OW19132   1.520   4.310  16.794  0.0011 -0.2200 -0.1734
 2558SOL    HW119133   1.591   4.372  16.811 -1.0129  1.1101 -0.8191
 2558SOL    HW219134   1.499   4.275  16.881 -1.8894  0.2172 -0.4712
 2559SOL     OW19135   1.214   1.964   1.477  0.0769 -0.2405  0.0199
 2559SOL    HW119136   1.290   1.994   1.526  0.2209 -0.2696 -0.1869
 2559SOL    HW219137   1.144   1.992   1.536 -0.4355 -2.1492  0.3149
 2560SOL     OW19138   0.160   1.543   6.372  0.1868  0.0605 -0.6943
 2560SOL    HW119139   0.220   1.471   6.352 -0.7382 -0.3758 -1.8740
 2560SOL    HW219140   0.186   1.604   6.303 -3.1112  1.4326 -0.7267
 2561SOL     OW19141   2.515   4.254   7.491  0.1119 -0.1486 -0.6576
 2561SOL    HW119142   2.514   4.214   7.404 -0.4251  3.0793 -2.1301
 2561SOL    HW219143   2.422   4.252   7.517  0.5706 -0.4640  0.9666
 2562SOL     OW19144   4.501   1.388   4.817  0.7335  0.6064 -0.2769
 2562SOL    HW119145   4.500   1.475   4.776  0.9822  0.5060 -0.4970
 2562SOL    HW219146   4.578   1.401   4.871  0.2331  0.0628  0.5663
 2563SOL     OW19147   3.658   0.439   2.724  0.1464  0.0135 -0.7134
 2563SOL    HW119148   3.644   0.519   2.673  1.0045  0.1619 -0.7197
 2563SOL    HW219149   3.676   0.462   2.815 -0.8531  1.0742 -0.7844
 2564SOL     OW19150   0.476   2.001   3.639 -0.3261 -0.0200  0.0487
 2564SOL    HW119151   0.537   2.020   3.567 -0.4500  2.0270  0.4870
 2564SOL    HW219152   0.492   2.074   3.699  1.3102  2.3988 -3.2885
 2565SOL     OW19153   4.252   2.823  16.581  0.4130  0.5605  0.1939
 2565SOL    HW119154   4.195   2.761  16.537  0.8844 -0.3787  0.9197
 2565SOL    HW219155   4.338   2.781  16.576 -0.1541 -0.5188 -0.2436
 2566SOL     OW19156   3.751   1.986  15.236 -0.1687  0.2436  0.0681
 2566SOL    HW119157   3.754   1.891  15.248  0.8484  0.3624  0.7702
 2566SOL    HW219158   3.790   2.015  15.318 -1.1755  0.4658  0.4680
 2567SOL     OW19159   3.113   0.620  14.598 -0.3445 -0.3398  0.3346
 2567SOL    HW119160   3.073   0.625  14.684 -0.6085  0.0765  0.1894
 2567SOL    HW219161   3.094   0.526  14.587  1.9812 -0.8208  0.4333
 2568SOL     OW19162   1.378   1.834   4.915  0.0328 -0.7401  0.1115
 2568SOL    HW119163   1.409   1.806   5.000  1.2672  2.6176  0.7796
 2568SOL    HW219164   1.285   1.815   4.906  0.3339 -2.3641  0.5477
 2569SOL     OW19165   0.560   0.774   7.350 -0.5388  0.4045  0.3038
 2569SOL    HW119166   0.633   0.827   7.382 -0.4189 -0.5478  1.6398
 2569SOL    HW219167   0.581   0.683   7.371  1.3961  0.4389 -1.4719
 2570SOL     OW19168   1.209   0.424   5.621 -0.3095  0.3257 -0.3583
 2570SOL    HW119169   1.156   0.371   5.560 -0.3465 -0.9704  0.8022
 2570SOL    HW219170   1.263   0.367   5.676 -0.3398  1.1160  0.4874
 2571SOL     OW19171   1.513   4.118   1.990 -0.1978 -0.0618 -0.1503
 2571SOL    HW119172   1.544   4.052   2.052 -0.3353 -1.0804 -1.1565
 2571SOL    HW219173   1.508   4.193   2.050 -1.3145 -0.3621  0.1347
 2572SOL     OW19174   1.119   2.407  15.837 -0.2803 -0.0502  0.0775
 2572SOL    HW119175   1.109   2.317  15.870  0.7499 -0.6319 -1.2336
 2572SOL    HW219176   1.198   2.400  15.783  0.1111  0.9066  0.5230
 2573SOL     OW19177   0.741   3.383  15.414 -0.3143 -0.2126  0.1041
 2573SOL    HW119178   0.825   3.401  15.457 -1.6217  1.2711  2.0268
 2573SOL    HW219179   0.764   3.419  15.329 -0.5216 -0.4043 -0.0298
 2574SOL     OW19180   2.751   3.867   2.201 -0.2838  0.5186 -0.0850
 2574SOL    HW119181   2.666   3.871   2.245  0.2708  0.5973  0.9761
 2574SOL    HW219182   2.766   3.962   2.202 -1.4524  0.7215 -2.1813
 2575SOL     OW19183   3.692   1.501   0.077 -0.2699 -0.1461 -0.2149
 2575SOL    HW119184   3.642   1.471   0.153  0.5689 -1.6246 -0.2553
 2575SOL    HW219185   3.669   1.429   0.019  0.8066 -0.2851 -0.4620
 2576SOL     OW19186   0.206   2.130   7.628 -0.2160  0.0627 -0.2534
 2576SOL    HW119187   0.218   2.169   7.714 -0.3572  0.8197 -0.5804
 2576SOL    HW219188   0.125   2.166   7.593  0.2972 -0.1839 -1.7402
 2577SOL     OW19189   0.973   1.671  13.342 -0.9875  0.1916  0.3525
 2577SOL    HW119190   0.982   1.708  13.429  1.0871 -0.2938  0.3491
 2577SOL    HW219191   0.969   1.750  13.289  0.3320 -0.2646 -0.4132
 2578SOL     OW19192   3.751   2.152   7.736  0.0857 -0.0915  0.4315
 2578SOL    HW119193   3.746   2.246   7.749  3.9451  0.3855 -1.6667
 2578SOL    HW219194   3.662   2.130   7.765  0.7145 -1.0978  1.5989
 2579SOL     OW19195   0.625   1.482   1.822  0.6529  0.2506  0.3931
 2579SOL    HW119196   0.697   1.427   1.853 -0.8009 -1.6971  0.2440
 2579SOL    HW219197   0.668   1.564   1.797  0.9796  0.2363  0.8986
 2580SOL     OW19198   3.781   2.195  13.669  0.1274  0.3632 -0.2211
 2580SOL    HW119199   3.812   2.236  13.750  0.0683  1.8747 -0.9675
 2580SOL    HW219200   3.687   2.200  13.686  0.1174  1.2566 -0.5321
 2581SOL     OW19201   0.707   2.431  17.624 -0.1873 -0.9554 -0.2777
 2581SOL    HW119202   0.693   2.372   0.013  1.1919 -1.2097 -0.2207
 2581SOL    HW219203   0.793   2.397  17.601  1.4022  2.1646  1.0219
 2582SOL     OW19204   4.538   2.447   6.902  0.0664  0.1359 -0.0277
 2582SOL    HW119205   4.565   2.364   6.942  3.5672  0.9782 -0.6495
 2582SOL    HW219206   4.444   2.451   6.922  0.3511 -0.9691  1.6298
 2583SOL     OW19207   4.092   4.099   3.183  0.5946  0.0206 -0.0441
 2583SOL    HW119208   4.057   4.035   3.244 -0.8850 -0.5218 -1.4454
 2583SOL    HW219209   4.140   4.152   3.246 -0.8754  3.4877 -1.8415
 2584SOL     OW19210   1.762   2.855   2.456  0.8427  0.4050 -0.4605
 2584SOL    HW119211   1.744   2.850   2.362  0.0418 -1.0514 -0.2254
 2584SOL    HW219212   1.855   2.834   2.446  0.7714  0.1273 -0.5250
 2585SOL     OW19213   4.265   1.656  16.470  0.7184 -1.2024  0.1029
 2585SOL    HW119214   4.219   1.692  16.546 -1.2687 -0.5809 -1.3833
 2585SOL    HW219215   4.298   1.741  16.439 -1.1402 -0.3133  0.5768
 2586SOL     OW19216   0.180   2.533   2.096  0.0597 -0.4885  0.3488
 2586SOL    HW119217   0.098   2.533   2.045  0.3439 -1.8127 -0.1169
 2586SOL    HW219218   0.205   2.443   2.077 -0.2335 -0.2180 -1.3127
 2587SOL     OW19219   1.295   4.344   3.104  0.0575  0.2330  0.2656
 2587SOL    HW119220   1.266   4.253   3.116 -0.8826  0.5338  0.2612
 2587SOL    HW219221   1.227   4.391   3.151  0.9575  0.7586  1.0446
 2588SOL     OW19222   4.052   3.769   8.335  0.0890 -0.0993  0.0046
 2588SOL    HW119223   4.129   3.793   8.283  0.7160 -0.2739  0.8412
 2588SOL    HW219224   3.999   3.847   8.324  0.6615  0.6252  2.2013
 2589SOL     OW19225   0.427   0.782   7.967  0.2933  0.2998  0.0460
 2589SOL    HW119226   0.424   0.691   7.996 -0.0761 -0.1122 -1.2885
 2589SOL    HW219227   0.343   0.807   8.006  0.5587 -0.2816  1.0115
 2590SOL     OW19228   2.680   3.987  11.736  0.7206 -0.0679 -0.3466
 2590SOL    HW119229   2.651   3.985  11.827  0.1144 -1.2434 -0.5768
 2590SOL    HW219230   2.757   4.044  11.744  0.7895 -0.1248 -0.5926
 2591SOL     OW19231   4.028   0.597   2.843  0.6682  0.1856  0.3246
 2591SOL    HW119232   4.079   0.669   2.806 -1.6533  2.6476  1.8835
 2591SOL    HW219233   4.007   0.558   2.758  0.7158 -0.2335  0.5036
 2592SOL     OW19234   0.404   2.932   8.584 -0.2427 -0.2361 -0.5369
 2592SOL    HW119235   0.457   2.873   8.638 -0.6789 -1.3390 -1.3154
 2592SOL    HW219236   0.328   2.945   8.641  0.3031 -1.9058  0.5820
 2593SOL     OW19237   4.032   0.115   2.151 -0.3378 -0.1710  0.2274
 2593SOL    HW119238   4.082   0.072   2.221  0.2832 -3.0589 -2.0176
 2593SOL    HW219239   4.024   0.202   2.191 -1.2820 -0.4995  0.7590
 2594SOL     OW19240   1.759   3.447   2.528 -0.2200  0.2175  0.0831
 2594SOL    HW119241   1.732   3.385   2.595 -1.7062  0.2718 -0.4473
 2594SOL    HW219242   1.787   3.511   2.593  0.8419 -1.7467  1.5400
 2595SOL     OW19243   1.158   3.915  12.510 -0.3921  0.2634 -0.2350
 2595SOL    HW119244   1.215   3.914  12.587  0.8158 -1.0714 -1.1515
 2595SOL    HW219245   1.204   3.975  12.452  0.1731 -0.3325 -0.4008
 2596SOL     OW19246   0.196   3.228  13.619 -0.4978  0.2227  0.1444
 2596SOL    HW119247   0.165   3.316  13.636 -0.9151 -0.4430  2.8405
 2596SOL    HW219248   0.217   3.198  13.707  2.1039  1.3815 -0.0968
 2597SOL     OW19249   1.971   4.603   7.802  0.6296  0.2570 -0.8527
 2597SOL    HW119250   2.045   4.545   7.787  1.6064  1.1020  0.6202
 2597SOL    HW219251   1.901   4.538   7.806 -1.7075  2.6577 -2.8949
 2598SOL     OW19252   4.222   3.742  12.437 -0.6507 -0.7131 -0.3041
 2598SOL    HW119253   4.215   3.673  12.371  3.0070 -2.7218  1.3919
 2598SOL    HW219254   4.261   3.693  12.509 -0.6774 -0.4664 -0.1207
 2599SOL     OW19255   3.437   2.453   0.856 -0.5082  1.0689 -0.1481
 2599SOL    HW119256   3.444   2.485   0.947 -1.5543 -1.3171  0.7652
 2599SOL    HW219257   3.366   2.510   0.826 -1.2449 -0.7399 -1.7862
 2600SOL     OW19258   3.623   0.194   5.385 -0.0642 -0.4244  0.2685
 2600SOL    HW119259   3.634   0.222   5.294  0.3937  0.1431  0.4953
 2600SOL    HW219260   3.663   0.270   5.428 -1.6672 -0.1088  1.1895
 2601SOL     OW19261   1.536   2.542  17.174  0.2090  0.4476 -0.0035
 2601SOL    HW119262   1.500   2.615  17.123  1.6171  0.3549 -1.1480
 2601SOL    HW219263   1.571   2.487  17.104  1.0139  0.2088  0.5915
 2602SOL     OW19264   1.820   3.442   8.458 -0.0423 -0.1722  0.6132
 2602SOL    HW119265   1.892   3.397   8.413  0.3911  0.5148  0.6244
 2602SOL    HW219266   1.753   3.378   8.434 -1.0376 -0.0700  3.0385
 2603SOL     OW19267   3.840   2.434  16.540  0.0612 -0.2295 -1.0971
 2603SOL    HW119268   3.751   2.406  16.517  0.4466 -0.1951 -2.6447
 2603SOL    HW219269   3.865   2.457  16.451 -1.4621  2.1047 -0.9084
 2604SOL     OW19270   0.306   4.685   7.356 -0.3043  0.3034  0.5454
 2604SOL    HW119271   0.246   4.641   7.296 -1.8695  2.2134  0.6904
 2604SOL    HW219272   0.371   0.001   7.295 -0.3328 -2.9152 -1.4443
 2605SOL     OW19273   4.668   4.474   0.242 -0.2578  0.5378 -0.0105
 2605SOL    HW119274   4.602   4.520   0.191  0.7024 -0.5645 -2.2379
 2605SOL    HW219275   0.026   4.489   0.189 -1.2344  2.0417 -1.0252
 2606SOL     OW19276   0.427   1.120  14.576 -0.0920 -0.3013 -0.2316
 2606SOL    HW119277   0.456   1.208  14.554 -1.9496  0.5093  0.6056
 2606SOL    HW219278   0.357   1.111  14.511 -1.1736  0.1991  0.8723
 2607SOL     OW19279   4.608   3.016   6.708 -0.2716  0.1876  0.6424
 2607SOL    HW119280   4.517   3.000   6.681  0.5106 -3.2080  0.0347
 2607SOL    HW219281   4.622   3.104   6.673  0.3422 -0.4648 -0.7557
 2608SOL     OW19282   2.142   4.562   3.117  0.1821  0.2465  0.1244
 2608SOL    HW119283   2.127   4.653   3.142 -1.9168  0.4212 -1.8089
 2608SOL    HW219284   2.236   4.561   3.135  0.1971 -1.0863 -0.0289
 2609SOL     OW19285   3.227   4.489  13.947 -0.9544  0.9698  0.4021
 2609SOL    HW119286   3.170   4.466  13.874  0.1337  0.3454 -0.2598
 2609SOL    HW219287   3.219   4.584  13.954 -2.2896  0.8763  0.1041
 2610SOL     OW19288   2.767   0.397   5.190 -0.2640  0.1858  0.6011
 2610SOL    HW119289   2.824   0.321   5.206  0.6363  0.7342 -0.0196
 2610SOL    HW219290   2.811   0.477   5.217 -1.3809  1.0949 -0.3116
 2611SOL     OW19291   2.813   1.528   9.796  0.5163 -0.5056 -0.2887
 2611SOL    HW119292   2.849   1.443   9.770  2.4758 -0.1625  1.3304
 2611SOL    HW219293   2.876   1.553   9.863  1.2429 -0.2059 -1.0850
 2612SOL     OW19294   1.604   0.364   4.417 -0.0711  0.5655  0.1784
 2612SOL    HW119295   1.581   0.271   4.405  0.1569  0.3456  1.4345
 2612SOL    HW219296   1.550   0.402   4.348  2.5322  0.1214 -2.1119
 2613SOL     OW19297   1.718   3.435   6.322  0.0786 -0.5329 -0.1443
 2613SOL    HW119298   1.695   3.431   6.229 -0.7337  1.8280 -0.0350
 2613SOL    HW219299   1.755   3.347   6.330  1.0600  0.0069  1.2864
 2614SOL     OW19300   1.663   0.967   9.723  0.3421 -0.3303  0.5305
 2614SOL    HW119301   1.583   0.990   9.675  0.7357  0.0843  0.0728
 2614SOL    HW219302   1.651   0.875   9.746  1.7093  0.2361  3.3721
 2615SOL     OW19303   4.016   1.638   8.136  0.0485  0.4546  0.2031
 2615SOL    HW119304   4.017   1.661   8.229  2.8545  0.5185  0.1650
 2615SOL    HW219305   3.948   1.695   8.102 -0.9569 -0.2615  1.0149
 2616SOL     OW19306   3.502   1.988   9.091 -0.2734 -0.0542  0.1159
 2616SOL    HW119307   3.571   2.050   9.067 -1.1216  1.9702  2.8706
 2616SOL    HW219308   3.549   1.940   9.159  1.6229  1.4998 -0.1126
 2617SOL     OW19309   3.884   4.008   8.332  0.1477 -0.1443 -0.0598
 2617SOL    HW119310   3.802   3.967   8.362  0.4051 -0.0980  0.6943
 2617SOL    HW219311   3.891   4.077   8.397  0.4619 -0.3000  0.0690
 2618SOL     OW19312   0.634   0.192   2.276 -0.0599  0.4863 -0.1389
 2618SOL    HW119313   0.624   0.158   2.187 -2.3772  1.7892 -0.4010
 2618SOL    HW219314   0.545   0.225   2.292 -0.5896 -0.5899 -0.8846
 2619SOL     OW19315   3.457   3.541   3.353 -0.1259  0.0276  0.4437
 2619SOL    HW119316   3.488   3.583   3.433 -2.7503  0.9534  0.9851
 2619SOL    HW219317   3.507   3.459   3.359 -0.3677 -0.0867  0.8441
 2620SOL     OW19318   2.808   0.599   3.383  0.3342 -0.0103 -0.0882
 2620SOL    HW119319   2.830   0.563   3.469  0.3575  2.0969  0.7943
 2620SOL    HW219320   2.892   0.638   3.358 -0.5289  0.9952 -1.4195
 2621SOL     OW19321   4.117   4.228   5.602 -0.2654 -0.1299 -0.6798
 2621SOL    HW119322   4.066   4.162   5.556  2.3523 -2.4999 -0.1269
 2621SOL    HW219323   4.095   4.302   5.545 -1.1349  0.4511  0.4263
 2622SOL     OW19324   3.535   0.102   3.285  0.5879  0.6540  0.2869
 2622SOL    HW119325   3.553   0.011   3.262 -0.7668  0.1964  1.0323
 2622SOL    HW219326   3.461   0.109   3.225  0.4191 -0.2244  0.3855
 2623SOL     OW19327   1.992   1.484   0.830  0.0275  0.2992 -0.9209
 2623SOL    HW119328   1.907   1.468   0.872 -1.0797  0.1992 -3.2094
 2623SOL    HW219329   2.010   1.410   0.773  0.2871 -0.3660  0.0249
 2624SOL     OW19330   0.068   3.596   7.257  0.1480 -0.1528  0.4582
 2624SOL    HW119331   0.126   3.663   7.220  1.3523 -0.8095  1.1660
 2624SOL    HW219332   0.012   3.654   7.308  0.0288  0.7237 -0.6635
 2625SOL     OW19333   4.269   3.173   2.793  0.0777  0.4351 -0.0900
 2625SOL    HW119334   4.313   3.258   2.792  0.1737  0.3813 -0.8324
 2625SOL    HW219335   4.196   3.202   2.848 -0.2407  1.7704 -1.1775
 2626SOL     OW19336   0.695   2.050  16.333  0.4802  0.0544  0.5611
 2626SOL    HW119337   0.692   2.031  16.427 -3.2654  1.5171  0.7394
 2626SOL    HW219338   0.601   2.058  16.316  0.9407  1.7523 -1.1271
 2627SOL     OW19339   3.053   1.929  14.441 -0.2922 -0.3690  0.0140
 2627SOL    HW119340   2.968   1.888  14.458 -0.3075  0.7787  2.7706
 2627SOL    HW219341   3.051   1.960  14.350  0.2099  0.2137  0.2029
 2628SOL     OW19342   2.552   3.082  12.772  0.7192  0.1688  0.0302
 2628SOL    HW119343   2.486   3.027  12.815  0.1547  0.8781  0.0544
 2628SOL    HW219344   2.619   3.079  12.841  1.2079  0.3468 -0.4312
 2629SOL     OW19345   2.948   0.649   6.241 -0.9003  0.1796 -0.4530
 2629SOL    HW119346   2.889   0.720   6.268 -1.2564 -1.2520  2.5837
 2629SOL    HW219347   2.878   0.583   6.245 -0.9242  0.2136 -0.2749
 2630SOL     OW19348   0.749   4.458  14.173 -0.1725 -0.0144  0.1543
 2630SOL    HW119349   0.726   4.375  14.215 -0.3000 -0.1258 -0.1348
 2630SOL    HW219350   0.674   4.513  14.197  0.3445 -0.2388  2.2805
 2631SOL     OW19351   3.082   1.870  15.204 -0.2374  0.4532 -0.2169
 2631SOL    HW119352   3.156   1.907  15.156 -0.2906  0.6234 -0.1688
 2631SOL    HW219353   3.118   1.870  15.293  0.5737  0.8262 -0.5414
 2632SOL     OW19354   3.776   0.029  10.691 -0.5835 -0.5812 -0.6328
 2632SOL    HW119355   3.809   0.080  10.618 -2.3973 -0.6067 -1.4753
 2632SOL    HW219356   3.682   0.048  10.690 -0.4573  0.4211  4.0368
 2633SOL     OW19357   3.671   0.766   3.313 -0.1643  0.8070 -0.2204
 2633SOL    HW119358   3.729   0.700   3.276 -0.4598 -0.1408  1.0061
 2633SOL    HW219359   3.632   0.801   3.233 -1.2124 -2.6501 -1.2644
 2634SOL     OW19360   1.106   3.403   5.817  0.2381  0.0650  0.1384
 2634SOL    HW119361   1.163   3.396   5.893 -0.6216  1.7097  0.9228
 2634SOL    HW219362   1.162   3.448   5.754 -0.5994  1.5195  0.4537
 2635SOL     OW19363   0.803   2.335   4.883 -0.2789  0.4945  0.2273
 2635SOL    HW119364   0.835   2.258   4.836 -0.4791 -0.9437  2.4653
 2635SOL    HW219365   0.882   2.388   4.883 -0.1425  0.2910  1.7169
 2636SOL     OW19366   0.719   3.534   3.499  0.0396  0.1067 -0.2440
 2636SOL    HW119367   0.629   3.525   3.468  0.6401  0.6709 -2.1205
 2636SOL    HW219368   0.711   3.583   3.581  0.6253  0.0677 -0.1624
 2637SOL     OW19369   1.148   3.558   2.905  0.1755  0.8391 -0.5042
 2637SOL    HW119370   1.205   3.614   2.853  1.0078  0.7114  0.2664
 2637SOL    HW219371   1.205   3.514   2.969 -1.4822 -0.8054 -0.1573
 2638SOL     OW19372   3.368   0.443  10.423  0.2806  0.6534  0.1549
 2638SOL    HW119373   3.386   0.406  10.509  1.4169 -1.0016 -0.7921
 2638SOL    HW219374   3.447   0.491  10.400  1.3377 -0.5173  1.3898
 2639SOL     OW19375   1.311   3.381   7.926 -0.3026 -0.2313  0.4476
 2639SOL    HW119376   1.218   3.399   7.917  0.0650  0.2594 -2.1939
 2639SOL    HW219377   1.316   3.353   8.018 -0.4919  1.1428  0.8715
 2640SOL     OW19378   2.431   2.698   4.076 -0.0467 -0.0470  0.4464
 2640SOL    HW119379   2.518   2.715   4.041 -0.3633  1.8416  0.5728
 2640SOL    HW219380   2.433   2.603   4.086  2.8454  0.0035  0.3551
 2641SOL     OW19381   0.186   3.011   1.674 -0.1004  0.0065  0.7801
 2641SOL    HW119382   0.205   3.072   1.603 -1.6885  0.0756  0.4090
 2641SOL    HW219383   0.267   3.012   1.725  0.2536 -0.5983  0.2313
 2642SOL     OW19384   0.872   1.172   3.566 -0.0598  0.7234  0.5219
 2642SOL    HW119385   0.817   1.235   3.520  1.0326  1.6623  0.5031
 2642SOL    HW219386   0.807   1.104   3.579 -0.8778  1.4050  0.0052
 2643SOL     OW19387   3.624   3.662   0.967  0.4656  0.1246  0.1147
 2643SOL    HW119388   3.713   3.679   0.936  0.1402 -0.4336 -1.0889
 2643SOL    HW219389   3.601   3.739   1.020  1.8788  1.6461 -1.4735
 2644SOL     OW19390   1.220   2.008   5.324 -0.0670 -0.5232  0.2747
 2644SOL    HW119391   1.275   1.938   5.359  1.4286  1.2720  1.4840
 2644SOL    HW219392   1.129   1.988   5.346 -0.1530 -0.0537  0.3466
 2645SOL     OW19393   4.428   3.354   8.368 -0.3889  0.4557  0.5440
 2645SOL    HW119394   4.448   3.269   8.328  1.1407  1.5341 -0.9376
 2645SOL    HW219395   4.417   3.329   8.460  1.1301 -0.1947  0.5549
 2646SOL     OW19396   0.106   1.885   7.066 -0.7154 -0.3544  0.0988
 2646SOL    HW119397   0.155   1.911   6.987 -2.3715 -0.5051 -0.9619
 2646SOL    HW219398   0.023   1.930   7.054  0.0631  1.7220  2.5944
 2647SOL     OW19399   2.896   1.792   8.991  0.0228  0.5385  0.1434
 2647SOL    HW119400   2.973   1.831   9.033 -1.5902  0.1506  3.3884
 2647SOL    HW219401   2.826   1.824   9.047 -0.1217  0.3005  0.0964
 2648SOL     OW19402   3.124   3.555   6.512 -0.0101 -0.2642 -0.0489
 2648SOL    HW119403   3.208   3.513   6.532  0.5632  0.9276  0.0247
 2648SOL    HW219404   3.080   3.477   6.479  0.0568 -1.2822  2.2739
 2649SOL     OW19405   2.141   2.961   5.609  0.0221  0.4710 -0.1690
 2649SOL    HW119406   2.061   2.922   5.574 -0.6048  2.3937 -0.9193
 2649SOL    HW219407   2.178   3.014   5.538 -1.0712  1.0739 -0.2839
 2650SOL     OW19408   0.728   3.570   8.520  0.2320  0.4780  0.4474
 2650SOL    HW119409   0.654   3.531   8.566 -1.0210  0.7395 -1.3239
 2650SOL    HW219410   0.697   3.558   8.430  0.7445  0.3901  0.2826
 2651SOL     OW19411   1.328   3.560   5.136  0.0224 -0.3291 -0.1802
 2651SOL    HW119412   1.292   3.647   5.155  1.7277  0.3651 -0.1122
 2651SOL    HW219413   1.250   3.504   5.139  0.8176 -1.5171 -1.6176
 2652SOL     OW19414   2.069   3.312  15.633 -0.4899 -0.2461  0.2234
 2652SOL    HW119415   2.026   3.235  15.596 -0.3439  0.3837 -1.2946
 2652SOL    HW219416   2.114   3.338  15.552  0.9062  1.7724  1.6317
 2653SOL     OW19417   2.785   0.821   7.952 -0.1795  0.0914  0.0629
 2653SOL    HW119418   2.818   0.777   7.874  0.1638  0.3612  0.0558
 2653SOL    HW219419   2.791   0.912   7.924 -1.1546 -0.1549 -0.9350
 2654SOL     OW19420   1.814   0.066   7.693  0.1426  0.0906 -0.0002
 2654SOL    HW119421   1.790   0.001   7.627  1.3041 -0.1839 -0.1537
 2654SOL    HW219422   1.851   0.007   7.759 -0.0821 -0.5886 -0.4829
 2655SOL     OW19423   4.095   0.576  16.566  0.2484  0.1205  0.0389
 2655SOL    HW119424   4.103   0.574  16.662 -0.1110  0.5858  0.0769
 2655SOL    HW219425   4.177   0.623  16.549 -0.8809  2.1758  0.2854
 2656SOL     OW19426   4.208   1.560   9.488  0.3210  0.2906 -0.4421
 2656SOL    HW119427   4.175   1.603   9.567 -1.4967  0.6146 -1.3782
 2656SOL    HW219428   4.291   1.602   9.466 -0.0657  0.5616 -1.3417
 2657SOL     OW19429   0.265   0.057   3.015 -0.3313  0.6529  0.4741
 2657SOL    HW119430   0.336   0.007   3.056  0.4265 -0.0651 -1.6971
 2657SOL    HW219431   0.303   0.143   2.998  0.3034 -0.1211 -2.0469
 2658SOL     OW19432   1.327   2.249   2.159  0.2499 -0.6093  0.1022
 2658SOL    HW119433   1.250   2.271   2.212  1.6797 -0.9103  2.3222
 2658SOL    HW219434   1.295   2.203   2.082  1.0304 -2.3053  0.8091
 2659SOL     OW19435   2.329   1.600   1.175  0.4147 -0.9111  0.3072
 2659SOL    HW119436   2.375   1.517   1.158  1.4035 -0.1337 -0.8622
 2659SOL    HW219437   2.385   1.664   1.131 -1.3899 -1.0344 -2.1192
 2660SOL     OW19438   4.531   3.337   2.851 -0.7202 -0.0021  0.0949
 2660SOL    HW119439   4.618   3.374   2.867 -1.1389  0.7008  0.7724
 2660SOL    HW219440   4.557   3.250   2.823 -1.9143 -0.7905  1.4788
 2661SOL     OW19441   2.772   4.627   7.572 -0.1402 -0.2863  0.3384
 2661SOL    HW119442   2.781   4.568   7.497 -1.6411  0.3405 -0.3276
 2661SOL    HW219443   2.773   4.707   7.521  1.1235 -0.8626 -0.5432
 2662SOL     OW19444   2.433   1.411   7.658 -0.4482 -0.6505 -0.3045
 2662SOL    HW119445   2.339   1.426   7.669 -0.0488  1.3895  0.3147
 2662SOL    HW219446   2.442   1.464   7.579  1.8518 -2.1356 -1.0365
 2663SOL     OW19447   1.786   0.520   3.334  0.0611 -0.2554  0.2940
 2663SOL    HW119448   1.757   0.584   3.398  0.3393 -0.0418  0.2102
 2663SOL    HW219449   1.845   0.462   3.382 -1.9056 -1.2999  1.4289
 2664SOL     OW19450   0.926   1.427  12.656  0.4003 -0.3248  0.2697
 2664SOL    HW119451   0.926   1.522  12.643  2.1279 -0.2918  0.5812
 2664SOL    HW219452   0.838   1.422  12.693  0.7111 -0.4649  0.9790
 2665SOL     OW19453   3.083   0.868   3.337 -0.6534  0.5369 -0.2769
 2665SOL    HW119454   3.166   0.821   3.330 -1.2326 -0.6697  0.8480
 2665SOL    HW219455   3.089   0.930   3.409  0.5793 -1.3954  1.3014
 2666SOL     OW19456   1.854   2.641   4.259  0.6785 -0.2881 -0.3730
 2666SOL    HW119457   1.841   2.655   4.165  0.8728 -1.9463 -0.6506
 2666SOL    HW219458   1.898   2.721   4.289  1.2583 -0.8720  0.3438
 2667SOL     OW19459   0.416   3.987   4.577 -0.1356 -0.5704 -0.1254
 2667SOL    HW119460   0.419   3.955   4.487  0.6855 -1.4417  0.2126
 2667SOL    HW219461   0.439   3.919   4.640  0.1578  1.1518  1.6330
 2668SOL     OW19462   1.793   1.824   2.364  0.3181  0.0725 -0.4850
 2668SOL    HW119463   1.861   1.787   2.421 -0.2165  1.7960  1.2704
 2668SOL    HW219464   1.722   1.762   2.378  0.6837  0.1171  1.4870
 2669SOL     OW19465   0.925   4.325   3.779 -0.0522 -0.6909 -0.4494
 2669SOL    HW119466   0.979   4.387   3.828  0.9666 -0.5162 -1.7862
 2669SOL    HW219467   0.993   4.264   3.750 -1.5096 -1.9635 -1.1959
 2670SOL     OW19468   3.343   1.153   7.255  0.0430  0.1531  0.3535
 2670SOL    HW119469   3.327   1.194   7.340  1.5347  0.3014  0.5679
 2670SOL    HW219470   3.376   1.222   7.198 -0.0923 -2.2193 -2.5826
 2671SOL     OW19471   4.076   2.111   8.557 -0.2536 -0.0545 -0.7147
 2671SOL    HW119472   4.039   2.023   8.555  0.2398 -0.2633 -0.9197
 2671SOL    HW219473   4.169   2.098   8.536 -0.6433  1.7323 -3.5002
 2672SOL     OW19474   0.211   1.953   8.469 -0.2081  0.4286  0.1452
 2672SOL    HW119475   0.305   1.935   8.475  0.5009  3.3332 -2.0698
 2672SOL    HW219476   0.175   1.947   8.557  1.7503  1.4607  1.0274
 2673SOL     OW19477   3.078   3.581   2.967  0.0239 -0.0291 -0.2907
 2673SOL    HW119478   3.110   3.568   3.056  0.1253 -0.3291 -0.3724
 2673SOL    HW219479   3.089   3.675   2.950  2.2478 -0.3668 -0.7364
 2674SOL     OW19480   0.701   1.579   5.547 -0.5227 -0.6137 -0.5430
 2674SOL    HW119481   0.743   1.538   5.623 -2.1912 -2.0500 -0.3893
 2674SOL    HW219482   0.768   1.560   5.481 -1.7167 -0.6618 -1.7303
 2675SOL     OW19483   1.644   3.070   4.803  0.1788 -0.5812  0.0443
 2675SOL    HW119484   1.573   3.132   4.823  0.1176 -0.9842  1.0966
 2675SOL    HW219485   1.706   3.100   4.869  0.0580 -1.0800  0.3891
 2676SOL     OW19486   2.402   2.740   7.959  0.8655 -0.0725 -0.0210
 2676SOL    HW119487   2.338   2.810   7.970  0.0909 -0.9341  0.8798
 2676SOL    HW219488   2.344   2.681   7.910 -0.3985  1.3461 -0.2476
 2677SOL     OW19489   1.637   0.191  13.187  0.0242 -0.2598 -0.0623
 2677SOL    HW119490   1.698   0.134  13.234 -1.9574 -1.7818  0.6417
 2677SOL    HW219491   1.658   0.274  13.230  0.9173  0.0138 -1.0184
 2678SOL     OW19492   0.768   4.195   3.548 -0.0583  0.9944 -0.8760
 2678SOL    HW119493   0.702   4.126   3.540  2.1656 -0.9528 -2.1896
 2678SOL    HW219494   0.843   4.140   3.568 -2.0694 -0.6225  2.2904
 2679SOL     OW19495   0.287   0.989   5.976  0.2186 -0.0499 -0.2488
 2679SOL    HW119496   0.263   1.081   5.986  1.1679  0.2357 -0.7017
 2679SOL    HW219497   0.329   0.980   5.891 -1.8080  0.0625 -1.2496
 2680SOL     OW19498   3.172   0.083   4.201  0.1039  0.1134  0.2610
 2680SOL    HW119499   3.134   0.039   4.125 -1.4337 -0.2413  1.2419
 2680SOL    HW219500   3.253   0.031   4.202 -0.9148 -1.4881 -1.2149
 2681SOL     OW19501   1.808   3.233  16.005 -0.3279 -0.0770 -0.1762
 2681SOL    HW119502   1.749   3.204  15.935  1.9509  0.5144 -2.3557
 2681SOL    HW219503   1.745   3.252  16.074 -2.3003  1.1127 -2.2901
 2682SOL     OW19504   1.536   4.356   5.462 -0.3153  0.3486 -0.2697
 2682SOL    HW119505   1.584   4.439   5.463 -0.2079  0.2464  3.0429
 2682SOL    HW219506   1.604   4.299   5.426  0.6118  1.3525 -0.0837
 2683SOL     OW19507   3.127   3.713   9.594  0.2319 -0.1131 -0.4387
 2683SOL    HW119508   3.059   3.701   9.660 -0.4970 -0.3417 -1.2370
 2683SOL    HW219509   3.123   3.624   9.559 -0.5375 -0.0387 -0.5377
 2684SOL     OW19510   0.225   0.272   4.882 -0.0756 -0.1252  0.2153
 2684SOL    HW119511   0.209   0.183   4.916 -1.0725 -0.7732 -1.9372
 2684SOL    HW219512   0.205   0.326   4.959 -0.4051  0.2707 -0.1521
 2685SOL     OW19513   0.677   0.121   1.145  1.1503  0.1965  0.5358
 2685SOL    HW119514   0.601   0.085   1.191  1.0442 -2.3283 -1.6377
 2685SOL    HW219515   0.630   0.141   1.064  0.5695 -2.1489  0.2937
 2686SOL     OW19516   1.280   2.082   6.227 -0.1489  0.3177  0.3529
 2686SOL    HW119517   1.203   2.134   6.251 -0.5245 -0.8091  1.5853
 2686SOL    HW219518   1.327   2.150   6.178  1.0832 -0.7931  0.0126
 2687SOL     OW19519   1.075   3.353   8.119  0.6023  0.3647 -0.1094
 2687SOL    HW119520   1.160   3.325   8.152  0.3936 -0.5140 -0.3066
 2687SOL    HW219521   1.047   3.262   8.105 -0.6613  0.5391  1.2091
 2688SOL     OW19522   3.793   3.519   3.711  0.8073 -0.1485  0.1004
 2688SOL    HW119523   3.800   3.424   3.696 -1.3858 -0.3971  0.6509
 2688SOL    HW219524   3.710   3.537   3.666  1.7463  1.5938 -0.9255
 2689SOL     OW19525   1.497   0.409  12.505 -0.1211 -0.5358  0.1345
 2689SOL    HW119526   1.519   0.339  12.444 -2.2048  0.6361 -1.9548
 2689SOL    HW219527   1.464   0.354  12.577  1.7807 -2.0091 -0.1299
 2690SOL     OW19528   4.351   0.658   6.136  0.4548  0.4249  0.6166
 2690SOL    HW119529   4.383   0.635   6.049 -0.6585  0.2381  0.2618
 2690SOL    HW219530   4.287   0.588   6.148  0.6535 -0.1275 -1.5686
 2691SOL     OW19531   2.007   2.383  17.640 -0.1402 -0.0254  0.1336
 2691SOL    HW119532   1.915   2.391  17.614 -0.5115  2.7448  2.2684
 2691SOL    HW219533   2.036   2.340  17.560  1.5306  0.3483  0.5347
 2692SOL     OW19534   0.285   4.304   7.457  0.1166  0.0123 -0.0140
 2692SOL    HW119535   0.242   4.387   7.478  0.1659 -0.5958  2.5375
 2692SOL    HW219536   0.222   4.241   7.492  0.6057 -1.6909 -2.2071
 2693SOL     OW19537   2.683   0.457  12.068  0.1880 -0.1253  0.2008
 2693SOL    HW119538   2.722   0.541  12.091 -2.2667  0.4834  2.2318
 2693SOL    HW219539   2.753   0.401  12.099  0.5088  0.5161  0.6402
 2694SOL     OW19540   3.026   4.540   4.320  0.4793  0.0921 -0.4200
 2694SOL    HW119541   2.961   4.561   4.387  1.4579  0.6607  0.3586
 2694SOL    HW219542   3.026   4.623   4.272 -1.6488  0.2556 -0.1574
 2695SOL     OW19543   4.342   0.537   2.364 -0.5465 -0.2345  0.0518
 2695SOL    HW119544   4.314   0.608   2.306  0.9514  0.3075 -0.0094
 2695SOL    HW219545   4.396   0.578   2.431  1.5641  0.6063 -2.1718
 2696SOL     OW19546   4.422   1.385   5.451  0.1664  0.3747 -0.5307
 2696SOL    HW119547   4.369   1.409   5.376 -0.8836  2.0011  0.7413
 2696SOL    HW219548   4.382   1.443   5.515 -1.1277 -0.5597 -0.4873
 2697SOL     OW19549   2.556   3.016  15.795 -0.2864 -0.5637  0.6672
 2697SOL    HW119550   2.547   3.097  15.844  2.3094 -0.2972  0.6818
 2697SOL    HW219551   2.467   2.996  15.764  0.4436 -0.2497 -1.6390
 2698SOL     OW19552   3.560   4.230   1.693 -0.0332 -0.1659  0.1499
 2698SOL    HW119553   3.570   4.135   1.707 -0.2911 -0.0408  1.1767
 2698SOL    HW219554   3.627   4.267   1.751 -1.9683  0.6505  1.8612
 2699SOL     OW19555   3.095   2.306   3.714 -0.5557 -0.0739  0.1272
 2699SOL    HW119556   3.061   2.286   3.801 -1.7559  1.9244  0.1128
 2699SOL    HW219557   3.071   2.225   3.669 -0.6253 -1.3142  2.4464
 2700SOL     OW19558   2.979   2.389   2.653 -0.2545 -0.3847  0.2207
 2700SOL    HW119559   2.904   2.409   2.597 -0.3811  1.6505  1.0964
 2700SOL    HW219560   3.045   2.449   2.618  0.2302 -1.5017 -0.7399
 2701SOL     OW19561   3.392   2.105   1.300  0.2386 -0.2920 -0.1339
 2701SOL    HW119562   3.393   2.136   1.210  0.4581 -3.2002 -1.1520
 2701SOL    HW219563   3.370   2.012   1.291 -0.9227  0.2592 -2.8961
 2702SOL     OW19564   4.438   0.158   2.933 -0.1953 -0.0897  1.2015
 2702SOL    HW119565   4.418   0.218   3.004 -1.6568  0.8252  0.0066
 2702SOL    HW219566   4.520   0.116   2.961  0.4426 -0.7709 -1.7244
 2703SOL     OW19567   3.508   2.027   1.600 -0.1280 -0.0255  0.4455
 2703SOL    HW119568   3.419   1.994   1.598  0.2191 -0.7742 -2.3431
 2703SOL    HW219569   3.539   1.940   1.578 -0.0712 -0.2315  1.3244
 2704SOL     OW19570   0.557   0.847   9.084  0.5020 -0.2520 -0.1528
 2704SOL    HW119571   0.475   0.868   9.040  0.5293 -1.7169 -0.9089
 2704SOL    HW219572   0.620   0.901   9.036  3.5292 -4.0734 -0.4854
 2705SOL     OW19573   1.434   2.348   3.429  0.1106 -0.3003  0.2913
 2705SOL    HW119574   1.441   2.435   3.389 -2.0086  0.4067  1.4614
 2705SOL    HW219575   1.369   2.303   3.377  1.0994  0.7014 -1.8348
 2706SOL     OW19576   4.308   3.209   7.710 -0.2312  0.2339 -0.2764
 2706SOL    HW119577   4.402   3.218   7.691 -0.2460 -0.1654 -0.5390
 2706SOL    HW219578   4.318   3.201   7.805  0.4734  0.8107 -0.2945
 2707SOL     OW19579   3.934   3.288  15.424  0.2422  0.0457  0.4868
 2707SOL    HW119580   3.867   3.236  15.379  1.8166 -0.3488 -1.4322
 2707SOL    HW219581   4.020   3.258  15.392 -0.4279 -0.0960 -1.1911
 2708SOL     OW19582   2.776   0.855  16.462  0.4286 -0.0620 -0.2826
 2708SOL    HW119583   2.733   0.821  16.540 -3.8712  0.6199 -2.3250
 2708SOL    HW219584   2.728   0.811  16.392 -1.1132  0.2000  0.6213
 2709SOL     OW19585   3.752   1.130   1.562 -0.1988  0.8335  0.2386
 2709SOL    HW119586   3.826   1.070   1.548 -1.2622 -0.9439  2.1367
 2709SOL    HW219587   3.755   1.145   1.657 -1.7933  1.7295  0.1523
 2710SOL     OW19588   0.638   0.548  14.894 -0.0943  0.5075 -0.5118
 2710SOL    HW119589   0.582   0.617  14.858  0.0134 -0.0448 -1.7382
 2710SOL    HW219590   0.581   0.471  14.898  1.8005 -0.9381 -1.1651
 2711SOL     OW19591   3.717   1.721   5.074  0.2714  0.2468 -0.0436
 2711SOL    HW119592   3.764   1.796   5.111  2.6084 -0.8910 -0.6922
 2711SOL    HW219593   3.783   1.680   5.019  0.9037 -1.6608  2.1579
 2712SOL     OW19594   2.180   1.973   2.100  0.7924  0.4585  0.3984
 2712SOL    HW119595   2.086   1.959   2.089 -0.1344  4.4454  3.3383
 2712SOL    HW219596   2.202   1.956   2.008 -0.1074  2.0252 -0.0931
 2713SOL     OW19597   3.974   0.039   6.073  0.2121  0.0913  0.0651
 2713SOL    HW119598   3.907   0.106   6.060  1.4643  1.2468 -0.4421
 2713SOL    HW219599   4.044   0.099   6.097  1.6320 -1.2363 -0.7180
 2714SOL     OW19600   1.431   1.058  13.587 -0.1169  0.0852 -0.1728
 2714SOL    HW119601   1.335   1.058  13.591 -0.1235 -0.3636 -0.3178
 2714SOL    HW219602   1.447   1.066  13.493 -0.9100 -0.4283 -0.3567
 2715SOL     OW19603   3.961   3.914   1.733  0.3391 -0.2082 -0.3093
 2715SOL    HW119604   3.967   3.928   1.827 -3.5389  0.2304 -0.1243
 2715SOL    HW219605   3.931   3.823   1.733 -1.7835  0.5081 -1.6980
 2716SOL     OW19606   2.019   3.196   3.897  0.0046 -0.1354  0.0614
 2716SOL    HW119607   1.989   3.163   3.812  2.2034 -0.6595 -0.5068
 2716SOL    HW219608   2.113   3.183   3.883  0.3019  0.9415  1.1196
 2717SOL     OW19609   3.794   2.407   7.750  0.4429 -1.2956 -0.0894
 2717SOL    HW119610   3.701   2.426   7.734  0.7398  0.4723  0.3567
 2717SOL    HW219611   3.825   2.485   7.706 -0.1483 -1.0303 -0.0316
 2718SOL     OW19612   2.180   4.636   9.045  0.4300  0.6210 -0.1420
 2718SOL    HW119613   2.190   4.574   9.118  1.3768  1.4202  0.4005
 2718SOL    HW219614   2.088   4.615   9.029  0.2783 -0.3381  1.8816
 2719SOL     OW19615   2.775   1.844  14.381 -0.5109 -0.6081  0.4962
 2719SOL    HW119616   2.752   1.937  14.385  0.1929 -0.5326  2.5602
 2719SOL    HW219617   2.758   1.820  14.289  1.1085 -0.1980  0.1028
 2720SOL     OW19618   0.272   1.199  11.142  1.1582  0.1079 -0.0938
 2720SOL    HW119619   0.258   1.121  11.195 -0.4286  0.2767 -0.2669
 2720SOL    HW219620   0.337   1.240  11.198  0.1705  0.8494  0.5094
 2721SOL     OW19621   1.586   4.002  13.848 -0.3812  0.6524  0.1353
 2721SOL    HW119622   1.491   3.998  13.835 -0.3451 -0.2997  0.1491
 2721SOL    HW219623   1.625   4.042  13.770 -3.0716 -1.0932 -2.1151
 2722SOL     OW19624   2.567   1.570   6.262 -0.8553 -0.1479 -0.2802
 2722SOL    HW119625   2.562   1.515   6.340  2.9708 -3.1020 -2.0683
 2722SOL    HW219626   2.584   1.508   6.191  0.2745 -0.3085  0.1244
 2723SOL     OW19627   2.681   3.280   2.477  0.0900  0.3107 -0.2529
 2723SOL    HW119628   2.723   3.363   2.501  1.9096 -0.1742 -1.7279
 2723SOL    HW219629   2.661   3.294   2.384  1.9337 -0.5622 -0.7810
 2724SOL     OW19630   0.376   0.307   2.938 -0.1082  0.8923 -0.5017
 2724SOL    HW119631   0.420   0.327   2.855  0.1190  1.4628 -0.2392
 2724SOL    HW219632   0.451   0.309   2.998  0.3736  1.0395 -1.1056
 2725SOL     OW19633   3.061   1.225   7.146 -0.0288 -0.3057 -0.3846
 2725SOL    HW119634   3.132   1.286   7.127 -0.0380  0.5021  2.2387
 2725SOL    HW219635   3.099   1.158   7.202 -3.1827  0.4205  2.5983
 2726SOL     OW19636   2.641   4.004   7.875 -0.0116 -0.2223 -0.7762
 2726SOL    HW119637   2.613   3.922   7.835 -1.8721 -0.7580  1.6546
 2726SOL    HW219638   2.662   4.049   7.793 -2.3389  1.9027 -0.1833
 2727SOL     OW19639   1.045   0.868   1.493 -0.2257  0.5588 -0.4906
 2727SOL    HW119640   0.968   0.924   1.487 -0.2286  0.5580 -0.4597
 2727SOL    HW219641   1.116   0.926   1.465 -0.8306  0.6263 -1.9047
 2728SOL     OW19642   2.535   0.868   1.041 -0.5723  0.2018  0.0133
 2728SOL    HW119643   2.621   0.840   1.074 -1.0588 -1.1531  0.1065
 2728SOL    HW219644   2.477   0.862   1.117 -1.5243 -0.2212 -0.7667
 2729SOL     OW19645   0.731   4.465   6.910  0.3520 -0.3398 -0.1502
 2729SOL    HW119646   0.749   4.381   6.952  2.5261 -1.7376 -3.8676
 2729SOL    HW219647   0.706   4.436   6.822 -1.1515  0.1389  0.1080
 2730SOL     OW19648   1.633   4.322   7.254 -0.5469  0.6943 -0.6538
 2730SOL    HW119649   1.628   4.417   7.250 -2.8989  0.5566 -0.4402
 2730SOL    HW219650   1.640   4.310   7.159 -0.4328 -1.8922 -0.3389
 2731SOL     OW19651   2.617   3.305  17.639  0.6165 -0.1818  0.0892
 2731SOL    HW119652   2.618   3.377   0.016 -0.3491  0.2978 -0.4672
 2731SOL    HW219653   2.598   3.354  17.560  0.4195  0.7537  0.7161
 2732SOL     OW19654   0.520   0.899   6.396  0.1788  0.0646 -0.2642
 2732SOL    HW119655   0.543   0.810   6.422 -1.9743  0.1259  1.8223
 2732SOL    HW219656   0.476   0.936   6.472  0.8397  0.5057 -0.0953
 2733SOL     OW19657   4.463   2.607   0.982 -0.1129  0.4864  0.4742
 2733SOL    HW119658   4.399   2.538   0.969  1.0694 -0.8163  1.6348
 2733SOL    HW219659   4.404   2.683   0.988 -1.4882 -0.5152 -0.4413
 2734SOL     OW19660   1.343   4.352   5.058  0.0737  0.7686 -0.5333
 2734SOL    HW119661   1.266   4.299   5.039 -0.2373  0.7754  0.7568
 2734SOL    HW219662   1.355   4.348   5.153 -0.2563  1.8990 -0.4440
 2735SOL     OW19663   3.871   1.737  12.892 -0.2006  0.6347  0.1841
 2735SOL    HW119664   3.930   1.810  12.911 -0.3582  0.7695  0.1621
 2735SOL    HW219665   3.806   1.745  12.962 -1.6863  0.9174 -1.2041
 2736SOL     OW19666   0.373   2.375   6.182  0.5328  0.0290 -0.5980
 2736SOL    HW119667   0.309   2.306   6.167 -0.7989  1.3970 -1.2862
 2736SOL    HW219668   0.313   2.449   6.193 -0.7683 -1.2188  0.6088
 2737SOL     OW19669   1.616   2.133   7.155  1.0611  0.1325  0.3780
 2737SOL    HW119670   1.565   2.099   7.081 -1.0785  2.1068  0.9489
 2737SOL    HW219671   1.706   2.142   7.122  0.5962  2.1492 -0.3398
 2738SOL     OW19672   3.740   3.536   8.608  0.0761  0.1548 -0.4153
 2738SOL    HW119673   3.722   3.630   8.614  0.4116  0.1348  0.9184
 2738SOL    HW219674   3.654   3.504   8.634 -0.0692  0.2821 -0.7384
 2739SOL     OW19675   1.762   0.392   7.404 -0.1193  0.1339 -0.4881
 2739SOL    HW119676   1.850   0.370   7.435  0.2777  1.7664 -0.4818
 2739SOL    HW219677   1.779   0.418   7.313 -1.0461  0.8464 -0.4501
 2740SOL     OW19678   3.480   2.742  13.476 -0.2952 -0.5936 -0.8372
 2740SOL    HW119679   3.448   2.756  13.387 -2.5795 -0.5961 -0.0340
 2740SOL    HW219680   3.511   2.652  13.468  1.2365 -0.1142 -0.3552
 2741SOL     OW19681   3.506   1.831   8.763  0.0270  0.2082 -0.3857
 2741SOL    HW119682   3.498   1.906   8.704  1.8965  1.1217  0.5274
 2741SOL    HW219683   3.527   1.872   8.847  0.0424 -0.5133 -0.0318
 2742SOL     OW19684   1.634   0.703   6.859  0.0647  0.5926 -0.3204
 2742SOL    HW119685   1.628   0.795   6.883  1.8724  1.4807 -3.2577
 2742SOL    HW219686   1.689   0.707   6.780 -0.5770  3.3813 -0.6165
 2743SOL     OW19687   4.577   0.083   7.044  0.1127  0.5434  0.6855
 2743SOL    HW119688   4.613   0.123   7.123  0.5071 -0.7857  1.1821
 2743SOL    HW219689   4.537   0.008   7.087  1.7807 -0.5866  0.2482
 2744SOL     OW19690   4.007   4.307   2.710 -0.3585 -0.9633 -0.0536
 2744SOL    HW119691   4.016   4.221   2.751  2.4636  0.3679  2.0712
 2744SOL    HW219692   3.913   4.325   2.707  0.0479  1.2083  0.4469
 2745SOL     OW19693   4.308   1.622   2.089  0.1985  0.2974 -0.0322
 2745SOL    HW119694   4.322   1.613   2.183  2.0869  2.1208 -0.1398
 2745SOL    HW219695   4.243   1.692   2.083 -0.4446 -0.3593 -0.6865
 2746SOL     OW19696   3.633   3.306   4.209  0.3343 -0.9381  0.2585
 2746SOL    HW119697   3.539   3.288   4.214  0.4563 -1.2611  1.3418
 2746SOL    HW219698   3.677   3.222   4.221 -1.0999 -1.4480  1.9939
 2747SOL     OW19699   1.643   2.880   3.573 -0.0558  0.4336  0.1067
 2747SOL    HW119700   1.582   2.808   3.591 -0.7518  0.7826 -0.8806
 2747SOL    HW219701   1.583   2.952   3.591 -0.3599 -0.2974  2.1111
 2748SOL     OW19702   0.363   3.927   7.872  0.7500 -0.2747  0.6200
 2748SOL    HW119703   0.392   3.893   7.957 -0.8592 -1.8741  0.5527
 2748SOL    HW219704   0.268   3.911   7.875  0.2840  2.8138  1.5222
 2749SOL     OW19705   4.593   2.492   7.758 -0.2537 -0.1525  0.1319
 2749SOL    HW119706   4.501   2.481   7.732  0.4024 -0.5274 -2.0351
 2749SOL    HW219707   4.617   2.582   7.740  1.1043 -0.4139  0.6552
 2750SOL     OW19708   2.286   3.744   4.672 -0.0642 -0.4124 -0.0059
 2750SOL    HW119709   2.204   3.750   4.722 -0.2281 -1.3730 -0.1521
 2750SOL    HW219710   2.288   3.816   4.609 -0.7807 -1.6561 -1.4460
 2751SOL     OW19711   0.262   4.205  14.329 -0.4994 -0.9715  0.0877
 2751SOL    HW119712   0.298   4.116  14.327 -0.4776 -0.9593 -0.0722
 2751SOL    HW219713   0.180   4.192  14.282 -0.3837 -1.0381 -0.0983
 2752SOL     OW19714   1.380   0.224   3.494 -0.0811  0.0045  0.4162
 2752SOL    HW119715   1.373   0.223   3.589  1.1403 -2.7189  0.4824
 2752SOL    HW219716   1.462   0.269   3.472 -0.0028 -1.2731 -1.9219
 2753SOL     OW19717   4.662   1.795  11.699  0.5035  0.5186  0.0929
 2753SOL    HW119718   4.699   1.743  11.628  0.4978  1.0393 -0.2862
 2753SOL    HW219719   4.636   1.876  11.655  0.3824  0.0974 -0.6001
 2754SOL     OW19720   3.613   2.535   7.389  0.1099  0.1109  0.6741
 2754SOL    HW119721   3.559   2.504   7.462  0.6369  1.4985  1.6379
 2754SOL    HW219722   3.670   2.458   7.393 -0.2066 -0.1934 -0.5927
 2755SOL     OW19723   2.716   0.956   6.754 -0.2306 -0.1992  0.3796
 2755SOL    HW119724   2.763   0.918   6.679 -1.2282  0.2641 -0.4721
 2755SOL    HW219725   2.770   0.930   6.829  1.3876  0.9325 -0.3833
 2756SOL     OW19726   0.572   0.343  16.847 -0.1449  0.2056  0.3700
 2756SOL    HW119727   0.660   0.366  16.876 -0.5096 -1.3592  2.7464
 2756SOL    HW219728   0.522   0.413  16.891 -2.4395 -0.2772 -1.4881
 2757SOL     OW19729   4.063   0.112   8.328 -0.1212  1.1558 -0.3960
 2757SOL    HW119730   3.991   0.061   8.366 -0.8614  0.6584 -2.4993
 2757SOL    HW219731   4.116   0.038   8.298 -0.2234  1.0021 -0.1969
 2758SOL     OW19732   0.951   2.737   8.083 -0.0987  0.3782 -0.1061
 2758SOL    HW119733   0.875   2.704   8.035 -0.1082  2.9965 -1.9241
 2758SOL    HW219734   1.018   2.670   8.074 -0.3079  0.1670 -0.0750
 2759SOL     OW19735   0.502   4.069   5.990 -0.4405  0.1572  0.0813
 2759SOL    HW119736   0.487   4.160   5.968 -1.1021 -0.1436 -0.6865
 2759SOL    HW219737   0.466   4.058   6.078  0.4288  0.1461  0.4360
 2760SOL     OW19738   2.556   1.948  14.110  0.5915  0.6428  0.4319
 2760SOL    HW119739   2.593   1.988  14.188 -0.8569 -1.4418  2.1687
 2760SOL    HW219740   2.471   1.992  14.106  0.2379 -0.2197 -1.5368
 2761SOL     OW19741   1.747   3.723   2.062 -0.0985  0.2083 -0.2639
 2761SOL    HW119742   1.769   3.665   1.990  0.8953 -0.3772  0.5143
 2761SOL    HW219743   1.758   3.807   2.017 -0.4281 -0.8938 -2.3993
 2762SOL     OW19744   1.905   2.263   9.999  0.2896 -0.2659 -0.0158
 2762SOL    HW119745   1.832   2.234  10.055  0.7489  0.5760  1.0417
 2762SOL    HW219746   1.964   2.297  10.067 -1.3621  2.9684 -0.1965
 2763SOL     OW19747   3.844   0.781  16.795 -0.5944 -0.3934 -0.0129
 2763SOL    HW119748   3.861   0.856  16.737 -2.7015 -0.2714 -0.4875
 2763SOL    HW219749   3.750   0.797  16.799 -0.7115 -0.8199 -1.0851
 2764SOL     OW19750   4.526   3.003  14.710 -0.0214  0.3527 -0.5446
 2764SOL    HW119751   4.571   3.075  14.666  0.9111 -0.0262 -0.2231
 2764SOL    HW219752   4.436   3.021  14.684 -0.1602  0.7287  0.1876
 2765SOL     OW19753   0.393   4.708   4.840  0.1039 -0.8287  0.8392
 2765SOL    HW119754   0.319   4.708   4.902 -1.0475 -1.1689 -0.5289
 2765SOL    HW219755   0.458   4.677   4.903 -0.0254 -0.2058  1.2915
 2766SOL     OW19756   0.636   1.889   9.381 -0.6679 -0.2043  0.2856
 2766SOL    HW119757   0.659   1.970   9.427 -0.4477 -0.9733  1.5541
 2766SOL    HW219758   0.590   1.840   9.450  1.5075  1.2223  2.7648
 2767SOL     OW19759   1.601   0.389   1.246 -0.1688 -0.1549  0.0878
 2767SOL    HW119760   1.564   0.391   1.158  0.5669  0.2629 -0.2154
 2767SOL    HW219761   1.692   0.387   1.214 -0.3041  1.4270 -0.3655
 2768SOL     OW19762   3.887   3.151   4.902  0.0072  0.4074 -0.0934
 2768SOL    HW119763   3.962   3.099   4.932 -0.2380  1.5459  2.4130
 2768SOL    HW219764   3.845   3.097   4.835 -0.1635  1.5262 -0.8822
 2769SOL     OW19765   3.019   2.212   6.278 -0.5755 -0.1041 -0.2702
 2769SOL    HW119766   2.994   2.255   6.196 -3.0431  0.5674  0.8293
 2769SOL    HW219767   2.944   2.154   6.287 -1.8291  1.2491 -1.9108
 2770SOL     OW19768   1.187   4.242  12.633  0.5949  0.3752 -0.2421
 2770SOL    HW119769   1.239   4.217  12.556 -0.1361 -0.8109 -0.3435
 2770SOL    HW219770   1.102   4.202  12.615  0.8640 -0.2702 -0.0858
 2771SOL     OW19771   0.910   2.373  10.680 -0.8215  0.3360 -0.9819
 2771SOL    HW119772   0.887   2.332  10.763 -1.8842 -1.0535 -1.9716
 2771SOL    HW219773   0.971   2.434  10.722 -0.6458 -0.2412 -0.3876
 2772SOL     OW19774   3.467   3.848   6.028 -0.0890 -0.0727 -0.1590
 2772SOL    HW119775   3.441   3.770   6.077  2.9519 -1.3726 -0.6064
 2772SOL    HW219776   3.510   3.905   6.091 -0.7379 -0.8076  0.9440
 2773SOL     OW19777   1.663   1.648   4.120  0.5965 -0.3444  0.0641
 2773SOL    HW119778   1.659   1.713   4.190 -0.7826 -0.7962  0.3977
 2773SOL    HW219779   1.692   1.698   4.044  2.9387 -0.5432  0.8083
 2774SOL     OW19780   2.054   0.490   7.004 -0.3663 -0.3876 -0.0938
 2774SOL    HW119781   1.969   0.452   6.983 -1.4664  0.8433  1.9994
 2774SOL    HW219782   2.042   0.492   7.099  0.8566  1.4387  0.0277
 2775SOL     OW19783   0.474   3.447   5.781  0.4104 -0.1114  0.5106
 2775SOL    HW119784   0.474   3.539   5.806  1.6632 -0.2757  1.1094
 2775SOL    HW219785   0.409   3.409   5.840  0.9579 -1.0329  0.5256
 2776SOL     OW19786   4.007   4.031   3.942 -0.3207 -0.0950 -0.1093
 2776SOL    HW119787   4.058   3.980   3.879 -1.0154  0.0325 -0.7809
 2776SOL    HW219788   4.059   3.993   4.012  0.5974  2.1225  0.4278
 2777SOL     OW19789   2.732   2.023   3.875  0.3901 -0.0861  0.0476
 2777SOL    HW119790   2.748   1.985   3.962  1.3758 -1.6449 -0.7961
 2777SOL    HW219791   2.668   2.087   3.906 -0.8906 -1.4828  0.2757
 2778SOL     OW19792   0.835   3.132   4.407 -0.3734  0.4918 -0.3422
 2778SOL    HW119793   0.848   3.044   4.440  3.2703  1.1092 -0.1695
 2778SOL    HW219794   0.822   3.112   4.314  2.8317 -0.1515 -0.6432
 2779SOL     OW19795   3.766   0.465  10.892  0.2010  0.3391  0.1580
 2779SOL    HW119796   3.769   0.478  10.987  1.4377 -0.7026  0.2644
 2779SOL    HW219797   3.803   0.377  10.887  0.6299  0.5747 -0.7348
 2780SOL     OW19798   4.459   3.728   9.110  0.2811 -0.3155  0.0175
 2780SOL    HW119799   4.418   3.724   9.197 -0.9814  0.5710 -0.5330
 2780SOL    HW219800   4.395   3.689   9.051  1.4301 -2.7560  0.3863
 2781SOL     OW19801   3.086   2.700   8.024  0.0339 -0.1720 -0.8198
 2781SOL    HW119802   3.168   2.652   8.013 -0.0683 -0.7283  0.7954
 2781SOL    HW219803   3.024   2.636   7.988 -1.1013  1.1885 -1.3098
 2782SOL     OW19804   3.173   1.862   2.525  0.3124  0.1486  0.3641
 2782SOL    HW119805   3.149   1.953   2.541  0.6618  0.2208  0.4578
 2782SOL    HW219806   3.126   1.811   2.591  0.4666  1.2097  1.2866
 2783SOL     OW19807   2.185   3.661   3.534  0.3804 -0.1874 -0.6316
 2783SOL    HW119808   2.242   3.733   3.561 -0.5248 -0.4799  2.1482
 2783SOL    HW219809   2.122   3.662   3.607 -0.0616 -0.9146 -1.0025
 2784SOL     OW19810   2.106   2.720   3.588  0.1390  0.0134  0.1120
 2784SOL    HW119811   2.035   2.761   3.539  0.1685  0.5230  0.4997
 2784SOL    HW219812   2.098   2.765   3.672  0.5231 -0.1647  0.2454
 2785SOL     OW19813   0.916   2.189  16.576  0.2011  0.4235  0.0301
 2785SOL    HW119814   0.922   2.181  16.481 -0.1652 -1.6781  0.1813
 2785SOL    HW219815   0.977   2.257  16.604  1.3943  0.0827 -1.7128
 2786SOL     OW19816   3.354   4.270   8.760 -0.4207  0.2679  0.3174
 2786SOL    HW119817   3.448   4.253   8.762 -0.9235 -2.2696  3.0604
 2786SOL    HW219818   3.333   4.216   8.684 -4.5834  0.8601  1.0642
 2787SOL     OW19819   0.503   2.754  16.061  0.0442 -0.0617  0.5457
 2787SOL    HW119820   0.429   2.814  16.059 -0.6198 -0.8109  2.9636
 2787SOL    HW219821   0.494   2.714  15.974 -1.0961 -0.9660  1.0810
 2788SOL     OW19822   3.591   3.890  13.492 -0.3616  0.3041 -0.3939
 2788SOL    HW119823   3.578   3.795  13.497 -1.5623  0.5411  0.7989
 2788SOL    HW219824   3.529   3.918  13.424  1.0024 -1.7158 -2.4695
 2789SOL     OW19825   4.141   3.353   1.981 -0.2554  0.1630 -0.1744
 2789SOL    HW119826   4.064   3.387   1.935 -1.4341 -2.0286  0.1682
 2789SOL    HW219827   4.129   3.258   1.983  1.0269 -0.0468 -1.8548
 2790SOL     OW19828   3.509   3.244   9.562 -0.5837  0.1389  0.2893
 2790SOL    HW119829   3.481   3.310   9.625  1.4458  0.4007  0.9139
 2790SOL    HW219830   3.437   3.241   9.499 -1.4493  0.8404  1.2654
 2791SOL     OW19831   2.343   4.514   5.014  0.2426  1.1870 -0.0731
 2791SOL    HW119832   2.419   4.552   4.972  0.9124  0.5215  0.5384
 2791SOL    HW219833   2.350   4.423   4.985 -2.7338  1.0892 -0.5133
 2792SOL     OW19834   3.169   3.471   9.466 -0.0693 -0.5542  0.2162
 2792SOL    HW119835   3.223   3.515   9.400 -1.5462  0.0971 -0.5487
 2792SOL    HW219836   3.200   3.381   9.451  0.9289 -0.1049 -0.4280
 2793SOL     OW19837   4.611   3.283   6.920  0.3928  0.2834  0.2537
 2793SOL    HW119838   4.686   3.261   6.975 -0.4277 -2.0772  0.4211
 2793SOL    HW219839   4.654   3.273   6.835 -1.2440 -0.4455 -0.4845
 2794SOL     OW19840   2.089   0.317   8.473 -0.3353  0.0819 -0.1750
 2794SOL    HW119841   2.077   0.325   8.568 -1.0350 -2.4215 -0.0545
 2794SOL    HW219842   2.151   0.388   8.457  0.9675 -1.1042 -0.3544
 2795SOL     OW19843   0.772   1.602   7.178 -0.0658 -0.1202  0.0836
 2795SOL    HW119844   0.840   1.616   7.112  1.4699 -0.2479  1.6444
 2795SOL    HW219845   0.838   1.608   7.247  1.7463  0.9274 -1.7203
 2796SOL     OW19846   0.062   2.205   4.349 -0.5656 -0.0228 -0.3126
 2796SOL    HW119847   0.130   2.139   4.364  0.4348  0.5025 -2.6760
 2796SOL    HW219848   0.019   2.191   4.434  0.5225  0.6457  0.3449
 2797SOL     OW19849   1.666   2.207   3.373  0.4022  0.3341  0.0493
 2797SOL    HW119850   1.586   2.257   3.389  0.9800  1.0351  0.7704
 2797SOL    HW219851   1.728   2.254   3.429 -1.4620  2.3997  0.3757
 2798SOL     OW19852   4.240   4.481   7.425  0.3160  0.6559  0.1128
 2798SOL    HW119853   4.334   4.496   7.416 -0.1926  1.8191 -3.2812
 2798SOL    HW219854   4.231   4.515   7.513  0.5034  1.4010 -0.1549
 2799SOL     OW19855   0.447   3.680  14.352  0.0602  0.2106  0.2991
 2799SOL    HW119856   0.465   3.662  14.260 -2.0886  1.8570 -0.4607
 2799SOL    HW219857   0.469   3.774  14.353 -0.7279  0.3885  0.9090
 2800SOL     OW19858   0.307   1.220  16.904  0.0191  0.1389  0.4572
 2800SOL    HW119859   0.327   1.128  16.919 -0.4957 -0.1608 -0.6899
 2800SOL    HW219860   0.225   1.223  16.953 -1.7726 -0.3677 -2.4679
 2801SOL     OW19861   1.776   2.877   2.191 -0.8272 -0.1019 -0.0084
 2801SOL    HW119862   1.770   2.826   2.110 -0.4864  2.0886 -1.4145
 2801SOL    HW219863   1.682   2.896   2.198 -0.8624 -0.7552  1.1740
 2802SOL     OW19864   2.680   4.271   8.493  0.2047 -0.1738 -0.0962
 2802SOL    HW119865   2.594   4.229   8.492  0.6393 -1.0984  1.6426
 2802SOL    HW219866   2.664   4.352   8.541 -1.9078  0.1071 -1.2724
 2803SOL     OW19867   0.014   1.705  11.955 -0.3022 -0.6601 -0.0876
 2803SOL    HW119868   0.032   1.777  12.015 -1.4353 -1.3073  1.0427
 2803SOL    HW219869   4.718   1.761  11.879  0.0129  1.1981  1.2224
 2804SOL     OW19870   0.666   3.528   2.032 -0.0447 -0.0000  0.4542
 2804SOL    HW119871   0.709   3.457   2.080 -0.5012 -1.3244 -1.0911
 2804SOL    HW219872   0.725   3.533   1.956 -0.7248  0.1619 -0.0571
 2805SOL     OW19873   0.358   0.521   8.079 -0.5847 -0.4096 -0.2766
 2805SOL    HW119874   0.386   0.455   8.016 -1.0079 -1.2080  0.3570
 2805SOL    HW219875   0.263   0.522   8.063 -0.6815  0.1388  0.3092
 2806SOL     OW19876   1.819   0.320   4.610  0.5445 -0.5308 -1.1828
 2806SOL    HW119877   1.878   0.391   4.586 -0.7627  0.7231 -0.7306
 2806SOL    HW219878   1.743   0.333   4.552 -0.0348 -0.2384 -0.3581
 2807SOL     OW19879   2.138   0.051   7.101  0.3316  0.4445 -0.2712
 2807SOL    HW119880   2.176   0.122   7.154 -1.1149  1.3735 -0.4484
 2807SOL    HW219881   2.140   4.696   7.159 -0.7961 -0.8638 -1.9408
 2808SOL     OW19882   2.400   4.253   8.095 -0.1251  0.4666 -0.2219
 2808SOL    HW119883   2.377   4.194   8.167 -0.1978 -0.1440 -0.7483
 2808SOL    HW219884   2.419   4.193   8.022  1.5712  0.7306 -0.0019
 2809SOL     OW19885   0.575   0.634  15.220 -0.6090 -0.5040  0.3678
 2809SOL    HW119886   0.663   0.614  15.190 -0.7077  0.7032 -0.7432
 2809SOL    HW219887   0.548   0.711  15.169  0.9348  0.2154  0.6222
 2810SOL     OW19888   2.125   2.081   8.751  0.7553 -0.2235 -0.2902
 2810SOL    HW119889   2.103   2.095   8.843 -1.4291 -0.5183 -0.7701
 2810SOL    HW219890   2.065   2.011   8.724  1.0469  0.0356 -1.5962
 2811SOL     OW19891   2.081   0.929  16.575  0.4738 -0.6050 -0.0928
 2811SOL    HW119892   2.077   0.841  16.613 -2.7150 -0.2098  0.5614
 2811SOL    HW219893   2.001   0.921  16.523 -0.5738 -1.0905  1.5746
 2812SOL     OW19894   3.105   0.268   3.452 -0.2628  0.3928 -0.1716
 2812SOL    HW119895   3.175   0.331   3.470  0.1553 -0.2768  0.5612
 2812SOL    HW219896   3.161   0.203   3.408 -0.6779  0.7158 -1.1774
 2813SOL     OW19897   4.009   3.337   9.098  0.8425 -0.0585 -0.1610
 2813SOL    HW119898   4.019   3.405   9.165  1.0625 -0.1305 -0.1191
 2813SOL    HW219899   4.098   3.311   9.075  0.4950 -1.1546 -0.2426
 2814SOL     OW19900   1.373   1.955   4.484 -0.1209  0.6962  0.7206
 2814SOL    HW119901   1.345   1.986   4.570  0.0228  3.5027 -0.2543
 2814SOL    HW219902   1.293   1.968   4.434 -0.7758 -0.0424  1.5774
 2815SOL     OW19903   0.456   2.818   3.778  0.0030  0.5538  0.2446
 2815SOL    HW119904   0.428   2.729   3.757  0.8064  0.5516 -0.7738
 2815SOL    HW219905   0.450   2.822   3.874  0.9952 -0.2142  0.3381
 2816SOL     OW19906   1.479   4.342  13.853  0.3490 -0.2860 -0.3242
 2816SOL    HW119907   1.510   4.429  13.829 -0.2794  0.2702  0.8825
 2816SOL    HW219908   1.517   4.298  13.777  1.5104  0.9208 -0.4539
 2817SOL     OW19909   3.828   2.841   8.721  0.4823 -0.1287 -0.4785
 2817SOL    HW119910   3.829   2.750   8.753 -0.7942 -0.5230 -1.5641
 2817SOL    HW219911   3.914   2.843   8.680 -0.3759  2.1105 -2.1155
 2818SOL     OW19912   1.642   1.927   9.086  0.1401  0.8676 -0.5486
 2818SOL    HW119913   1.722   1.908   9.135 -0.3331 -1.7555 -0.8133
 2818SOL    HW219914   1.574   1.919   9.153  0.4077  0.3141 -0.3478
 2819SOL     OW19915   4.592   3.998   7.868 -0.0772 -0.2038 -0.0541
 2819SOL    HW119916   4.577   3.994   7.962  1.0767  1.7540  0.2092
 2819SOL    HW219917   4.544   3.918   7.845  0.2275 -0.3013 -0.3508
 2820SOL     OW19918   2.992   4.015  16.736  0.0726  0.1375 -0.0461
 2820SOL    HW119919   2.974   4.011  16.642 -0.5596  2.2781 -0.0129
 2820SOL    HW219920   2.910   3.998  16.781  0.1446  0.7984  0.3291
 2821SOL     OW19921   1.314   2.087   5.593  0.3559  0.5376 -0.0499
 2821SOL    HW119922   1.394   2.114   5.547  0.6738 -1.5950 -0.7570
 2821SOL    HW219923   1.319   1.992   5.587 -1.5939  0.4505 -0.3008
 2822SOL     OW19924   1.173   3.559   0.456 -0.7491  0.1046 -0.1880
 2822SOL    HW119925   1.238   3.607   0.508 -0.5814  1.1749 -1.3838
 2822SOL    HW219926   1.231   3.507   0.400 -2.2363 -0.2023 -1.4617
 2823SOL     OW19927   1.524   0.210   2.628  0.4382  0.4823  0.4624
 2823SOL    HW119928   1.527   0.219   2.533  1.9597 -1.4477  0.3326
 2823SOL    HW219929   1.586   0.138   2.625 -2.3342 -1.7751 -2.1788
 2824SOL     OW19930   2.832   3.094   5.789 -0.2174  0.4611 -0.1851
 2824SOL    HW119931   2.781   3.053   5.859 -0.6039  0.0128 -0.7333
 2824SOL    HW219932   2.784   3.066   5.712 -2.0774  1.6530  0.5427
 2825SOL     OW19933   1.218   2.246   7.689  0.1479  0.0830 -0.3179
 2825SOL    HW119934   1.141   2.234   7.745  0.3845 -0.8551 -0.1958
 2825SOL    HW219935   1.259   2.163   7.712 -0.5972 -0.1634  0.1337
 2826SOL     OW19936   2.753   1.093  13.181 -0.3384  0.1032 -0.5356
 2826SOL    HW119937   2.659   1.085  13.163 -0.5823  1.2475  0.2309
 2826SOL    HW219938   2.783   1.135  13.101  1.1073 -0.3326 -0.2113
 2827SOL     OW19939   0.249   2.424   5.566 -0.1182 -0.2635 -0.6428
 2827SOL    HW119940   0.246   2.515   5.538 -1.6509 -0.0786  0.1783
 2827SOL    HW219941   0.296   2.425   5.649  0.7412 -2.1001 -1.0898
 2828SOL     OW19942   3.967   3.970  14.045 -0.0873  0.1395 -0.1811
 2828SOL    HW119943   3.977   3.879  14.018 -1.0601  0.3446 -1.2248
 2828SOL    HW219944   3.902   4.002  13.984 -0.5368 -0.0866  0.1833
 2829SOL     OW19945   0.454   3.830   8.108  0.0940  0.6003 -0.2662
 2829SOL    HW119946   0.482   3.741   8.128  0.2303  1.0929  1.6602
 2829SOL    HW219947   0.536   3.872   8.082 -0.0229  1.3996  0.6644
 2830SOL     OW19948   1.447   1.734  17.445  1.1535 -0.4125  0.5172
 2830SOL    HW119949   1.441   1.639  17.437 -0.8399 -0.2785  0.4213
 2830SOL    HW219950   1.403   1.766  17.366 -2.1627 -0.2908  2.4116
 2831SOL     OW19951   0.087   2.886   8.548 -0.4599  0.1401  0.0743
 2831SOL    HW119952   0.081   2.831   8.626  1.3896  2.3525  1.7641
 2831SOL    HW219953   4.716   2.909   8.556 -0.2453  1.0293 -0.0380
 2832SOL     OW19954   2.455   0.106   4.227  0.1960 -0.3841 -0.1750
 2832SOL    HW119955   2.363   0.106   4.201 -0.3076  1.6607  1.5592
 2832SOL    HW219956   2.457   0.011   4.232 -1.7113 -0.4290 -0.3197
 2833SOL     OW19957   3.603   3.661   5.509  0.2502 -0.1881  0.6605
 2833SOL    HW119958   3.690   3.660   5.548  0.5443  2.5292  0.0543
 2833SOL    HW219959   3.552   3.671   5.589  0.2085  0.1913  0.5843
 2834SOL     OW19960   4.580   1.519   8.214  0.3797  0.1019 -0.6733
 2834SOL    HW119961   4.614   1.603   8.183 -0.0032  0.2338 -0.7358
 2834SOL    HW219962   4.485   1.526   8.207  0.2781 -1.4776 -0.8669
 2835SOL     OW19963   0.476   0.999  10.593  0.2078 -0.1536 -0.4942
 2835SOL    HW119964   0.418   0.930  10.626  0.6862 -0.3037  0.0169
 2835SOL    HW219965   0.413   1.071  10.601  1.2987  0.9337 -1.7662
 2836SOL     OW19966   3.693   4.228   7.020  0.1634  0.1697 -0.7006
 2836SOL    HW119967   3.679   4.277   7.101  0.7898 -0.3756 -0.2712
 2836SOL    HW219968   3.675   4.138   7.044  0.8449  0.2731  0.1863
 2837SOL     OW19969   1.340   2.628   8.214  0.3658 -0.0858 -0.3073
 2837SOL    HW119970   1.422   2.640   8.166 -0.2399 -0.6777 -1.4677
 2837SOL    HW219971   1.343   2.704   8.273  0.2603 -0.6614  0.4446
 2838SOL     OW19972   0.006   3.117   1.260  0.2161 -0.0676 -0.2039
 2838SOL    HW119973   4.690   3.187   1.205  2.0954 -0.6794 -2.2350
 2838SOL    HW219974   0.005   3.146   1.351  1.6343  2.9383 -1.1491
 2839SOL     OW19975   2.783   1.589   4.439 -0.0679 -0.0340 -0.2640
 2839SOL    HW119976   2.772   1.581   4.534 -0.7693  1.6087 -0.2124
 2839SOL    HW219977   2.839   1.516   4.413 -0.5564  0.2990 -2.3056
 2840SOL     OW19978   3.470   0.456   8.597 -0.0462 -0.3991  0.0178
 2840SOL    HW119979   3.392   0.438   8.545 -0.6696  0.4935  0.6330
 2840SOL    HW219980   3.480   0.551   8.590 -0.8647 -0.2310  1.0514
 2841SOL     OW19981   1.513   2.879   2.211  0.4439  0.4227 -0.7461
 2841SOL    HW119982   1.483   2.793   2.181 -2.3988  0.6608  1.4417
 2841SOL    HW219983   1.454   2.898   2.283 -1.3985  1.1135 -2.4305
 2842SOL     OW19984   4.688   3.485   3.461 -0.0725 -0.0836  0.2574
 2842SOL    HW119985   0.057   3.470   3.432 -0.8472 -0.6898 -1.8820
 2842SOL    HW219986   4.649   3.451   3.380 -1.2878 -1.2933  1.3517
 2843SOL     OW19987   3.779   4.141  11.892  0.2738  1.0224  0.0445
 2843SOL    HW119988   3.827   4.186  11.823  3.4897  0.7584  2.0617
 2843SOL    HW219989   3.846   4.074  11.908 -0.8767 -0.1612 -0.1435
 2844SOL     OW19990   0.038   1.556   4.479  0.0546  0.5384  0.0439
 2844SOL    HW119991   0.111   1.495   4.490  1.5046  1.6445 -3.3337
 2844SOL    HW219992   4.711   1.485   4.434 -0.4957  0.9096  0.0367
 2845SOL     OW19993   0.850   3.997  12.450 -0.2472 -0.2831 -0.4450
 2845SOL    HW119994   0.754   3.991  12.453 -0.3238  1.4197  0.5440
 2845SOL    HW219995   0.878   3.913  12.413  0.9834 -1.3081  2.7469
 2846SOL     OW19996   3.085   3.299  13.375  0.0002  0.4635 -0.0146
 2846SOL    HW119997   3.032   3.220  13.381  0.1063  0.4484  0.8034
 2846SOL    HW219998   3.147   3.277  13.445 -0.4396 -0.0320  0.2143
 2847SOL     OW19999   4.261   2.581   8.216  0.1765 -0.2940  0.4323
 2847SOL    HW120000   4.353   2.584   8.240  0.1873 -1.4352  0.5144
 2847SOL    HW220001   4.233   2.660   8.264 -1.4175 -0.2881 -0.5075
 2848SOL     OW20002   4.699   0.248  12.772  0.2219  0.3265 -0.3584
 2848SOL    HW120003   4.686   0.153  12.774 -1.6616  0.6367  1.5099
 2848SOL    HW220004   4.705   0.280  12.862 -0.9904 -1.6930  0.4381
 2849SOL     OW20005   4.718   1.362   8.409  0.0727 -0.3455 -0.1702
 2849SOL    HW120006   4.688   1.419   8.338 -1.1113  2.1082  2.3344
 2849SOL    HW220007   4.649   1.387   8.471 -1.3824 -0.1995 -1.8181
 2850SOL     OW20008   3.382   2.715  17.235 -0.0812 -0.3460 -0.3126
 2850SOL    HW120009   3.399   2.733  17.143  3.2025  0.4539  0.4761
 2850SOL    HW220010   3.456   2.662  17.264 -1.4155 -0.7904  2.3399
 2851SOL     OW20011   2.736   3.752  15.840  0.0648  1.0137  0.3762
 2851SOL    HW120012   2.819   3.750  15.888  1.7429 -2.3151 -2.6038
 2851SOL    HW220013   2.713   3.844  15.839 -0.5594  0.8637  0.9954
 2852SOL     OW20014   0.656   2.531   9.009  0.6165 -0.2516 -0.2940
 2852SOL    HW120015   0.668   2.568   8.922 -0.2907 -2.0046 -1.1643
 2852SOL    HW220016   0.685   2.441   8.998  0.8336 -0.0998 -0.9365
 2853SOL     OW20017   0.983   2.394  11.185  0.1687 -0.3541 -0.1900
 2853SOL    HW120018   0.966   2.358  11.272 -1.2438  3.9809  1.2908
 2853SOL    HW220019   0.949   2.481  11.204 -0.2845 -0.3742 -0.9472
 2854SOL     OW20020   3.745   4.266   5.348 -0.0346  0.2010  0.4388
 2854SOL    HW120021   3.793   4.326   5.291  1.4810 -1.8236 -0.4071
 2854SOL    HW220022   3.716   4.322   5.419 -2.7436  0.7489 -1.0579
 2855SOL     OW20023   1.310   3.119   8.485 -0.3305 -0.2096 -0.5291
 2855SOL    HW120024   1.230   3.136   8.536  0.7999 -1.1412  1.5189
 2855SOL    HW220025   1.312   3.024   8.489 -0.6901 -0.2058 -0.2020
 2856SOL     OW20026   3.060   4.587   2.620  0.0277  0.5039  0.5472
 2856SOL    HW120027   3.039   4.494   2.629  1.7208  0.1614  0.9327
 2856SOL    HW220028   2.989   4.614   2.679 -0.3495  0.7226 -0.0061
 2857SOL     OW20029   2.409   0.910   5.659 -0.0741  0.6934  0.2889
 2857SOL    HW120030   2.486   0.859   5.637  0.0346  0.9880 -0.0165
 2857SOL    HW220031   2.450   0.983   5.706 -0.3810 -0.0585  1.7125
 2858SOL     OW20032   0.100   0.429   5.932 -0.0493  0.2300  0.3270
 2858SOL    HW120033   0.014   0.469   5.938 -0.4510 -0.5504 -0.1832
 2858SOL    HW220034   0.071   0.337   5.928 -0.3386  0.3098  0.6079
 2859SOL     OW20035   2.822   3.454  11.436 -0.1258 -0.1349  0.0666
 2859SOL    HW120036   2.872   3.525  11.476  1.2051 -0.4288 -1.0754
 2859SOL    HW220037   2.743   3.482  11.482 -0.0266  1.6840 -0.8564
 2860SOL     OW20038   0.235   4.711  11.060 -0.3352  0.3211  0.7377
 2860SOL    HW120039   0.180   4.662  11.121 -0.4919  1.6134  1.6220
 2860SOL    HW220040   0.293   0.038  11.120  0.7582  0.5482 -0.4966
 2861SOL     OW20041   2.210   3.188   1.057  0.1055  0.3044  0.4135
 2861SOL    HW120042   2.187   3.096   1.049  0.8172 -0.0624  2.3820
 2861SOL    HW220043   2.136   3.220   1.006 -0.6417 -1.2834  0.4909
 2862SOL     OW20044   4.351   4.123   1.458  0.2091  0.2498  0.5170
 2862SOL    HW120045   4.391   4.037   1.459  3.0234  1.5352 -1.5944
 2862SOL    HW220046   4.415   4.169   1.513  0.9907  0.5212 -0.6414
 2863SOL     OW20047   4.630   4.593  13.427  0.0694 -0.1051  0.3836
 2863SOL    HW120048   4.685   4.600  13.505 -0.4021  0.0223  0.7089
 2863SOL    HW220049   4.547   4.571  13.468  0.9322  0.7641  2.5780
 2864SOL     OW20050   4.075   3.985   4.429  0.7308 -0.5611 -0.5613
 2864SOL    HW120051   4.046   4.074   4.407  0.8209 -0.2039  0.7877
 2864SOL    HW220052   4.033   3.932   4.361 -0.0292  1.2441 -1.5015
 2865SOL     OW20053   3.287   1.132   6.577  0.1588  0.1180 -0.3370
 2865SOL    HW120054   3.305   1.055   6.631  1.6035  0.5202 -0.2462
 2865SOL    HW220055   3.296   1.084   6.495  1.7062 -0.5270  0.2097
 2866SOL     OW20056   2.459   3.865   6.019 -0.0485 -0.6663  0.3754
 2866SOL    HW120057   2.530   3.810   5.985  0.5271  0.4515 -0.2366
 2866SOL    HW220058   2.415   3.797   6.069 -1.2815 -0.0545  0.1309
 2867SOL     OW20059   2.767   0.612   2.368  0.8061  0.2654 -0.0088
 2867SOL    HW120060   2.847   0.662   2.352  0.0100  0.9218 -1.8337
 2867SOL    HW220061   2.804   0.541   2.422  1.6385  0.9917  0.3804
 2868SOL     OW20062   0.738   4.366   5.103 -0.1646 -0.2087  0.1635
 2868SOL    HW120063   0.697   4.313   5.035  2.5419  0.0163 -1.6262
 2868SOL    HW220064   0.680   4.343   5.176  0.7364  1.2612  1.3274
 2869SOL     OW20065   3.709   1.162   2.141 -0.6330  0.4417 -0.5840
 2869SOL    HW120066   3.634   1.220   2.154 -1.0687 -0.1575 -0.4268
 2869SOL    HW220067   3.721   1.182   2.048  0.9399 -1.9197 -0.9008
 2870SOL     OW20068   0.056   3.591  11.639  1.2797 -0.2576  0.1899
 2870SOL    HW120069   0.065   3.570  11.733 -1.0034  0.1704  0.5103
 2870SOL    HW220070   0.148   3.588  11.614  1.4246  2.2389  0.4580
 2871SOL     OW20071   2.793   1.601   5.547  0.0445 -0.7341 -0.1695
 2871SOL    HW120072   2.740   1.680   5.536  0.2283 -0.3960  1.3689
 2871SOL    HW220073   2.820   1.592   5.638 -0.7428 -1.2889  0.0016
 2872SOL     OW20074   2.102   2.775   6.326  0.2046 -0.1998  0.6647
 2872SOL    HW120075   2.184   2.793   6.280  0.8652 -0.6649  1.6713
 2872SOL    HW220076   2.099   2.679   6.324 -0.2069 -0.1921  0.9748
 2873SOL     OW20077   0.845   1.464  11.161 -0.0371 -0.2419  0.5449
 2873SOL    HW120078   0.808   1.549  11.186 -2.2345 -1.4258  1.3713
 2873SOL    HW220079   0.764   1.412  11.168  0.1582 -0.6352 -0.1416
 2874SOL     OW20080   2.509   0.705   6.969  0.1808 -0.3572 -0.2036
 2874SOL    HW120081   2.531   0.741   7.055 -1.2385 -1.8608  0.8067
 2874SOL    HW220082   2.486   0.615   6.993  0.7836 -0.9233 -1.7399
 2875SOL     OW20083   3.166   2.979   7.689  0.5931  0.1137 -0.0307
 2875SOL    HW120084   3.131   3.016   7.769  0.6803  3.8271 -1.7304
 2875SOL    HW220085   3.094   2.921   7.665 -0.2848 -0.2088  3.5034
 2876SOL     OW20086   1.296   2.927  14.293  0.1074 -0.0883 -0.4240
 2876SOL    HW120087   1.236   2.980  14.241 -0.3277  0.2417  0.4171
 2876SOL    HW220088   1.359   2.897  14.227  0.2434 -0.2573 -0.2146
 2877SOL     OW20089   2.229   2.457   8.071 -0.0002  0.1192 -0.0501
 2877SOL    HW120090   2.234   2.443   8.165  3.3712  1.4939  0.0040
 2877SOL    HW220091   2.321   2.483   8.063  0.2872 -1.2869 -1.2840
 2878SOL     OW20092   3.634   0.079  13.174 -0.0159 -0.2937  0.6333
 2878SOL    HW120093   3.675   0.158  13.209  0.7768 -0.2647 -0.3834
 2878SOL    HW220094   3.693   0.017  13.215 -1.0673 -2.3282 -0.9386
 2879SOL     OW20095   3.765   2.781   3.689  0.4301 -0.7762 -0.6876
 2879SOL    HW120096   3.735   2.851   3.631 -0.4857 -0.0971  0.5990
 2879SOL    HW220097   3.684   2.754   3.733  1.0587  0.3453  1.1153
 2880SOL     OW20098   3.572   4.521   3.281  0.3493  0.3605 -0.1456
 2880SOL    HW120099   3.638   4.475   3.228 -0.7166 -1.2865 -0.0706
 2880SOL    HW220100   3.508   4.534   3.211  0.9959 -1.0859 -1.0192
 2881SOL     OW20101   4.097   1.387   9.338 -0.7590 -0.3979  0.6987
 2881SOL    HW120102   4.038   1.379   9.413 -0.8262  1.4862  0.8465
 2881SOL    HW220103   4.150   1.455   9.380  1.5882 -1.4127 -0.6227
 2882SOL     OW20104   3.205   0.990   5.400  0.2722  0.3102  0.6278
 2882SOL    HW120105   3.216   0.976   5.494 -1.3161 -2.4298  0.4005
 2882SOL    HW220106   3.278   0.940   5.364  0.5906 -0.0747  1.8235
 2883SOL     OW20107   0.859   4.082   2.021  0.0784 -0.2970 -0.1071
 2883SOL    HW120108   0.830   4.051   1.935 -1.0844 -0.2673  0.2731
 2883SOL    HW220109   0.954   4.075   2.008  0.0973  0.1701 -0.2272
 2884SOL     OW20110   1.235   1.152  10.696  0.0414  0.0837 -0.0835
 2884SOL    HW120111   1.272   1.210  10.763  0.0459  0.0628 -0.0677
 2884SOL    HW220112   1.243   1.067  10.739  1.0913  0.1353 -0.1699
 2885SOL     OW20113   4.267   2.570   5.338  0.2353  0.0811 -0.7218
 2885SOL    HW120114   4.333   2.605   5.278 -1.2400  4.6187  0.2756
 2885SOL    HW220115   4.300   2.591   5.426  1.7233 -0.0139 -1.2508
 2886SOL     OW20116   1.897   1.926   7.768  0.2062  0.1106  0.1338
 2886SOL    HW120117   1.910   1.841   7.725 -1.3814  0.3618 -0.8597
 2886SOL    HW220118   1.897   1.981   7.690 -0.8463  0.7617  0.5969
 2887SOL     OW20119   1.936   3.375   4.078 -0.5029  0.4400  0.2987
 2887SOL    HW120120   1.958   3.335   3.994  0.8623 -1.6463  1.6444
 2887SOL    HW220121   2.016   3.423   4.103 -1.0976  0.8531  1.4191
 2888SOL     OW20122   4.241   0.574   0.606  0.0789  1.4444 -0.1303
 2888SOL    HW120123   4.296   0.648   0.630  2.5205 -0.8090  1.1922
 2888SOL    HW220124   4.219   0.587   0.513  1.3571  0.2829 -0.5994
 2889SOL     OW20125   4.548   4.233   1.615 -0.0941 -0.1764 -0.0791
 2889SOL    HW120126   4.551   4.324   1.585 -0.8593 -0.4333 -0.9351
 2889SOL    HW220127   4.640   4.209   1.622 -0.1081 -0.0954  0.3658
 2890SOL     OW20128   2.077   2.455   6.303 -0.5762  0.5118 -0.7495
 2890SOL    HW120129   2.114   2.375   6.340 -2.7981 -0.9284 -1.6026
 2890SOL    HW220130   1.988   2.428   6.324 -0.6054  1.2863  0.1189
 2891SOL     OW20131   2.238   2.730   5.204 -0.3033  0.1226 -0.1785
 2891SOL    HW120132   2.146   2.757   5.196 -0.3728  0.0410  0.3519
 2891SOL    HW220133   2.298   2.804   5.194 -1.4001  1.0633  0.2223
 2892SOL     OW20134   3.846   4.387   1.348  0.0312 -0.2959  0.5706
 2892SOL    HW120135   3.757   4.389   1.383 -0.6132  2.2963 -1.1680
 2892SOL    HW220136   3.819   4.338   1.271  0.4506  1.8316 -0.9548
 2893SOL     OW20137   4.699   2.709   9.249 -0.0890 -0.0979 -0.1918
 2893SOL    HW120138   4.610   2.674   9.256 -1.1889  2.7062 -0.2267
 2893SOL    HW220139   4.694   2.782   9.310 -1.4078 -0.7539  0.4914
 2894SOL     OW20140   2.683   3.689   4.549 -0.0944  0.5305  0.0769
 2894SOL    HW120141   2.640   3.713   4.466 -1.7123  0.6945  0.9523
 2894SOL    HW220142   2.680   3.769   4.602 -0.5637  1.2273 -0.9879
 2895SOL     OW20143   0.839   4.391   2.545 -0.3217  0.0122  0.5645
 2895SOL    HW120144   0.925   4.354   2.564 -0.2865  0.5858  1.4994
 2895SOL    HW220145   0.791   4.382   2.627 -0.4772 -0.5980  0.4032
 2896SOL     OW20146   0.337   0.388  15.509  0.4197 -0.0976 -0.1934
 2896SOL    HW120147   0.360   0.331  15.436 -1.3844 -1.7579  0.5336
 2896SOL    HW220148   0.311   0.472  15.470  0.6415  0.2802  0.4559
 2897SOL     OW20149   2.431   4.616   1.301 -0.0040  0.0284  0.1507
 2897SOL    HW120150   2.349   4.632   1.346  1.1545 -0.1961  2.3646
 2897SOL    HW220151   2.461   4.706   1.286  0.7484 -0.3359 -0.5890
 2898SOL     OW20152   4.669   3.422   7.531 -0.2310 -0.2497  0.3205
 2898SOL    HW120153   4.609   3.483   7.575  0.4895  0.0214  0.9228
 2898SOL    HW220154   0.030   3.472   7.524 -0.1515 -0.1850  1.6083
 2899SOL     OW20155   1.250   4.238   8.246  0.0809 -0.0642 -0.0770
 2899SOL    HW120156   1.211   4.218   8.331  1.3436 -3.8343 -0.4040
 2899SOL    HW220157   1.339   4.244   8.279 -1.2602 -1.0677  3.6947
 2900SOL     OW20158   4.414   2.174  12.675 -0.0963  0.1321  0.8005
 2900SOL    HW120159   4.361   2.238  12.629  0.4565  0.2873  0.3738
 2900SOL    HW220160   4.490   2.232  12.674 -0.3749  0.4802  0.2108
 2901SOL     OW20161   2.961   2.697   4.351  0.2329 -0.2652  0.2704
 2901SOL    HW120162   2.881   2.701   4.404 -0.0943  2.8882 -0.4243
 2901SOL    HW220163   3.023   2.755   4.396  0.1937 -1.4222  1.8115
 2902SOL     OW20164   3.121   2.263   5.757 -0.8023  0.1121  0.1034
 2902SOL    HW120165   3.100   2.170   5.756 -0.2754 -0.0005 -0.3051
 2902SOL    HW220166   3.102   2.287   5.666  1.3181 -0.8422 -0.5911
 2903SOL     OW20167   0.323   1.308   0.529  0.5186 -0.5553  0.0140
 2903SOL    HW120168   0.409   1.282   0.495  0.5993  1.5866 -1.4207
 2903SOL    HW220169   0.335   1.275   0.618 -0.8553  2.2878  1.2429
 2904SOL     OW20170   1.354   1.085   5.487  0.0048 -0.1013  0.5072
 2904SOL    HW120171   1.410   1.148   5.441 -0.1014  0.1934  0.7792
 2904SOL    HW220172   1.398   1.006   5.456  0.3699  0.4637 -0.4460
 2905SOL     OW20173   1.540   3.608   7.206 -0.4389 -0.3117  0.0937
 2905SOL    HW120174   1.486   3.650   7.139 -0.4360  0.0152  0.2935
 2905SOL    HW220175   1.467   3.600   7.268 -2.3371  0.0346 -2.1086
 2906SOL     OW20176   4.128   3.015   1.698  0.2755  0.4622  0.1563
 2906SOL    HW120177   4.135   2.921   1.681  0.8807  0.0909  2.4531
 2906SOL    HW220178   4.125   3.020   1.794  0.0036  0.9260  0.1267
 2907SOL     OW20179   0.971   2.649   6.262  0.0648  0.1334  0.0921
 2907SOL    HW120180   1.024   2.651   6.341  0.9612 -1.5301 -0.4828
 2907SOL    HW220181   0.950   2.743   6.258 -0.8194 -0.1446 -1.6912
 2908SOL     OW20182   0.632   3.487  11.106 -0.3709 -0.3465  0.6239
 2908SOL    HW120183   0.727   3.484  11.099 -0.3795 -2.0943  1.1626
 2908SOL    HW220184   0.600   3.397  11.098  0.3311 -0.3602 -1.9101
 2909SOL     OW20185   0.099   4.203   7.205 -0.2773  0.1634  0.0689
 2909SOL    HW120186   0.178   4.246   7.237 -1.2787  1.2189  1.1099
 2909SOL    HW220187   0.123   4.184   7.114 -1.9352  3.8329 -1.1655
 2910SOL     OW20188   3.367   0.300  10.685 -0.1864  0.0580 -0.5099
 2910SOL    HW120189   3.424   0.224  10.700  1.4989  1.7705  1.7340
 2910SOL    HW220190   3.414   0.374  10.724  0.6464 -1.2738  1.0107
 2911SOL     OW20191   1.851   0.927   2.671 -1.0209  0.1864 -0.4804
 2911SOL    HW120192   1.849   0.932   2.576  1.5997  0.5889 -0.5306
 2911SOL    HW220193   1.845   1.021   2.684  0.2372  0.0910  0.8609
 2912SOL     OW20194   3.832   3.054   7.330 -0.1568 -0.8436 -0.5272
 2912SOL    HW120195   3.775   2.995   7.379  0.3265 -0.1395  0.8839
 2912SOL    HW220196   3.888   2.994   7.281  1.5391  0.2867  0.0159
 2913SOL     OW20197   3.611   1.202   1.346  0.6679  0.3012 -0.0347
 2913SOL    HW120198   3.652   1.183   1.430 -2.8649 -1.7667  1.2285
 2913SOL    HW220199   3.658   1.142   1.288 -1.8838 -0.5020 -1.3037
 2914SOL     OW20200   2.302   1.847   8.589 -0.3492  0.9294 -0.2976
 2914SOL    HW120201   2.291   1.756   8.561  1.6227  1.3534 -2.4012
 2914SOL    HW220202   2.283   1.890   8.505 -0.4386  1.5448  0.0369
 2915SOL     OW20203   0.757   0.849   4.219 -0.3341  0.2207  0.1101
 2915SOL    HW120204   0.686   0.798   4.258  1.4891 -0.6738  2.2545
 2915SOL    HW220205   0.754   0.808   4.133 -1.4737  3.3355 -1.3366
 2916SOL     OW20206   3.715   3.084   4.337 -0.0044  0.0700 -0.5644
 2916SOL    HW120207   3.759   3.004   4.310  0.5632  0.2830 -0.2675
 2916SOL    HW220208   3.651   3.049   4.399 -0.7469 -2.2871 -2.6666
 2917SOL     OW20209   2.688   0.701   1.796  0.2344  0.0456 -0.2382
 2917SOL    HW120210   2.599   0.724   1.822 -0.2901 -1.1758 -0.9499
 2917SOL    HW220211   2.664   0.627   1.741 -2.2950  0.4861  0.2677
 2918SOL     OW20212   0.827   3.337   2.159  0.6698  0.4396  0.0633
 2918SOL    HW120213   0.915   3.349   2.194  0.2599 -1.2073  1.6523
 2918SOL    HW220214   0.844   3.263   2.100 -1.7793 -0.1556  0.0880
 2919SOL     OW20215   0.037   1.661   9.905 -0.4867  0.3798  0.6295
 2919SOL    HW120216   0.037   1.615   9.821 -1.5694 -0.5191  1.1219
 2919SOL    HW220217   4.686   1.614   9.947 -0.1304 -0.3567  0.4213
 2920SOL     OW20218   2.550   3.849   3.388 -0.4939  0.3527  0.6548
 2920SOL    HW120219   2.579   3.812   3.305  1.3377  0.5420  1.2223
 2920SOL    HW220220   2.614   3.810   3.447  0.6194  0.6758 -0.3350
 2921SOL     OW20221   0.807   4.519  11.930 -0.5090 -0.0444  0.7635
 2921SOL    HW120222   0.872   4.481  11.989  2.6593  2.1549 -1.3055
 2921SOL    HW220223   0.796   4.457  11.858 -2.5033  1.9654 -0.6699
 2922SOL     OW20224   2.976   1.601   1.377  0.5547  0.0835  0.3676
 2922SOL    HW120225   2.892   1.635   1.345 -0.0046 -2.0960 -0.4857
 2922SOL    HW220226   2.967   1.514   1.339  0.3148 -0.2147  1.0975
 2923SOL     OW20227   1.733   2.703   9.914 -0.5235 -0.5231  0.0106
 2923SOL    HW120228   1.743   2.682  10.007  1.2720 -0.5218 -0.1840
 2923SOL    HW220229   1.640   2.722   9.904 -0.3567  0.0551 -0.4149
 2924SOL     OW20230   4.503   3.137   5.744  0.5607 -0.1075  0.1872
 2924SOL    HW120231   4.493   3.095   5.658  1.5060 -0.1872  0.1199
 2924SOL    HW220232   4.593   3.169   5.739  0.8728 -0.8497  1.1609
 2925SOL     OW20233   3.294   1.287   7.484  0.0656  0.6124 -0.3905
 2925SOL    HW120234   3.338   1.317   7.564  0.5955 -0.4756 -0.2799
 2925SOL    HW220235   3.306   1.367   7.433  0.5472  1.2967  0.7974
 2926SOL     OW20236   2.934   4.320   2.355  0.1152 -0.1972 -0.1403
 2926SOL    HW120237   3.024   4.321   2.389  0.3963  3.4983 -0.9500
 2926SOL    HW220238   2.953   4.319   2.262 -1.0869 -2.4443 -0.3366
 2927SOL     OW20239   1.519   3.823   5.332 -0.0995 -0.1642 -0.2091
 2927SOL    HW120240   1.433   3.866   5.326 -0.2777 -0.6693 -1.2897
 2927SOL    HW220241   1.554   3.874   5.405  4.8364 -2.2323 -1.1289
 2928SOL     OW20242   3.454   2.692   4.848  0.2299 -0.3338 -0.2933
 2928SOL    HW120243   3.469   2.779   4.811 -0.6058 -1.2533 -2.7847
 2928SOL    HW220244   3.541   2.656   4.830 -1.0452 -2.7839 -1.5617
 2929SOL     OW20245   0.482   3.803   2.921 -0.0171  0.1660 -0.4311
 2929SOL    HW120246   0.518   3.806   3.010  0.1515  0.3238 -0.5046
 2929SOL    HW220247   0.397   3.847   2.928 -0.0343 -0.0880  1.0353
 2930SOL     OW20248   3.594   2.070   0.845 -0.2250  0.1270  0.5798
 2930SOL    HW120249   3.604   2.038   0.755 -2.5284  1.1416 -0.0574
 2930SOL    HW220250   3.517   2.023   0.877 -0.1384 -0.0918  0.4683
 2931SOL     OW20251   3.259   4.546   0.029 -0.2613  0.3067 -0.2683
 2931SOL    HW120252   3.250   4.451   0.040  3.2058  0.1848  1.4054
 2931SOL    HW220253   3.223   4.585   0.108  2.2958 -1.0836  1.5631
 2932SOL     OW20254   1.660   1.004   3.181 -0.3811  0.2410 -0.2851
 2932SOL    HW120255   1.638   1.008   3.274  1.2777 -0.0027  0.1177
 2932SOL    HW220256   1.575   0.975   3.147  0.3023 -1.8256 -0.2338
 2933SOL     OW20257   3.819   0.644   3.046 -0.0922 -0.2661 -0.5345
 2933SOL    HW120258   3.829   0.739   3.039  0.2366 -0.2400  0.2691
 2933SOL    HW220259   3.902   0.630   3.002  0.5782  2.8107 -0.2782
 2934SOL     OW20260   2.355   1.621  10.974  0.0398  0.1750 -0.0691
 2934SOL    HW120261   2.355   1.630  10.879  0.5872  0.2581 -0.0631
 2934SOL    HW220262   2.405   1.701  10.995  1.2582 -0.6304  0.1310
 2935SOL     OW20263   0.362   0.204   2.254  0.0492  0.0382  0.7795
 2935SOL    HW120264   0.357   0.151   2.334  2.3903  0.0093  0.9184
 2935SOL    HW220265   0.275   0.191   2.217 -1.1376  0.9415  3.3002
 2936SOL     OW20266   1.784   3.851  11.628 -0.3508  0.0668 -0.5726
 2936SOL    HW120267   1.830   3.769  11.642 -2.5593 -1.3755 -1.8929
 2936SOL    HW220268   1.853   3.896  11.579 -0.2625  0.2916 -0.2422
 2937SOL     OW20269   0.326   1.466   5.502 -0.6880 -0.3152  0.2493
 2937SOL    HW120270   0.351   1.454   5.594 -1.8931 -2.4389  0.3097
 2937SOL    HW220271   0.267   1.541   5.498  1.7984  1.5856 -0.5356
 2938SOL     OW20272   0.569   3.030  15.646  0.2646 -0.2085  0.2254
 2938SOL    HW120273   0.583   3.013  15.553  0.4846  1.3523 -0.0402
 2938SOL    HW220274   0.629   2.965  15.681  0.6588 -1.1033 -2.1545
 2939SOL     OW20275   0.734   3.013   4.696 -0.3058 -0.5171 -0.1437
 2939SOL    HW120276   0.693   2.927   4.691 -1.1148 -0.1640  0.4986
 2939SOL    HW220277   0.721   3.030   4.789 -0.8892  0.1057 -0.3416
 2940SOL     OW20278   1.526   0.851   9.501  0.4024  0.1394 -0.0375
 2940SOL    HW120279   1.554   0.811   9.583 -0.6531  0.5546  0.5145
 2940SOL    HW220280   1.587   0.817   9.435  1.5375  2.5577 -0.2057
 2941SOL     OW20281   2.357   2.628   2.884  0.4657 -0.2245 -0.3640
 2941SOL    HW120282   2.329   2.719   2.877 -0.7763 -0.4729  1.2020
 2941SOL    HW220283   2.411   2.641   2.962 -0.4723  0.2780  0.2055
 2942SOL     OW20284   4.382   2.214   8.272  0.1972 -0.4208 -0.5780
 2942SOL    HW120285   4.349   2.164   8.347  0.4128 -0.9405 -0.8308
 2942SOL    HW220286   4.406   2.152   8.202 -0.3152 -0.5652 -0.6236
 2943SOL     OW20287   0.939   4.391   4.914 -0.2954 -0.4542  0.9217
 2943SOL    HW120288   1.002   4.327   4.882  0.7549  1.9635 -1.8262
 2943SOL    HW220289   0.903   4.334   4.981 -1.2640  1.2457  1.8450
 2944SOL     OW20290   0.737   3.801   6.557  0.2109 -0.2624  0.3769
 2944SOL    HW120291   0.774   3.799   6.469 -4.3775  1.9800 -1.6308
 2944SOL    HW220292   0.659   3.748   6.545 -0.1876 -0.3714  3.4325
 2945SOL     OW20293   4.357   0.311   6.062  0.5217  0.4622 -0.1623
 2945SOL    HW120294   4.296   0.278   6.127  0.6562  1.9518  0.7071
 2945SOL    HW220295   4.322   0.274   5.981 -1.0866  0.8193  0.3791
 2946SOL     OW20296   0.582   1.536   9.643 -0.5961  0.2455 -0.2225
 2946SOL    HW120297   0.530   1.459   9.620  2.0956 -1.1993 -1.4826
 2946SOL    HW220298   0.654   1.530   9.580 -0.3917 -0.6002  0.0958
 2947SOL     OW20299   3.233   4.518   1.753 -0.4270 -0.4737  0.2036
 2947SOL    HW120300   3.299   4.452   1.730 -0.8786 -0.9884  0.3788
 2947SOL    HW220301   3.188   4.470   1.822  0.1451 -0.2784  0.7151
 2948SOL     OW20302   0.434   4.465   2.906 -0.2399 -0.9389 -0.3910
 2948SOL    HW120303   0.478   4.460   2.991 -1.3253  0.2022  0.2335
 2948SOL    HW220304   0.455   4.554   2.879  0.9966 -2.2680 -3.9062
 2949SOL     OW20305   1.920   0.060   3.575  0.1163  0.2010 -0.2777
 2949SOL    HW120306   1.882   0.101   3.652  0.3381  1.3284 -0.7573
 2949SOL    HW220307   1.910   4.689   3.598  1.2887  0.0381 -0.4158
 2950SOL     OW20308   1.939   0.878   0.619 -0.3911 -0.1636  0.2969
 2950SOL    HW120309   1.929   0.927   0.537 -0.1250 -1.5144 -0.5515
 2950SOL    HW220310   1.983   0.939   0.678 -0.2101 -1.4775  1.5218
 2951SOL     OW20311   2.538   0.315   6.047 -0.2992 -0.0812  0.1872
 2951SOL    HW120312   2.522   0.283   6.136 -0.1718  0.7748  0.5099
 2951SOL    HW220313   2.522   0.231   6.003  0.3534  0.0484 -0.2916
 2952SOL     OW20314   2.841   0.192   8.090  0.6380  0.4740  0.5072
 2952SOL    HW120315   2.886   0.163   8.170  1.3640  0.3695  0.0554
 2952SOL    HW220316   2.887   0.273   8.068  1.0834  0.7376  2.3672
 2953SOL     OW20317   1.809   0.790   3.072 -0.2116 -0.3164  0.1711
 2953SOL    HW120318   1.882   0.847   3.047 -0.7616  0.0260 -0.6601
 2953SOL    HW220319   1.748   0.854   3.109  0.9514  1.7366 -1.4323
 2954SOL     OW20320   4.452   3.935   0.478 -0.1044  0.3055  0.2171
 2954SOL    HW120321   4.374   3.892   0.443 -0.4796 -2.2785  4.2215
 2954SOL    HW220322   4.457   4.017   0.429 -0.3460 -0.1614 -0.6097
 2955SOL     OW20323   3.369   1.128   9.326  0.2025 -0.0261  0.5221
 2955SOL    HW120324   3.345   1.171   9.408  1.7922  1.8148  0.0220
 2955SOL    HW220325   3.464   1.138   9.327  0.3399 -1.0557 -0.9600
 2956SOL     OW20326   2.355   2.644   1.568 -0.6576  0.6856 -0.5484
 2956SOL    HW120327   2.327   2.662   1.478  0.9067  0.8862 -0.9787
 2956SOL    HW220328   2.417   2.572   1.556  0.2922  1.7512 -1.9608
 2957SOL     OW20329   4.387   3.196   0.625  0.0740 -0.5511  0.0001
 2957SOL    HW120330   4.468   3.173   0.579  0.8335 -0.8091  1.4556
 2957SOL    HW220331   4.321   3.143   0.580 -1.1889  0.4666  0.6754
 2958SOL     OW20332   3.610   3.071  14.105  0.1021 -0.5114 -0.2907
 2958SOL    HW120333   3.602   2.976  14.114  1.4976 -0.5612  0.4354
 2958SOL    HW220334   3.596   3.074  14.010 -1.4713  3.4966  0.0611
 2959SOL     OW20335   2.532   3.285   5.845 -0.3847 -0.0962 -0.3075
 2959SOL    HW120336   2.546   3.370   5.804 -3.1022  2.1057  3.3140
 2959SOL    HW220337   2.593   3.234   5.792 -0.7219 -0.5842 -0.2330
 2960SOL     OW20338   3.326   0.968   6.347 -0.2226  0.1970  0.3485
 2960SOL    HW120339   3.268   0.893   6.359 -0.1137 -0.2083 -1.7409
 2960SOL    HW220340   3.334   0.958   6.252  1.6865  1.1585  0.3973
 2961SOL     OW20341   3.404   0.321   2.911 -0.2296 -0.0002 -0.1095
 2961SOL    HW120342   3.462   0.382   2.956  0.6929 -0.4764 -0.6610
 2961SOL    HW220343   3.389   0.367   2.829  0.6365 -1.9483 -1.3527
 2962SOL     OW20344   1.081   3.532   8.849 -0.4363  0.0874  0.1373
 2962SOL    HW120345   1.104   3.578   8.768  1.9186  0.6559  1.1327
 2962SOL    HW220346   1.163   3.542   8.897  0.1309 -1.2228 -0.5427
 2963SOL     OW20347   4.386   2.473   4.037  0.2974 -0.4581 -0.5000
 2963SOL    HW120348   4.461   2.460   4.095 -0.0183 -0.2029 -0.0339
 2963SOL    HW220349   4.335   2.394   4.054  0.8429 -0.2650  1.9897
 2964SOL     OW20350   4.130   1.952   5.109 -0.1357 -0.1679 -0.2506
 2964SOL    HW120351   4.120   2.016   5.181  1.6467 -0.8751  0.6288
 2964SOL    HW220352   4.070   1.880   5.124  1.7157 -1.9927 -1.5697
 2965SOL     OW20353   2.600   2.565  12.668  0.2859  0.7051 -0.0124
 2965SOL    HW120354   2.596   2.474  12.695  1.6364  0.9625  1.0933
 2965SOL    HW220355   2.590   2.560  12.573  1.2430 -1.6932  0.0237
 2966SOL     OW20356   1.384   2.137  15.888  0.5181  0.3196 -0.4723
 2966SOL    HW120357   1.316   2.165  15.949  0.5280  0.3035 -0.4539
 2966SOL    HW220358   1.391   2.210  15.826 -2.6783  2.0506  1.1969
 2967SOL     OW20359   4.432   2.558   5.564  0.1828 -0.6091  0.2451
 2967SOL    HW120360   4.404   2.641   5.603  0.3494 -1.3868  2.0504
 2967SOL    HW220361   4.485   2.523   5.636  2.0271  0.3328 -0.6589
 2968SOL     OW20362   3.346   1.677   0.735 -0.4060  0.4035 -0.5660
 2968SOL    HW120363   3.367   1.588   0.763 -1.2139  0.9554  1.8258
 2968SOL    HW220364   3.250   1.681   0.728 -0.5224  0.2283  0.8301
 2969SOL     OW20365   2.595   3.449  17.413  0.1723  0.4335 -0.1797
 2969SOL    HW120366   2.505   3.461  17.381 -0.3589 -2.1384  0.3918
 2969SOL    HW220367   2.639   3.403  17.341 -0.6050  1.3694 -1.2658
 2970SOL     OW20368   4.090   2.406   6.651 -0.3402 -0.3494 -0.6280
 2970SOL    HW120369   4.092   2.325   6.703 -1.4061  0.4707  0.7005
 2970SOL    HW220370   3.999   2.428   6.631 -0.3595  0.0337 -0.1193
 2971SOL     OW20371   4.505   3.603  10.516  0.1013 -0.2679 -0.3681
 2971SOL    HW120372   4.432   3.574  10.571 -3.4541  2.2715 -3.7505
 2971SOL    HW220373   4.520   3.526  10.460  2.5998  0.4557 -0.7027
 2972SOL     OW20374   0.828   3.941  17.349  0.0257  0.2776 -1.0991
 2972SOL    HW120375   0.922   3.927  17.359 -0.1690 -0.5344 -0.4503
 2972SOL    HW220376   0.811   3.902  17.263  1.7602  0.2370 -1.4258
 2973SOL     OW20377   4.260   3.504   7.334  0.3006  0.1288 -0.4226
 2973SOL    HW120378   4.179   3.555   7.331  0.2159 -0.0447 -1.0265
 2973SOL    HW220379   4.252   3.489   7.428  1.0857 -1.1538 -0.5563
 2974SOL     OW20380   3.802   4.690   6.491 -0.7372 -0.0094  0.0398
 2974SOL    HW120381   3.748   4.706   6.568  0.8372  1.3039  0.8678
 2974SOL    HW220382   3.826   4.599   6.511 -1.1848 -0.3338 -0.9091
 2975SOL     OW20383   3.152   1.049  17.515  0.5133 -0.9865  0.3467
 2975SOL    HW120384   3.070   1.002  17.532  0.1386 -0.2213  0.6699
 2975SOL    HW220385   3.170   1.110  17.586  0.4580 -1.2439  0.5817
 2976SOL     OW20386   0.800   2.072   7.403  0.2398  0.0983  0.2126
 2976SOL    HW120387   0.867   2.139   7.414  1.4511 -0.6989 -2.3433
 2976SOL    HW220388   0.730   2.087   7.467 -0.8890 -0.6646 -0.8450
 2977SOL     OW20389   3.237   3.477   6.009  0.0233 -0.7588  0.0282
 2977SOL    HW120390   3.150   3.462   6.044  0.5367 -0.3918  1.4442
 2977SOL    HW220391   3.217   3.490   5.916  0.2847 -2.1086 -0.2135
 2978SOL     OW20392   0.033   4.592   5.983 -0.2611 -0.1173  0.5042
 2978SOL    HW120393   0.050   4.539   5.905  1.9357  2.2767 -0.6496
 2978SOL    HW220394   0.122   4.607   6.014  1.1372 -0.1766 -3.3983
 2979SOL     OW20395   0.554   1.571   6.899  0.0396 -0.0710  0.7962
 2979SOL    HW120396   0.527   1.498   6.956  3.7371 -2.2224 -0.2628
 2979SOL    HW220397   0.533   1.644   6.957 -1.1087  0.0239  0.2762
 2980SOL     OW20398   2.248   1.956   7.870 -0.2672  0.1810  0.1022
 2980SOL    HW120399   2.273   1.866   7.852  1.9528  0.7282  0.3747
 2980SOL    HW220400   2.245   1.987   7.780 -2.1635  0.7794  0.3673
 2981SOL     OW20401   1.607   4.475  15.798  0.2377  0.1474  0.0066
 2981SOL    HW120402   1.528   4.473  15.851  1.1515 -1.0763  1.3131
 2981SOL    HW220403   1.586   4.540  15.731 -0.9965 -0.7875 -0.4863
 2982SOL     OW20404   3.125   4.348   9.382 -0.1556 -0.7623  0.1460
 2982SOL    HW120405   3.078   4.377   9.460  1.1846  2.7050 -0.3445
 2982SOL    HW220406   3.049   4.340   9.324  1.4746  0.0361 -2.1116
 2983SOL     OW20407   2.573   1.003   6.300  0.6746  0.2527 -0.1193
 2983SOL    HW120408   2.498   1.046   6.257  0.2303  0.0859  0.4895
 2983SOL    HW220409   2.580   1.063   6.374  0.3840 -0.7653  0.7291
 2984SOL     OW20410   0.230   2.060   4.092  0.5349  0.3049  0.7618
 2984SOL    HW120411   0.209   2.050   4.184 -0.0139  1.4413  0.7602
 2984SOL    HW220412   0.233   1.967   4.068  1.8144  0.8295 -1.1296
 2985SOL     OW20413   3.808   4.711   1.602 -0.5431 -0.5332  0.3897
 2985SOL    HW120414   3.829   4.681   1.514  0.0965  0.2038  0.2876
 2985SOL    HW220415   3.736   4.651   1.625 -0.7106 -0.2496  0.6075
 2986SOL     OW20416   3.511   2.849  13.142  0.4641  0.0525 -0.3015
 2986SOL    HW120417   3.485   2.939  13.123 -0.1217 -0.2627 -0.9797
 2986SOL    HW220418   3.572   2.868  13.214  2.3986 -1.9922 -1.3974
 2987SOL     OW20419   2.647   4.131   3.486 -0.0751 -0.0034  0.3116
 2987SOL    HW120420   2.565   4.181   3.488  1.3989  2.4687 -0.2370
 2987SOL    HW220421   2.623   4.047   3.448 -0.9814 -1.2812  3.7147
 2988SOL     OW20422   1.474   0.056   6.342  0.4475 -0.3496  0.1599
 2988SOL    HW120423   1.405   4.711   6.348  1.9201 -1.8656  0.5029
 2988SOL    HW220424   1.548   0.006   6.376  0.3847 -0.5473  0.0024
 2989SOL     OW20425   4.053   1.909   6.701 -1.1333  0.1022 -0.1654
 2989SOL    HW120426   4.121   1.853   6.737  0.4991  1.4209 -1.2114
 2989SOL    HW220427   4.041   1.858   6.620 -1.1119 -2.1051  1.2184
 2990SOL     OW20428   3.420   1.432   1.819  0.3296 -0.2788 -0.1701
 2990SOL    HW120429   3.336   1.386   1.820  0.4976 -0.5940 -1.1697
 2990SOL    HW220430   3.401   1.523   1.840 -2.1387 -0.5592 -1.2118
 2991SOL     OW20431   4.179   4.267   8.291 -0.2366  0.1795 -0.1400
 2991SOL    HW120432   4.122   4.342   8.309 -0.1905 -0.1040  1.2295
 2991SOL    HW220433   4.204   4.229   8.375 -0.6811 -1.5239 -0.7853
 2992SOL     OW20434   0.869   2.340   8.027  0.0300  0.9106  0.2450
 2992SOL    HW120435   0.943   2.398   8.044  0.9792 -0.2328  0.0112
 2992SOL    HW220436   0.905   2.290   7.954 -1.0524  2.1108 -1.1093
 2993SOL     OW20437   0.145   1.079   4.221  0.2713 -0.4361  0.2447
 2993SOL    HW120438   0.127   1.167   4.187 -0.1742 -0.1114  1.3491
 2993SOL    HW220439   0.087   1.031   4.162  1.0429 -0.7010 -0.3061
 2994SOL     OW20440   2.645   4.151   4.002  0.2331  0.0041 -0.3935
 2994SOL    HW120441   2.570   4.201   4.036 -0.3623 -0.6306 -0.7817
 2994SOL    HW220442   2.724   4.193   4.036  0.5279 -1.8356  1.1860
 2995SOL     OW20443   2.078   2.793   7.554 -0.0803  0.4564  0.6387
 2995SOL    HW120444   2.056   2.767   7.464  0.1272 -2.6545  1.4989
 2995SOL    HW220445   2.094   2.886   7.536  0.4640 -0.0979 -1.7650
 2996SOL     OW20446   3.400   2.425  14.451 -0.4259 -0.2619  0.0067
 2996SOL    HW120447   3.410   2.519  14.437  0.3577 -0.2377  0.7198
 2996SOL    HW220448   3.422   2.422  14.544 -2.0467 -0.3557  0.3737
 2997SOL     OW20449   3.276   1.259   4.517  0.9407 -0.0536  0.1244
 2997SOL    HW120450   3.242   1.172   4.535  1.7107 -0.7181 -1.6572
 2997SOL    HW220451   3.251   1.314   4.591  0.5390 -2.5921  1.8477
 2998SOL     OW20452   3.346   1.297   8.828 -0.0268 -0.8653  0.7838
 2998SOL    HW120453   3.340   1.359   8.901 -1.1208  0.2608 -0.2676
 2998SOL    HW220454   3.300   1.222   8.866 -0.4408 -1.1355 -0.2505
 2999SOL     OW20455   2.267   0.847  17.685  0.2190 -0.0757 -0.2476
 2999SOL    HW120456   2.313   0.769  17.655 -0.5279 -0.9331  0.8571
 2999SOL    HW220457   2.193   0.836  17.624 -0.8774 -0.8588  1.2368
 3000SOL     OW20458   1.496   3.453   2.815 -0.7011 -0.3547 -0.9554
 3000SOL    HW120459   1.584   3.492   2.820 -1.8907  2.3904 -1.3699
 3000SOL    HW220460   1.493   3.435   2.909  2.1737 -1.7474 -1.1277
 3001SOL     OW20461   3.197   4.287  17.189 -0.2578  0.2668 -0.0054
 3001SOL    HW120462   3.209   4.220  17.122 -0.0495 -1.5016  1.8017
 3001SOL    HW220463   3.249   4.257  17.263  0.3143 -0.2649 -0.6323
 3002SOL     OW20464   1.984   3.508   2.898  0.5630  0.0288  0.1102
 3002SOL    HW120465   2.049   3.437   2.892  0.1473 -0.2081 -1.4339
 3002SOL    HW220466   2.035   3.570   2.950 -2.3539  0.5877  2.2954
 3003SOL     OW20467   0.614   3.105  11.853 -0.2194 -0.6027  0.1036
 3003SOL    HW120468   0.525   3.087  11.826 -0.1179 -1.3180  0.2478
 3003SOL    HW220469   0.653   3.121  11.767 -0.6417  0.0222  0.0273
 3004SOL     OW20470   4.653   3.034   1.774  0.0279  0.0729  0.1736
 3004SOL    HW120471   4.629   3.071   1.859  0.5803 -0.3452  0.5081
 3004SOL    HW220472   0.027   3.051   1.768 -0.4089  3.0915  1.9493
 3005SOL     OW20473   1.882   3.030  10.304 -0.1155 -0.0149 -0.3651
 3005SOL    HW120474   1.952   2.964  10.309  0.2305  0.4150  0.4765
 3005SOL    HW220475   1.809   2.975  10.275 -1.3346  1.5205 -0.1570
 3006SOL     OW20476   4.016   1.350   2.185 -0.0094  0.5024  0.5622
 3006SOL    HW120477   3.996   1.343   2.279  0.3058 -2.1639  0.4428
 3006SOL    HW220478   3.999   1.262   2.152 -0.3093  0.2038  1.4960
 3007SOL     OW20479   0.490   0.600   3.016 -0.1680 -0.0632 -0.4505
 3007SOL    HW120480   0.586   0.607   3.020 -0.1847  0.6728 -1.4843
 3007SOL    HW220481   0.470   0.554   3.098 -0.7300  1.3382  0.1974
 3008SOL     OW20482   1.977   3.766   1.692  0.2255  0.6215 -0.2711
 3008SOL    HW120483   1.938   3.788   1.776 -0.2310  0.1426 -0.3571
 3008SOL    HW220484   2.041   3.836   1.681  0.0816  0.9905  1.2824
 3009SOL     OW20485   1.680   2.352   2.637 -0.1271 -0.1150  0.4491
 3009SOL    HW120486   1.707   2.263   2.658  0.6856  0.4268  1.6688
 3009SOL    HW220487   1.760   2.392   2.602  0.5001 -0.8433  1.0595
 3010SOL     OW20488   4.544   2.691   3.310  0.2172  0.2481  0.2643
 3010SOL    HW120489   4.470   2.668   3.366 -0.1305  1.1458  0.1718
 3010SOL    HW220490   4.600   2.735   3.373 -0.1258  0.5983  0.3263
 3011SOL     OW20491   1.925   0.192   0.364  0.4872 -0.3265  0.0480
 3011SOL    HW120492   1.922   0.287   0.349  1.6325 -0.6018 -1.8711
 3011SOL    HW220493   1.958   0.175   0.276  0.6569  3.6610 -0.6492
 3012SOL     OW20494   1.534   0.924  10.778 -0.9277 -0.7740 -0.2386
 3012SOL    HW120495   1.601   0.956  10.838 -2.0968  1.3837 -0.1006
 3012SOL    HW220496   1.548   0.980  10.702  0.5811  1.1939  1.5011
 3013SOL     OW20497   4.219   1.168   2.333  0.5441 -0.0259  0.1543
 3013SOL    HW120498   4.179   1.161   2.420  0.2349 -2.0089 -0.1518
 3013SOL    HW220499   4.143   1.139   2.282  1.6148 -0.8203 -0.9700
 3014SOL     OW20500   2.196   0.714   5.587 -0.0027 -0.7276  0.6810
 3014SOL    HW120501   2.202   0.690   5.494  0.6725  2.3067 -0.0437
 3014SOL    HW220502   2.278   0.760   5.603  0.5856 -1.0367 -1.4285
 3015SOL     OW20503   1.962   2.047  11.261  0.1493  0.4034  0.2093
 3015SOL    HW120504   2.040   2.026  11.211  0.0841 -1.1894  0.7749
 3015SOL    HW220505   1.901   1.982  11.227 -1.1038  2.0393 -0.6513
 3016SOL     OW20506   0.610   2.593   3.082 -0.4561 -0.0115  0.6581
 3016SOL    HW120507   0.529   2.561   3.121 -0.7562  0.0718  0.0997
 3016SOL    HW220508   0.645   2.512   3.047 -2.0570 -1.7128  3.0286
 3017SOL     OW20509   4.219   2.417  16.628 -0.1949 -0.3829  0.1917
 3017SOL    HW120510   4.260   2.337  16.597  1.9952  0.5340  0.7508
 3017SOL    HW220511   4.168   2.390  16.705  0.9145 -2.4811  0.1839
 3018SOL     OW20512   2.359   4.046   2.269  0.2393 -0.0621 -0.1213
 3018SOL    HW120513   2.320   3.960   2.283 -1.3195  0.3827 -1.6663
 3018SOL    HW220514   2.453   4.037   2.253 -0.1359 -1.7380 -1.2923
 3019SOL     OW20515   0.334   2.880   7.325 -0.4434 -0.2971 -0.5249
 3019SOL    HW120516   0.263   2.920   7.275 -1.2296  0.1513  0.9472
 3019SOL    HW220517   0.296   2.803   7.367  1.9128 -1.8548 -1.2744
 3020SOL     OW20518   1.838   1.693   6.504  0.6075  0.4124 -0.6359
 3020SOL    HW120519   1.836   1.612   6.453 -1.1594 -0.2501  0.5032
 3020SOL    HW220520   1.930   1.719   6.502 -0.2129  3.5386  2.0347
 3021SOL     OW20521   2.221   1.919   5.801 -0.1921  0.3139  0.3843
 3021SOL    HW120522   2.303   1.892   5.843  0.4719 -0.1201 -1.1795
 3021SOL    HW220523   2.265   1.981   5.742 -1.3889 -0.0574 -0.8917
 3022SOL     OW20524   0.103   4.329   1.891  0.2006  0.7573  0.2228
 3022SOL    HW120525   0.162   4.388   1.844 -0.1906  1.2159  0.3082
 3022SOL    HW220526   0.015   4.363   1.871 -0.7047 -1.8584 -0.2741
 3023SOL     OW20527   3.930   4.376   0.630  0.7571  0.1699  0.0092
 3023SOL    HW120528   3.983   4.388   0.551 -2.3955  1.2456 -1.9625
 3023SOL    HW220529   3.982   4.420   0.697  1.4712  0.7755 -0.9511
 3024SOL     OW20530   0.551   1.740  17.578 -0.2449 -0.0163  0.5094
 3024SOL    HW120531   0.572   1.689  17.656 -1.1212 -4.1052 -1.9239
 3024SOL    HW220532   0.568   1.673  17.512 -0.1439  0.6688 -0.1739
 3025SOL     OW20533   3.384   1.019   9.784 -0.0296 -0.0377 -0.0727
 3025SOL    HW120534   3.446   0.989   9.717 -1.4092  0.3651 -1.5382
 3025SOL    HW220535   3.415   1.109   9.790  0.6385 -0.3477  1.1896
 3026SOL     OW20536   2.881   4.692  14.161  0.1052  0.6215  0.5775
 3026SOL    HW120537   2.954   4.640  14.193  1.5779  2.2105 -0.1736
 3026SOL    HW220538   2.913   0.021  14.086 -1.7764 -0.2198 -0.7776
 3027SOL     OW20539   1.700   3.550   4.059 -0.6018 -0.5812 -0.4140
 3027SOL    HW120540   1.770   3.493   4.091 -0.3303 -1.1850 -2.1009
 3027SOL    HW220541   1.617   3.521   4.097 -0.9795  2.8312  1.3681
 3028SOL     OW20542   0.522   4.579  12.657  0.3958  0.0615  0.1090
 3028SOL    HW120543   0.524   4.672  12.681 -0.7996  0.2252 -0.4370
 3028SOL    HW220544   0.487   4.590  12.569 -1.7318 -0.3692  0.9071
 3029SOL     OW20545   4.658   0.223   3.265  0.0313  0.2045 -0.6370
 3029SOL    HW120546   4.684   0.152   3.324 -2.3736 -0.3976 -0.3379
 3029SOL    HW220547   4.696   0.187   3.185  0.0668 -2.6117  0.6188
 3030SOL     OW20548   1.410   2.042   2.353  0.3346  0.3795 -0.7737
 3030SOL    HW120549   1.473   2.094   2.303 -0.0911 -0.3927 -2.1237
 3030SOL    HW220550   1.437   1.954   2.326  1.8465  0.4458  0.5447
 3031SOL     OW20551   1.064   0.515   6.517  1.0410 -0.2891  0.1482
 3031SOL    HW120552   0.986   0.511   6.461  0.0678 -1.9050  1.6185
 3031SOL    HW220553   1.082   0.425   6.544  0.6473 -0.1129  1.0053
 3032SOL     OW20554   4.606   2.912  17.175 -0.0337  0.0573 -0.0982
 3032SOL    HW120555   4.531   2.910  17.116  1.3712  1.7357 -1.9302
 3032SOL    HW220556   4.671   2.894  17.108 -1.5659 -2.2414 -0.9442
 3033SOL     OW20557   4.493   4.610  15.327  0.2092 -0.5274  0.2208
 3033SOL    HW120558   4.576   4.570  15.301  1.5144  1.2036  1.6186
 3033SOL    HW220559   4.519   4.689  15.376  1.5902 -2.6498  2.9496
 3034SOL     OW20560   2.680   2.458   4.656 -0.3975  0.3900 -0.1581
 3034SOL    HW120561   2.599   2.407   4.655  0.9627 -1.7171 -2.1263
 3034SOL    HW220562   2.656   2.544   4.691  0.7965  0.2045  1.1252
 3035SOL     OW20563   3.716   1.131   6.108 -0.4072 -0.0900  0.0973
 3035SOL    HW120564   3.713   1.061   6.173 -1.7920 -0.2141 -0.1121
 3035SOL    HW220565   3.622   1.148   6.109 -0.3314  0.3661 -0.6121
 3036SOL     OW20566   3.785   1.122   5.305 -0.2283 -0.0830 -0.2036
 3036SOL    HW120567   3.692   1.098   5.314 -0.9056  2.1331 -1.3687
 3036SOL    HW220568   3.787   1.183   5.232 -2.1901 -1.7727 -1.6664
 3037SOL     OW20569   1.081   4.656  13.658  0.5865  0.2723 -0.4458
 3037SOL    HW120570   1.141   4.616  13.721  0.1137  0.6305  0.2365
 3037SOL    HW220571   1.087   4.593  13.587  0.0647 -0.6213  0.3008
 3038SOL     OW20572   3.585   0.305   7.690 -0.2987 -0.2192  0.0609
 3038SOL    HW120573   3.511   0.342   7.642  0.2953 -0.0159 -0.7112
 3038SOL    HW220574   3.545   0.292   7.776 -1.1883  3.0270  0.1497
 3039SOL     OW20575   4.594   2.215   6.464  0.2907  0.2447 -0.0975
 3039SOL    HW120576   4.509   2.258   6.470  0.3229  0.3947 -0.8042
 3039SOL    HW220577   4.569   2.122   6.466 -0.7296  0.4313 -3.8859
 3040SOL     OW20578   0.598   2.349   2.122 -0.3617  0.1198 -0.0644
 3040SOL    HW120579   0.610   2.333   2.028 -4.0080 -2.3252 -0.1283
 3040SOL    HW220580   0.502   2.353   2.120 -0.5256 -3.7004 -0.6348
 3041SOL     OW20581   2.353   1.156   3.688  0.8752  0.0777  0.3051
 3041SOL    HW120582   2.329   1.092   3.622  0.3020  0.2761  0.3228
 3041SOL    HW220583   2.422   1.114   3.739  0.2832 -3.0895 -1.4843
 3042SOL     OW20584   2.772   2.999   3.060  0.0593  0.7852 -0.3924
 3042SOL    HW120585   2.818   3.045   3.130 -0.8565  0.0091  0.7125
 3042SOL    HW220586   2.689   2.968   3.097  0.0929  0.3441 -0.6745
 3043SOL     OW20587   3.152   3.455   5.738 -0.2079  0.6462  0.1182
 3043SOL    HW120588   3.056   3.454   5.744 -0.2379 -2.6634 -1.1781
 3043SOL    HW220589   3.162   3.381   5.678  0.3250  0.0103  1.0106
 3044SOL     OW20590   0.844   2.597   5.453 -0.6907 -0.1787 -0.1970
 3044SOL    HW120591   0.754   2.569   5.471 -0.1426 -0.9772  1.3521
 3044SOL    HW220592   0.887   2.571   5.535 -0.0820  0.6392 -0.2597
 3045SOL     OW20593   3.678   4.334  17.388 -0.1347 -0.2262  0.5853
 3045SOL    HW120594   3.599   4.372  17.426  0.6322 -0.7440  2.6523
 3045SOL    HW220595   3.745   4.371  17.445  1.1061  2.1550 -2.4499
 3046SOL     OW20596   0.087   0.734   4.026  0.0176  0.4425 -0.0215
 3046SOL    HW120597   0.095   0.639   4.039  0.7128  0.1878 -2.3857
 3046SOL    HW220598   4.719   0.742   4.061 -0.7816 -1.4541 -1.5790
 3047SOL     OW20599   4.199   0.080   4.890  0.1168 -0.7734 -0.1953
 3047SOL    HW120600   4.110   0.114   4.878 -0.1805 -1.6342 -0.4204
 3047SOL    HW220601   4.243   0.103   4.809  1.8972 -3.2939  0.0587
 3048SOL     OW20602   2.229   1.128   8.658  0.3073 -0.3471 -0.8237
 3048SOL    HW120603   2.322   1.152   8.661  0.2309 -0.2764  1.1434
 3048SOL    HW220604   2.212   1.130   8.752 -1.5784 -0.2285 -1.1676
 3049SOL     OW20605   0.918   4.426   9.321  0.2881 -0.0250  0.8737
 3049SOL    HW120606   0.901   4.519   9.305 -0.1619 -0.4918 -1.3269
 3049SOL    HW220607   1.009   4.416   9.292 -0.2030  1.0736 -1.0171
 3050SOL     OW20608   0.214   2.562   6.295 -0.3400 -0.4261 -0.4430
 3050SOL    HW120609   0.164   2.642   6.279 -0.7934 -0.6105  0.0868
 3050SOL    HW220610   0.235   2.575   6.387 -0.8036  0.3397 -0.4495
 3051SOL     OW20611   2.799   3.665  12.916 -0.5457  0.1441  0.0411
 3051SOL    HW120612   2.804   3.586  12.862 -2.6263 -0.1122  0.2212
 3051SOL    HW220613   2.765   3.717  12.844 -1.9902 -1.5173 -0.4864
 3052SOL     OW20614   3.617   0.499  16.922  0.3620  0.0537  0.5720
 3052SOL    HW120615   3.661   0.536  16.845 -0.0080  1.8688  1.2410
 3052SOL    HW220616   3.689   0.479  16.981 -0.3166  1.5056  1.8940
 3053SOL     OW20617   3.530   2.311   0.644 -0.2881 -0.0368 -0.2432
 3053SOL    HW120618   3.451   2.364   0.630  0.6824  1.1943 -0.9485
 3053SOL    HW220619   3.564   2.349   0.725 -0.8114 -1.1993  0.5302
 3054SOL     OW20620   4.301   3.159   5.067  0.2353 -0.2540  0.5803
 3054SOL    HW120621   4.356   3.115   5.002  1.3892  0.4089  1.1255
 3054SOL    HW220622   4.271   3.227   5.007 -1.7549  0.4325  2.3557
 3055SOL     OW20623   3.915   3.511   2.880  0.2290  0.1517 -0.0984
 3055SOL    HW120624   3.859   3.440   2.849 -1.2772  1.3762 -0.1696
 3055SOL    HW220625   3.870   3.578   2.828 -0.6268 -0.7824 -0.5752
 3056SOL     OW20626   2.987   3.503   6.107 -0.3391  0.4383  0.6235
 3056SOL    HW120627   2.918   3.527   6.046 -0.3747  0.4427  0.6653
 3056SOL    HW220628   2.942   3.497   6.191 -1.3639 -1.9728 -0.1124
 3057SOL     OW20629   4.088   3.971   8.627 -0.2048  0.0217 -0.1442
 3057SOL    HW120630   4.003   3.948   8.664 -1.1414 -1.3082 -3.1260
 3057SOL    HW220631   4.085   3.930   8.541  1.0863 -0.0820 -0.1483
 3058SOL     OW20632   1.270   0.693   4.637  0.9459  0.2440 -0.3353
 3058SOL    HW120633   1.248   0.673   4.546 -0.2169  2.8520 -0.6317
 3058SOL    HW220634   1.342   0.633   4.657 -0.6178 -0.6513  2.4842
 3059SOL     OW20635   2.825   2.449   4.915 -0.7332 -0.6345  0.0271
 3059SOL    HW120636   2.813   2.484   4.827 -2.1996  0.1950  0.5657
 3059SOL    HW220637   2.813   2.526   4.970  0.7167  0.2954 -0.9643
 3060SOL     OW20638   0.534   2.702  11.837  0.3850 -0.4338  1.1406
 3060SOL    HW120639   0.579   2.630  11.881 -1.8583 -2.4583  0.1901
 3060SOL    HW220640   0.600   2.768  11.820 -0.9828 -0.1436 -3.1578
 3061SOL     OW20641   0.471   1.544  16.666  0.0953  0.0808 -0.2679
 3061SOL    HW120642   0.563   1.523  16.680  0.3656  1.0246 -0.6444
 3061SOL    HW220643   0.430   1.457  16.665  0.1671  0.0532 -0.6075
 3062SOL     OW20644   0.359   3.742   8.769 -0.2199  0.3715 -0.0960
 3062SOL    HW120645   0.291   3.729   8.835 -0.5743  1.7049 -0.2044
 3062SOL    HW220646   0.390   3.832   8.778  1.5198 -0.2629  0.2745
 3063SOL     OW20647   1.311   2.331   8.654 -0.0679  0.0746 -0.0589
 3063SOL    HW120648   1.219   2.325   8.628 -0.4301  1.6986  0.8159
 3063SOL    HW220649   1.353   2.329   8.568  0.6306  1.1448  0.2624
 3064SOL     OW20650   4.290   0.946  16.131  0.1326  0.4574  0.8291
 3064SOL    HW120651   4.364   0.899  16.170  0.7574 -1.5566 -2.7259
 3064SOL    HW220652   4.255   0.882  16.069  0.8170 -0.0512  0.9734
 3065SOL     OW20653   4.563   3.619   3.162  0.2762 -0.1511 -0.4030
 3065SOL    HW120654   4.605   3.532   3.165 -1.2232 -0.9158 -1.6062
 3065SOL    HW220655   4.500   3.603   3.092  1.5768  1.1236 -1.8449
 3066SOL     OW20656   3.090   1.958  15.899 -0.6345  0.8123  0.6902
 3066SOL    HW120657   3.169   1.963  15.953 -1.5522  0.8671  2.0128
 3066SOL    HW220658   3.066   2.050  15.893  2.1708  1.4223 -1.4532
 3067SOL     OW20659   4.178   4.222   4.107 -0.1137  0.6557 -0.1879
 3067SOL    HW120660   4.136   4.223   4.021 -0.6036  3.1953  0.0509
 3067SOL    HW220661   4.271   4.222   4.087 -0.3857 -0.2913 -1.4061
 3068SOL     OW20662   3.652   3.458   4.720  0.0808  0.4923 -0.0188
 3068SOL    HW120663   3.675   3.400   4.647 -2.0856 -0.7208  0.2646
 3068SOL    HW220664   3.597   3.404   4.778  0.7698  1.4602  1.5508
 3069SOL     OW20665   4.433   3.507   9.402 -0.1947  0.0017  0.1221
 3069SOL    HW120666   4.450   3.412   9.403 -0.4008 -0.0460 -0.5843
 3069SOL    HW220667   4.388   3.514   9.318  1.7082 -0.4257 -0.9263
 3070SOL     OW20668   1.585   2.134  15.551 -0.4973 -0.2518 -0.1263
 3070SOL    HW120669   1.588   2.227  15.527  1.5811 -1.1101 -3.2680
 3070SOL    HW220670   1.660   2.129  15.610 -1.1539  0.7023  0.7843
 3071SOL     OW20671   2.454   1.168  16.088  0.6082 -0.0602  0.7620
 3071SOL    HW120672   2.479   1.260  16.077  4.3017 -1.4865 -2.7070
 3071SOL    HW220673   2.371   1.177  16.134 -0.1927  0.6520 -0.8361
 3072SOL     OW20674   1.862   1.621   3.757 -0.0403 -0.0203 -0.1228
 3072SOL    HW120675   1.845   1.529   3.736  1.7461 -0.2415 -0.5736
 3072SOL    HW220676   1.946   1.624   3.801  0.7756  0.2152 -1.6991
 3073SOL     OW20677   1.455   4.079   0.634 -0.3084  0.0285  0.1711
 3073SOL    HW120678   1.479   3.989   0.653  1.4097 -0.0323 -2.2851
 3073SOL    HW220679   1.499   4.123   0.707 -2.0372  1.8245  0.1318
 3074SOL     OW20680   0.282   0.098  17.119  0.4127  0.2466 -0.1463
 3074SOL    HW120681   0.188   0.103  17.098  0.0914  1.7200  1.6183
 3074SOL    HW220682   0.297   0.004  17.107 -1.5540  0.0788 -1.3865
 3075SOL     OW20683   4.612   2.827   2.117 -0.2997 -0.4108 -0.1137
 3075SOL    HW120684   4.706   2.838   2.133  0.1965 -4.4117 -0.2756
 3075SOL    HW220685   4.586   2.773   2.191  2.7784 -0.2416  1.0700
 3076SOL     OW20686   2.700   1.859   3.392  0.0954 -0.1397  0.2338
 3076SOL    HW120687   2.710   1.920   3.465 -2.4211 -0.2494  0.6669
 3076SOL    HW220688   2.692   1.913   3.314 -0.9110  0.7372  0.9464
 3077SOL     OW20689   1.233   1.445   7.134  0.6603 -0.1212  0.4256
 3077SOL    HW120690   1.218   1.433   7.228 -0.7432 -0.2700  0.1819
 3077SOL    HW220691   1.324   1.475   7.137  0.5168  0.1009  2.1796
 3078SOL     OW20692   3.015   0.757   4.640 -0.9693  0.0195  0.0724
 3078SOL    HW120693   3.033   0.693   4.571 -1.7710 -1.3827  1.1651
 3078SOL    HW220694   3.054   0.719   4.719  0.2482  1.5217  0.1813
 3079SOL     OW20695   2.929   1.863   6.767  0.3270 -0.1234  0.2420
 3079SOL    HW120696   2.857   1.881   6.706 -0.8693 -0.0638  1.6683
 3079SOL    HW220697   2.892   1.817   6.842  0.5822 -0.8455 -0.0757
 3080SOL     OW20698   0.051   3.783   8.626 -0.3398 -0.4768 -0.4892
 3080SOL    HW120699   4.703   3.716   8.623 -1.6313  0.9381 -2.2441
 3080SOL    HW220700   0.088   3.757   8.710  1.3255 -0.3087 -1.1749
 3081SOL     OW20701   4.514   3.554   7.067 -0.4286  0.2069  0.5430
 3081SOL    HW120702   4.581   3.500   7.108 -1.7548 -1.6972  0.2038
 3081SOL    HW220703   4.486   3.501   6.993 -4.2751  0.0478  2.0963
 3082SOL     OW20704   0.907   3.640  14.459  0.2683 -0.5441 -0.3968
 3082SOL    HW120705   0.902   3.548  14.485 -0.7577 -0.3475  0.1201
 3082SOL    HW220706   0.862   3.629  14.375 -0.5352 -0.1297 -0.0240
 3083SOL     OW20707   1.151   1.720   4.840 -0.0518 -0.2175  0.0554
 3083SOL    HW120708   1.094   1.670   4.898 -1.0980  0.5345 -0.3213
 3083SOL    HW220709   1.083   1.782   4.815 -2.9891 -2.4711  2.3981
 3084SOL     OW20710   3.247   4.007   6.017 -0.0410  0.2577 -0.1150
 3084SOL    HW120711   3.257   4.088   5.966 -0.0138 -0.7647 -1.7352
 3084SOL    HW220712   3.333   3.966   6.015 -0.4550 -0.6370  0.1769
 3085SOL     OW20713   2.514   2.648   1.786  0.5725 -0.3414  0.4618
 3085SOL    HW120714   2.443   2.610   1.735 -2.3445  1.7423  3.0057
 3085SOL    HW220715   2.554   2.697   1.714  0.5820  0.7964  1.2401
 3086SOL     OW20716   2.912   3.976  16.472 -0.2920 -0.4177  0.0396
 3086SOL    HW120717   2.835   4.020  16.436 -0.0067  2.0720  2.4617
 3086SOL    HW220718   2.922   3.907  16.407  0.0724 -2.0713  1.8623
 3087SOL     OW20719   1.264   1.933   2.016 -0.2928 -0.1232 -0.5209
 3087SOL    HW120720   1.270   2.010   1.960  0.5902 -0.6686 -1.1658
 3087SOL    HW220721   1.189   1.947   2.075  0.1049 -0.7070  0.1207
 3088SOL     OW20722   0.942   4.285  14.370  0.1104 -0.1532  0.1247
 3088SOL    HW120723   0.956   4.252  14.459 -1.5492 -0.1357  0.3939
 3088SOL    HW220724   0.866   4.228  14.355 -1.0125  1.4927 -0.3646
 3089SOL     OW20725   4.498   2.637   8.646 -0.5720  0.2786 -0.1353
 3089SOL    HW120726   4.514   2.661   8.737  1.6200 -0.9526 -0.1838
 3089SOL    HW220727   4.436   2.708   8.630 -0.2528  0.9895  1.8158
 3090SOL     OW20728   0.130   3.962   1.474  0.4485  0.2347  0.2808
 3090SOL    HW120729   0.106   4.012   1.552  0.8002  0.0914  0.4785
 3090SOL    HW220730   0.218   3.999   1.463 -0.1019  1.5527  0.3261
 3091SOL     OW20731   4.395   3.139  17.273 -0.3493  0.2407  0.0583
 3091SOL    HW120732   4.311   3.178  17.295 -0.0487  1.9837 -1.8565
 3091SOL    HW220733   4.365   3.064  17.221 -0.0845 -0.2880  0.6717
 3092SOL     OW20734   0.244   1.727   8.712 -0.1836  0.2639  0.0150
 3092SOL    HW120735   0.337   1.744   8.725 -0.4971  3.2373 -1.6677
 3092SOL    HW220736   0.210   1.811   8.740  0.9797  1.0100 -0.7875
 3093SOL     OW20737   1.486   1.519   7.127  0.3083  0.0435  0.2206
 3093SOL    HW120738   1.547   1.445   7.122 -2.2807 -2.1260  0.7324
 3093SOL    HW220739   1.540   1.587   7.088  0.5928 -1.6025 -2.2260
 3094SOL     OW20740   0.263   0.298  17.406  0.2047  0.1819 -0.1116
 3094SOL    HW120741   0.336   0.243  17.376  0.2791 -0.4109  1.1364
 3094SOL    HW220742   0.204   0.233  17.445 -3.8704  1.8619 -3.6238
 3095SOL     OW20743   3.319   0.990  14.567 -0.3225  0.3594 -0.5130
 3095SOL    HW120744   3.247   1.025  14.514  0.6768  0.1976 -1.9544
 3095SOL    HW220745   3.325   0.903  14.528 -2.1937  0.0190 -0.0459
 3096SOL     OW20746   1.354   4.075  11.716  0.5306  0.3665  0.0445
 3096SOL    HW120747   1.301   4.068  11.636  1.3921 -2.2066 -0.3147
 3096SOL    HW220748   1.439   4.056  11.677 -0.9091  0.5595 -3.2097
 3097SOL     OW20749   2.174   0.890  11.059 -0.8352 -0.3116  0.1729
 3097SOL    HW120750   2.226   0.842  10.995 -0.7067  1.3796 -1.0123
 3097SOL    HW220751   2.203   0.981  11.050 -3.6586  0.4103 -1.7272
 3098SOL     OW20752   0.070   2.845   5.090 -0.2063 -0.1676  0.4928
 3098SOL    HW120753   0.035   2.764   5.128  0.0281  0.3445  1.8053
 3098SOL    HW220754   4.713   2.900   5.099  0.2637  0.2229  2.1724
 3099SOL     OW20755   4.684   1.437  16.164  0.4142 -0.1295 -0.3134
 3099SOL    HW120756   4.681   1.468  16.254  0.2287  1.7921 -0.9715
 3099SOL    HW220757   0.055   1.411  16.157  0.8358  1.5277 -0.8710
 3100SOL     OW20758   2.791   0.234   4.203  1.1450 -0.3965  0.2892
 3100SOL    HW120759   2.772   0.281   4.122  4.0196 -0.2162 -0.2781
 3100SOL    HW220760   2.763   0.298   4.268  0.6764  0.4485 -0.7509
 3101SOL     OW20761   2.627   2.852   8.416 -0.2160  0.3114  0.3484
 3101SOL    HW120762   2.627   2.896   8.500  0.2100 -0.2738  0.6542
 3101SOL    HW220763   2.643   2.929   8.362 -1.6949  1.2024  1.1886
 3102SOL     OW20764   3.153   4.357  16.758 -0.1939  0.1959 -0.0788
 3102SOL    HW120765   3.160   4.452  16.770 -0.9481  0.3361 -0.7859
 3102SOL    HW220766   3.095   4.374  16.685 -0.4418 -1.4912 -0.2736
 3103SOL     OW20767   1.417   0.085   8.343 -0.4057  0.1827 -0.3776
 3103SOL    HW120768   1.403   0.179   8.327 -1.1978  0.0214 -0.5975
 3103SOL    HW220769   1.401   0.082   8.437 -2.3545  0.1528 -0.7102
 3104SOL     OW20770   3.017   2.511   5.889  0.3218 -0.8326 -0.4391
 3104SOL    HW120771   3.104   2.535   5.920  0.1599 -3.6206  2.1994
 3104SOL    HW220772   3.036   2.445   5.823  0.3918 -0.6867 -0.5629
 3105SOL     OW20773   1.464   4.133   0.361  0.4846  0.2557  0.0540
 3105SOL    HW120774   1.491   4.145   0.452 -1.1819  3.4964  0.1568
 3105SOL    HW220775   1.409   4.055   0.364  0.4255  0.3508  1.6044
 3106SOL     OW20776   1.433   4.176   4.074  0.0433 -0.2599  0.4450
 3106SOL    HW120777   1.389   4.260   4.086 -0.1341 -0.2580 -0.2087
 3106SOL    HW220778   1.503   4.171   4.139 -0.5378 -2.9279  0.8444
 3107SOL     OW20779   2.954   1.457   2.847 -0.3165 -0.2318  0.3367
 3107SOL    HW120780   2.888   1.420   2.788  0.9852 -1.7571 -0.1599
 3107SOL    HW220781   2.966   1.389   2.913  1.0283 -0.9163 -0.5993
 3108SOL     OW20782   4.317   1.519   5.910 -0.5081  0.2465  0.0868
 3108SOL    HW120783   4.406   1.552   5.901 -0.3636 -0.2106 -0.1925
 3108SOL    HW220784   4.305   1.505   6.004 -0.5938  1.3011  0.2256
 3109SOL     OW20785   0.652   1.308  13.219 -0.0251  0.1120  0.1673
 3109SOL    HW120786   0.698   1.379  13.175  0.5553  0.9921  2.2105
 3109SOL    HW220787   0.560   1.334  13.220  0.6094  2.3903 -1.0549
 3110SOL     OW20788   3.229   3.126   0.165  0.0670  0.2669  0.1596
 3110SOL    HW120789   3.229   3.133   0.070 -0.7847 -1.2645  0.0468
 3110SOL    HW220790   3.142   3.093   0.189  0.7394 -2.1782 -0.7327
 3111SOL     OW20791   3.623   4.491   2.840 -0.1439  0.6827 -0.2379
 3111SOL    HW120792   3.616   4.403   2.876 -1.5718  0.4193 -1.1851
 3111SOL    HW220793   3.658   4.480   2.752  0.3732  1.3957 -0.1238
 3112SOL     OW20794   2.552   2.876  12.546  0.0613 -0.3159  0.5645
 3112SOL    HW120795   2.634   2.908  12.507 -0.7260  2.0931  0.8619
 3112SOL    HW220796   2.541   2.936  12.620  2.6311  1.1706 -0.2358
 3113SOL     OW20797   0.744   3.485   0.701 -0.3591 -0.5343  0.0979
 3113SOL    HW120798   0.792   3.546   0.646 -0.2537  0.9857  1.9017
 3113SOL    HW220799   0.657   3.523   0.708 -0.1359  0.1313 -0.8204
 3114SOL     OW20800   1.465   4.439  11.872 -0.7838 -0.1699 -0.1044
 3114SOL    HW120801   1.542   4.430  11.928  0.2865 -0.8220 -1.6824
 3114SOL    HW220802   1.481   4.510  11.810 -3.6586 -1.5104 -2.3961
 3115SOL     OW20803   4.116   3.936   5.708 -0.0516  0.0695 -0.2919
 3115SOL    HW120804   4.201   3.933   5.665  0.0623  0.6124 -0.1067
 3115SOL    HW220805   4.109   4.031   5.697 -1.0552 -0.3111 -3.0201
 3116SOL     OW20806   2.773   3.260  11.232  0.3390  0.0204 -0.4869
 3116SOL    HW120807   2.779   3.323  11.304 -2.0517 -1.0777  0.6524
 3116SOL    HW220808   2.842   3.294  11.174  1.6623 -0.4108  0.8604
 3117SOL     OW20809   1.075   3.136   1.345  0.5149  0.0474  0.2542
 3117SOL    HW120810   1.112   3.219   1.316 -1.1794  0.2313 -1.4070
 3117SOL    HW220811   1.105   3.080   1.273  0.2957  0.7387 -0.3765
 3118SOL     OW20812   2.499   1.719   1.004  0.3638  0.2102 -0.7366
 3118SOL    HW120813   2.473   1.692   0.916 -0.5785  0.3880 -0.5158
 3118SOL    HW220814   2.485   1.813   0.995 -0.5392  0.1335 -0.1924
 3119SOL     OW20815   1.774   2.523   6.358 -0.4793  0.2043 -0.1491
 3119SOL    HW120816   1.816   2.592   6.409  0.3156 -0.9945  0.8046
 3119SOL    HW220817   1.719   2.484   6.426 -2.0763  1.9165 -0.4504
 3120SOL     OW20818   2.048   3.200   6.198  0.2691  0.3836  0.3335
 3120SOL    HW120819   1.970   3.149   6.176 -0.1023  1.3679 -0.6308
 3120SOL    HW220820   2.121   3.163   6.148  0.4549 -1.3009  1.8514
 3121SOL     OW20821   0.061   2.227   1.183 -0.1952  0.0670 -0.2567
 3121SOL    HW120822   0.147   2.231   1.225  0.1397 -0.5659 -0.8915
 3121SOL    HW220823   0.092   2.250   1.095  2.6349 -0.2551  0.6373
 3122SOL     OW20824   3.624   4.184   0.706 -0.3060 -0.1689 -0.2574
 3122SOL    HW120825   3.555   4.173   0.771 -1.0618  0.3007 -0.9804
 3122SOL    HW220826   3.700   4.143   0.747 -1.4997 -0.4571  1.6501
 3123SOL     OW20827   2.369   1.193   6.286 -0.4619 -0.2818 -0.5049
 3123SOL    HW120828   2.283   1.234   6.278  0.2976  0.9855 -2.0662
 3123SOL    HW220829   2.383   1.187   6.381  0.1741 -0.1532 -0.5923
 3124SOL     OW20830   4.474   0.746   2.549 -0.2132  0.7310 -0.3153
 3124SOL    HW120831   4.462   0.824   2.496  0.4008  1.1748  0.2006
 3124SOL    HW220832   4.429   0.759   2.633  0.1686 -0.1811  0.0312
 3125SOL     OW20833   1.973   2.868   5.126  0.1886  0.3090 -0.4044
 3125SOL    HW120834   1.996   2.955   5.093 -0.5291  0.2163 -1.1403
 3125SOL    HW220835   1.881   2.867   5.101  0.0656 -0.7352  0.0963
 3126SOL     OW20836   1.524   2.339   2.399  0.4090  0.7839 -0.0124
 3126SOL    HW120837   1.498   2.311   2.311 -0.1825 -0.9127  0.6844
 3126SOL    HW220838   1.607   2.292   2.407  1.0696  2.1474  1.0012
 3127SOL     OW20839   0.122   0.442   2.956 -0.1382 -0.0097 -0.7818
 3127SOL    HW120840   0.142   0.490   3.036 -1.1826 -1.2748  0.2362
 3127SOL    HW220841   0.194   0.378   2.960 -0.1540  0.0599  0.6998
 3128SOL     OW20842   3.942   4.410   7.508  0.4778  0.4884 -0.4025
 3128SOL    HW120843   3.969   4.467   7.580 -0.4680  1.0169 -0.4630
 3128SOL    HW220844   4.019   4.355   7.492 -0.7744 -1.1469 -0.8590
 3129SOL     OW20845   0.614   1.158   1.350 -0.4053  0.3080  0.0559
 3129SOL    HW120846   0.545   1.110   1.304 -0.9634  1.2252 -0.0677
 3129SOL    HW220847   0.635   1.220   1.279  1.2831 -0.3387 -0.0111
 3130SOL     OW20848   3.588   2.905  12.543  0.7046 -0.2542  0.5779
 3130SOL    HW120849   3.559   2.903  12.634 -0.5208 -0.1039  0.1995
 3130SOL    HW220850   3.664   2.847  12.544  1.5109  0.8282  0.9053
 3131SOL     OW20851   3.427   0.062   1.925 -0.8079 -0.3474  0.0136
 3131SOL    HW120852   3.498   0.121   1.900 -0.4859 -1.3388 -1.3633
 3131SOL    HW220853   3.355   0.125   1.934 -1.7641 -1.5060  0.6177
 3132SOL     OW20854   1.498   3.569   6.578  0.6840 -0.3579 -0.1587
 3132SOL    HW120855   1.534   3.634   6.638 -0.6384  0.3253 -0.1042
 3132SOL    HW220856   1.446   3.535   6.651 -0.6886  1.7712 -0.1325
 3133SOL     OW20857   4.115   3.540  11.985 -0.2614 -0.2815  0.2934
 3133SOL    HW120858   4.124   3.450  11.951 -0.1722  1.2845 -3.8526
 3133SOL    HW220859   4.143   3.544  12.076 -0.2304 -1.8773  0.3527
 3134SOL     OW20860   0.666   4.031   6.329  0.2541 -0.6435 -0.6884
 3134SOL    HW120861   0.706   3.944   6.318 -0.7589 -0.8504 -2.6732
 3134SOL    HW220862   0.746   4.078   6.352 -0.6115 -0.1505  1.2961
 3135SOL     OW20863   3.287   3.015   9.078 -0.4774  0.4486  0.3347
 3135SOL    HW120864   3.277   2.944   9.142 -0.8632  0.7584  0.6218
 3135SOL    HW220865   3.367   3.058   9.108 -0.2699 -0.0076  0.4269
 3136SOL     OW20866   3.933   0.575   4.175  0.3539 -0.7267  0.1450
 3136SOL    HW120867   3.984   0.584   4.095  3.0645  1.0329  2.1127
 3136SOL    HW220868   4.001   0.567   4.241  2.8052  1.1176 -2.1820
 3137SOL     OW20869   0.620   2.403   9.637 -0.3385  1.0260  0.4862
 3137SOL    HW120870   0.526   2.410   9.653 -0.6231 -1.2271 -0.1128
 3137SOL    HW220871   0.632   2.466   9.566 -0.5774  1.4492  0.8227
 3138SOL     OW20872   2.241   1.576  12.323 -0.2644  0.2731  0.0435
 3138SOL    HW120873   2.215   1.543  12.236  0.8841  0.7636 -0.4857
 3138SOL    HW220874   2.307   1.511  12.348  0.3912 -0.3992 -3.3764
 3139SOL     OW20875   4.259   2.634  16.794 -0.5792 -0.1917 -0.0233
 3139SOL    HW120876   4.224   2.563  16.740 -0.2025 -1.4694  1.4265
 3139SOL    HW220877   4.243   2.716  16.749 -0.7297 -0.0891  0.2185
 3140SOL     OW20878   0.020   3.608  11.313  0.1058  0.2792  0.0836
 3140SOL    HW120879   0.070   3.678  11.271  1.9275 -2.0782 -1.6410
 3140SOL    HW220880   0.018   3.541  11.245 -2.6377  2.7184 -2.3085
 3141SOL     OW20881   2.861   0.566   4.966 -0.4669 -0.4571 -0.0934
 3141SOL    HW120882   2.849   0.660   4.957  1.3088 -0.3720 -1.7648
 3141SOL    HW220883   2.900   0.567   5.053  0.2168 -0.1619 -0.4028
 3142SOL     OW20884   0.619   3.322  12.050  0.1811  0.6293 -0.0880
 3142SOL    HW120885   0.664   3.366  11.978 -0.3265 -1.1184 -1.4445
 3142SOL    HW220886   0.548   3.280  12.002 -0.6257  0.6770  1.0684
 3143SOL     OW20887   1.686   0.743   5.654  0.5183 -0.2984  0.2687
 3143SOL    HW120888   1.753   0.808   5.634  0.1440  0.1656  0.5124
 3143SOL    HW220889   1.670   0.701   5.570  1.4206 -0.7826  0.3411
 3144SOL     OW20890   0.007   1.085   2.661  0.1669  0.5315  0.0154
 3144SOL    HW120891   0.030   1.005   2.613  1.6907  1.0178 -0.0379
 3144SOL    HW220892   0.018   1.062   2.753 -0.5211 -2.4291 -0.6379
 3145SOL     OW20893   4.475   4.705   1.872  0.3884  0.1270  0.7107
 3145SOL    HW120894   4.478   0.061   1.928 -0.5262  2.2628 -2.1496
 3145SOL    HW220895   4.436   0.025   1.795  0.4097  1.5102  1.4377
 3146SOL     OW20896   1.059   3.771   7.995  0.0831 -0.2686  0.4517
 3146SOL    HW120897   1.082   3.814   7.912 -3.0461  0.4533 -0.0406
 3146SOL    HW220898   1.085   3.843   8.053  1.2743  1.5888 -2.3337
 3147SOL     OW20899   0.550   3.193  14.056 -0.2263 -0.1471 -0.0514
 3147SOL    HW120900   0.592   3.107  14.055  0.6674  0.3016 -1.1256
 3147SOL    HW220901   0.624   3.254  14.063  0.2950 -1.0875  2.7122
 3148SOL     OW20902   3.976   4.697   7.435 -0.1831 -0.4376  0.6154
 3148SOL    HW120903   3.923   0.032   7.492  0.9723 -0.9165  2.1872
 3148SOL    HW220904   4.018   4.632   7.492 -1.1773 -1.7792 -0.1775
 3149SOL     OW20905   0.393   0.813  12.676  0.8593 -0.0259  0.7008
 3149SOL    HW120906   0.369   0.722  12.659 -1.1532  0.6269  0.0615
 3149SOL    HW220907   0.489   0.815  12.679  0.9347 -0.7864 -1.7969
 3150SOL     OW20908   2.627   2.573  14.495  0.2627  0.2993 -0.8234
 3150SOL    HW120909   2.639   2.624  14.575  1.5872  0.0087 -0.8355
 3150SOL    HW220910   2.544   2.615  14.474 -0.0288  1.0489  1.7992
 3151SOL     OW20911   3.044   2.475   9.450 -0.8205  0.2692 -0.1628
 3151SOL    HW120912   3.033   2.535   9.376 -0.5897  0.5954  0.0694
 3151SOL    HW220913   3.073   2.403   9.394 -0.0051  1.0361 -0.7270
 3152SOL     OW20914   3.712   0.646   4.292 -0.0364 -0.0496 -0.0769
 3152SOL    HW120915   3.751   0.581   4.350  1.5686  0.0028 -1.1013
 3152SOL    HW220916   3.780   0.638   4.225  0.2730 -0.1261  0.2510
 3153SOL     OW20917   3.084   4.370  10.238 -0.4194  0.2511 -0.1205
 3153SOL    HW120918   3.134   4.371  10.319 -1.9585 -0.1471  0.8235
 3153SOL    HW220919   3.026   4.443  10.257 -0.1469  0.9511 -2.0067
 3154SOL     OW20920   3.409   4.641   4.153 -0.0543  0.2979  0.2856
 3154SOL    HW120921   3.448   4.577   4.092  0.6664 -0.2665  1.3279
 3154SOL    HW220922   3.398   4.584   4.229 -4.3872 -0.2781 -0.7524
 3155SOL     OW20923   0.012   3.698  10.916 -0.5080  0.1344 -0.0073
 3155SOL    HW120924   4.692   3.780  10.891  1.1935  1.1605  0.5996
 3155SOL    HW220925   0.062   3.728  10.992  0.7683 -1.2344 -0.2946
 3156SOL     OW20926   0.750   4.594   7.165 -0.4624  0.2174  0.2569
 3156SOL    HW120927   0.711   4.554   7.088 -0.2132  1.5165 -0.5500
 3156SOL    HW220928   0.834   4.548   7.160  1.4450  3.4801  1.8608
 3157SOL     OW20929   0.236   1.115   7.499 -0.6223  0.1108  0.0133
 3157SOL    HW120930   0.274   1.069   7.424  1.1528 -2.2710  2.3973
 3157SOL    HW220931   0.314   1.161   7.528 -1.8568 -0.3145  3.9826
 3158SOL     OW20932   3.025   3.659   2.460 -0.1433  0.3615 -0.1065
 3158SOL    HW120933   3.111   3.676   2.498 -0.1468 -0.9758  0.4729
 3158SOL    HW220934   3.044   3.687   2.370 -0.1767  1.0913  0.1128
 3159SOL     OW20935   0.433   0.151   6.738  0.2100  0.1833 -0.1528
 3159SOL    HW120936   0.354   0.204   6.734 -0.2332 -0.6777 -2.4554
 3159SOL    HW220937   0.493   0.219   6.707  0.0732  0.3344 -0.0834
 3160SOL     OW20938   0.820   1.722   2.742 -0.2501  0.2738  0.2063
 3160SOL    HW120939   0.746   1.711   2.681  0.5912 -0.8398 -0.6296
 3160SOL    HW220940   0.816   1.636   2.785 -0.7615 -0.9367 -2.2298
 3161SOL     OW20941   1.886   0.518   8.723  0.2532 -0.3044  0.2824
 3161SOL    HW120942   1.947   0.445   8.732  2.1999  1.1118 -1.5480
 3161SOL    HW220943   1.943   0.593   8.739 -1.0967  1.2796 -2.3020
 3162SOL     OW20944   3.526   2.187  15.221 -0.0345 -0.2498  0.3254
 3162SOL    HW120945   3.555   2.245  15.291  0.0280  0.1153 -0.0060
 3162SOL    HW220946   3.581   2.110  15.236  1.6522  0.8702 -0.0610
 3163SOL     OW20947   2.736   4.178   7.653  0.2717  0.4325 -0.1492
 3163SOL    HW120948   2.699   4.225   7.728 -1.3268  0.1425 -0.7595
 3163SOL    HW220949   2.688   4.218   7.580 -1.1506 -0.6779  0.1907
 3164SOL     OW20950   4.676   1.883   0.524  0.3207  0.4221  0.4271
 3164SOL    HW120951   4.708   1.830   0.451  1.4474  0.1258  1.1333
 3164SOL    HW220952   4.718   1.969   0.514  1.9717 -0.6820 -2.1673
 3165SOL     OW20953   1.749   4.327   5.765  0.0928 -0.2665 -0.4165
 3165SOL    HW120954   1.725   4.361   5.679 -1.8897 -0.6980 -0.0267
 3165SOL    HW220955   1.748   4.231   5.764 -0.1958 -0.2447 -1.5866
 3166SOL     OW20956   0.364   4.690   1.598  0.7398 -0.2569 -0.0448
 3166SOL    HW120957   0.338   4.645   1.518  0.2943  0.4056 -0.2772
 3166SOL    HW220958   0.331   0.058   1.579 -1.5673 -0.5394  2.6805
 3167SOL     OW20959   2.811   3.745   8.665  0.5198  0.2131  0.0650
 3167SOL    HW120960   2.815   3.819   8.605 -3.6231 -0.6858 -1.2990
 3167SOL    HW220961   2.717   3.735   8.679  0.8099 -0.4565  1.5326
 3168SOL     OW20962   1.269   0.180   9.757 -0.1728 -0.3677 -0.0563
 3168SOL    HW120963   1.288   0.215   9.844 -0.7238 -2.8736  1.0790
 3168SOL    HW220964   1.182   0.215   9.735  1.1674  3.2759  0.3755
 3169SOL     OW20965   4.013   1.049   2.183 -0.0284  0.6353  0.6757
 3169SOL    HW120966   3.918   1.043   2.180  0.1169 -1.5972  0.2912
 3169SOL    HW220967   4.032   0.980   2.119 -1.8607 -0.4752  1.3246
 3170SOL     OW20968   0.500   3.531   4.293  0.0109  0.4542 -0.0527
 3170SOL    HW120969   0.425   3.589   4.298 -0.3528 -0.0261  0.1258
 3170SOL    HW220970   0.463   3.447   4.321 -0.5896  0.5435 -0.5808
 3171SOL     OW20971   0.856   4.416  14.751  0.0930  0.4350 -0.1513
 3171SOL    HW120972   0.929   4.360  14.726  0.9713  2.0839 -1.3238
 3171SOL    HW220973   0.833   4.372  14.833 -1.2887 -3.1816 -2.5144
 3172SOL     OW20974   3.093   2.926   4.877  0.6984  0.0296 -0.4829
 3172SOL    HW120975   3.084   2.830   4.874  0.4246 -0.0127  1.7112
 3172SOL    HW220976   3.161   2.933   4.944 -0.3327  2.0906  0.3244
 3173SOL     OW20977   1.012   3.750   9.988 -0.7368 -0.2230 -0.2908
 3173SOL    HW120978   1.106   3.740   9.968 -0.8601  1.4614 -1.7795
 3173SOL    HW220979   1.001   3.688  10.060 -0.6622  1.2798  1.0168
 3174SOL     OW20980   2.944   0.708  10.528 -0.4688 -0.5796  0.0432
 3174SOL    HW120981   3.037   0.688  10.530  0.0298  1.7900  1.3000
 3174SOL    HW220982   2.935   0.652  10.451 -1.0353  2.9231 -2.4270
 3175SOL     OW20983   3.988   2.891   4.929  0.1111 -0.1006 -0.4755
 3175SOL    HW120984   3.998   2.879   4.835  1.4947  2.7791 -0.7075
 3175SOL    HW220985   4.027   2.809   4.959 -1.8362 -0.0968  2.0472
 3176SOL     OW20986   2.814   0.335  14.774  0.1998 -0.1299  0.4234
 3176SOL    HW120987   2.907   0.316  14.768  0.1673 -0.6190  1.5301
 3176SOL    HW220988   2.783   0.324  14.683  1.6127 -2.0918  0.1754
 3177SOL     OW20989   1.503   0.311   9.683 -0.3767  0.8950  0.3068
 3177SOL    HW120990   1.431   0.251   9.699 -0.5173  0.7231 -0.9933
 3177SOL    HW220991   1.451   0.391   9.692 -1.8414 -0.0635  0.3282
 3178SOL     OW20992   4.136   1.037   3.558  0.3080 -0.6948 -0.5102
 3178SOL    HW120993   4.190   1.024   3.637 -0.7421 -1.1171  0.1387
 3178SOL    HW220994   4.073   0.965   3.550 -0.1092 -0.4653  0.7016
 3179SOL     OW20995   3.465   3.811   0.691 -0.0101 -0.5929  0.0680
 3179SOL    HW120996   3.552   3.829   0.727 -0.0478  0.7801 -0.5328
 3179SOL    HW220997   3.432   3.898   0.671  1.5033 -0.0454 -0.0457
 3180SOL     OW20998   4.132   1.291   6.423  0.4919  0.5110  0.0374
 3180SOL    HW120999   4.062   1.321   6.365 -0.5474  0.1950  1.1324
 3180SOL    HW221000   4.185   1.238   6.364  1.8178 -0.1076  1.7751
 3181SOL     OW21001   1.742   3.608   1.587  0.7279  0.3550  0.1904
 3181SOL    HW121002   1.710   3.689   1.626 -1.5617 -0.5843  0.2800
 3181SOL    HW221003   1.834   3.597   1.611  0.4235 -0.2436  1.0834
 3182SOL     OW21004   4.100   3.128  10.481 -0.4726 -0.3558  0.5306
 3182SOL    HW121005   4.061   3.182  10.412  0.3945 -0.0585  0.2762
 3182SOL    HW221006   4.184   3.173  10.475 -1.2408  0.9953 -0.1303
 3183SOL     OW21007   1.149   0.676  12.596  0.2118  0.2784 -0.1158
 3183SOL    HW121008   1.236   0.716  12.587  0.8185 -0.4338  2.7182
 3183SOL    HW221009   1.092   0.753  12.598 -1.9574 -1.2909 -1.6853
 3184SOL     OW21010   1.082   2.106   3.851 -0.1041 -0.4223  0.3967
 3184SOL    HW121011   1.095   2.032   3.792 -3.0350  1.5216 -2.6871
 3184SOL    HW221012   0.991   2.122   3.824  0.6359  0.6721 -1.4669
 3185SOL     OW21013   1.677   2.859   4.061 -0.3166 -0.0673  0.5637
 3185SOL    HW121014   1.643   2.857   4.150 -0.0552  1.4524  0.6914
 3185SOL    HW221015   1.714   2.947   4.054  0.3742 -0.3794  0.3424
 3186SOL     OW21016   0.752   4.173   7.809 -0.7325  0.7033 -0.5100
 3186SOL    HW121017   0.782   4.085   7.786 -2.0015  0.0249  0.4068
 3186SOL    HW221018   0.685   4.192   7.744 -0.2216  0.2576 -1.1574
 3187SOL     OW21019   2.034   1.438   6.766 -0.0650 -0.0210 -0.8207
 3187SOL    HW121020   1.941   1.447   6.747  0.3383  0.8238 -2.4299
 3187SOL    HW221021   2.076   1.479   6.690  0.7310  0.6663 -0.0064
 3188SOL     OW21022   2.388   2.277   8.746 -0.3945  0.2618 -0.8824
 3188SOL    HW121023   2.329   2.345   8.715 -0.8623 -0.3729 -1.3873
 3188SOL    HW221024   2.369   2.281   8.840  1.3771  0.7689 -0.5564
 3189SOL     OW21025   0.053   4.560   6.310  0.1637 -0.2632  0.0645
 3189SOL    HW121026   0.077   4.523   6.395  0.8511  0.7505  0.3131
 3189SOL    HW221027   0.099   4.493   6.261  2.1411  1.6024 -0.6094
 3190SOL     OW21028   0.355   3.694   3.326  0.0361 -0.2758  0.1221
 3190SOL    HW121029   0.312   3.736   3.400 -3.7481  0.0813 -2.2466
 3190SOL    HW221030   0.289   3.707   3.257  2.0928  0.7851 -1.6379
 3191SOL     OW21031   4.562   1.164   5.738 -0.7590  0.6836 -0.4592
 3191SOL    HW121032   4.616   1.118   5.803 -1.1317  1.9102  0.7355
 3191SOL    HW221033   4.508   1.215   5.799 -2.2780  0.9527 -2.0381
 3192SOL     OW21034   3.247   3.142   5.133  0.3321  0.0521 -0.0329
 3192SOL    HW121035   3.235   3.085   5.209 -1.0052  0.8970  0.3771
 3192SOL    HW221036   3.323   3.096   5.098 -0.2252 -1.5628  0.8608
 3193SOL     OW21037   0.423   4.682  12.076 -0.2050 -0.2425 -0.4082
 3193SOL    HW121038   0.517   4.681  12.058 -0.0854 -1.1453  0.2688
 3193SOL    HW221039   0.393   0.039  12.030  0.9191 -0.0062 -0.7475
 3194SOL     OW21040   4.482   3.390  10.113 -0.1086  0.2430 -0.4313
 3194SOL    HW121041   4.397   3.375  10.070 -0.2997 -0.3710  0.1609
 3194SOL    HW221042   4.540   3.386  10.037  0.4384 -0.8743  0.0496
 3195SOL     OW21043   0.715   0.938   0.177  0.1880  0.0153 -0.3235
 3195SOL    HW121044   0.791   0.971   0.225  0.8910 -1.0749 -0.6941
 3195SOL    HW221045   0.660   0.905   0.248  0.3020 -0.0559 -0.2686
 3196SOL     OW21046   2.789   4.128  10.173  0.1664  0.0138 -0.2549
 3196SOL    HW121047   2.730   4.145  10.247 -1.2421 -1.0472 -1.1273
 3196SOL    HW221048   2.867   4.170  10.209  0.5697  0.9129 -2.1985
 3197SOL     OW21049   4.133   3.378   3.807  0.2883 -0.2712  0.2900
 3197SOL    HW121050   4.101   3.321   3.738  0.8140  0.5410 -0.6238
 3197SOL    HW221051   4.134   3.469   3.776  1.4759  0.3193  2.0708
 3198SOL     OW21052   4.321   1.163   8.080  0.1730  0.1653 -0.4191
 3198SOL    HW121053   4.396   1.222   8.089  0.8097 -0.5587 -1.0113
 3198SOL    HW221054   4.328   1.144   7.986 -0.4231  1.0741 -0.6477
 3199SOL     OW21055   0.705   3.918   8.057  0.2902  0.2044  0.6196
 3199SOL    HW121056   0.713   3.892   8.149  0.1003 -1.6732  0.1192
 3199SOL    HW221057   0.733   4.009   8.054 -0.0160  0.3811  3.7590
 3200SOL     OW21058   2.565   2.654   8.783 -0.7258 -0.5291  0.0140
 3200SOL    HW121059   2.636   2.715   8.805 -1.1352 -1.7445  4.6893
 3200SOL    HW221060   2.614   2.585   8.827  1.6744  2.1966  1.6907
 3201SOL     OW21061   2.796   1.575   4.747  0.1012 -0.1186 -0.0396
 3201SOL    HW121062   2.722   1.518   4.767  0.3985  0.5085  2.9052
 3201SOL    HW221063   2.764   1.664   4.762  2.0158  0.9508 -2.3630
 3202SOL     OW21064   2.116   3.552   8.177  0.3524  0.1645  0.1471
 3202SOL    HW121065   2.201   3.579   8.142  0.5898 -0.3906  0.2934
 3202SOL    HW221066   2.115   3.606   8.256 -2.0463  0.6663 -0.2379
 3203SOL     OW21067   3.898   4.090   0.725  0.3830 -0.0417  0.3597
 3203SOL    HW121068   3.940   4.116   0.807 -0.3766  2.8265 -0.1489
 3203SOL    HW221069   3.918   4.151   0.654 -2.1602 -0.1031 -0.4476
 3204SOL     OW21070   0.957   1.750   3.010 -0.0962  0.1270  0.4012
 3204SOL    HW121071   1.045   1.733   3.043 -0.2232 -1.1981  0.0466
 3204SOL    HW221072   0.946   1.673   2.954 -0.7502  1.9922 -1.9983
 3205SOL     OW21073   0.357   0.377   5.790 -0.3367  0.1336  0.0380
 3205SOL    HW121074   0.284   0.392   5.849  0.4449 -0.0015  1.0262
 3205SOL    HW221075   0.379   0.469   5.773  0.0486 -0.1843 -1.1674
 3206SOL     OW21076   3.468   0.155   5.964  0.4831  0.0903 -0.0519
 3206SOL    HW121077   3.477   0.079   6.021  0.5723 -0.2072 -0.4651
 3206SOL    HW221078   3.378   0.144   5.933  0.3729  1.8935 -0.3941
 3207SOL     OW21079   1.060   4.345   6.749 -0.5158  0.0057  0.5549
 3207SOL    HW121080   1.101   4.378   6.829  1.1232 -1.4907  0.3408
 3207SOL    HW221081   1.115   4.269   6.730 -2.2507 -1.0989  0.0114
 3208SOL     OW21082   0.946   0.066   3.006  0.1495  0.1343  0.0877
 3208SOL    HW121083   0.992   4.705   2.984 -1.2970 -0.7655  0.3971
 3208SOL    HW221084   1.021   0.123   2.988 -0.0926  1.3423  2.9943
 3209SOL     OW21085   2.780   2.481   2.865  0.4365 -0.2302  0.1854
 3209SOL    HW121086   2.758   2.546   2.798  2.2123  0.8120  0.6280
 3209SOL    HW221087   2.847   2.432   2.816  0.6231 -0.5307  0.7386
 3210SOL     OW21088   3.139   3.344  16.722  0.3649  0.1889 -0.1531
 3210SOL    HW121089   3.108   3.318  16.636 -2.5340  0.5459  0.7992
 3210SOL    HW221090   3.174   3.424  16.684  1.0401 -0.5746 -1.1425
 3211SOL     OW21091   1.368   1.753   9.088 -0.0232  0.0788  0.2757
 3211SOL    HW121092   1.351   1.677   9.143 -0.7263  0.8001  1.0464
 3211SOL    HW221093   1.282   1.793   9.080 -0.8198 -1.7224 -0.0827
 3212SOL     OW21094   3.313   2.801   4.205 -0.0695  0.2707 -0.4401
 3212SOL    HW121095   3.259   2.879   4.222  1.3278  0.4800  3.0777
 3212SOL    HW221096   3.268   2.750   4.138 -2.0530  0.8883  0.4024
 3213SOL     OW21097   2.921   2.373   9.067  0.0187 -0.5277 -0.1327
 3213SOL    HW121098   2.896   2.282   9.081 -0.2673 -0.2476  1.1543
 3213SOL    HW221099   2.883   2.415   9.144 -1.4927 -4.0495  1.0312
 3214SOL     OW21100   1.375   4.609   4.944  0.2476 -0.1452  0.0469
 3214SOL    HW121101   1.302   4.612   5.005 -1.1943 -2.6018 -1.5744
 3214SOL    HW221102   1.409   4.522   4.963  1.2246  0.0440 -0.7717
 3215SOL     OW21103   4.148   0.472   6.624  0.2408 -0.1845  0.0055
 3215SOL    HW121104   4.116   0.554   6.586 -1.0574  0.0575  1.6502
 3215SOL    HW221105   4.187   0.424   6.550  0.5902  1.1655 -0.6905
 3216SOL     OW21106   3.244   2.088   9.100 -0.2426 -0.1996 -0.2303
 3216SOL    HW121107   3.340   2.091   9.093 -0.3309 -0.2911 -1.4882
 3216SOL    HW221108   3.243   2.011   9.157  1.4815 -0.7073 -0.8820
 3217SOL     OW21109   1.374   2.813   8.415  0.0027  0.1475  0.6530
 3217SOL    HW121110   1.336   2.753   8.480 -1.6247  1.5959  1.0230
 3217SOL    HW221111   1.461   2.838   8.443 -0.1883 -1.0240  2.3271
 3218SOL     OW21112   4.447   0.049   5.139  0.5871 -0.0884 -0.4307
 3218SOL    HW121113   4.480   0.025   5.053  0.4385 -1.5362 -0.0765
 3218SOL    HW221114   4.384   0.121   5.135  0.7574  0.0291 -1.0154
 3219SOL     OW21115   3.429   0.782  15.808 -0.4288  0.1564 -0.2264
 3219SOL    HW121116   3.367   0.722  15.768  1.1479 -1.6260  0.0118
 3219SOL    HW221117   3.481   0.795  15.728  2.0607  1.8905  1.6406
 3220SOL     OW21118   0.790   1.487   6.814 -0.5240  0.0318  0.0674
 3220SOL    HW121119   0.712   1.532   6.846  0.9438  2.2430  0.4978
 3220SOL    HW221120   0.835   1.461   6.894 -2.1869  0.0810  1.0197
 3221SOL     OW21121   0.930   2.975  10.429 -0.7250  0.3341 -0.0444
 3221SOL    HW121122   0.961   2.885  10.418  0.4203  0.8850 -1.2458
 3221SOL    HW221123   1.014   3.006  10.460 -0.8203  0.3615  0.1845
 3222SOL     OW21124   4.647   0.802   6.273  0.8712  0.2847 -0.0444
 3222SOL    HW121125   4.695   0.752   6.207 -0.0089  0.0017 -0.4738
 3222SOL    HW221126   4.692   0.772   6.352  0.7093  2.2458  0.7875
 3223SOL     OW21127   2.593   1.046   3.804 -0.0472 -0.2292 -0.1326
 3223SOL    HW121128   2.648   0.994   3.863 -0.0517  0.4400  0.4681
 3223SOL    HW221129   2.655   1.087   3.743  1.2015  0.2186  1.4128
 3224SOL     OW21130   3.052   2.161  11.344 -0.1881  0.1107  0.2098
 3224SOL    HW121131   3.120   2.228  11.335  0.7449 -0.6563  1.5382
 3224SOL    HW221132   3.076   2.103  11.271 -0.2050  0.3668  0.0012
 3225SOL     OW21133   3.474   0.030   7.762  0.1269 -0.7979  0.9635
 3225SOL    HW121134   3.414   0.076   7.704  1.3882 -0.6475 -0.2428
 3225SOL    HW221135   3.450   0.072   7.844 -0.4818  0.3669  0.1745
 3226SOL     OW21136   2.215   0.624   5.071  0.1830 -0.7072  0.1911
 3226SOL    HW121137   2.167   0.682   5.011  1.6197 -0.5225 -0.7728
 3226SOL    HW221138   2.156   0.550   5.080 -0.5063 -0.3248 -1.0864
 3227SOL     OW21139   0.750   3.869   3.133 -0.0725  0.2732 -0.0845
 3227SOL    HW121140   0.783   3.780   3.126 -1.7925 -0.2645 -1.4249
 3227SOL    HW221141   0.826   3.926   3.128 -0.4046  0.5635 -1.7886
 3228SOL     OW21142   3.607   4.570   9.218  0.1235 -0.0899  0.4089
 3228SOL    HW121143   3.567   4.483   9.210 -1.5313  0.6479  0.6480
 3228SOL    HW221144   3.528   4.617   9.243  0.3608  1.1219 -1.1142
 3229SOL     OW21145   2.254   2.392   9.764  0.3858 -0.7622 -0.0893
 3229SOL    HW121146   2.250   2.340   9.844  0.1396  2.4052  1.9273
 3229SOL    HW221147   2.314   2.339   9.711  1.3243  1.8481 -1.6417
 3230SOL     OW21148   3.589   0.774   9.349 -0.2410 -0.2348  0.7544
 3230SOL    HW121149   3.670   0.739   9.312 -0.5945 -0.0527 -0.1901
 3230SOL    HW221150   3.575   0.716   9.423  0.4509  0.5840  1.5323
 3231SOL     OW21151   4.330   0.092   2.524  0.1573 -0.3138  0.0930
 3231SOL    HW121152   4.329   0.116   2.431  2.4503 -0.0538  0.1238
 3231SOL    HW221153   4.385   0.161   2.561  0.3340 -0.1851 -0.4137
 3232SOL     OW21154   4.009   2.983   4.246  0.2414  0.4726  0.0443
 3232SOL    HW121155   4.070   2.924   4.202  0.1693 -0.5187  1.2378
 3232SOL    HW221156   3.993   3.037   4.169  1.5231  0.6671 -0.0726
 3233SOL     OW21157   1.182   2.843   9.320 -0.0749  0.1138 -0.1559
 3233SOL    HW121158   1.118   2.812   9.256  0.0566  0.3750 -0.4122
 3233SOL    HW221159   1.267   2.804   9.299  0.8610  1.5112  1.0088
 3234SOL     OW21160   4.392   4.453   2.525  0.1488  0.4179  0.2637
 3234SOL    HW121161   4.319   4.443   2.587  0.9003  0.1499  1.1005
 3234SOL    HW221162   4.454   4.394   2.566 -1.6027 -2.4661 -1.2705
 3235SOL     OW21163   2.656   2.121   4.162 -0.2702 -0.0861 -0.3169
 3235SOL    HW121164   2.592   2.099   4.230 -0.5380  0.3047 -0.4377
 3235SOL    HW221165   2.708   2.041   4.167  0.6719  0.6181  0.9943
 3236SOL     OW21166   3.246   4.497   9.084  0.2447  0.2388  0.6482
 3236SOL    HW121167   3.282   4.580   9.055 -1.1958  1.2404  1.7205
 3236SOL    HW221168   3.320   4.463   9.134 -0.5017 -1.7132  0.4501
 3237SOL     OW21169   2.199   0.199   6.143  0.6988 -0.2673 -0.0980
 3237SOL    HW121170   2.140   0.273   6.162  2.4475  0.6336  1.8354
 3237SOL    HW221171   2.264   0.216   6.211 -0.1116  3.5125 -0.2395
 3238SOL     OW21172   0.675   4.413   4.169  0.4701  0.0489 -0.1844
 3238SOL    HW121173   0.639   4.329   4.195  2.5544 -0.9461 -0.5401
 3238SOL    HW221174   0.603   4.476   4.178  1.6419  1.2488  0.7749
 3239SOL     OW21175   1.900   2.671   0.074  0.2790 -0.1462  0.7740
 3239SOL    HW121176   1.845   2.690   0.150 -1.3931  1.2416 -0.7744
 3239SOL    HW221177   1.841   2.626   0.013  0.9589  1.9708 -1.4724
 3240SOL     OW21178   2.102   2.977   3.299 -0.4077  0.2067  0.3241
 3240SOL    HW121179   2.026   2.949   3.349  0.6932 -1.9517  0.7635
 3240SOL    HW221180   2.153   2.902   3.268 -0.1508  0.6697 -0.3835
 3241SOL     OW21181   3.747   4.249   9.786 -0.2523  0.1122 -0.1965
 3241SOL    HW121182   3.831   4.275   9.825 -0.0431  2.1899 -2.0441
 3241SOL    HW221183   3.729   4.165   9.827  3.6942 -0.4288  0.4319
 3242SOL     OW21184   2.373   0.503   1.809 -0.1981 -0.0377  0.5398
 3242SOL    HW121185   2.403   0.472   1.895  0.1066 -1.9212 -0.2320
 3242SOL    HW221186   2.432   0.463   1.745 -0.7560  0.4298 -0.2663
 3243SOL     OW21187   0.044   2.349  14.231  0.0198  0.7422 -0.0627
 3243SOL    HW121188   0.052   2.278  14.294  2.0682  1.8067  0.8947
 3243SOL    HW221189   4.670   2.355  14.219 -0.4250 -2.2256  1.8644
 3244SOL     OW21190   3.936   3.836   7.808 -0.1093  1.0783 -0.2155
 3244SOL    HW121191   3.863   3.774   7.803  1.0769 -0.4436  1.4067
 3244SOL    HW221192   3.909   3.886   7.886 -3.4795  0.3010 -0.8938
 3245SOL     OW21193   1.090   4.359  16.356  0.3308 -0.0975 -0.4591
 3245SOL    HW121194   1.043   4.295  16.303 -0.2724  0.0816 -0.1425
 3245SOL    HW221195   1.091   4.436  16.299  1.5188  0.6756  0.5998
 3246SOL     OW21196   4.022   3.644   3.780 -0.1983 -0.1472  0.1718
 3246SOL    HW121197   3.939   3.609   3.749 -0.8052 -0.5657  2.3284
 3246SOL    HW221198   4.005   3.656   3.873  0.1739  0.5234  0.1627
 3247SOL     OW21199   3.477   4.536   1.060  0.5351  0.2990 -0.1927
 3247SOL    HW121200   3.525   4.588   1.123 -1.1432  1.8582 -0.2017
 3247SOL    HW221201   3.516   4.566   0.977  0.4591 -0.6232 -0.5653
 3248SOL     OW21202   0.013   2.469   5.042 -0.2005 -0.3451 -0.5128
 3248SOL    HW121203   4.667   2.416   5.084 -0.0905 -1.2933 -1.5237
 3248SOL    HW221204   0.093   2.429   5.077 -1.3148 -2.0277  0.1073
 3249SOL     OW21205   3.723   1.986   6.139 -0.8324  0.3752 -0.3127
 3249SOL    HW121206   3.677   2.052   6.087  3.0749  1.4872 -2.3485
 3249SOL    HW221207   3.693   2.015   6.225 -0.5839  0.8083 -0.3734
 3250SOL     OW21208   1.874   1.230   6.549 -0.2944 -0.3776  0.2263
 3250SOL    HW121209   1.858   1.178   6.628  2.1270  0.2454  1.1265
 3250SOL    HW221210   1.941   1.184   6.498 -0.6184 -2.5156  1.7506
 3251SOL     OW21211   0.290   1.099   1.447 -0.1242  0.5137 -0.5464
 3251SOL    HW121212   0.306   1.023   1.391  0.4221  0.2847 -0.0851
 3251SOL    HW221213   0.318   1.174   1.394  2.0598  2.2211  3.0003
 3252SOL     OW21214   3.602   1.840   4.530  0.4073  0.4160 -0.2169
 3252SOL    HW121215   3.604   1.897   4.453 -0.3986  1.0424  0.2273
 3252SOL    HW221216   3.636   1.757   4.495 -0.5049 -0.0206 -0.0909
 3253SOL     OW21217   4.416   2.899   7.129  0.0799  0.2984 -0.1469
 3253SOL    HW121218   4.439   2.924   7.219 -1.5211  1.0368  0.0749
 3253SOL    HW221219   4.439   2.982   7.088 -1.2215  1.2177  0.9563
 3254SOL     OW21220   0.059   2.773   2.355 -0.0334  0.4118  0.1431
 3254SOL    HW121221   0.138   2.721   2.338  1.2094  2.3818 -0.1450
 3254SOL    HW221222   4.711   2.712   2.330 -0.1665  1.2279 -1.4820
 3255SOL     OW21223   2.145   2.981   4.521  0.0302  0.5649  0.7720
 3255SOL    HW121224   2.083   3.003   4.591 -1.3538  1.5135 -0.7565
 3255SOL    HW221225   2.196   3.063   4.522  0.8001  0.0457  2.9727
 3256SOL     OW21226   1.042   0.136   5.234 -0.0364 -0.0067  0.0590
 3256SOL    HW121227   1.098   0.100   5.165  0.1575  1.9872 -0.8350
 3256SOL    HW221228   1.054   0.067   5.299  3.8428  1.9564  1.4347
 3257SOL     OW21229   3.474   3.956  11.765 -0.4195 -0.1097 -0.1961
 3257SOL    HW121230   3.521   4.030  11.726 -2.3288  1.3288  0.2223
 3257SOL    HW221231   3.544   3.909  11.810  0.5293 -0.5129 -2.1123
 3258SOL     OW21232   1.376   2.259   0.290 -0.3929  0.0762  0.6453
 3258SOL    HW121233   1.306   2.232   0.349  1.5658 -0.9055  2.4881
 3258SOL    HW221234   1.402   2.187   0.233  1.0681  0.0432  1.3540
 3259SOL     OW21235   1.556   3.741  11.776 -0.0170 -0.6367  0.0708
 3259SOL    HW121236   1.629   3.780  11.729 -0.9587  1.4351  0.3299
 3259SOL    HW221237   1.593   3.663  11.818 -0.4215 -1.5216 -1.2116
 3260SOL     OW21238   2.197   0.745   9.216 -0.6692  0.5086 -0.3017
 3260SOL    HW121239   2.212   0.796   9.296 -0.9673 -0.7007  0.5304
 3260SOL    HW221240   2.112   0.707   9.238 -0.6649  0.8107  0.2538
 3261SOL     OW21241   4.183   1.408   2.537  0.1189 -0.4421 -0.3215
 3261SOL    HW121242   4.121   1.476   2.561  0.5552  0.1585 -0.8880
 3261SOL    HW221243   4.149   1.339   2.593  0.7614 -0.2162  0.3403
 3262SOL     OW21244   2.667   0.925   8.518  0.6743 -0.0867  0.2128
 3262SOL    HW121245   2.698   0.955   8.604 -1.7466  2.4515  0.1932
 3262SOL    HW221246   2.646   1.009   8.477  1.5355 -0.7145 -1.4924
 3263SOL     OW21247   0.661   0.419   3.526  0.4061  0.2677  0.0565
 3263SOL    HW121248   0.593   0.378   3.473  0.1144  1.6379 -0.6348
 3263SOL    HW221249   0.649   0.378   3.612 -0.0882  0.8413  0.2629
 3264SOL     OW21250   1.043   2.781   9.107  0.0774 -0.4084  0.2714
 3264SOL    HW121251   1.031   2.694   9.069 -0.8487  0.0027 -0.3796
 3264SOL    HW221252   0.978   2.831   9.057  1.9509  0.5505 -1.1995
 3265SOL     OW21253   1.810   3.067  10.852  0.2421  0.0837 -0.7180
 3265SOL    HW121254   1.874   3.127  10.891  0.7351  1.3145 -3.4445
 3265SOL    HW221255   1.726   3.110  10.869  0.7610  0.9307 -0.2541
 3266SOL     OW21256   3.184   4.370   8.056 -0.2547  0.0144 -0.4057
 3266SOL    HW121257   3.158   4.359   8.147 -2.9754 -1.0458 -1.3092
 3266SOL    HW221258   3.144   4.455   8.037  1.7002  0.3709 -2.9314
 3267SOL     OW21259   1.442   3.717   1.276  0.1322 -0.5072 -0.0724
 3267SOL    HW121260   1.508   3.774   1.318 -0.6793  0.8764 -0.6612
 3267SOL    HW221261   1.412   3.776   1.206  0.8406  0.9376  0.8229
 3268SOL     OW21262   2.150   4.581   3.443  0.6836 -0.1134 -0.0084
 3268SOL    HW121263   2.075   4.616   3.396 -0.9557 -2.1946  1.0650
 3268SOL    HW221264   2.184   4.662   3.483 -1.3123  0.1858  1.0831
 3269SOL     OW21265   1.750   0.087   4.247  1.0158  0.1399  0.1042
 3269SOL    HW121266   1.826   0.103   4.191  1.0545 -1.0433 -0.1896
 3269SOL    HW221267   1.788   0.059   4.330 -0.5277 -0.3980  0.6319
 3270SOL     OW21268   4.638   2.811   5.750  0.7051 -0.0681 -0.2158
 3270SOL    HW121269   4.587   2.773   5.821  1.0200  1.7970  0.9950
 3270SOL    HW221270   0.004   2.806   5.790  0.2894  0.4197  0.7262
 3271SOL     OW21271   0.460   0.451  17.563 -0.3602  0.0165 -0.7256
 3271SOL    HW121272   0.410   0.380  17.523 -2.2736  1.2938 -0.6154
 3271SOL    HW221273   0.404   0.528  17.551  0.1128  0.6988  1.4990
 3272SOL     OW21274   4.213   0.539   5.842  0.2587  0.7314 -0.0442
 3272SOL    HW121275   4.276   0.488   5.791  0.8456 -0.1537  1.5553
 3272SOL    HW221276   4.151   0.469   5.864 -1.3996  2.2996  0.3190
 3273SOL     OW21277   1.864   0.263   8.098  0.0780  0.3439  0.0739
 3273SOL    HW121278   1.777   0.262   8.136 -0.8119 -0.7250 -1.9692
 3273SOL    HW221279   1.856   0.177   8.056  0.2374  0.4618 -0.1987
 3274SOL     OW21280   4.205   1.782   5.609  0.1429  0.1578  0.6905
 3274SOL    HW121281   4.235   1.867   5.643 -0.8387  1.3052 -1.2707
 3274SOL    HW221282   4.127   1.783   5.663 -0.5799 -0.9543 -0.3374
 3275SOL     OW21283   0.815   3.996  16.622 -0.0255  0.3207 -0.0811
 3275SOL    HW121284   0.882   3.928  16.620 -1.0512 -0.7399  1.4458
 3275SOL    HW221285   0.865   4.077  16.622 -0.7862  0.7739  1.9505
 3276SOL     OW21286   0.922   3.415   9.014  0.1676 -0.2587  0.0025
 3276SOL    HW121287   0.983   3.418   9.088  0.6662 -3.7366 -0.2830
 3276SOL    HW221288   0.963   3.478   8.954  0.9492 -1.3728 -0.6225
 3277SOL     OW21289   1.653   0.319   4.972  0.2012 -0.2042  0.0360
 3277SOL    HW121290   1.573   0.353   4.932  1.4989  0.3751 -2.0792
 3277SOL    HW221291   1.682   0.254   4.907  0.5763 -1.3962  1.3992
 3278SOL     OW21292   3.156   0.571   4.821 -0.7589  0.1730  0.1920
 3278SOL    HW121293   3.216   0.511   4.867 -1.7726 -0.9712  0.0199
 3278SOL    HW221294   3.125   0.628   4.891  0.3591 -0.3181  1.0869
 3279SOL     OW21295   1.916   3.622   6.306  0.2126 -0.0429  0.1455
 3279SOL    HW121296   1.888   3.535   6.334 -1.4103 -0.0829 -1.5983
 3279SOL    HW221297   1.832   3.668   6.306  0.6377  0.7256 -0.2350
 3280SOL     OW21298   4.593   3.409  11.548  0.0314  0.2453  0.4612
 3280SOL    HW121299   4.685   3.436  11.553 -0.3713  1.3313  2.1301
 3280SOL    HW221300   4.568   3.400  11.640 -2.4876 -0.8889 -0.3392
 3281SOL     OW21301   4.061   4.129   0.966  0.0281  0.1276  0.3277
 3281SOL    HW121302   4.081   4.095   1.053 -0.4025  2.3688  1.3058
 3281SOL    HW221303   4.110   4.068   0.911 -1.4558 -2.8399  2.3045
 3282SOL     OW21304   2.824   0.076   7.215  0.1110  0.4993  0.3757
 3282SOL    HW121305   2.910   0.087   7.256  0.3883 -0.2328 -0.0216
 3282SOL    HW221306   2.824   0.146   7.149  0.2797  0.0575 -0.0872
 3283SOL     OW21307   0.494   0.156  13.426  0.1898  0.0085 -0.0990
 3283SOL    HW121308   0.462   0.243  13.447 -0.5473  0.1205 -1.6710
 3283SOL    HW221309   0.576   0.155  13.475 -1.5902  0.3455  2.8356
 3284SOL     OW21310   1.241   1.938   3.324 -0.6796 -0.3166 -0.5045
 3284SOL    HW121311   1.335   1.955   3.322 -0.4543 -1.3742  0.9095
 3284SOL    HW221312   1.198   1.965   3.243 -2.3580 -2.0323 -0.2021
 3285SOL     OW21313   4.540   1.817   8.966 -0.5176  0.2328 -0.1542
 3285SOL    HW121314   4.607   1.774   9.020 -0.5230  0.2748 -0.1141
 3285SOL    HW221315   4.496   1.855   9.042  1.9071  0.1775  1.2861
 3286SOL     OW21316   2.841   2.676  15.204  0.4312 -0.3424 -0.3786
 3286SOL    HW121317   2.886   2.607  15.252 -1.1394  0.4485  2.1964
 3286SOL    HW221318   2.755   2.657  15.240 -0.5596 -0.0565 -2.5754
 3287SOL     OW21319   3.354   1.566   6.026 -0.4624  0.1815 -0.2234
 3287SOL    HW121320   3.408   1.519   5.964 -0.0535  0.4403 -0.0641
 3287SOL    HW221321   3.384   1.656   6.014  1.6359 -0.0133  3.4746
 3288SOL     OW21322   3.842   2.239  16.925  0.1222 -0.5503 -0.0441
 3288SOL    HW121323   3.757   2.270  16.953  0.7463  0.7936  0.3670
 3288SOL    HW221324   3.869   2.176  16.992  1.4482  0.5737  0.5001
 3289SOL     OW21325   4.333   0.105  17.086  0.1069 -0.1487 -0.6095
 3289SOL    HW121326   4.299   0.153  17.161  0.5507  0.0771 -0.5528
 3289SOL    HW221327   4.387   0.178  17.054  1.2904 -0.7829 -0.0339
 3290SOL     OW21328   2.857   4.141   6.104  0.1497  0.1041 -0.2899
 3290SOL    HW121329   2.926   4.112   6.163  0.1149  0.8117  0.1046
 3290SOL    HW221330   2.835   4.226   6.144 -0.6520  0.4658 -1.5019
 3291SOL     OW21331   0.873   0.926  11.717 -0.4133  0.1762  0.3763
 3291SOL    HW121332   0.855   0.900  11.808 -0.7989  0.2917  0.3306
 3291SOL    HW221333   0.963   0.960  11.716 -0.6955  0.8948  0.0694
 3292SOL     OW21334   0.261   1.067  14.356 -0.1513 -0.5969  0.0051
 3292SOL    HW121335   0.190   1.077  14.293 -0.8652 -2.3423  0.5152
 3292SOL    HW221336   0.249   0.977  14.386 -1.8448 -0.0274  1.0115
 3293SOL     OW21337   2.672   4.033   1.099  0.2211  0.4354  0.7238
 3293SOL    HW121338   2.660   4.113   1.150 -0.0190 -0.3748  1.9404
 3293SOL    HW221339   2.759   4.007   1.130 -0.4556 -0.7114  1.7135
 3294SOL     OW21340   1.854   1.706   7.243 -0.0860 -0.0199  0.5972
 3294SOL    HW121341   1.796   1.673   7.311 -0.4948  1.0351  0.7618
 3294SOL    HW221342   1.796   1.702   7.168 -0.2493  2.0040  0.6198
 3295SOL     OW21343   3.946   1.124   5.534 -0.3320 -0.2090  0.2892
 3295SOL    HW121344   4.018   1.082   5.488 -0.5455 -1.4399  1.0932
 3295SOL    HW221345   3.891   1.159   5.463  0.8494 -1.4464 -1.2395
 3296SOL     OW21346   1.352   0.313   6.455  0.5751  0.4806  0.2036
 3296SOL    HW121347   1.284   0.290   6.519  0.0596 -0.5399 -0.7095
 3296SOL    HW221348   1.370   0.238   6.398  0.5583  3.1659 -3.3149
 3297SOL     OW21349   3.479   2.163   7.678 -0.0314 -0.1034  0.6735
 3297SOL    HW121350   3.462   2.194   7.589  0.0348 -1.4409  0.1955
 3297SOL    HW221351   3.439   2.076   7.677 -3.1540  1.3286  2.2004
 3298SOL     OW21352   0.222   1.382   3.797 -0.0534  0.5224  0.2933
 3298SOL    HW121353   0.212   1.337   3.713  0.9184 -1.1414  1.0699
 3298SOL    HW221354   0.314   1.410   3.790 -0.5411  1.5435 -2.0139
 3299SOL     OW21355   4.040   3.200   1.000 -0.5774  0.3286  0.4550
 3299SOL    HW121356   4.023   3.106   1.005 -3.2753  0.8340  0.6704
 3299SOL    HW221357   4.135   3.205   1.011 -0.7639  0.5293  2.0255
 3300SOL     OW21358   1.381   3.129   9.116  0.2227 -0.4813  0.1539
 3300SOL    HW121359   1.317   3.106   9.184 -1.3888  0.8649 -0.9117
 3300SOL    HW221360   1.453   3.076   9.149 -0.2998  0.0793  2.2091
 3301SOL     OW21361   3.333   4.413  10.145  0.5871 -0.5422 -0.4457
 3301SOL    HW121362   3.249   4.367  10.158 -0.3827  1.4404  0.3618
 3301SOL    HW221363   3.305   4.504  10.147  1.7890 -0.1828 -0.2566
 3302SOL     OW21364   0.531   4.539   0.947  0.4421 -0.2793 -0.5592
 3302SOL    HW121365   0.463   4.607   0.944  1.1822  0.5536  1.5034
 3302SOL    HW221366   0.562   4.547   0.857  2.1857 -0.6436  0.0098
 3303SOL     OW21367   0.608   0.726   1.163 -0.1081 -0.6912 -0.8376
 3303SOL    HW121368   0.593   0.814   1.197  0.8768 -0.3941 -1.1920
 3303SOL    HW221369   0.695   0.706   1.198  0.0515  1.5654  0.0700
 3304SOL     OW21370   4.685   0.501   3.323 -0.2214  0.4329  0.5574
 3304SOL    HW121371   4.687   0.405   3.316 -2.2556  0.4214  0.1799
 3304SOL    HW221372   4.594   0.527   3.337  0.0858  1.1078  1.2816
 3305SOL     OW21373   2.062   2.793   8.712  0.3642 -0.4695 -0.1916
 3305SOL    HW121374   2.083   2.881   8.744  1.0739  0.1691 -2.4560
 3305SOL    HW221375   2.121   2.784   8.637  1.1116 -0.8106  0.4326
 3306SOL     OW21376   2.126   3.968   8.242 -0.0432 -0.0548  0.4464
 3306SOL    HW121377   2.049   4.019   8.216 -1.6498 -1.9295  1.5333
 3306SOL    HW221378   2.082   3.891   8.278 -1.8271 -0.3082 -2.2101
 3307SOL     OW21379   3.508   1.571   8.149  0.3382  0.0052 -0.1001
 3307SOL    HW121380   3.537   1.643   8.204  0.7989  0.1819 -0.5726
 3307SOL    HW221381   3.428   1.542   8.194 -0.3869  1.0518 -0.7098
 3308SOL     OW21382   1.746   2.609   5.694 -0.4823 -0.3147 -0.0820
 3308SOL    HW121383   1.650   2.615   5.696 -0.5333 -1.7531  1.4216
 3308SOL    HW221384   1.766   2.668   5.767 -1.1695 -1.9901  1.4504
 3309SOL     OW21385   2.463   4.285   6.912 -0.2062  0.2231  0.6618
 3309SOL    HW121386   2.368   4.285   6.923 -0.2324  1.2269  0.4179
 3309SOL    HW221387   2.487   4.198   6.944  1.9153  1.6331  2.9598
 3310SOL     OW21388   3.481   2.964   0.754  0.0619  0.0386 -0.3531
 3310SOL    HW121389   3.411   3.003   0.702  1.2492  1.7252 -0.6984
 3310SOL    HW221390   3.546   3.035   0.758 -0.7406  0.8001 -0.9612
 3311SOL     OW21391   1.679   1.430   3.550  0.0206  0.6206 -0.5175
 3311SOL    HW121392   1.748   1.398   3.607  0.2189  1.2447 -0.3981
 3311SOL    HW221393   1.617   1.485   3.600  0.0473  0.1292  0.0585
 3312SOL     OW21394   1.874   3.012   2.682 -0.6149  0.0150 -0.2512
 3312SOL    HW121395   1.818   3.090   2.687 -2.7699 -1.4459 -1.3459
 3312SOL    HW221396   1.840   2.970   2.603 -0.8654 -0.9870  0.3870
 3313SOL     OW21397   1.780   3.379   6.837  0.0244  0.2864  0.1355
 3313SOL    HW121398   1.813   3.435   6.767 -3.0882  1.3749 -0.4311
 3313SOL    HW221399   1.815   3.292   6.817  3.6633  1.2201  2.3459
 3314SOL     OW21400   1.237   4.158  17.346 -0.1958 -0.4649 -0.3459
 3314SOL    HW121401   1.182   4.225  17.385  1.2927  1.6870 -1.9201
 3314SOL    HW221402   1.323   4.187  17.376 -0.1753  0.8344 -1.6657
 3315SOL     OW21403   2.398   1.350  12.743  0.5435  0.5712  0.0587
 3315SOL    HW121404   2.319   1.353  12.690  2.9240  1.2162 -3.4551
 3315SOL    HW221405   2.442   1.424  12.701  0.1852  1.2123  0.8105
 3316SOL     OW21406   1.198   0.443   5.970 -0.7471  0.1464  0.1550
 3316SOL    HW121407   1.287   0.421   5.996 -1.4280 -1.1683  1.4142
 3316SOL    HW221408   1.195   0.530   5.932  1.9829 -0.2715 -0.9949
 3317SOL     OW21409   2.934   0.622   3.099 -0.9283 -0.2914  0.0770
 3317SOL    HW121410   2.961   0.552   3.040 -1.6093  0.2260 -0.8558
 3317SOL    HW221411   2.971   0.602   3.185 -2.7838 -2.1306  0.4483
 3318SOL     OW21412   4.231   4.529   5.824  0.5626 -0.7943  0.7348
 3318SOL    HW121413   4.312   4.577   5.807 -0.2565  0.8446  1.5144
 3318SOL    HW221414   4.160   4.593   5.824 -0.0100 -1.4304 -1.5894
 3319SOL     OW21415   3.922   1.835   3.954  0.1759  0.4845  0.5269
 3319SOL    HW121416   3.988   1.816   3.887  0.8595  1.6266  0.8734
 3319SOL    HW221417   3.858   1.766   3.939 -0.2031  0.7813  0.7775
 3320SOL     OW21418   3.590   0.687   2.610  0.2060 -0.1792 -0.1277
 3320SOL    HW121419   3.544   0.677   2.527  0.2039  0.1873 -0.1704
 3320SOL    HW221420   3.653   0.750   2.576 -0.4600 -0.5089 -1.9793
 3321SOL     OW21421   1.743   3.475   3.795 -0.9864 -0.4651  0.4011
 3321SOL    HW121422   1.728   3.536   3.867  0.8758 -0.0633  0.4464
 3321SOL    HW221423   1.663   3.422   3.792 -0.2318 -1.6058  0.1284
 3322SOL     OW21424   2.666   2.379   0.907 -0.3688  0.4513 -0.4678
 3322SOL    HW121425   2.669   2.380   1.003  0.4428  0.9558 -0.4978
 3322SOL    HW221426   2.575   2.393   0.880 -0.1460 -1.2124 -2.0307
 3323SOL     OW21427   3.672   1.906   6.429 -0.0484 -0.4655  0.3834
 3323SOL    HW121428   3.660   2.000   6.412  2.2608  0.3024  3.1164
 3323SOL    HW221429   3.687   1.907   6.523  2.4990 -0.2225 -0.0050
 3324SOL     OW21430   3.043   3.622   4.939 -0.4972  0.2518 -0.0721
 3324SOL    HW121431   3.045   3.698   4.997 -1.7308  0.0119  0.2848
 3324SOL    HW221432   3.121   3.569   4.958  0.3196  1.7063  0.6877
 3325SOL     OW21433   0.153   2.253   6.415  0.0021  0.3590  0.5112
 3325SOL    HW121434   0.167   2.241   6.321 -1.1591  0.2517  0.3544
 3325SOL    HW221435   0.079   2.195   6.432  0.4913  0.5107  3.0997
 3326SOL     OW21436   0.968   2.853   4.638  0.2212  0.2076  0.0336
 3326SOL    HW121437   0.991   2.810   4.556  2.8652  4.1167 -1.2329
 3326SOL    HW221438   0.881   2.891   4.625  0.2307  0.1877 -0.0875
 3327SOL     OW21439   1.822   3.236   8.015 -0.7055  0.1372  0.1212
 3327SOL    HW121440   1.795   3.327   8.013 -0.1461  0.2875 -0.8539
 3327SOL    HW221441   1.785   3.215   8.100 -1.5072  1.7248  0.1467
 3328SOL     OW21442   4.012   2.803   4.628 -0.0845 -0.1406 -0.2564
 3328SOL    HW121443   3.966   2.753   4.560  1.0927 -1.1103 -0.3313
 3328SOL    HW221444   4.104   2.783   4.611 -0.4063 -2.2588  0.5916
 3329SOL     OW21445   2.859   4.597   3.278  0.2461 -0.6395  0.0333
 3329SOL    HW121446   2.946   4.591   3.317 -0.3421  0.0088  1.4636
 3329SOL    HW221447   2.817   4.632   3.357  0.0413 -0.4359 -0.1648
 3330SOL     OW21448   1.172   3.106   7.732  0.5689 -0.1317  0.5021
 3330SOL    HW121449   1.155   3.188   7.779  1.3763 -0.5958  1.5942
 3330SOL    HW221450   1.179   3.039   7.800  1.1572  0.7108  1.2660
 3331SOL     OW21451   4.481   0.604   8.715 -0.6430 -0.2616  0.3022
 3331SOL    HW121452   4.548   0.576   8.778 -0.1861  0.9886  0.3752
 3331SOL    HW221453   4.532   0.637   8.641  1.7493 -3.9738  0.3164
 3332SOL     OW21454   0.168   0.182   7.729  0.0344  0.1390  0.2958
 3332SOL    HW121455   0.210   0.252   7.779  1.5108 -0.6031  0.0782
 3332SOL    HW221456   0.074   0.192   7.746 -0.4271 -2.7824 -0.5770
 3333SOL     OW21457   2.718   3.075   3.629 -0.3266 -0.3994 -0.1398
 3333SOL    HW121458   2.801   3.095   3.587 -0.1868  2.6328  1.6183
 3333SOL    HW221459   2.742   3.073   3.721 -1.0012 -0.4266  0.0375
 3334SOL     OW21460   4.610   0.685  12.188 -0.3136 -0.1797 -0.2596
 3334SOL    HW121461   4.525   0.666  12.227 -0.8675  2.9115  0.0237
 3334SOL    HW221462   4.581   0.759  12.135  0.9585 -0.7389 -1.7392
 3335SOL     OW21463   4.317   3.294   3.136 -0.1558  0.0514 -0.5751
 3335SOL    HW121464   4.350   3.274   3.048  3.1478  1.7172  0.2756
 3335SOL    HW221465   4.246   3.231   3.143  0.5812 -0.8754 -1.4541
 3336SOL     OW21466   4.379   2.205   2.772  0.2193  0.4827 -0.4541
 3336SOL    HW121467   4.365   2.274   2.837 -2.9241  0.4711 -1.1230
 3336SOL    HW221468   4.438   2.150   2.823  0.6530  1.0133 -0.3806
 3337SOL     OW21469   2.371   4.503   3.808  0.1788  0.5727 -0.7630
 3337SOL    HW121470   2.426   4.545   3.742  0.7003  1.0873 -0.0024
 3337SOL    HW221471   2.352   4.584   3.857 -0.2020  1.7851 -2.9185
 3338SOL     OW21472   1.942   1.986  15.705  0.3892  0.0456  0.2750
 3338SOL    HW121473   1.986   1.954  15.626 -1.2702  0.7870 -0.9354
 3338SOL    HW221474   1.995   1.940  15.771  3.3908  0.4478 -1.8821
 3339SOL     OW21475   2.327   2.764   2.583  0.0868 -0.0638 -0.2910
 3339SOL    HW121476   2.270   2.817   2.640 -0.3095 -1.0380  0.2121
 3339SOL    HW221477   2.304   2.673   2.603  2.0639 -0.8629 -1.6514
 3340SOL     OW21478   2.942   3.035   4.096 -0.5111  0.0159  0.3265
 3340SOL    HW121479   2.985   3.001   4.175  0.3313  0.1961 -0.0583
 3340SOL    HW221480   2.981   3.122   4.095 -1.5535  0.5152  1.9443
 3341SOL     OW21481   4.632   2.875  11.648 -0.5051 -0.7171  0.1194
 3341SOL    HW121482   4.567   2.919  11.702 -0.0308  1.1042 -0.8058
 3341SOL    HW221483   4.629   2.781  11.667 -0.5277 -0.5970  0.7310
 3342SOL     OW21484   1.392   3.583  13.915 -0.1902 -0.1671 -0.3930
 3342SOL    HW121485   1.305   3.553  13.938 -0.4457  1.1192  0.3535
 3342SOL    HW221486   1.410   3.617  14.003  0.5186  0.0965 -0.6350
 3343SOL     OW21487   3.441   1.250   1.007  0.2919  0.5913 -0.1514
 3343SOL    HW121488   3.408   1.161   0.990  2.4690 -0.1330 -0.5643
 3343SOL    HW221489   3.530   1.247   0.973 -0.1652 -0.4171 -1.2616
 3344SOL     OW21490   1.751   3.608   1.262  0.3913  0.3753 -0.3176
 3344SOL    HW121491   1.790   3.621   1.348  1.0640  1.8738 -0.8492
 3344SOL    HW221492   1.808   3.665   1.212  0.3950 -0.3978 -1.1952
 3345SOL     OW21493   4.002   2.010   4.173 -0.5340 -0.2919  0.2018
 3345SOL    HW121494   3.973   1.957   4.099  1.2845 -0.7492 -0.1903
 3345SOL    HW221495   4.039   1.940   4.225 -0.3380 -1.2424 -1.2303
 3346SOL     OW21496   0.265   2.173  14.321  0.3454 -0.2804  0.1720
 3346SOL    HW121497   0.195   2.111  14.337 -0.6229  0.4664 -1.1763
 3346SOL    HW221498   0.320   2.131  14.254  0.9013  0.8148 -0.0633
 3347SOL     OW21499   2.741   3.630   2.072  0.3805 -0.1148 -0.1548
 3347SOL    HW121500   2.663   3.665   2.029 -0.3462 -2.6304 -0.8736
 3347SOL    HW221501   2.768   3.709   2.119 -2.8505  0.5640  0.5528
 3348SOL     OW21502   2.375   0.397   4.020 -0.1606  0.5835 -0.4477
 3348SOL    HW121503   2.427   0.451   3.960 -1.0288  1.8598 -0.0538
 3348SOL    HW221504   2.296   0.386   3.967 -0.8659 -2.2187  1.1427
 3349SOL     OW21505   0.269   1.673   3.176  0.0128 -0.2614  0.0445
 3349SOL    HW121506   0.327   1.705   3.107 -0.9781  1.2876 -0.0643
 3349SOL    HW221507   0.268   1.747   3.236 -0.4989 -0.6845  0.5607
 3350SOL     OW21508   2.894   2.994   6.422 -0.4188  0.0142  0.3011
 3350SOL    HW121509   2.933   3.065   6.371  0.5243 -1.4870 -1.0506
 3350SOL    HW221510   2.904   2.914   6.371 -0.9290  1.5874 -2.2734
 3351SOL     OW21511   1.731   1.449  10.292 -0.2005 -0.0398 -0.2605
 3351SOL    HW121512   1.768   1.511  10.228  2.2621 -1.1961  0.0202
 3351SOL    HW221513   1.679   1.513  10.340 -0.6665 -1.9176  1.6993
 3352SOL     OW21514   2.426   1.063  14.115  0.0065  0.0481 -0.4063
 3352SOL    HW121515   2.374   1.113  14.179  0.6203 -0.2101  0.2959
 3352SOL    HW221516   2.369   1.074  14.039  0.4002  0.1243 -0.6892
 3353SOL     OW21517   3.780   4.365   1.792  0.0229  0.3149 -0.5471
 3353SOL    HW121518   3.833   4.293   1.826  0.8968  1.9996  1.7156
 3353SOL    HW221519   3.833   4.395   1.718  0.0954  1.6587  0.0467
 3354SOL     OW21520   1.640   4.146   0.021 -0.0499  0.1378  0.4298
 3354SOL    HW121521   1.679   4.062  17.685 -1.4718 -0.8341  1.7175
 3354SOL    HW221522   1.716   4.198   0.049  0.3316 -0.3731  0.3293
 3355SOL     OW21523   2.596   3.015   5.663  0.0969 -0.2506 -0.9022
 3355SOL    HW121524   2.512   3.024   5.708  0.6326  0.0372  0.0283
 3355SOL    HW221525   2.566   2.979   5.579 -1.7958  0.9939 -0.7688
 3356SOL     OW21526   0.288   2.779   4.551 -0.5880 -0.8462  0.4096
 3356SOL    HW121527   0.316   2.708   4.610 -1.3398 -2.1943 -0.8509
 3356SOL    HW221528   0.372   2.809   4.516 -0.9978  2.5408  2.3209
 3357SOL     OW21529   0.459   1.287  10.616  0.4561 -0.2274  0.5550
 3357SOL    HW121530   0.368   1.306  10.594  0.5973  2.7523  2.5272
 3357SOL    HW221531   0.461   1.264  10.710  0.9454  0.4924  0.7194
 3358SOL     OW21532   3.276   2.308   3.500 -0.2562  0.0070  1.0237
 3358SOL    HW121533   3.363   2.270   3.511  0.0890  0.3626 -0.5053
 3358SOL    HW221534   3.235   2.299   3.587  1.0172 -1.5722  1.4577
 3359SOL     OW21535   1.850   0.710  16.861  0.7524 -0.3347 -0.3662
 3359SOL    HW121536   1.942   0.701  16.834  1.5347 -2.8922  3.1053
 3359SOL    HW221537   1.836   0.617  16.877  2.1264 -0.1380  1.9873
 3360SOL     OW21538   1.131   4.237   2.247 -0.2919 -0.0717 -0.4463
 3360SOL    HW121539   1.061   4.183   2.210 -0.9160 -0.7830  1.7878
 3360SOL    HW221540   1.186   4.169   2.285 -0.2679  0.5825  0.6849
 3361SOL     OW21541   0.996   4.330   4.552 -0.4419  0.1217 -0.3734
 3361SOL    HW121542   1.037   4.330   4.639  0.3681  3.1976 -0.7448
 3361SOL    HW221543   1.066   4.304   4.493 -2.4231  0.4860 -2.9236
 3362SOL     OW21544   0.587   1.695   9.896  0.2398  0.1731 -0.1530
 3362SOL    HW121545   0.588   1.628   9.829 -3.9821 -0.6236  0.5668
 3362SOL    HW221546   0.497   1.692   9.928  0.8047  0.4858  1.4886
 3363SOL     OW21547   4.137   0.788   5.564 -0.0158 -0.0004 -0.6301
 3363SOL    HW121548   4.062   0.739   5.532 -1.5304  0.3767  2.4011
 3363SOL    HW221549   4.136   0.873   5.519  0.6270 -0.8441 -2.2276
 3364SOL     OW21550   4.486   3.320   0.252  0.4258 -0.2932  0.3664
 3364SOL    HW121551   4.446   3.382   0.313 -1.1761 -2.4458  1.5156
 3364SOL    HW221552   4.530   3.264   0.316  0.8716  0.7674  0.9976
 3365SOL     OW21553   4.354   1.924   9.186 -0.2246  0.0072  0.0108
 3365SOL    HW121554   4.271   1.895   9.147 -0.2788 -0.5418  0.5131
 3365SOL    HW221555   4.356   2.012   9.151  1.7547 -0.3815 -0.8519
 3366SOL     OW21556   0.182   0.749   9.244  0.2749 -0.1253 -0.3508
 3366SOL    HW121557   0.106   0.807   9.243  0.6726  0.3961 -0.4245
 3366SOL    HW221558   0.238   0.772   9.317  0.1919 -1.0030 -0.0053
 3367SOL     OW21559   1.398   0.927   1.216  0.1072  0.4149 -0.4709
 3367SOL    HW121560   1.340   0.977   1.274  0.6008 -0.5470  0.8557
 3367SOL    HW221561   1.352   0.845   1.234  2.1866 -0.4008  1.1981
 3368SOL     OW21562   0.937   2.683   3.000 -0.2372 -0.5421 -0.0412
 3368SOL    HW121563   0.880   2.723   2.934 -1.2208  0.9651  1.7131
 3368SOL    HW221564   0.914   2.717   3.087  2.0030 -0.7293  0.6159
 3369SOL     OW21565   1.567   3.321   7.010  0.3034 -0.2209 -0.3844
 3369SOL    HW121566   1.647   3.345   6.964 -0.3341  0.7993 -0.9709
 3369SOL    HW221567   1.581   3.226   7.014  0.0796 -0.2949 -1.3040
 3370SOL     OW21568   0.424   4.049   2.483  0.4390  0.1847  0.0619
 3370SOL    HW121569   0.432   4.090   2.569  0.1594 -0.1979  0.2705
 3370SOL    HW221570   0.380   3.964   2.488  2.6028 -0.8466  1.4407
 3371SOL     OW21571   4.025   3.220  13.442 -0.1886 -0.4603 -0.0010
 3371SOL    HW121572   4.038   3.265  13.525 -0.0350 -0.9401  0.2387
 3371SOL    HW221573   4.112   3.194  13.410  0.7188  0.1026  1.9813
 3372SOL     OW21574   3.719   0.266   8.339  0.1622  0.0917  0.8468
 3372SOL    HW121575   3.667   0.285   8.262 -1.8775 -1.5611  1.8336
 3372SOL    HW221576   3.643   0.235   8.388  1.4366 -1.8209  1.6018
 3373SOL     OW21577   1.971   0.780   5.325 -0.0603 -0.3161 -0.0631
 3373SOL    HW121578   2.001   0.689   5.319  0.0744 -0.2769  0.0214
 3373SOL    HW221579   1.880   0.776   5.294  0.1143 -1.1316 -0.4741
 3374SOL     OW21580   3.829   2.993   4.694  0.7050  0.0111  0.1590
 3374SOL    HW121581   3.878   3.052   4.637 -0.0212  0.9062  0.4678
 3374SOL    HW221582   3.876   2.911   4.680 -0.8275 -0.8728  0.1589
 3375SOL     OW21583   3.536   3.607   2.353 -0.2207 -0.2108 -0.3973
 3375SOL    HW121584   3.527   3.697   2.385  0.5876  0.0311 -0.8540
 3375SOL    HW221585   3.585   3.567   2.425  1.7542  2.2439 -0.3457
 3376SOL     OW21586   3.392   2.163   8.284  0.1779  0.2897  0.2714
 3376SOL    HW121587   3.436   2.143   8.202 -1.2191 -0.4273 -0.2907
 3376SOL    HW221588   3.360   2.074   8.299 -2.1652  0.6344 -2.8952
 3377SOL     OW21589   2.900   1.226  10.708  0.6100  0.5851 -0.0261
 3377SOL    HW121590   2.870   1.182  10.628  0.1116 -1.3834  1.2480
 3377SOL    HW221591   2.989   1.196  10.723  0.1707 -1.0504 -0.7279
 3378SOL     OW21592   0.161   1.706   2.894  0.1672 -0.3942  0.5131
 3378SOL    HW121593   0.103   1.731   2.966  1.2330  1.9117  0.5874
 3378SOL    HW221594   0.147   1.612   2.887 -0.9003 -0.2140  0.1991
 3379SOL     OW21595   0.807   4.481  16.095  0.1045 -0.0055  0.1676
 3379SOL    HW121596   0.753   4.542  16.144 -0.7515 -1.8086  1.4800
 3379SOL    HW221597   0.887   4.533  16.084 -0.2397  0.5889  0.4766
 3380SOL     OW21598   3.805   3.926   5.048 -0.4734  0.2456 -0.0313
 3380SOL    HW121599   3.809   4.020   5.033 -0.0741  0.0921 -0.8802
 3380SOL    HW221600   3.714   3.901   5.030 -0.0738  0.0860 -1.8789
 3381SOL     OW21601   1.659   2.321   5.816  0.0255 -0.6778  0.4433
 3381SOL    HW121602   1.704   2.238   5.797  1.5030  0.2379 -0.1046
 3381SOL    HW221603   1.575   2.309   5.773  0.8334 -0.0686 -1.3042
 3382SOL     OW21604   1.500   2.035  14.400  0.0832  0.2887 -0.1288
 3382SOL    HW121605   1.516   2.123  14.435 -1.1002 -0.3329  1.9783
 3382SOL    HW221606   1.575   1.994  14.443 -0.5701  0.1296  0.8462
 3383SOL     OW21607   1.221   3.933   4.816  0.6234 -0.2962  0.8535
 3383SOL    HW121608   1.176   3.866   4.867  0.1672 -2.5550 -2.5206
 3383SOL    HW221609   1.229   3.891   4.731  0.6319 -0.7530  1.0819
 3384SOL     OW21610   0.175   1.700   5.527 -0.3930  0.3603  0.0198
 3384SOL    HW121611   0.153   1.700   5.434  2.0696  1.6368 -0.5595
 3384SOL    HW221612   0.245   1.765   5.523  0.2980 -0.3026  1.2970
 3385SOL     OW21613   0.097   2.565   6.808 -0.2254  0.4127 -0.0027
 3385SOL    HW121614   0.042   2.553   6.885 -2.2268  1.7623 -1.2345
 3385SOL    HW221615   0.117   2.479   6.771 -1.5516  0.0406  0.1579
 3386SOL     OW21616   0.566   1.623   8.198  0.0948 -0.2972  0.0852
 3386SOL    HW121617   0.633   1.677   8.156  0.8054 -0.0838  1.4912
 3386SOL    HW221618   0.496   1.678   8.232  1.9792  2.2783 -0.2412
 3387SOL     OW21619   2.267   2.453   7.600  0.3281  0.3477  0.1661
 3387SOL    HW121620   2.245   2.538   7.639  1.3036 -0.6486  2.9482
 3387SOL    HW221621   2.226   2.402   7.671 -1.0813  0.5180 -0.5263
 3388SOL     OW21622   0.447   4.664   3.188  0.1425 -0.6774  0.1403
 3388SOL    HW121623   0.531   4.708   3.171 -0.9287  0.6984 -1.5349
 3388SOL    HW221624   0.486   4.577   3.199  0.9692 -0.2796  0.4045
 3389SOL     OW21625   0.172   3.901   2.141  0.1565 -0.0889  0.5950
 3389SOL    HW121626   0.184   3.866   2.053 -0.8625 -0.1366  0.4798
 3389SOL    HW221627   0.160   3.992   2.116  1.8025  0.8833  3.3076
 3390SOL     OW21628   1.784   4.716   8.025 -0.4970 -0.1616  0.0949
 3390SOL    HW121629   1.794   4.667   8.106  1.5211  1.6797  0.9538
 3390SOL    HW221630   1.842   4.658   7.976 -0.8926  0.6891 -1.3801
 3391SOL     OW21631   2.139   1.715   3.065  0.4329 -0.1300  0.2641
 3391SOL    HW121632   2.117   1.718   3.158  1.9013 -1.8121  0.6710
 3391SOL    HW221633   2.055   1.688   3.029 -0.1053  1.5112  0.2836
 3392SOL     OW21634   0.811   1.179  13.590  0.3052  0.1926 -0.3743
 3392SOL    HW121635   0.783   1.265  13.559 -2.1594 -0.2029  0.7211
 3392SOL    HW221636   0.871   1.151  13.520 -1.3367 -0.8427 -1.3674
 3393SOL     OW21637   0.950   2.531   4.756 -0.0307  0.1263  0.0149
 3393SOL    HW121638   1.033   2.578   4.748 -1.2702  1.9888 -1.7822
 3393SOL    HW221639   0.885   2.592   4.790 -0.3688 -0.8996  1.1968
 3394SOL     OW21640   2.840   0.796   6.534 -0.7871 -0.1802 -0.0266
 3394SOL    HW121641   2.887   0.748   6.602  2.8403  1.5661 -1.3493
 3394SOL    HW221642   2.779   0.725   6.513 -1.4003 -0.1802  1.7207
 3395SOL     OW21643   1.658   3.272  11.492 -0.3092  0.0771  0.2535
 3395SOL    HW121644   1.708   3.279  11.411 -2.9805  0.4297 -1.3676
 3395SOL    HW221645   1.687   3.345  11.547  2.2524 -1.0549  0.3971
 3396SOL     OW21646   0.676   3.891   4.142  0.4698  0.0273 -0.8271
 3396SOL    HW121647   0.757   3.853   4.174 -0.5157  0.4199  2.0968
 3396SOL    HW221648   0.647   3.833   4.071  0.0302 -0.4596 -0.2501
 3397SOL     OW21649   3.147   4.285   3.797  0.0505 -0.6994 -0.0231
 3397SOL    HW121650   3.212   4.217   3.776 -1.2189 -2.0990  0.5919
 3397SOL    HW221651   3.118   4.304   3.707  0.1302 -1.1860 -0.1555
 3398SOL     OW21652   4.421   0.826   6.425  0.3920 -0.3468  0.4816
 3398SOL    HW121653   4.333   0.790   6.414 -0.2301  1.8558 -1.6391
 3398SOL    HW221654   4.463   0.786   6.349 -1.9406  3.0970 -2.6163
 3399SOL     OW21655   2.390   2.151  14.042 -0.3129  0.1469 -0.0737
 3399SOL    HW121656   2.377   2.172  13.950 -2.9929  0.6636  0.4158
 3399SOL    HW221657   2.477   2.191  14.044 -0.3575  0.3996 -3.0327
 3400SOL     OW21658   0.127   4.145   1.676 -0.0991  0.1983  0.0019
 3400SOL    HW121659   0.221   4.126   1.672 -0.2905 -0.3971 -1.4486
 3400SOL    HW221660   0.118   4.169   1.768  0.8158  1.7084 -0.3126
 3401SOL     OW21661   0.723   1.477   2.201  0.4951 -0.1227 -0.1895
 3401SOL    HW121662   0.674   1.537   2.257 -1.5737 -1.5200 -0.5128
 3401SOL    HW221663   0.794   1.539   2.182 -0.3574  1.2978  1.3215
 3402SOL     OW21664   4.624   3.159   3.514  0.1584  0.0587  0.0127
 3402SOL    HW121665   4.702   3.119   3.476  0.4451  0.9395 -0.3217
 3402SOL    HW221666   4.661   3.219   3.578  0.3542 -1.6345  1.5003
 3403SOL     OW21667   4.453   1.071  14.986 -0.0103  0.5734 -0.2582
 3403SOL    HW121668   4.544   1.087  15.013 -0.4582  1.2621  0.8311
 3403SOL    HW221669   4.417   1.016  15.056  1.5748 -1.3385 -0.9651
 3404SOL     OW21670   3.728   0.765   6.740 -0.3430 -0.1444  0.3270
 3404SOL    HW121671   3.644   0.757   6.784 -0.0435 -2.0372  0.5681
 3404SOL    HW221672   3.717   0.848   6.693 -0.6929 -1.1165 -1.3111
 3405SOL     OW21673   0.267   2.391   5.122 -0.0926  0.2872  0.3898
 3405SOL    HW121674   0.355   2.372   5.091 -0.4549  0.4405 -0.7114
 3405SOL    HW221675   0.240   2.302   5.147 -1.2816  0.9354  1.4543
 3406SOL     OW21676   1.447   1.845   5.444  0.4887 -0.1084  0.2408
 3406SOL    HW121677   1.430   1.783   5.515  0.3410 -0.5230 -0.1497
 3406SOL    HW221678   1.532   1.814   5.412 -0.5226 -3.0953  0.3932
 3407SOL     OW21679   2.404   3.622  10.021 -0.0376 -0.0599 -0.2562
 3407SOL    HW121680   2.312   3.601  10.040 -0.1764 -0.7547 -1.6965
 3407SOL    HW221681   2.386   3.716  10.024  0.7626  0.0658  0.5067
 3408SOL     OW21682   3.393   0.892   7.267  0.1752 -0.1217  0.0771
 3408SOL    HW121683   3.394   0.985   7.241  0.9054 -0.4150 -0.9361
 3408SOL    HW221684   3.481   0.871   7.238 -0.1579 -2.0400  0.4591
 3409SOL     OW21685   0.980   4.345   2.914 -0.0412 -0.1360 -0.6300
 3409SOL    HW121686   0.971   4.268   2.858  3.4092  0.4919 -2.0194
 3409SOL    HW221687   0.908   4.392   2.871  0.3198  0.6849 -0.3417
 3410SOL     OW21688   0.568   3.825   7.664 -0.0222  0.4003  0.7479
 3410SOL    HW121689   0.488   3.844   7.713 -0.1896  0.3429  0.4953
 3410SOL    HW221690   0.532   3.787   7.584  1.1380 -0.9410  0.8508
 3411SOL     OW21691   2.945   1.556   2.328  0.2080  0.3780  0.1751
 3411SOL    HW121692   3.024   1.540   2.379  0.0549  0.0921  0.3190
 3411SOL    HW221693   2.893   1.605   2.392 -1.7900 -0.6180 -0.6635
 3412SOL     OW21694   0.116   4.542   7.199 -0.0925 -0.1716  0.4082
 3412SOL    HW121695   0.189   4.503   7.151  0.9015 -1.7341  3.2238
 3412SOL    HW221696   0.045   4.516   7.140 -1.0289  1.1739  0.9529
 3413SOL     OW21697   0.819   2.286   2.747  0.5225 -0.3202 -0.1580
 3413SOL    HW121698   0.901   2.255   2.710  1.5714 -1.3307  3.0138
 3413SOL    HW221699   0.808   2.217   2.813 -0.6289  0.9225  0.9531
 3414SOL     OW21700   1.825   2.402  14.846 -0.6514 -0.2013 -0.6602
 3414SOL    HW121701   1.789   2.378  14.761  0.2095 -3.3265 -0.1389
 3414SOL    HW221702   1.793   2.491  14.860 -0.4029  0.0461 -1.7019
 3415SOL     OW21703   2.837   2.777   9.062  0.0545  0.0661  0.7673
 3415SOL    HW121704   2.845   2.776   8.966 -1.4251  0.6729  0.6368
 3415SOL    HW221705   2.829   2.867   9.092 -0.1967  0.4377 -0.4015
 3416SOL     OW21706   2.378   3.086   8.183 -0.7084 -0.0936 -0.6619
 3416SOL    HW121707   2.364   3.179   8.204 -0.4581 -0.7008  2.1075
 3416SOL    HW221708   2.308   3.039   8.227  0.0340 -1.4161 -0.8982
 3417SOL     OW21709   1.967   2.233   9.726  0.0327  0.3120  0.4633
 3417SOL    HW121710   2.058   2.263   9.730 -0.0555  0.4412  1.5697
 3417SOL    HW221711   1.928   2.237   9.814  0.4729 -1.9892  0.7758
 3418SOL     OW21712   1.577   3.985   2.227 -0.0607  0.3676 -0.2905
 3418SOL    HW121713   1.608   3.903   2.267 -1.8117 -0.4054 -0.5291
 3418SOL    HW221714   1.651   4.044   2.241  0.2694 -0.5746  2.0691
 3419SOL     OW21715   3.059   4.577   7.091  0.5490  0.2328 -0.2706
 3419SOL    HW121716   3.037   4.668   7.069  0.1292 -0.3225 -2.1100
 3419SOL    HW221717   2.980   4.534   7.057 -0.5800  0.2742  2.2294
 3420SOL     OW21718   1.832   2.675   5.320 -0.6079 -0.2747  0.4863
 3420SOL    HW121719   1.897   2.738   5.289 -0.8491 -0.2909 -0.0549
 3420SOL    HW221720   1.829   2.697   5.413  0.8909  2.2747 -0.0660
 3421SOL     OW21721   0.090   4.413   5.652  0.0447 -0.2108  0.4036
 3421SOL    HW121722   0.005   4.374   5.675 -0.6492  1.2117  0.2925
 3421SOL    HW221723   0.131   4.428   5.737 -0.0237 -2.2351  0.7852
 3422SOL     OW21724   2.679   2.459   1.933  0.7293 -0.4773  0.1748
 3422SOL    HW121725   2.596   2.482   1.893  1.5379  2.0737 -0.0148
 3422SOL    HW221726   2.731   2.529   1.894  0.1473 -1.3132 -2.0982
 3423SOL     OW21727   3.498   2.126   3.468 -0.0205  0.0088 -0.1891
 3423SOL    HW121728   3.499   2.151   3.376 -0.4677 -1.1761 -0.5149
 3423SOL    HW221729   3.475   2.033   3.472 -1.5536  0.4096  0.3813
 3424SOL     OW21730   2.187   2.244   6.393  0.3022  0.7312 -0.0844
 3424SOL    HW121731   2.123   2.174   6.406  1.4146 -0.4357 -0.9027
 3424SOL    HW221732   2.255   2.206   6.449 -0.4418  0.3792  0.5664
 3425SOL     OW21733   4.551   3.369  16.878  0.7113  0.2789 -0.6684
 3425SOL    HW121734   4.619   3.305  16.857 -1.1014 -2.5280  2.0480
 3425SOL    HW221735   4.473   3.321  16.851  1.0700 -0.9602  0.5392
 3426SOL     OW21736   2.616   0.420   2.602  0.0611  0.9398 -0.1162
 3426SOL    HW121737   2.680   0.349   2.595  1.6924  2.3056  0.7364
 3426SOL    HW221738   2.676   0.495   2.593 -0.2372  1.1533 -0.2989
 3427SOL     OW21739   3.629   2.963   3.536  0.2404  0.3286  0.2908
 3427SOL    HW121740   3.656   2.937   3.448  1.9857 -1.7926  1.4623
 3427SOL    HW221741   3.541   2.990   3.508  0.3447  1.8977  1.4868
 3428SOL     OW21742   3.633   2.483   5.931 -0.0950  0.4994 -0.2266
 3428SOL    HW121743   3.701   2.495   5.865  0.1501  1.4355  0.2068
 3428SOL    HW221744   3.559   2.449   5.881 -0.4803  1.1173 -0.0624
 3429SOL     OW21745   0.580   0.767  17.118  0.4737  0.6746  0.2222
 3429SOL    HW121746   0.638   0.816  17.060 -0.6763  3.0574  1.0873
 3429SOL    HW221747   0.599   0.679  17.086 -0.0699 -0.8149  3.9844
 3430SOL     OW21748   2.941   0.972   6.950 -0.0592  0.6279 -0.1221
 3430SOL    HW121749   3.011   0.977   7.016 -1.4394 -1.6364  1.5039
 3430SOL    HW221750   2.990   1.008   6.876 -0.4360  0.1714 -0.5891
 3431SOL     OW21751   2.323   2.389  11.194  0.2741 -0.2112  0.1157
 3431SOL    HW121752   2.307   2.425  11.106  0.4289 -0.6823 -0.1039
 3431SOL    HW221753   2.386   2.449  11.233  0.0674  0.3392 -0.3991
 3432SOL     OW21754   4.094   4.648   3.487  0.3897 -0.2070 -0.3879
 3432SOL    HW121755   4.016   4.689   3.524  0.9935  2.0842 -1.6416
 3432SOL    HW221756   4.151   4.642   3.564 -2.5851  1.2653  1.9097
 3433SOL     OW21757   2.737   4.597   7.864 -0.1392 -0.2811 -0.3905
 3433SOL    HW121758   2.734   4.607   7.769  2.6737  2.7312 -0.1655
 3433SOL    HW221759   2.723   4.684   7.900 -2.6586 -0.4524 -1.0122
 3434SOL     OW21760   2.382   1.366   2.881 -0.2671  0.3747 -0.2945
 3434SOL    HW121761   2.339   1.384   2.964  1.7594  1.7841  0.4566
 3434SOL    HW221762   2.434   1.287   2.898 -0.2098  0.5842  0.5110
 3435SOL     OW21763   0.190   2.818   5.848  0.0665 -0.1695 -0.3094
 3435SOL    HW121764   0.275   2.849   5.815  0.6306 -1.0338  0.3291
 3435SOL    HW221765   0.165   2.899   5.894 -0.8749 -1.2655  1.0815
 3436SOL     OW21766   3.075   1.993  16.877  0.3127 -0.2673  0.2084
 3436SOL    HW121767   2.984   1.964  16.869  0.4035  0.1080 -2.3932
 3436SOL    HW221768   3.081   1.997  16.972 -1.1874 -1.4605  0.3488
 3437SOL     OW21769   0.566   2.621   2.244  0.3793 -0.1354  0.4810
 3437SOL    HW121770   0.574   2.526   2.235  0.4146  0.1587 -2.4245
 3437SOL    HW221771   0.632   2.642   2.311 -0.0057  2.0021  0.1967
 3438SOL     OW21772   0.568   4.395   3.120 -0.0141 -0.0861  0.3352
 3438SOL    HW121773   0.637   4.431   3.176 -0.0946  1.7287 -0.7231
 3438SOL    HW221774   0.571   4.300   3.114 -0.5102  0.0092 -1.3208
 3439SOL     OW21775   2.701   4.499   8.624  0.0375  0.4817 -0.5391
 3439SOL    HW121776   2.638   4.568   8.642 -1.1421 -0.8508  0.3979
 3439SOL    HW221777   2.776   4.542   8.583  0.6069 -1.7905 -1.9431
 3440SOL     OW21778   2.234   2.575   1.005  0.6816  0.2119  0.1647
 3440SOL    HW121779   2.150   2.560   1.050  0.5268  0.1465 -0.1442
 3440SOL    HW221780   2.232   2.669   0.989 -2.0810  0.1331 -0.0230
 3441SOL     OW21781   3.279   1.078   2.680 -0.5907 -0.2678  0.0906
 3441SOL    HW121782   3.289   1.148   2.615 -0.4362 -0.7130 -0.3641
 3441SOL    HW221783   3.239   1.122   2.755 -1.0791 -2.3597  1.0663
 3442SOL     OW21784   0.250   4.196   8.218 -0.3862  0.7645  0.2399
 3442SOL    HW121785   0.190   4.203   8.144  0.9843  0.1447 -0.9422
 3442SOL    HW221786   0.205   4.257   8.276 -2.5547 -0.5784 -0.0343
 3443SOL     OW21787   0.731   0.905   7.670 -0.5967 -0.1034  0.2636
 3443SOL    HW121788   0.774   0.845   7.609 -0.5509  2.2620 -2.0182
 3443SOL    HW221789   0.796   0.911   7.740 -1.5252  1.1293  1.0065
 3444SOL     OW21790   1.587   2.576   8.891  0.2310 -0.1825  0.5943
 3444SOL    HW121791   1.646   2.646   8.862  1.3733  0.1347  3.6677
 3444SOL    HW221792   1.631   2.507   8.842 -0.7827  0.7258 -1.5873
 3445SOL     OW21793   1.328   4.201  16.436 -0.3236  0.4869 -0.5611
 3445SOL    HW121794   1.350   4.149  16.358  0.0425  0.9092 -0.7414
 3445SOL    HW221795   1.256   4.250  16.399  0.0712  1.1921 -0.3857
 3446SOL     OW21796   2.558   0.362  14.350  0.3186  0.1063 -0.0342
 3446SOL    HW121797   2.587   0.285  14.301 -0.0440 -0.7706  1.1271
 3446SOL    HW221798   2.607   0.354  14.431  1.1251 -0.2998 -0.5560
 3447SOL     OW21799   3.443   1.352   6.592  0.0186 -0.2422 -0.3566
 3447SOL    HW121800   3.389   1.428   6.568 -0.9292 -1.1966 -1.2486
 3447SOL    HW221801   3.392   1.273   6.573 -1.3098  0.2887  1.0540
 3448SOL     OW21802   1.182   0.069   6.379 -0.1941 -0.1958  0.2437
 3448SOL    HW121803   1.092   0.088   6.353 -0.2065 -0.2669  0.2344
 3448SOL    HW221804   1.209   0.045   6.290 -0.3531 -1.8511  0.6412
 3449SOL     OW21805   1.368   1.523   4.864  1.3116 -0.4231 -0.3474
 3449SOL    HW121806   1.293   1.581   4.851 -0.1963 -2.2701  0.0987
 3449SOL    HW221807   1.370   1.461   4.791  0.0283 -0.5425 -0.2943
 3450SOL     OW21808   1.871   3.368  17.375 -0.0617 -0.2513  0.0904
 3450SOL    HW121809   1.813   3.416  17.434  0.7475 -0.4758  1.0649
 3450SOL    HW221810   1.821   3.287  17.370  0.8317 -0.8631  1.2234
 3451SOL     OW21811   4.339   1.836   4.016 -0.7914 -0.1548 -0.3696
 3451SOL    HW121812   4.352   1.853   4.110  0.6840 -0.5256 -0.5127
 3451SOL    HW221813   4.398   1.762   4.010  1.0406  1.5347 -2.9892
 3452SOL     OW21814   2.231   1.887   2.872 -0.4044 -0.1502  0.1358
 3452SOL    HW121815   2.203   1.823   2.936 -0.0471  1.0074  1.4497
 3452SOL    HW221816   2.255   1.822   2.806  0.8095  1.5336 -1.1172
 3453SOL     OW21817   2.725   3.046   8.265 -0.1945  0.5346  0.4817
 3453SOL    HW121818   2.749   2.962   8.227  0.7413  0.7681  0.5615
 3453SOL    HW221819   2.725   3.101   8.186  0.3333 -0.8066 -0.4483
 3454SOL     OW21820   2.287   3.484   7.682  0.4584  0.1160 -0.4013
 3454SOL    HW121821   2.221   3.553   7.695  1.2796  1.0238 -1.0481
 3454SOL    HW221822   2.232   3.423   7.633 -0.6571 -1.0493  2.3325
 3455SOL     OW21823   1.790   0.732   7.136 -0.1566 -0.1260  0.0596
 3455SOL    HW121824   1.848   0.655   7.133 -0.1689 -0.1476  0.3204
 3455SOL    HW221825   1.716   0.699   7.086 -1.8873  1.5468  1.5168
 3456SOL     OW21826   3.162   0.439  11.854 -0.2720  0.0854  0.1488
 3456SOL    HW121827   3.142   0.369  11.916  1.3306 -0.9022 -0.4582
 3456SOL    HW221828   3.149   0.400  11.768  0.6206  1.5194 -0.6274
 3457SOL     OW21829   2.991   3.954   3.290 -0.0951 -0.4134  0.3213
 3457SOL    HW121830   2.958   4.037   3.323 -0.4036  0.0077 -1.0264
 3457SOL    HW221831   3.060   3.932   3.351  0.3319 -2.1094 -0.7666
 3458SOL     OW21832   4.485   1.186   3.579  0.4306  0.0586  0.3120
 3458SOL    HW121833   4.478   1.093   3.558 -3.3030 -0.0985  2.2410
 3458SOL    HW221834   4.579   1.194   3.597  0.1786  3.2384  0.2713
 3459SOL     OW21835   4.531   2.905   2.506  0.1303  0.1869 -0.2458
 3459SOL    HW121836   4.611   2.870   2.545  0.2602 -1.3854 -1.9496
 3459SOL    HW221837   4.513   2.840   2.439 -0.2001  0.6057 -0.5691
 3460SOL     OW21838   0.231   2.548  14.126  0.4425 -0.0696  0.0034
 3460SOL    HW121839   0.275   2.504  14.198  1.3371  1.4286  0.3654
 3460SOL    HW221840   0.148   2.500  14.138 -0.7140  2.0946  0.6433
 3461SOL     OW21841   0.514   1.183   0.361 -0.5931 -0.4588  0.3270
 3461SOL    HW121842   0.436   1.150   0.317  0.9299 -2.2046 -1.1146
 3461SOL    HW221843   0.546   1.094   0.378  2.8324  0.7361  0.1693
 3462SOL     OW21844   1.442   2.472   2.647 -0.2530  0.0975  0.4045
 3462SOL    HW121845   1.428   2.442   2.557 -0.0958  0.4471  0.2662
 3462SOL    HW221846   1.531   2.441   2.666 -0.2065  0.2578  0.4458
 3463SOL     OW21847   1.770   4.447  16.669  0.3635 -0.5804  0.0513
 3463SOL    HW121848   1.856   4.414  16.696 -0.3012 -2.4717 -0.1148
 3463SOL    HW221849   1.733   4.487  16.748  0.5822  2.9814 -1.6441
 3464SOL     OW21850   3.333   2.942   8.740  0.5232  0.0914  0.4800
 3464SOL    HW121851   3.396   2.877   8.710 -0.7257  0.9297 -4.0884
 3464SOL    HW221852   3.396   3.011   8.758 -0.5599  0.8979  1.1778
 3465SOL     OW21853   0.875   1.355   1.897 -0.1458  0.2582 -0.0831
 3465SOL    HW121854   0.930   1.427   1.927  0.7300  0.0852 -1.3063
 3465SOL    HW221855   0.870   1.309   1.981  0.4165 -0.5758 -0.5079
 3466SOL     OW21856   3.090   1.129   4.869  0.1040 -0.0789  0.1332
 3466SOL    HW121857   3.130   1.182   4.937 -0.3451  0.0361  0.3060
 3466SOL    HW221858   3.025   1.079   4.918  2.3134 -0.4845  2.6439
 3467SOL     OW21859   2.341   4.585   5.572 -0.0475  0.4321 -0.3093
 3467SOL    HW121860   2.273   4.596   5.638  0.6288  0.9694  0.2914
 3467SOL    HW221861   2.297   4.625   5.497 -0.0375  0.0201 -0.5385
 3468SOL     OW21862   0.874   1.669  15.119 -0.5176  0.4479  0.5333
 3468SOL    HW121863   0.818   1.599  15.086 -1.7274  0.9047  1.6195
 3468SOL    HW221864   0.951   1.659  15.064 -1.4393 -3.0740 -0.1026
 3469SOL     OW21865   4.598   1.395  17.144 -0.1785 -0.0806  0.0868
 3469SOL    HW121866   4.599   1.390  17.239 -1.7519 -0.3160  0.0926
 3469SOL    HW221867   4.665   1.461  17.126 -1.7879  0.4527 -4.0342
 3470SOL     OW21868   0.480   0.469   4.325 -0.2171 -0.2203 -0.3197
 3470SOL    HW121869   0.473   0.563   4.309 -4.3117  0.0077  2.6801
 3470SOL    HW221870   0.563   0.455   4.370 -0.2062 -1.6702 -0.7880
 3471SOL     OW21871   1.328   3.971  17.014 -0.7634 -0.3999 -0.1668
 3471SOL    HW121872   1.410   3.923  17.025  0.0927  0.8057 -1.2871
 3471SOL    HW221873   1.367   4.053  16.983  1.4347 -1.5030 -0.3546
 3472SOL     OW21874   0.091   2.578  15.747 -0.1097  0.3249  0.1067
 3472SOL    HW121875   0.036   2.606  15.820  0.2179 -0.1532  0.5333
 3472SOL    HW221876   0.024   2.524  15.705  0.1597 -2.5798  3.4910
 3473SOL     OW21877   2.671   2.709   3.924 -0.2382 -0.6059  0.1084
 3473SOL    HW121878   2.733   2.719   3.996 -1.0213  2.2989  0.3566
 3473SOL    HW221879   2.714   2.647   3.864  0.2615 -1.4875  1.3789
 3474SOL     OW21880   1.387   0.894   8.947 -0.3353  0.0538  0.0852
 3474SOL    HW121881   1.465   0.914   8.997  0.9960 -1.1952 -1.5033
 3474SOL    HW221882   1.372   0.808   8.985 -1.0955  1.0665  2.1092
 3475SOL     OW21883   3.345   0.896   6.711  0.4411  0.1347 -0.1060
 3475SOL    HW121884   3.290   0.823   6.683 -0.6125  0.9489 -0.1671
 3475SOL    HW221885   3.343   0.874   6.804  0.8204 -1.9716 -0.5912
 3476SOL     OW21886   2.139   0.770   2.645  0.1731 -0.0042 -0.5279
 3476SOL    HW121887   2.159   0.854   2.685  1.3801 -0.1961 -0.7314
 3476SOL    HW221888   2.072   0.804   2.585 -0.4900  1.3570  0.9867
 3477SOL     OW21889   3.105   0.330  10.619 -1.0976 -0.1688  0.0249
 3477SOL    HW121890   3.196   0.322  10.647 -0.5883 -1.2885 -1.8871
 3477SOL    HW221891   3.095   0.255  10.559 -1.0842 -1.1989  1.3045
 3478SOL     OW21892   1.048   1.305   2.745 -0.3745 -0.4123  0.2192
 3478SOL    HW121893   1.060   1.239   2.813  1.1909 -0.9632 -0.5989
 3478SOL    HW221894   1.115   1.267   2.689 -1.5510 -0.2970 -1.2528
 3479SOL     OW21895   1.961   2.383   8.112 -0.3624  0.5557  0.6094
 3479SOL    HW121896   1.922   2.406   8.028  4.1540  3.6430 -0.6315
 3479SOL    HW221897   2.052   2.385   8.086 -0.2645  1.7474  1.0302
 3480SOL     OW21898   2.532   3.527   8.747  0.5043  0.2023 -0.3963
 3480SOL    HW121899   2.544   3.612   8.705 -0.4788  0.1235 -0.8398
 3480SOL    HW221900   2.516   3.545   8.840  1.4990 -1.0853  0.0270
 3481SOL     OW21901   2.076   4.369   7.959  0.2206 -0.7694  0.2197
 3481SOL    HW121902   2.081   4.371   8.054  2.4740 -0.8976  0.1058
 3481SOL    HW221903   2.165   4.400   7.941 -0.1080  0.3332  0.5083
 3482SOL     OW21904   2.564   3.546  16.101  0.5871 -1.1592 -0.3485
 3482SOL    HW121905   2.525   3.613  16.045  0.1410 -1.6142 -0.5835
 3482SOL    HW221906   2.483   3.495  16.109 -0.5676  0.9618  1.6070
 3483SOL     OW21907   0.530   1.823   8.709  0.0000 -0.2630 -0.3806
 3483SOL    HW121908   0.565   1.888   8.770  2.2349 -0.1607 -1.7833
 3483SOL    HW221909   0.512   1.885   8.638  0.6104 -0.7584 -0.9602
 3484SOL     OW21910   2.228   2.472  10.215  0.6278 -0.4464  0.1938
 3484SOL    HW121911   2.317   2.438  10.227  0.2608 -0.9424  1.4542
 3484SOL    HW221912   2.223   2.564  10.239 -3.3467 -0.5210 -0.3536
 3485SOL     OW21913   1.894   0.843   7.578  0.2403  0.0916 -0.1583
 3485SOL    HW121914   1.925   0.877   7.661  1.0599  1.2612 -0.9478
 3485SOL    HW221915   1.824   0.905   7.557 -0.0294 -0.3940 -0.7100
 3486SOL     OW21916   3.276   2.802   5.320 -0.2667 -0.1023 -0.1063
 3486SOL    HW121917   3.233   2.777   5.238  0.5173 -3.3213  0.4463
 3486SOL    HW221918   3.363   2.761   5.316 -0.3016 -0.2477  0.7195
 3487SOL     OW21919   0.539   0.891   5.483  0.0208  0.4779 -0.1410
 3487SOL    HW121920   0.543   0.866   5.390  0.8191  0.3848 -0.0838
 3487SOL    HW221921   0.627   0.928   5.489  1.1007 -2.3727  1.3958
 3488SOL     OW21922   1.047   0.464   2.429  1.0126 -0.3880  0.1152
 3488SOL    HW121923   0.965   0.436   2.388  1.4873 -0.7046 -0.6027
 3488SOL    HW221924   1.102   0.431   2.359  0.6696  1.3845 -0.9972
 3489SOL     OW21925   2.030   4.172   4.057  0.2024  0.0767  0.4549
 3489SOL    HW121926   1.946   4.152   4.098 -0.6959  3.6459  0.3748
 3489SOL    HW221927   2.052   4.087   4.020 -0.8833 -0.5574  1.2777
 3490SOL     OW21928   2.817   2.125   2.158 -0.2992 -0.0208  0.1109
 3490SOL    HW121929   2.725   2.122   2.132 -0.3747 -0.9104  0.4816
 3490SOL    HW221930   2.861   2.137   2.074 -0.0466  0.3823  0.3017
 3491SOL     OW21931   0.604   1.505  15.546 -0.3878  0.2737 -0.0453
 3491SOL    HW121932   0.608   1.564  15.621  0.7468  2.3027 -1.6927
 3491SOL    HW221933   0.531   1.445  15.562 -1.4806  2.1237  1.9005
 3492SOL     OW21934   1.455   2.823   3.088  0.3045  0.1705 -0.6003
 3492SOL    HW121935   1.461   2.775   3.006  0.7836  0.6743 -0.8637
 3492SOL    HW221936   1.549   2.835   3.107 -0.1785 -0.6363  2.2428
 3493SOL     OW21937   0.984   1.252   5.937 -0.1016 -0.3877  0.1780
 3493SOL    HW121938   1.030   1.242   6.020  1.0824 -0.9007 -0.5530
 3493SOL    HW221939   1.004   1.169   5.895  1.3118  1.1962 -2.3091
 3494SOL     OW21940   0.456   2.524  15.410 -0.9043 -0.1066 -0.0913
 3494SOL    HW121941   0.371   2.500  15.372 -1.3146  0.8652  0.2056
 3494SOL    HW221942   0.502   2.441  15.426  0.5098  1.3388  3.2431
 3495SOL     OW21943   4.233   1.087  17.405 -0.0144  0.5495 -0.1802
 3495SOL    HW121944   4.139   1.082  17.421  0.1094 -0.0700  0.3436
 3495SOL    HW221945   4.255   1.138  17.483 -1.0227  1.7714 -0.6847
 3496SOL     OW21946   2.390   4.486  12.601 -0.0926 -0.0789 -0.6497
 3496SOL    HW121947   2.310   4.442  12.630  0.1087 -0.0748 -0.0834
 3496SOL    HW221948   2.461   4.475  12.664  1.5160  1.9428 -2.0604
 3497SOL     OW21949   0.264   4.621   7.795 -1.4976 -0.1573 -0.3954
 3497SOL    HW121950   0.326   4.611   7.723  0.4359  0.7965  1.1245
 3497SOL    HW221951   0.262   4.717   7.793 -1.3488 -0.1079  1.6900
 3498SOL     OW21952   4.524   3.394   5.233 -0.6130  0.0871  0.0026
 3498SOL    HW121953   4.539   3.398   5.139  1.2673  1.1411  0.3472
 3498SOL    HW221954   4.449   3.338   5.253 -0.3746 -1.1198 -2.5956
 3499SOL     OW21955   4.585   0.073   3.696 -0.3189 -0.0097  0.2988
 3499SOL    HW121956   4.568   0.158   3.738 -1.9394  0.0088 -0.4102
 3499SOL    HW221957   4.514   0.071   3.633  0.2577 -0.5291 -0.3259
 3500SOL     OW21958   0.092   4.110   0.160 -0.6216 -0.7759  0.6328
 3500SOL    HW121959   0.073   4.178   0.224 -0.5580 -0.8925  0.7748
 3500SOL    HW221960   0.022   4.119   0.096  1.7724 -0.7591 -1.9795
 3501SOL     OW21961   4.130   3.704   4.347  0.4338 -0.1356  0.1025
 3501SOL    HW121962   4.120   3.711   4.442  0.4089 -0.6690  0.1365
 3501SOL    HW221963   4.193   3.633   4.338  0.7270  0.2219 -0.6306
 3502SOL     OW21964   4.051   0.404  16.148  0.0240  0.2041 -0.3141
 3502SOL    HW121965   3.969   0.382  16.191 -0.0606 -1.7279 -1.4945
 3502SOL    HW221966   4.050   0.339  16.078  2.1850  1.8737 -1.9085
 3503SOL     OW21967   4.332   3.849   8.259 -0.4664 -0.4252 -0.0392
 3503SOL    HW121968   4.354   3.848   8.353  0.1719 -2.5342 -0.2148
 3503SOL    HW221969   4.406   3.799   8.223 -0.2326  0.6615 -1.0397
 3504SOL     OW21970   2.803   3.603   4.177  0.3884  0.1127 -0.3043
 3504SOL    HW121971   2.834   3.691   4.197 -0.6342  1.0481 -2.8371
 3504SOL    HW221972   2.712   3.623   4.198  0.2071  0.0526 -1.0464
 3505SOL     OW21973   0.763   0.641   8.196 -0.5359  0.3060 -0.1005
 3505SOL    HW121974   0.847   0.619   8.156  0.5183  1.2612  1.5792
 3505SOL    HW221975   0.719   0.556   8.193 -1.4062  0.7126  0.8563
 3506SOL     OW21976   1.715   1.869   2.642 -0.3178 -0.0166  0.2252
 3506SOL    HW121977   1.803   1.835   2.622  0.8003  2.2929  1.1756
 3506SOL    HW221978   1.727   1.957   2.606  0.1517 -1.0371 -2.1279
 3507SOL     OW21979   2.407   3.110   2.846  0.1870 -0.2450 -0.4402
 3507SOL    HW121980   2.448   3.071   2.769  0.6888 -0.5112 -0.0374
 3507SOL    HW221981   2.467   3.184   2.854 -0.5088  0.3457 -0.6133
 3508SOL     OW21982   2.682   1.269   0.843 -0.7065 -0.2197 -0.0057
 3508SOL    HW121983   2.614   1.300   0.903  0.1084 -0.6771  1.1645
 3508SOL    HW221984   2.752   1.242   0.903 -2.1487 -1.4615  1.0954
 3509SOL     OW21985   0.218   1.351   4.506  0.0845 -1.0300 -0.0928
 3509SOL    HW121986   0.270   1.291   4.453  0.5876 -0.3922 -0.3192
 3509SOL    HW221987   0.196   1.295   4.580  1.8947  0.5718  1.6461
 3510SOL     OW21988   2.095   1.069  12.765  0.2557 -0.6586 -0.4347
 3510SOL    HW121989   2.107   1.122  12.844 -2.6449 -1.5851  0.6230
 3510SOL    HW221990   2.112   1.131  12.695  1.7330 -0.0350  0.4879
 3511SOL     OW21991   4.669   2.962   7.995 -0.1625  0.4073  0.0791
 3511SOL    HW121992   0.024   2.930   8.043  1.5730  2.9296 -0.9974
 3511SOL    HW221993   4.630   3.025   8.056  1.6108  0.8524  0.7401
 3512SOL     OW21994   2.810   4.484   7.021  0.1984 -0.0879 -0.2214
 3512SOL    HW121995   2.761   4.532   6.954 -0.8301 -1.6431 -0.5814
 3512SOL    HW221996   2.830   4.407   6.967  1.2533 -0.5289  0.8093
 3513SOL     OW21997   3.524   2.628   4.553  0.5072  0.0035  0.0538
 3513SOL    HW121998   3.594   2.631   4.618 -0.2146  0.5730  0.7938
 3513SOL    HW221999   3.504   2.535   4.562 -0.4669  0.0207 -1.9367
 3514SOL     OW22000   4.071   1.807   7.544 -0.3785  0.6463 -0.1611
 3514SOL    HW122001   4.012   1.740   7.577 -0.3184  2.3756  3.5048
 3514SOL    HW222002   4.104   1.827   7.632  0.6866  2.7213 -1.0311
 3515SOL     OW22003   1.013   0.362   4.190  0.4544  0.8556 -0.4541
 3515SOL    HW122004   1.091   0.331   4.235 -2.3528 -0.9077  3.2184
 3515SOL    HW222005   1.034   0.332   4.102  2.2264  0.3726  0.1452
 3516SOL     OW22006   0.687   2.755   4.855 -0.7086  0.2065  0.4267
 3516SOL    HW122007   0.724   2.826   4.908 -1.8225  0.9387  0.2286
 3516SOL    HW222008   0.593   2.752   4.874 -1.0033  1.5132 -0.8342
 3517SOL     OW22009   3.196   0.235   5.841  0.1740 -0.8335 -0.0419
 3517SOL    HW122010   3.235   0.314   5.878  2.4035 -1.6405 -0.6590
 3517SOL    HW222011   3.140   0.281   5.778 -0.4556 -0.6937  0.6184
 3518SOL     OW22012   1.958   2.022   5.871 -0.0434  0.1661 -0.1898
 3518SOL    HW122013   1.902   2.031   5.793 -1.3158  0.3742  0.7337
 3518SOL    HW222014   2.032   1.976   5.832  1.2543  3.0730 -1.0842
 3519SOL     OW22015   2.195   4.265   7.010 -0.0573  0.1056  0.4598
 3519SOL    HW122016   2.218   4.346   7.056  1.0619 -0.5464  1.0507
 3519SOL    HW222017   2.108   4.245   7.045 -1.1358 -0.7100 -2.6665
 3520SOL     OW22018   4.282   0.072   1.678 -0.3331  0.0269  0.3554
 3520SOL    HW122019   4.289   0.076   1.582 -0.9649 -2.0426  0.2322
 3520SOL    HW222020   4.189   0.053   1.692  0.6640 -2.7177  3.0848
 3521SOL     OW22021   3.881   2.789   7.567 -0.1309  0.0169  0.2696
 3521SOL    HW122022   3.795   2.817   7.536  0.1791  0.1872 -0.4292
 3521SOL    HW222023   3.888   2.699   7.534 -0.6890  0.0795 -0.0158
 3522SOL     OW22024   0.568   0.249   2.717 -0.4932 -0.2248  0.1635
 3522SOL    HW122025   0.531   0.285   2.636 -0.0411 -0.0171  0.0520
 3522SOL    HW222026   0.650   0.298   2.717  0.1074 -1.2479 -0.0861
 3523SOL     OW22027   3.107   2.669   2.642 -0.4380 -0.2444 -0.4092
 3523SOL    HW122028   3.033   2.703   2.692 -0.4310 -0.3527 -0.3257
 3523SOL    HW222029   3.074   2.691   2.555  2.7940  1.2187 -1.2571
 3524SOL     OW22030   3.670   0.248   0.749  0.0465 -0.0737  0.0339
 3524SOL    HW122031   3.709   0.293   0.673  1.2475  1.1454  1.3756
 3524SOL    HW222032   3.742   0.187   0.768 -0.7760 -0.2149  2.5813
 3525SOL     OW22033   0.104   0.099   0.971 -0.5642  0.3141 -0.1192
 3525SOL    HW122034   0.016   0.062   0.970 -0.3356 -0.2376  2.0653
 3525SOL    HW222035   0.098   0.167   1.038  2.1100 -0.1281  0.5480
 3526SOL     OW22036   3.716   2.559  14.158  0.1980 -0.1420 -0.2752
 3526SOL    HW122037   3.687   2.647  14.133  1.1955  0.1337 -0.4464
 3526SOL    HW222038   3.794   2.583  14.207 -1.5176  0.9683  1.9468
 3527SOL     OW22039   4.693   4.370   2.364  0.3088  0.7317 -0.5559
 3527SOL    HW122040   4.670   4.410   2.280  0.9488  0.2895 -0.9459
 3527SOL    HW222041   0.041   4.428   2.396  0.2600 -1.0948  2.8053
 3528SOL     OW22042   0.171   1.766  16.735  0.1728 -0.7050  0.5639
 3528SOL    HW122043   0.170   1.671  16.749 -4.6270 -0.8160 -0.6877
 3528SOL    HW222044   0.086   1.768  16.692 -0.2472 -4.8487  1.1856
 3529SOL     OW22045   0.400   2.191   8.216  0.0451 -0.0437  0.0019
 3529SOL    HW122046   0.447   2.271   8.238 -2.4510  1.3285  0.3689
 3529SOL    HW222047   0.336   2.188   8.287  0.1928  2.5335  0.2387
 3530SOL     OW22048   3.706   1.100  10.575  0.2597  0.6123  0.0005
 3530SOL    HW122049   3.697   1.128  10.666 -1.0622 -0.2056  0.1255
 3530SOL    HW222050   3.687   1.185  10.537 -0.9544  0.8530  1.1259
 3531SOL     OW22051   4.438   3.922   2.358  0.2068 -0.2071  0.0619
 3531SOL    HW122052   4.473   4.004   2.324 -0.5791  0.8285  1.7467
 3531SOL    HW222053   4.497   3.895   2.429 -0.2870  0.5094  0.7439
 3532SOL     OW22054   3.463   0.346   4.587  0.6525  0.6237 -0.1465
 3532SOL    HW122055   3.479   0.319   4.677  0.3506  0.1244 -0.2410
 3532SOL    HW222056   3.367   0.340   4.583  0.6505 -0.4345  1.3016
 3533SOL     OW22057   1.186   0.678   3.470  0.0493  0.0857 -0.1835
 3533SOL    HW122058   1.152   0.683   3.380 -0.5470 -0.0765  0.0351
 3533SOL    HW222059   1.148   0.593   3.493 -3.0728  1.5444 -0.0610
 3534SOL     OW22060   2.111   3.771   8.701 -0.0900 -0.0832  0.2424
 3534SOL    HW122061   2.093   3.863   8.720 -0.1036  0.3584 -2.0187
 3534SOL    HW222062   2.024   3.741   8.676 -0.1623 -1.0949  1.7167
 3535SOL     OW22063   0.139   3.166   4.875  0.2583 -0.3961  0.0392
 3535SOL    HW122064   0.173   3.183   4.787 -1.5296  1.9708 -0.1992
 3535SOL    HW222065   0.214   3.123   4.915  0.8485  0.2795 -0.3585
 3536SOL     OW22066   0.309   3.046  15.734 -0.3378  0.1179 -0.3661
 3536SOL    HW122067   0.323   3.124  15.788  1.0540 -1.3400  1.3687
 3536SOL    HW222068   0.394   3.041  15.691 -0.6340 -2.9294 -0.5758
 3537SOL     OW22069   4.559   3.386  10.400 -0.5450  0.4422 -0.5175
 3537SOL    HW122070   4.651   3.363  10.389 -0.7042  0.5826 -2.1576
 3537SOL    HW222071   4.534   3.373  10.308 -3.8832  0.9084  0.3240
 3538SOL     OW22072   1.800   1.245   2.683 -0.3916 -0.9306  0.2609
 3538SOL    HW122073   1.739   1.197   2.629  0.3355  0.9921 -2.2525
 3538SOL    HW222074   1.831   1.296   2.608  3.0829 -4.5846 -0.8114
 3539SOL     OW22075   1.158   0.431   3.284 -0.1158  0.1319 -0.0053
 3539SOL    HW122076   1.102   0.431   3.362  0.1783  1.4335  0.1945
 3539SOL    HW222077   1.170   0.521   3.256 -0.7466  0.3870  0.5519
 3540SOL     OW22078   1.237   4.120   3.829  0.1487 -0.3287 -0.0015
 3540SOL    HW122079   1.244   4.216   3.838  0.8887 -0.4203  0.4103
 3540SOL    HW222080   1.329   4.099   3.811 -0.3848 -2.4902 -0.1770
 3541SOL     OW22081   3.698   1.141  16.765 -0.2948  0.2056 -0.3122
 3541SOL    HW122082   3.682   1.119  16.673 -0.9008 -1.3493  0.1643
 3541SOL    HW222083   3.790   1.119  16.776 -0.0997  0.6453 -1.0910
 3542SOL     OW22084   2.844   3.907   4.051 -0.3838 -0.2471 -0.0837
 3542SOL    HW122085   2.802   3.962   4.118  0.0465 -0.2587  0.1929
 3542SOL    HW222086   2.888   3.963   3.988  1.0701  1.4786  2.4718
 3543SOL     OW22087   2.323   3.677   6.862  0.3827 -0.2305  0.0830
 3543SOL    HW122088   2.414   3.681   6.891  0.7878 -0.4402 -1.1222
 3543SOL    HW222089   2.324   3.723   6.777 -0.8729 -0.2603  0.0523
 3544SOL     OW22090   0.598   2.576   2.640 -0.0519 -0.2794  0.2418
 3544SOL    HW122091   0.584   2.490   2.600  0.5746 -0.5342  0.5670
 3544SOL    HW222092   0.663   2.615   2.581 -0.3050 -0.0881  0.0870
 3545SOL     OW22093   4.531   4.450  13.179 -0.6941 -0.7334  0.0014
 3545SOL    HW122094   4.452   4.417  13.138 -1.9139  1.4406  0.5665
 3545SOL    HW222095   4.495   4.523  13.230 -0.9915 -1.9999  1.5895
 3546SOL     OW22096   3.457   1.813   4.999  0.1054  0.0941  0.2085
 3546SOL    HW122097   3.539   1.794   5.044  0.6314 -1.0618 -1.2285
 3546SOL    HW222098   3.449   1.732   4.948 -0.6196  1.5922 -2.0893
 3547SOL     OW22099   1.638   1.700   3.259  0.4454 -0.1524 -0.4388
 3547SOL    HW122100   1.702   1.636   3.288 -2.4956 -3.1897 -0.6898
 3547SOL    HW222101   1.569   1.648   3.218  0.8915 -3.3667  2.8951
 3548SOL     OW22102   1.483   4.302  11.503  0.4571 -0.4307 -0.4401
 3548SOL    HW122103   1.515   4.215  11.483 -0.0462  0.0685 -3.3564
 3548SOL    HW222104   1.425   4.300  11.579  1.1516  0.0743  0.1076
 3549SOL     OW22105   0.135   1.662   3.789  0.2990  0.1437 -0.5679
 3549SOL    HW122106   0.191   1.589   3.816 -0.7802 -0.5678 -0.2739
 3549SOL    HW222107   0.183   1.692   3.712 -1.5208  0.8814 -1.4040
 3550SOL     OW22108   4.652   3.880   6.285  0.2160 -0.1394 -0.2546
 3550SOL    HW122109   4.672   3.787   6.296  0.8907  0.0447  0.0274
 3550SOL    HW222110   4.566   3.894   6.325  0.3696  1.8882 -0.6505
 3551SOL     OW22111   1.769   3.730   4.922  0.8918  0.1834 -0.2423
 3551SOL    HW122112   1.797   3.723   5.013  0.7554  4.2412  0.0920
 3551SOL    HW222113   1.676   3.706   4.922  0.8278  0.5040 -3.1974
 3552SOL     OW22114   2.337   4.231   4.935 -0.3556 -0.4793 -0.1059
 3552SOL    HW122115   2.318   4.234   4.841  0.5008 -0.4327 -0.2802
 3552SOL    HW222116   2.425   4.195   4.934 -0.3982 -0.5394 -2.0287
 3553SOL     OW22117   1.380   2.165   4.256  0.0996  0.0102 -0.2478
 3553SOL    HW122118   1.464   2.140   4.218  0.7406 -1.2451  1.9957
 3553SOL    HW222119   1.318   2.144   4.186  0.6495 -0.7055 -0.5209
 3554SOL     OW22120   3.920   0.819   9.565 -0.6166  0.2687 -0.8695
 3554SOL    HW122121   3.964   0.883   9.508 -0.3669  0.4998 -0.4196
 3554SOL    HW222122   3.946   0.740   9.518 -4.0507 -1.7838  0.6878
 3555SOL     OW22123   3.883   0.472  13.437  0.0591 -0.0354  0.0745
 3555SOL    HW122124   3.912   0.561  13.417  0.3455 -0.5936 -1.9417
 3555SOL    HW222125   3.879   0.477  13.533 -0.2126 -0.3861  0.0800
 3556SOL     OW22126   3.547   2.716   0.744  0.0285 -0.0334 -0.6913
 3556SOL    HW122127   3.469   2.700   0.797  0.6685 -2.0024 -0.3483
 3556SOL    HW222128   3.542   2.811   0.751  0.7981  0.0030 -0.6176
 3557SOL     OW22129   1.464   4.091   1.714  0.3375  1.2308 -0.0368
 3557SOL    HW122130   1.486   4.111   1.805 -3.0461  0.0328  1.0503
 3557SOL    HW222131   1.545   4.057   1.676  0.3375  1.6319 -0.3928
 3558SOL     OW22132   0.206   3.863  14.974  0.3304 -0.1554  0.3951
 3558SOL    HW122133   0.201   3.782  15.025 -0.5960 -1.8120 -2.3630
 3558SOL    HW222134   0.293   3.844  14.939 -0.2903  0.6901 -1.5621
 3559SOL     OW22135   2.052   0.992   5.127  0.4848 -0.3403 -0.4605
 3559SOL    HW122136   2.066   0.905   5.165  0.1352 -0.4001 -0.4606
 3559SOL    HW222137   1.960   1.010   5.149  0.5359  1.7829 -1.9316
 3560SOL     OW22138   2.313   2.675   9.686  0.0310 -0.2863 -0.2547
 3560SOL    HW122139   2.317   2.698   9.779 -2.5950  0.7678 -0.3942
 3560SOL    HW222140   2.315   2.579   9.686  0.4860 -0.2799  1.1247
 3561SOL     OW22141   4.507   2.683   8.365 -0.0857 -0.3220 -0.5458
 3561SOL    HW122142   4.540   2.642   8.445 -1.3230 -0.1462  0.0612
 3561SOL    HW222143   4.515   2.776   8.386  0.6835 -0.7227  0.9170
 3562SOL     OW22144   0.710   1.168   9.137  0.4907  0.0895 -0.3405
 3562SOL    HW122145   0.730   1.256   9.105  1.1207 -0.2584 -0.8864
 3562SOL    HW222146   0.726   1.124   9.054 -2.0598 -1.3813 -0.0598
 3563SOL     OW22147   4.072   0.824   2.009  0.1300  0.1099 -0.5003
 3563SOL    HW122148   4.134   0.839   1.937 -0.8918 -1.5513 -1.7138
 3563SOL    HW222149   4.028   0.745   1.976  0.9097 -0.3013 -0.5571
 3564SOL     OW22150   2.955   3.701   3.449  0.0010 -0.4988 -0.0660
 3564SOL    HW122151   2.920   3.627   3.399  1.1061 -2.0479  1.4363
 3564SOL    HW222152   3.033   3.724   3.399 -0.7308 -0.2690 -1.0900
 3565SOL     OW22153   1.458   3.905  10.887 -0.1446  0.6663  0.3928
 3565SOL    HW122154   1.485   3.917  10.796  0.1069  0.0313  0.3803
 3565SOL    HW222155   1.487   3.974  10.946 -1.3821  0.8035  0.8393
 3566SOL     OW22156   2.594   3.768   4.285  0.1879 -0.0175  0.3090
 3566SOL    HW122157   2.630   3.857   4.287  1.5956 -0.5224 -2.1045
 3566SOL    HW222158   2.504   3.786   4.258  0.9287  1.5819 -1.0779
 3567SOL     OW22159   0.088   3.419   2.803 -0.8851  0.3296 -0.2103
 3567SOL    HW122160   0.143   3.377   2.869  2.1339  2.0264 -1.6390
 3567SOL    HW222161   0.151   3.482   2.768 -0.2156  0.2012  0.7539
 3568SOL     OW22162   4.466   3.435  11.297  0.2837  0.4004 -0.0630
 3568SOL    HW122163   4.513   3.409  11.376 -0.4400 -2.6096 -0.6335
 3568SOL    HW222164   4.535   3.485  11.255  0.0841  0.1049 -0.7320
 3569SOL     OW22165   0.542   3.368   7.681  0.3381 -0.7068  0.2298
 3569SOL    HW122166   0.616   3.408   7.727  0.4465  0.7317 -1.1769
 3569SOL    HW222167   0.473   3.404   7.737  1.9728 -0.3132  2.0102
 3570SOL     OW22168   0.271   0.003   6.505  0.6813  0.2095 -0.5611
 3570SOL    HW122169   0.345   0.040   6.552  1.0596 -1.0444 -0.1519
 3570SOL    HW222170   0.232   0.089   6.491  0.7531  0.3871  0.3443
 3571SOL     OW22171   3.104   2.761  17.640 -0.2279 -0.1739 -0.0682
 3571SOL    HW122172   3.122   2.757   0.049 -1.8987  0.6220  0.2905
 3571SOL    HW222173   3.041   2.833  17.638 -0.7251 -0.6205 -0.4231
 3572SOL     OW22174   4.096   2.913   7.123  0.4853 -0.6217  1.1021
 3572SOL    HW122175   4.180   2.913   7.168  1.6972 -1.2604 -1.1606
 3572SOL    HW222176   4.043   2.849   7.170  1.1809 -1.4904  0.7119
 3573SOL     OW22177   4.215   2.635   2.700 -0.1247  0.2706  0.0500
 3573SOL    HW122178   4.231   2.585   2.780  1.1340  0.6361  0.0180
 3573SOL    HW222179   4.290   2.694   2.698 -0.2308  0.3470 -1.6610
 3574SOL     OW22180   0.789   3.708  17.587  0.8261 -0.1134 -0.0318
 3574SOL    HW122181   0.856   3.668  17.642  0.4202  0.7179  1.0485
 3574SOL    HW222182   0.781   3.790  17.635  0.4767  1.0844 -2.1009
 3575SOL     OW22183   1.006   0.961   5.892 -0.2507  0.0484 -0.2584
 3575SOL    HW122184   1.065   0.978   5.819  1.1726  0.4474  0.9571
 3575SOL    HW222185   1.039   0.878   5.928 -1.5397  0.8069  2.7122
 3576SOL     OW22186   3.523   4.039   9.791  0.1209 -0.3585  0.2151
 3576SOL    HW122187   3.520   4.118   9.738  0.2359 -0.2014  0.4471
 3576SOL    HW222188   3.482   3.974   9.734  0.6865  0.4428 -1.1062
 3577SOL     OW22189   0.528   1.651   2.614 -0.1724  0.1056 -0.0377
 3577SOL    HW122190   0.468   1.712   2.657  0.4833 -0.9589  2.3471
 3577SOL    HW222191   0.482   1.567   2.614 -1.7810  0.9882  0.3264
 3578SOL     OW22192   1.891   0.825   7.882  0.2854 -0.0065 -0.1983
 3578SOL    HW122193   1.812   0.771   7.883  0.7662 -0.6090  2.9937
 3578SOL    HW222194   1.962   0.762   7.875  0.3821  0.0091  0.6557
 3579SOL     OW22195   4.525   2.395   4.311  0.1089  0.4739 -1.1820
 3579SOL    HW122196   4.612   2.371   4.344  0.1320  1.7419 -0.3315
 3579SOL    HW222197   4.476   2.328   4.359  3.1067 -2.3189 -1.9932
 3580SOL     OW22198   4.256   1.226   6.892 -0.4638  0.1658  0.8916
 3580SOL    HW122199   4.181   1.172   6.869  0.6600 -1.1181  0.2599
 3580SOL    HW222200   4.296   1.187   6.970 -1.9917  0.3479  1.7836
 3581SOL     OW22201   2.399   2.927   5.151  0.3080  0.1738  0.5751
 3581SOL    HW122202   2.340   2.997   5.123  0.2774  0.4400  1.3102
 3581SOL    HW222203   2.485   2.944   5.113 -0.1861  1.0295 -0.1587
 3582SOL     OW22204   3.742   4.511   3.535 -0.3106 -0.1730  0.0903
 3582SOL    HW122205   3.670   4.530   3.474  0.1639  2.2739  0.2947
 3582SOL    HW222206   3.782   4.598   3.539  1.2411 -1.0596  3.5392
 3583SOL     OW22207   0.887   1.796   6.116 -0.1137  0.5792 -0.0853
 3583SOL    HW122208   0.883   1.737   6.041  0.5522 -0.3877  0.6518
 3583SOL    HW222209   0.969   1.765   6.154 -0.8285  0.5625  1.4212
 3584SOL     OW22210   2.156   4.718   4.419 -0.6538 -0.1532 -0.3795
 3584SOL    HW122211   2.066   4.702   4.448 -0.9548 -0.3613 -1.4134
 3584SOL    HW222212   2.154   0.081   4.466  0.7784 -0.2475 -0.1503
 3585SOL     OW22213   1.153   0.538   7.004  0.8152  0.1306 -0.3163
 3585SOL    HW122214   1.147   0.611   6.943 -1.1694  1.9661  2.1043
 3585SOL    HW222215   1.181   0.467   6.946  1.4775  0.1088  0.0291
 3586SOL     OW22216   0.280   0.891   8.927 -0.0357 -0.1836 -0.6341
 3586SOL    HW122217   0.245   0.961   8.984 -1.5968  0.2137 -2.0855
 3586SOL    HW222218   0.217   0.820   8.941 -0.8923  0.6666 -0.1441
 3587SOL     OW22219   3.680   1.434   7.985  0.2615 -0.0424  0.1394
 3587SOL    HW122220   3.616   1.474   8.045  1.8379  1.2792  0.9184
 3587SOL    HW222221   3.669   1.481   7.903  0.1170  2.5173  1.6333
 3588SOL     OW22222   4.371   0.752   5.090  0.3174 -0.2874  0.8717
 3588SOL    HW122223   4.333   0.676   5.046  1.2855 -0.1152 -0.2526
 3588SOL    HW222224   4.305   0.765   5.158 -1.3355  0.8442 -0.9247
 3589SOL     OW22225   0.615   0.094   5.499  0.1556 -0.1917 -0.2033
 3589SOL    HW122226   0.528   0.109   5.537 -2.0001 -0.3336 -5.0934
 3589SOL    HW222227   0.665   0.165   5.539  1.1462 -0.0882 -1.6328
 3590SOL     OW22228   1.459   1.810   2.650 -0.2430  0.0641 -0.8965
 3590SOL    HW122229   1.553   1.828   2.650 -0.1511 -0.4074 -0.7622
 3590SOL    HW222230   1.448   1.749   2.723  1.4627  1.6736  0.7174
 3591SOL     OW22231   4.432   2.348  11.861  0.2621 -0.1795  0.2604
 3591SOL    HW122232   4.373   2.419  11.837  3.1109  1.2544 -2.3839
 3591SOL    HW222233   4.400   2.336  11.951 -1.6215  0.1834 -0.3581
 3592SOL     OW22234   3.503   1.122   5.301  0.0525 -0.0456 -0.1816
 3592SOL    HW122235   3.511   1.176   5.222 -0.0085  1.7117  1.0303
 3592SOL    HW222236   3.454   1.044   5.273 -0.4673  0.1371  0.2485
 3593SOL     OW22237   3.041   3.714   6.895 -0.2576  0.1953 -0.0801
 3593SOL    HW122238   3.076   3.629   6.868 -3.1809 -0.8949 -0.5107
 3593SOL    HW222239   3.117   3.770   6.884  0.4652 -0.6254  0.7312
 3594SOL     OW22240   4.181   4.347   1.549  0.0891 -0.0045 -0.1244
 3594SOL    HW122241   4.181   4.252   1.539 -0.1346 -0.2131  1.9280
 3594SOL    HW222242   4.239   4.370   1.476  0.9592  2.2433  1.2586
 3595SOL     OW22243   3.634   0.360   2.090 -0.0406 -0.2800 -0.3714
 3595SOL    HW122244   3.678   0.443   2.073 -1.4110  0.5153 -0.0455
 3595SOL    HW222245   3.648   0.310   2.010  2.1773  1.2418 -0.9286
 3596SOL     OW22246   0.430   1.410  17.084 -0.2394 -0.3188 -0.3686
 3596SOL    HW122247   0.393   1.351  17.019 -0.2884 -0.8400  0.1296
 3596SOL    HW222248   0.439   1.484  17.024  0.1721 -0.8449 -0.9547
 3597SOL     OW22249   2.364   1.448   8.742  0.4066 -0.5569 -0.6274
 3597SOL    HW122250   2.271   1.426   8.752  0.1309  0.4806 -0.9265
 3597SOL    HW222251   2.401   1.361   8.726 -1.0500 -1.6410  1.7352
 3598SOL     OW22252   2.660   0.729   3.648 -0.2049 -0.3546 -0.8730
 3598SOL    HW122253   2.670   0.724   3.553  0.0914  0.2496 -0.8726
 3598SOL    HW222254   2.727   0.796   3.663 -0.2624 -0.6151  0.5392
 3599SOL     OW22255   1.899   0.277   2.096  0.1923 -0.4308  0.1425
 3599SOL    HW122256   1.993   0.284   2.079  0.5368  0.5761  2.4688
 3599SOL    HW222257   1.891   0.364   2.135  1.4606 -0.4767  0.5126
 3600SOL     OW22258   0.451   3.481   2.932 -0.4784 -0.1466  0.2016
 3600SOL    HW122259   0.440   3.432   3.013 -0.3344  1.5700  1.2664
 3600SOL    HW222260   0.541   3.450   2.920 -0.3623  0.2886 -0.0817
 3601SOL     OW22261   2.279   3.504  15.969 -0.5346 -0.1489  0.0966
 3601SOL    HW122262   2.242   3.570  15.911 -1.5455 -2.3937 -1.8231
 3601SOL    HW222263   2.228   3.434  15.926  2.4261 -1.8080 -0.6838
 3602SOL     OW22264   2.299   0.536   7.525 -0.0298 -0.2272 -0.1114
 3602SOL    HW122265   2.224   0.586   7.493  0.1823 -0.9737 -1.7527
 3602SOL    HW222266   2.363   0.606   7.533  0.0344 -0.3554  0.4992
 3603SOL     OW22267   0.333   2.007   4.886  0.1523 -0.4437  0.4816
 3603SOL    HW122268   0.241   2.011   4.912 -0.5512  0.0171 -1.9853
 3603SOL    HW222269   0.378   2.047   4.960 -0.7330  1.1824  0.1627
 3604SOL     OW22270   4.120   1.894   4.701  0.2626 -0.8143 -0.4921
 3604SOL    HW122271   4.081   1.839   4.633  0.7850 -0.5799 -0.9790
 3604SOL    HW222272   4.214   1.885   4.684  0.8343  0.8768  1.7248
 3605SOL     OW22273   3.246   3.049   5.428 -0.6486 -0.0366  0.2866
 3605SOL    HW122274   3.156   3.031   5.456 -1.3799  1.1973 -1.2726
 3605SOL    HW222275   3.263   2.971   5.376  0.0627  0.2814  0.0539
 3606SOL     OW22276   2.527   1.070  16.747 -0.6478  0.1938 -0.1205
 3606SOL    HW122277   2.538   1.064  16.652  0.5757 -1.1379  0.1043
 3606SOL    HW222278   2.458   1.012  16.780 -0.9578  0.6109 -0.0390
 3607SOL     OW22279   2.508   2.725   3.097  0.3208  0.5193  0.8292
 3607SOL    HW122280   2.485   2.703   3.187  2.0379 -0.0191  1.1240
 3607SOL    HW222281   2.507   2.820   3.113 -0.4898  0.3201  1.9026
 3608SOL     OW22282   2.959   2.815  12.840 -0.4301 -0.3656  0.4146
 3608SOL    HW122283   2.953   2.839  12.932  0.3106 -2.0666  0.8996
 3608SOL    HW222284   2.871   2.798  12.807  0.7639  0.2381 -3.1734
 3609SOL     OW22285   3.009   3.866   7.132  0.1899 -0.0279 -0.1837
 3609SOL    HW122286   3.014   3.799   7.064  2.6164 -0.0786  0.0406
 3609SOL    HW222287   3.077   3.848   7.196  0.2177 -1.4559 -0.6166
 3610SOL     OW22288   4.018   1.383   2.777  0.1953  0.1775  0.3887
 3610SOL    HW122289   3.939   1.437   2.770  0.4932  0.5613 -0.0371
 3610SOL    HW222290   4.008   1.369   2.871  1.6117  2.4528  0.8919
 3611SOL     OW22291   4.463   2.278   6.173  0.0423  0.1750 -0.1760
 3611SOL    HW122292   4.546   2.304   6.213  0.0941  0.0786 -0.2215
 3611SOL    HW222293   4.463   2.183   6.181 -0.7724  0.3490  2.0480
 3612SOL     OW22294   4.548   2.344   5.197 -0.2163 -0.2262  0.1641
 3612SOL    HW122295   4.534   2.323   5.289 -1.5710  0.1383  0.0419
 3612SOL    HW222296   4.478   2.301   5.148  0.9417 -0.9143 -0.8604
 3613SOL     OW22297   3.424   3.724   5.289 -0.3000  0.3924 -0.2833
 3613SOL    HW122298   3.354   3.659   5.290  0.6734 -0.6263  1.1842
 3613SOL    HW222299   3.493   3.687   5.344  0.5223 -0.5781 -1.9359
 3614SOL     OW22300   1.429   0.023   1.410  0.0917  0.5873 -0.4295
 3614SOL    HW122301   1.434   0.118   1.424  0.5641  0.6173 -0.7919
 3614SOL    HW222302   1.338   0.015   1.380  0.3430 -2.2805 -0.4484
 3615SOL     OW22303   4.169   2.722  11.192 -0.0655  0.0857  1.3165
 3615SOL    HW122304   4.119   2.794  11.231 -3.3510 -0.8766 -1.1329
 3615SOL    HW222305   4.106   2.672  11.141 -1.3456  1.1081  1.8924
 3616SOL     OW22306   0.767   2.189   5.191 -1.0372 -0.2613 -0.8417
 3616SOL    HW122307   0.861   2.195   5.172 -0.7879  1.9206  1.1166
 3616SOL    HW222308   0.752   2.284   5.186  0.0242  0.0253  1.4500
 3617SOL     OW22309   0.834   2.733  10.107  0.2049 -0.9557 -0.0580
 3617SOL    HW122310   0.785   2.802  10.063 -0.3910 -1.7836 -0.6917
 3617SOL    HW222311   0.827   2.661  10.044  2.5663  0.6978 -2.2211
 3618SOL     OW22312   3.174   1.882   9.255 -0.2865  0.9762  0.4731
 3618SOL    HW122313   3.127   1.799   9.250  2.1050 -0.1924 -2.8195
 3618SOL    HW222314   3.143   1.924   9.335 -1.4410 -0.5752  0.8372
 3619SOL     OW22315   4.035   3.992   7.517  0.0390 -0.0604 -0.2977
 3619SOL    HW122316   3.940   4.005   7.521  0.1977  0.8321  0.5711
 3619SOL    HW222317   4.067   3.999   7.606 -2.2821  0.6776  0.4882
 3620SOL     OW22318   3.379   4.031   7.829 -0.2090 -0.5875  0.1185
 3620SOL    HW122319   3.328   4.020   7.909  1.1041  1.8310  1.3078
 3620SOL    HW222320   3.344   4.116   7.801 -2.1293 -1.5550 -0.3950
 3621SOL     OW22321   2.963   0.919   0.007 -0.9240 -0.3174  0.0886
 3621SOL    HW122322   2.984   0.945   0.097 -1.0097 -0.0650  0.0353
 3621SOL    HW222323   2.989   0.827   0.007 -1.1975 -0.3881 -1.9791
 3622SOL     OW22324   2.319   0.435   4.722  0.5528  0.1940  0.4448
 3622SOL    HW122325   2.314   0.499   4.651 -2.0949 -0.9312 -0.3904
 3622SOL    HW222326   2.347   0.498   4.788 -2.0216  2.7792 -0.9130
 3623SOL     OW22327   2.665   1.254   5.709  0.4080 -0.0295  0.3132
 3623SOL    HW122328   2.589   1.305   5.680  1.2213 -0.4734 -2.6410
 3623SOL    HW222329   2.669   1.191   5.637 -2.2644  1.8681 -1.4874
 3624SOL     OW22330   4.568   3.716   9.474 -0.2907 -0.0853 -0.4549
 3624SOL    HW122331   4.594   3.736   9.384 -1.4973  0.6473 -0.6413
 3624SOL    HW222332   4.516   3.636   9.460  1.4625 -1.3928  0.5170
 3625SOL     OW22333   1.393   1.241   9.237 -0.4623  0.1961  0.7595
 3625SOL    HW122334   1.467   1.274   9.287  0.2239 -0.3962  0.1388
 3625SOL    HW222335   1.394   1.146   9.253  0.7469 -0.0149 -0.5892
 3626SOL     OW22336   1.549   1.223   3.390 -0.0084 -0.2243 -0.1031
 3626SOL    HW122337   1.639   1.214   3.358 -0.6176 -0.2267 -1.8238
 3626SOL    HW222338   1.563   1.290   3.457  3.2410 -0.3586 -0.6613
 3627SOL     OW22339   1.960   3.633  11.629 -0.1092  0.5227  0.9171
 3627SOL    HW122340   2.000   3.552  11.597 -0.8975 -0.7612  3.1338
 3627SOL    HW222341   2.032   3.662  11.686  1.1954 -1.3673  0.2560
 3628SOL     OW22342   1.922   1.526  11.932  0.3844  0.2421  0.0522
 3628SOL    HW122343   1.921   1.437  11.969 -3.8871  0.9723  1.7198
 3628SOL    HW222344   1.863   1.514  11.858 -0.7162  3.7085  0.3709
 3629SOL     OW22345   0.556   1.066   2.681  0.6551  0.2637 -0.1163
 3629SOL    HW122346   0.609   0.989   2.659 -0.5708 -0.0080 -2.0997
 3629SOL    HW222347   0.536   1.088   2.590  0.4457  1.7924  0.3070
 3630SOL     OW22348   2.548   3.645  14.609  0.0319 -0.2500  0.0088
 3630SOL    HW122349   2.622   3.665  14.666 -0.3352 -0.8472  0.6904
 3630SOL    HW222350   2.486   3.610  14.673  0.0156 -1.1001 -0.4649
 3631SOL     OW22351   3.600   1.964  10.237 -0.0846  0.2570  0.3217
 3631SOL    HW122352   3.586   1.870  10.225 -1.9503  0.5236  0.3350
 3631SOL    HW222353   3.669   1.961  10.303 -0.4439 -0.1928  0.6798
 3632SOL     OW22354   1.560   0.027   3.390 -0.0014  0.2326  0.4997
 3632SOL    HW122355   1.575   0.056   3.480  0.5495 -0.8768  0.7642
 3632SOL    HW222356   1.470   0.058   3.382 -0.8024 -1.8425  1.5291
 3633SOL     OW22357   0.037   2.618  10.378 -0.3241  0.2471  0.3496
 3633SOL    HW122358   4.676   2.625  10.428 -0.9730 -2.1207 -0.3785
 3633SOL    HW222359   0.071   2.533  10.406 -1.1403 -0.7814 -1.7860
 3634SOL     OW22360   1.837   4.335   9.379 -0.3475  0.2260  0.0363
 3634SOL    HW122361   1.770   4.370   9.439 -0.8919 -0.4283 -0.1851
 3634SOL    HW222362   1.910   4.343   9.440 -0.1622  1.3431 -0.3339
 3635SOL     OW22363   1.318   3.857   1.094 -0.4228  0.3431 -0.2231
 3635SOL    HW122364   1.264   3.871   1.016 -0.7774  0.4346  0.0365
 3635SOL    HW222365   1.405   3.883   1.064  0.0076 -0.4994  0.2981
 3636SOL     OW22366   2.974   3.559   8.563 -0.4229  0.2521 -0.1228
 3636SOL    HW122367   2.922   3.631   8.598 -1.7419  0.3460 -2.3213
 3636SOL    HW222368   3.059   3.572   8.605 -1.2804 -0.5394  1.8522
 3637SOL     OW22369   3.026   3.067   3.251 -0.0484  0.4811 -0.1509
 3637SOL    HW122370   3.065   3.090   3.166  0.6797  0.0390  0.0655
 3637SOL    HW222371   3.050   2.976   3.267 -3.0558 -0.1859  0.5550
 3638SOL     OW22372   1.191   0.142  12.506 -0.0908 -0.2639  1.3366
 3638SOL    HW122373   1.177   0.214  12.567  0.6106  0.7559  0.2694
 3638SOL    HW222374   1.148   0.174  12.427 -0.8296 -1.6054  1.1758
 3639SOL     OW22375   4.476   2.744   5.122  0.1109  0.1674  0.2396
 3639SOL    HW122376   4.465   2.729   5.028  2.3256 -1.4312  0.2339
 3639SOL    HW222377   4.470   2.837   5.143 -1.9123  0.1076  0.0094
 3640SOL     OW22378   0.949   3.109  14.580  0.0578 -0.1933  0.5670
 3640SOL    HW122379   0.921   3.054  14.653  2.7036 -0.5132  1.3335
 3640SOL    HW222380   1.035   3.071  14.564  0.1903  0.2774  0.1393
 3641SOL     OW22381   2.681   0.924   3.396 -0.4307  0.3758  0.1212
 3641SOL    HW122382   2.621   0.969   3.337  2.2732  3.3422 -0.3880
 3641SOL    HW222383   2.742   0.892   3.329 -1.4425  0.3464 -0.7883
 3642SOL     OW22384   3.462   0.372  17.326  0.4173 -0.1894 -0.5756
 3642SOL    HW122385   3.487   0.461  17.353  0.0087  0.2451 -1.5983
 3642SOL    HW222386   3.543   0.326  17.348  0.9215  1.3499  0.7991
 3643SOL     OW22387   3.723   2.341   4.421  0.0055  0.6295  0.4048
 3643SOL    HW122388   3.691   2.408   4.360 -0.8303 -1.0055 -0.9607
 3643SOL    HW222389   3.788   2.299   4.364 -1.0430  0.7011 -0.8650
 3644SOL     OW22390   4.122   3.660   8.994 -0.2916  0.2925  0.2243
 3644SOL    HW122391   4.131   3.755   8.999  0.5195  0.1754  0.9745
 3644SOL    HW222392   4.203   3.641   8.946 -1.4367 -1.0032 -1.1813
 3645SOL     OW22393   4.581   1.951   8.744  0.1663 -0.0596  0.1471
 3645SOL    HW122394   4.506   1.909   8.702 -0.6934  1.8261 -0.1895
 3645SOL    HW222395   4.584   1.905   8.828  0.3868 -0.1158  0.1068
 3646SOL     OW22396   2.870   2.982   7.466 -0.3811 -0.0266 -0.1453
 3646SOL    HW122397   2.794   3.035   7.441  0.0041  1.1595  1.2322
 3646SOL    HW222398   2.819   2.918   7.514 -0.8677  2.6214  2.8367
 3647SOL     OW22399   2.917   1.286  11.986  0.4916  0.5412  0.4432
 3647SOL    HW122400   2.922   1.217  12.052 -0.1874  0.3692  0.3089
 3647SOL    HW222401   3.004   1.267  11.949  0.4729  0.6586  0.3422
 3648SOL     OW22402   1.884   1.496   9.595  0.3939  0.0557 -0.1925
 3648SOL    HW122403   1.900   1.586   9.567 -0.6486  0.1275 -0.5560
 3648SOL    HW222404   1.790   1.497   9.579  0.1697 -0.3905  1.0907
 3649SOL     OW22405   0.465   2.935  16.518 -0.1039 -0.4285  0.1733
 3649SOL    HW122406   0.545   2.968  16.478  0.0065 -0.2319  0.5513
 3649SOL    HW222407   0.439   3.009  16.574  0.1912  1.1521 -1.7753
 3650SOL     OW22408   2.990   2.601  16.259  0.3684  0.2729  0.3118
 3650SOL    HW122409   2.942   2.636  16.335 -0.6819 -1.0696  0.2718
 3650SOL    HW222410   3.038   2.670  16.213 -3.1898  3.3828  1.2581
 3651SOL     OW22411   3.775   2.197   8.670 -0.2896  0.1419  0.0924
 3651SOL    HW122412   3.759   2.265   8.604  2.5503  0.6241 -0.0988
 3651SOL    HW222413   3.868   2.211   8.690 -0.6736  0.0927  1.8954
 3652SOL     OW22414   4.066   2.488   4.284  0.4030  0.6691 -0.3202
 3652SOL    HW122415   4.116   2.409   4.301  0.5423  1.1453  1.5041
 3652SOL    HW222416   4.038   2.486   4.192 -2.8364 -1.7154  0.7121
 3653SOL     OW22417   3.495   1.076   3.234 -0.3765 -0.3126 -0.1068
 3653SOL    HW122418   3.441   1.155   3.233  1.3753  0.9240  1.2445
 3653SOL    HW222419   3.446   1.017   3.177 -0.1283  1.3340 -2.0205
 3654SOL     OW22420   0.164   3.865  17.646 -0.1617 -0.0318  0.0588
 3654SOL    HW122421   0.119   3.948  17.661  0.1231  0.1773 -0.2264
 3654SOL    HW222422   0.107   3.800   0.003  1.1057 -0.8943  0.4409
 3655SOL     OW22423   1.789   4.475  15.576 -0.4312  0.2542 -0.4222
 3655SOL    HW122424   1.878   4.454  15.606 -0.4162  0.5884 -0.2406
 3655SOL    HW222425   1.744   4.464  15.660 -1.4351  0.4113 -0.9426
 3656SOL     OW22426   0.550   4.144   9.022 -0.1955  0.1904 -0.1756
 3656SOL    HW122427   0.551   4.231   9.061 -0.9945 -0.2595  0.8413
 3656SOL    HW222428   0.490   4.106   9.086 -1.0917  0.1896 -1.0131
 3657SOL     OW22429   1.534   3.619   4.968 -0.2052 -0.5887  0.1054
 3657SOL    HW122430   1.517   3.611   5.061  2.8094 -0.1383  0.6906
 3657SOL    HW222431   1.444   3.606   4.936 -1.3083  3.1751  1.6798
 3658SOL     OW22432   0.580   0.660   4.033  0.3377 -0.2150  0.8045
 3658SOL    HW122433   0.518   0.731   4.050  0.7174  0.5162 -0.8066
 3658SOL    HW222434   0.629   0.693   3.958  0.5099  0.6893  1.3108
 3659SOL     OW22435   1.543   4.462  17.145 -0.2963 -0.1981 -0.9510
 3659SOL    HW122436   1.512   4.467  17.235  0.0111 -0.1426 -0.8487
 3659SOL    HW222437   1.475   4.417  17.096  0.1091 -1.3610 -0.4383
 3660SOL     OW22438   2.906   0.091  13.029 -0.0500  0.2588  0.1273
 3660SOL    HW122439   2.970   0.129  13.090  1.1217 -0.6736 -0.5231
 3660SOL    HW222440   2.849   0.165  13.009 -0.0948 -0.2918 -1.7467
 3661SOL     OW22441   3.266   2.258   6.373 -0.3193  0.0634  0.4460
 3661SOL    HW122442   3.181   2.231   6.338 -0.3184 -0.5198  0.8952
 3661SOL    HW222443   3.290   2.337   6.324 -3.9529  0.8939 -0.0356
 3662SOL     OW22444   1.699   2.462   1.690  0.2159 -0.0571  0.3101
 3662SOL    HW122445   1.725   2.423   1.606 -1.1892  0.1723 -0.2267
 3662SOL    HW222446   1.767   2.529   1.699  2.3518 -2.0791 -0.5958
 3663SOL     OW22447   4.037   1.886   6.230 -0.5568  0.2009 -0.1140
 3663SOL    HW122448   3.950   1.868   6.267 -1.1023  2.0738 -0.4530
 3663SOL    HW222449   4.080   1.934   6.301  0.6547 -2.2754  0.8246
 3664SOL     OW22450   0.280   3.637   9.471 -0.4691 -0.4397 -0.3794
 3664SOL    HW122451   0.270   3.600   9.559  0.0788  2.4276  0.8941
 3664SOL    HW222452   0.369   3.673   9.471 -0.5325 -0.2902 -1.3618
 3665SOL     OW22453   0.476   3.584  14.098  0.2928 -0.2744  0.4540
 3665SOL    HW122454   0.510   3.529  14.028 -0.1733 -1.6226  1.2956
 3665SOL    HW222455   0.503   3.673  14.074  0.0960 -0.2557  0.3010
 3666SOL     OW22456   4.348   2.646   7.109  1.0051 -0.4653  0.5660
 3666SOL    HW122457   4.387   2.593   7.177 -0.3892 -2.1886  0.0277
 3666SOL    HW222458   4.365   2.734   7.143  1.4455 -0.7979  1.1874
 3667SOL     OW22459   0.660   4.089   7.538 -0.6897  0.6709 -0.0842
 3667SOL    HW122460   0.651   3.993   7.544  2.9341  0.3891  0.9112
 3667SOL    HW222461   0.574   4.114   7.573 -1.2583  0.0311 -1.0151
 3668SOL     OW22462   2.034   4.026   7.334  0.3294  0.3786 -0.2261
 3668SOL    HW122463   2.053   4.118   7.351 -0.1174  0.1075  1.7206
 3668SOL    HW222464   2.076   3.981   7.408  0.7690  1.5083  0.2157
 3669SOL     OW22465   1.781   1.619  11.431  0.1125 -0.2880 -0.0497
 3669SOL    HW122466   1.877   1.623  11.423  0.0704  1.6108  0.2362
 3669SOL    HW222467   1.777   1.550  11.497  0.8097  0.6875  1.0443
 3670SOL     OW22468   1.128   4.286   4.068 -0.0430 -0.0009  0.0714
 3670SOL    HW122469   1.158   4.326   3.986 -1.6968 -0.2747 -0.6714
 3670SOL    HW222470   1.048   4.336   4.084  0.9573  1.6999 -0.3196
 3671SOL     OW22471   2.186   4.511   4.792 -0.5309 -0.8876  0.6304
 3671SOL    HW122472   2.241   4.455   4.737 -1.0383  0.5414 -1.3071
 3671SOL    HW222473   2.244   4.529   4.866 -0.4585 -1.6853  0.7734
 3672SOL     OW22474   2.751   2.057  13.021  0.1024  0.1823  0.5890
 3672SOL    HW122475   2.766   2.122  13.089 -0.3195 -1.3887  2.1530
 3672SOL    HW222476   2.659   2.067  12.995  0.7979 -0.7326 -2.3221
 3673SOL     OW22477   0.469   2.529   4.265  0.8595  0.1018 -0.3497
 3673SOL    HW122478   0.375   2.531   4.285  1.1660  1.6842  0.9174
 3673SOL    HW222479   0.465   2.613   4.219 -1.0800 -0.9307 -2.0524
 3674SOL     OW22480   3.013   3.341   6.786  0.3605  0.1119 -0.2955
 3674SOL    HW122481   3.014   3.338   6.881 -3.5755  2.3200 -0.1646
 3674SOL    HW222482   3.106   3.361   6.777  0.9578 -1.9839  1.3569
 3675SOL     OW22483   1.344   0.913  12.443  0.0237  0.7699  0.2158
 3675SOL    HW122484   1.342   0.974  12.517 -0.0886  1.4093 -0.3254
 3675SOL    HW222485   1.371   0.828  12.479 -0.6417  0.4004 -0.1532
 3676SOL     OW22486   2.339   0.031   3.909  0.3164 -0.2241  0.6872
 3676SOL    HW122487   2.309   0.052   3.998  2.5057 -0.3518  1.4479
 3676SOL    HW222488   2.422   0.078   3.906  1.4105 -2.0267  2.4490
 3677SOL     OW22489   1.893   0.463  13.169 -0.1468  0.4694 -0.3151
 3677SOL    HW122490   1.847   0.401  13.112  2.3009  0.7308 -2.5732
 3677SOL    HW222491   1.917   0.539  13.116 -2.1291  1.4111  0.1659
 3678SOL     OW22492   1.219   2.908   6.097 -0.7534 -0.0901  0.4733
 3678SOL    HW122493   1.312   2.903   6.075 -0.9029 -1.2008  0.1121
 3678SOL    HW222494   1.218   2.966   6.174  0.0928  1.4321 -0.6750
 3679SOL     OW22495   1.929   1.801   6.020  0.0933 -0.2544  0.1916
 3679SOL    HW122496   1.931   1.879   5.965 -3.8596  0.3455  0.8792
 3679SOL    HW222497   1.869   1.836   6.087 -1.1745  0.5664 -1.3738
 3680SOL     OW22498   1.993   0.975   2.999 -0.9121 -0.6188 -0.0480
 3680SOL    HW122499   1.934   1.049   3.017  0.8745  0.4737  1.2882
 3680SOL    HW222500   2.025   0.996   2.912  0.0993 -0.5771  0.3404
 3681SOL     OW22501   1.276   1.826   6.356  0.4074 -0.0794 -0.5697
 3681SOL    HW122502   1.362   1.803   6.393 -0.6204 -2.2718  0.4073
 3681SOL    HW222503   1.299   1.906   6.308  0.6295 -0.0813 -0.4690
 3682SOL     OW22504   1.877   0.650   2.016  0.5366  0.5298  0.1880
 3682SOL    HW122505   1.852   0.608   1.934 -0.4294 -0.5715  1.0571
 3682SOL    HW222506   1.815   0.724   2.014  2.0816  1.8230  0.0877
 3683SOL     OW22507   0.201   4.607   1.354  0.2848  0.0845 -0.0948
 3683SOL    HW122508   0.187   4.513   1.366 -1.1535  0.3746  0.4621
 3683SOL    HW222509   0.114   4.645   1.345  0.5273  0.5335 -0.5368
 3684SOL     OW22510   2.689   2.570   2.599 -0.1195 -0.0624 -0.0672
 3684SOL    HW122511   2.681   2.519   2.518  0.1013 -2.0272  1.1469
 3684SOL    HW222512   2.623   2.638   2.587  1.0250  0.8600 -1.1472
 3685SOL     OW22513   2.382   4.619   8.640 -0.2561  0.2578 -0.9251
 3685SOL    HW122514   2.390   4.545   8.580  0.9713 -2.5324  2.7098
 3685SOL    HW222515   2.348   4.574   8.717  1.6451  2.8206  1.4417
 3686SOL     OW22516   2.419   4.617   7.037  0.4413  0.9057  0.2536
 3686SOL    HW122517   2.489   4.583   6.981 -1.0714  0.1004 -1.1525
 3686SOL    HW222518   2.396   4.530   7.071 -0.1549  0.7867 -0.4618
 3687SOL     OW22519   0.917   1.402   9.809 -0.5664 -0.4062 -0.2120
 3687SOL    HW122520   0.955   1.372   9.727 -0.3518  1.7990 -0.9147
 3687SOL    HW222521   0.911   1.496   9.792  0.2025  0.0705  2.1313
 3688SOL     OW22522   2.192   3.384  15.372  0.0992  0.3322 -0.3598
 3688SOL    HW122523   2.278   3.377  15.330  0.0153 -1.0009 -0.2824
 3688SOL    HW222524   2.129   3.401  15.301  1.0747  0.2984 -1.2422
 3689SOL     OW22525   1.125   1.210   3.482 -0.3550 -0.0027  0.0419
 3689SOL    HW122526   1.046   1.167   3.513 -0.7519 -1.0627 -2.4398
 3689SOL    HW222527   1.085   1.287   3.442  1.6638 -0.0588 -2.1437
 3690SOL     OW22528   3.231   3.790   5.627 -0.4137 -0.0186 -0.6301
 3690SOL    HW122529   3.325   3.797   5.643 -0.4673 -1.4492  0.2779
 3690SOL    HW222530   3.209   3.759   5.714 -0.4517 -1.0726 -1.0177
 3691SOL     OW22531   1.478   2.311   3.072  0.3913 -0.2303 -0.5509
 3691SOL    HW122532   1.570   2.295   3.094  0.8685  1.1663 -1.5111
 3691SOL    HW222533   1.448   2.221   3.055 -2.1534 -0.0581  3.1511
 3692SOL     OW22534   1.858   1.698  17.493 -1.0386 -0.1662 -0.0747
 3692SOL    HW122535   1.891   1.786  17.472  5.4778 -3.2828 -3.0721
 3692SOL    HW222536   1.895   1.685  17.580 -2.1567 -1.5894  0.1741
 3693SOL     OW22537   3.364   3.175  12.886  0.1137 -0.1966 -0.3402
 3693SOL    HW122538   3.448   3.147  12.849 -0.1467  0.6998 -1.6024
 3693SOL    HW222539   3.374   3.156  12.980 -1.2071 -0.3861 -0.2416
 3694SOL     OW22540   3.470   3.426   8.511 -0.3505 -0.7767 -0.3381
 3694SOL    HW122541   3.468   3.503   8.567  1.0292  0.4976 -2.0550
 3694SOL    HW222542   3.459   3.455   8.420  0.8001  3.5951  0.9495
 3695SOL     OW22543   0.427   0.013   3.818  0.0502  0.1989 -0.3178
 3695SOL    HW122544   0.365   4.707   3.751  1.7269 -0.1544 -1.7341
 3695SOL    HW222545   0.405   4.671   3.887  2.7094  0.1889  0.5489
 3696SOL     OW22546   3.579   2.541  11.266 -0.4936  0.0271 -0.1463
 3696SOL    HW122547   3.663   2.565  11.225 -0.4405 -0.0934 -0.1091
 3696SOL    HW222548   3.544   2.522  11.179  1.1549  0.1228 -0.8315
 3697SOL     OW22549   2.920   0.595   5.262  0.0142  0.2140 -0.3244
 3697SOL    HW122550   2.969   0.676   5.275 -0.5436  1.0289 -3.2087
 3697SOL    HW222551   2.918   0.563   5.352  1.2353  1.9616  0.3224
 3698SOL     OW22552   0.005   3.730  14.089 -0.0139 -0.0894  0.4820
 3698SOL    HW122553   0.089   3.762  14.120  0.3288 -0.2904 -0.2482
 3698SOL    HW222554   0.015   3.635  14.092 -0.0315 -0.1349 -0.7555
 3699SOL     OW22555   2.339   0.407   1.425  0.1251 -0.0257 -0.1026
 3699SOL    HW122556   2.289   0.472   1.375 -1.0222 -1.0224 -0.2510
 3699SOL    HW222557   2.407   0.466   1.457 -1.0559  0.4683  1.5179
 3700SOL     OW22558   2.114   4.616   6.875  0.1659  0.2728  0.8330
 3700SOL    HW122559   2.023   4.600   6.898 -0.8098  1.0287 -2.5385
 3700SOL    HW222560   2.136   4.650   6.962  2.2453 -0.0828  0.4524
 3701SOL     OW22561   0.535   2.914   4.251  0.1711  0.4791  0.1108
 3701SOL    HW122562   0.623   2.946   4.230  0.0766  2.1340  2.2576
 3701SOL    HW222563   0.493   2.987   4.296 -0.1921 -0.9476  2.0752
 3702SOL     OW22564   2.177   3.609   2.240  0.1433 -0.2069 -0.4728
 3702SOL    HW122565   2.209   3.538   2.185 -2.1316 -1.3178 -0.3391
 3702SOL    HW222566   2.114   3.567   2.299 -1.4100  1.1408 -1.1639
 3703SOL     OW22567   4.368   1.726   4.342 -0.1888 -0.0285 -0.0337
 3703SOL    HW122568   4.399   1.755   4.428 -1.0118  0.1523  0.2068
 3703SOL    HW222569   4.444   1.732   4.285 -0.0587 -1.6151 -0.0164
 3704SOL     OW22570   0.562   3.398  17.364 -0.5266 -0.1226 -0.3353
 3704SOL    HW122571   0.640   3.426  17.316 -0.6110  1.4625  0.4525
 3704SOL    HW222572   0.550   3.308  17.332 -0.8355 -0.6380  1.2118
 3705SOL     OW22573   2.095   0.590   6.469  0.1891 -0.5040  0.1872
 3705SOL    HW122574   2.077   0.553   6.555 -3.9127  1.1364  0.0113
 3705SOL    HW222575   2.158   0.659   6.492 -1.4962  1.6123 -1.4178
 3706SOL     OW22576   3.713   0.423  15.373 -0.1236  0.3873 -0.7366
 3706SOL    HW122577   3.704   0.490  15.441 -3.0095  0.8504 -1.5746
 3706SOL    HW222578   3.646   0.360  15.400  0.3797  0.0978 -0.1510
 3707SOL     OW22579   4.614   3.568   8.608 -0.3998  0.3287  0.0672
 3707SOL    HW122580   4.570   3.493   8.566  1.8184  0.0082 -1.7028
 3707SOL    HW222581   4.636   3.534   8.694  1.9136 -1.0106 -1.0584
 3708SOL     OW22582   2.740   1.357   2.703  0.8897  0.1305 -0.0549
 3708SOL    HW122583   2.658   1.313   2.727  1.5321 -0.7957  0.4531
 3708SOL    HW222584   2.731   1.384   2.612  1.4465  0.2690 -0.0690
 3709SOL     OW22585   0.241   1.546   5.773 -0.2460  0.2317  0.1923
 3709SOL    HW122586   0.202   1.466   5.808 -2.0131  1.0331  0.0621
 3709SOL    HW222587   0.174   1.576   5.711 -1.6597  0.0644  1.6461
 3710SOL     OW22588   4.493   2.694  17.297 -0.4537 -0.2334 -0.4817
 3710SOL    HW122589   4.482   2.665  17.206  0.8901  1.4324 -1.1798
 3710SOL    HW222590   4.526   2.778  17.267 -1.1530 -0.1417 -1.0028
 3711SOL     OW22591   3.691   1.104  15.003  0.1147  0.3858  0.1725
 3711SOL    HW122592   3.641   1.023  14.989  0.7881 -0.0299  0.1663
 3711SOL    HW222593   3.761   1.085  14.941 -1.6627 -1.0754 -1.4175
 3712SOL     OW22594   4.347   2.455   2.017 -0.1475  0.0622 -0.2908
 3712SOL    HW122595   4.305   2.481   2.099  3.2316  0.7709  1.2330
 3712SOL    HW222596   4.305   2.370   2.007  2.1890 -1.0229 -0.9762
 3713SOL     OW22597   3.034   1.428   5.090 -0.0060  0.2371 -0.1801
 3713SOL    HW122598   2.940   1.425   5.107  0.1682 -0.0322  0.7971
 3713SOL    HW222599   3.056   1.335   5.103  0.8412  0.2006 -1.9156
 3714SOL     OW22600   4.255   1.852   7.810 -0.1822  0.4891  0.7077
 3714SOL    HW122601   4.321   1.918   7.831 -0.6441  0.5044  2.0950
 3714SOL    HW222602   4.182   1.915   7.804 -3.3618 -2.9153  3.4822
 3715SOL     OW22603   2.165   0.604   8.200  0.1026  0.0588 -0.4634
 3715SOL    HW122604   2.154   0.521   8.154  0.0433 -1.7895  2.8386
 3715SOL    HW222605   2.071   0.611   8.216  0.3556 -2.0227  2.0308
 3716SOL     OW22606   0.884   4.503  15.364 -0.1408  0.2103 -0.3302
 3716SOL    HW122607   0.845   4.420  15.392 -2.7047  1.2838 -0.7849
 3716SOL    HW222608   0.978   4.492  15.377 -0.4359  0.3336  1.7844
 3717SOL     OW22609   0.155   1.312   4.046  0.2510 -0.2950 -0.1003
 3717SOL    HW122610   0.164   1.311   3.951  1.4448 -0.3930  0.0231
 3717SOL    HW222611   0.228   1.365   4.079 -0.4054  0.7460 -0.3045
 3718SOL     OW22612   4.716   4.123   5.739  0.1554 -0.3593  0.2793
 3718SOL    HW122613   4.641   4.110   5.797  1.2125 -3.0519  1.0383
 3718SOL    HW222614   4.671   4.145   5.658  0.5818 -1.6197 -0.2970
 3719SOL     OW22615   2.119   3.546   3.862  0.8388  0.1160 -0.0806
 3719SOL    HW122616   2.043   3.588   3.821 -1.0434 -2.6896  0.5050
 3719SOL    HW222617   2.127   3.463   3.815  0.1732  0.5107 -0.8745
 3720SOL     OW22618   3.986   0.616   9.411 -0.0744  0.3600 -0.5218
 3720SOL    HW122619   3.937   0.576   9.339  1.6756 -0.0978 -1.4512
 3720SOL    HW222620   4.075   0.602   9.379 -0.7043  1.5934 -2.8011
 3721SOL     OW22621   1.902   4.366   7.415  0.1818 -0.3268  0.0582
 3721SOL    HW122622   1.836   4.299   7.428 -0.3029 -0.1980 -1.6906
 3721SOL    HW222623   1.876   4.438   7.472  0.2720  0.9839 -1.5289
 3722SOL     OW22624   2.774   2.694  11.974 -0.0343 -0.0979  0.6876
 3722SOL    HW122625   2.732   2.754  11.912 -0.6239 -1.7064 -0.4763
 3722SOL    HW222626   2.753   2.607  11.939  0.0832 -0.6431  1.9590
 3723SOL     OW22627   1.731   3.117   8.320 -0.4428 -0.0149  0.0017
 3723SOL    HW122628   1.689   3.131   8.404  0.5573  1.3087  0.2656
 3723SOL    HW222629   1.690   3.186   8.268  0.1314  1.0726  0.9939
 3724SOL     OW22630   3.345   2.443  11.019 -0.5572  0.1454 -0.0470
 3724SOL    HW122631   3.358   2.530  11.058  0.2205 -1.1217  2.5467
 3724SOL    HW222632   3.317   2.390  11.094 -0.6059  0.8668  0.4485
 3725SOL     OW22633   3.051   1.700   0.679 -0.0928 -0.2877 -0.4069
 3725SOL    HW122634   3.031   1.607   0.663 -0.3238  0.0798 -2.3130
 3725SOL    HW222635   3.043   1.736   0.591 -0.5176  1.1431  0.2220
 3726SOL     OW22636   1.411   1.999  14.995  0.2011  0.1679 -0.1183
 3726SOL    HW122637   1.374   2.063  15.055 -0.3586  0.7086 -1.0453
 3726SOL    HW222638   1.503   2.002  15.021  0.1253  1.1361  0.0159
 3727SOL     OW22639   2.671   0.487   8.561 -0.0036 -0.4547  0.4786
 3727SOL    HW122640   2.652   0.406   8.512  2.0894 -0.8587  0.3270
 3727SOL    HW222641   2.623   0.467   8.641  1.9287 -2.3934  1.1609
 3728SOL     OW22642   3.108   1.643   7.449  0.3786  0.6026 -0.7267
 3728SOL    HW122643   3.070   1.577   7.390  0.0219  1.2455 -1.2085
 3728SOL    HW222644   3.197   1.617   7.424  0.4087  1.1925 -1.2250
 3729SOL     OW22645   0.710   3.180  11.605  0.2986 -0.3058  0.5974
 3729SOL    HW122646   0.801   3.208  11.595  0.1491 -0.1361 -0.2595
 3729SOL    HW222647   0.663   3.259  11.582  1.7159 -0.6353 -3.5630
 3730SOL     OW22648   0.806   0.861   8.046  0.7826  0.3928 -0.7416
 3730SOL    HW122649   0.745   0.925   8.084  0.7968 -0.4457  0.6865
 3730SOL    HW222650   0.804   0.795   8.115 -2.1299  0.1475 -1.0486
 3731SOL     OW22651   0.743   1.807   3.178 -0.6518 -0.0067 -0.1495
 3731SOL    HW122652   0.767   1.795   3.270  0.9919  1.6813 -0.3775
 3731SOL    HW222653   0.827   1.784   3.137  1.0721  2.7291  1.9276
 3732SOL     OW22654   1.704   0.619   5.414  0.4969 -0.7649 -0.0518
 3732SOL    HW122655   1.678   0.612   5.322  0.1075 -0.8765  0.0662
 3732SOL    HW222656   1.784   0.567   5.411 -0.9452 -2.8999 -1.7433
 3733SOL     OW22657   4.205   4.009  17.445 -0.1763  0.5456 -1.1024
 3733SOL    HW122658   4.292   4.010  17.485 -1.2832 -0.3167  1.3721
 3733SOL    HW222659   4.198   3.925  17.399  0.1432 -0.3994  0.5624
 3734SOL     OW22660   2.151   1.037   7.771 -0.1672 -0.7224  0.3564
 3734SOL    HW122661   2.131   1.105   7.835 -0.6063  1.0269 -1.6429
 3734SOL    HW222662   2.216   0.995   7.827  1.5102 -0.0498 -1.0859
 3735SOL     OW22663   0.285   4.113  15.356  0.1668  0.4472  0.2396
 3735SOL    HW122664   0.201   4.144  15.321  0.3217 -1.1144 -1.5212
 3735SOL    HW222665   0.249   4.061  15.428 -1.7138  0.3185 -0.7958
 3736SOL     OW22666   2.955   3.727  13.886  0.2467 -0.2832  0.5773
 3736SOL    HW122667   2.902   3.656  13.923  0.6010 -1.8467 -1.8787
 3736SOL    HW222668   2.947   3.801  13.946  0.2950 -0.2851  0.5857
 3737SOL     OW22669   3.870   3.564   2.032 -0.5253 -0.3322  0.1308
 3737SOL    HW122670   3.844   3.473   2.018  0.7935 -0.9039  1.2702
 3737SOL    HW222671   3.933   3.560   2.105  0.8886 -0.2732 -1.0898
 3738SOL     OW22672   2.800   3.036   3.864 -0.1267  0.3423 -0.6007
 3738SOL    HW122673   2.759   2.951   3.883  0.3179 -0.0595 -1.4700
 3738SOL    HW222674   2.859   3.053   3.938 -1.0153  1.0585 -0.0468
 3739SOL     OW22675   0.775   1.480  14.784 -0.3011 -0.6552  0.0342
 3739SOL    HW122676   0.780   1.574  14.802  0.1352 -0.3999 -1.4647
 3739SOL    HW222677   0.860   1.450  14.816  0.4879 -0.8580 -2.2677
 3740SOL     OW22678   3.497   1.712   7.529 -0.0200 -0.2530  0.4057
 3740SOL    HW122679   3.542   1.678   7.452 -1.9565 -1.3507 -0.2304
 3740SOL    HW222680   3.482   1.802   7.501  0.6132 -0.0473  0.7073
 3741SOL     OW22681   0.722   0.040  13.056 -0.6133 -0.5854 -0.3579
 3741SOL    HW122682   0.773   0.007  13.130 -1.4434  0.4614  0.6781
 3741SOL    HW222683   0.717   4.683  13.000  1.7622 -0.2830 -1.0131
 3742SOL     OW22684   2.108   2.295   6.886  0.8420 -0.1767  0.1166
 3742SOL    HW122685   2.155   2.325   6.964  2.4450 -1.7141 -0.2607
 3742SOL    HW222686   2.145   2.353   6.820 -1.4937  0.6045 -0.4870
 3743SOL     OW22687   0.469   0.421   1.129  0.2283  0.0395  0.1101
 3743SOL    HW122688   0.377   0.446   1.137  0.5442  1.5340 -0.8393
 3743SOL    HW222689   0.506   0.486   1.069  1.4502  0.1905  1.0179
 3744SOL     OW22690   1.584   1.901   6.669 -1.2495 -0.2876  0.5011
 3744SOL    HW122691   1.570   1.986   6.712 -0.1744  0.6958 -1.1052
 3744SOL    HW222692   1.656   1.866   6.723  1.4333  2.4209 -1.3391
 3745SOL     OW22693   0.363   0.723   1.786  0.1793 -0.0373 -0.3378
 3745SOL    HW122694   0.433   0.786   1.770 -1.6079  1.9603 -0.2180
 3745SOL    HW222695   0.289   0.754   1.734  1.6857  1.8650 -1.3482
 3746SOL     OW22696   1.520   1.518  11.718 -0.7576 -0.4115  0.0351
 3746SOL    HW122697   1.603   1.477  11.690  0.2805  1.3804  0.4834
 3746SOL    HW222698   1.481   1.465  11.787 -1.9205  1.2762  0.6621
 3747SOL     OW22699   1.420   0.148   7.314 -0.3908  0.1118 -0.5915
 3747SOL    HW122700   1.383   0.231   7.345  0.8083  0.5903 -0.4687
 3747SOL    HW222701   1.415   0.165   7.220 -0.4519  1.4062 -0.3468
 3748SOL     OW22702   1.198   0.700   7.222  0.3457 -0.1348 -1.1633
 3748SOL    HW122703   1.135   0.656   7.279  2.4450  0.3847  1.5779
 3748SOL    HW222704   1.186   0.655   7.138  2.5212  0.8461 -2.0009
 3749SOL     OW22705   4.709   0.691  10.654  0.1749  0.4001 -0.2763
 3749SOL    HW122706   4.625   0.733  10.673  0.2158  0.3934 -0.0790
 3749SOL    HW222707   0.017   0.762  10.597  2.4673 -0.7532 -0.5413
 3750SOL     OW22708   1.478   0.525   4.626  0.2847  0.0441  0.4265
 3750SOL    HW122709   1.532   0.472   4.567 -0.1081  0.8597 -0.6501
 3750SOL    HW222710   1.537   0.549   4.697  0.1893  0.8189  0.2467
 3751SOL     OW22711   4.423   1.356   6.740  0.3524 -0.2323  0.7101
 3751SOL    HW122712   4.496   1.294   6.741  0.6074  0.0329 -2.9512
 3751SOL    HW222713   4.353   1.301   6.777 -1.3819  1.0692 -0.6404
 3752SOL     OW22714   0.681   1.623   8.774  0.2015 -0.5753 -0.3776
 3752SOL    HW122715   0.595   1.660   8.757 -0.0942 -1.6623 -1.2104
 3752SOL    HW222716   0.693   1.588   8.686 -0.1341  1.5983 -1.2776
 3753SOL     OW22717   3.271   4.561   2.257 -0.2096 -0.0639 -0.7561
 3753SOL    HW122718   3.234   4.646   2.233  1.8275  0.5852 -1.5533
 3753SOL    HW222719   3.311   4.546   2.172  1.2056  0.9979 -0.2790
 3754SOL     OW22720   3.037   4.270  15.417 -0.6134 -0.8838  0.0092
 3754SOL    HW122721   2.976   4.207  15.380  0.6832 -1.7886 -0.5741
 3754SOL    HW222722   3.078   4.213  15.482  0.3667 -1.6354 -1.2726
 3755SOL     OW22723   3.704   1.648   3.899 -0.0289  0.2599  1.1301
 3755SOL    HW122724   3.769   1.616   3.836 -2.0970  0.6806 -1.2499
 3755SOL    HW222725   3.631   1.586   3.896 -0.2714  0.6094 -0.4768
 3756SOL     OW22726   1.594   4.154  12.793  0.1449  0.6850  0.4547
 3756SOL    HW122727   1.611   4.170  12.700  1.3779 -3.0742  0.0434
 3756SOL    HW222728   1.677   4.113  12.816 -1.0590 -1.6762  0.5616
 3757SOL     OW22729   1.229   2.732  10.139  0.1550  0.4559 -0.1916
 3757SOL    HW122730   1.248   2.665  10.073  0.7666  1.1853 -0.7525
 3757SOL    HW222731   1.152   2.708  10.190  1.8929 -0.4465  2.0280
 3758SOL     OW22732   4.357   3.194   8.001  0.4471  0.3763 -0.1240
 3758SOL    HW122733   4.413   3.156   8.069  2.3483  0.3314 -1.7271
 3758SOL    HW222734   4.349   3.283   8.036 -2.6430 -0.6210  1.6936
 3759SOL     OW22735   1.309   2.422   5.932  0.2456  0.2206  0.5613
 3759SOL    HW122736   1.370   2.480   5.885 -0.4268 -0.1332 -0.7664
 3759SOL    HW222737   1.258   2.487   5.980  0.5626 -0.5826  1.9620
 3760SOL     OW22738   1.632   0.457   8.654 -0.2140 -0.2966  0.0639
 3760SOL    HW122739   1.714   0.503   8.672 -0.4451  0.3484 -0.5030
 3760SOL    HW222740   1.618   0.429   8.744 -0.5417  0.1207  0.1429
 3761SOL     OW22741   2.811   3.972   5.864  0.0400 -0.0213 -0.0882
 3761SOL    HW122742   2.772   4.014   5.788 -0.9050  1.3960  1.1611
 3761SOL    HW222743   2.817   4.041   5.931  0.3617  0.3847 -0.5390
 3762SOL     OW22744   4.254   3.290   5.766 -0.1041 -0.5161 -0.5484
 3762SOL    HW122745   4.197   3.214   5.768  0.2034 -0.7578 -0.8219
 3762SOL    HW222746   4.344   3.255   5.766 -0.8768 -2.4819  1.0118
 3763SOL     OW22747   0.133   3.746   8.921  0.4801 -0.2911 -0.3570
 3763SOL    HW122748   0.107   3.824   8.971  0.7865  0.7821 -1.8621
 3763SOL    HW222749   0.070   3.686   8.961  1.2184 -0.6768  0.2194
 3764SOL     OW22750   3.866   2.996   3.984 -0.1336 -0.1131 -0.4032
 3764SOL    HW122751   3.830   2.916   4.022  0.4540 -0.5412 -0.7426
 3764SOL    HW222752   3.800   3.002   3.915  0.6006  2.4328 -0.8939
 3765SOL     OW22753   1.948   3.609   4.571 -0.1548 -0.1971 -0.0556
 3765SOL    HW122754   1.872   3.557   4.545  0.4852 -0.2326 -1.8315
 3765SOL    HW222755   1.987   3.627   4.486  2.8424  0.0935  1.3716
 3766SOL     OW22756   1.034   1.496  15.276 -0.0090  0.2238  0.1027
 3766SOL    HW122757   0.994   1.414  15.248 -0.4959  0.3762  0.3522
 3766SOL    HW222758   0.965   1.562  15.267 -0.0745  0.0234 -0.7877
 3767SOL     OW22759   1.643   2.620  11.782 -0.3321  0.2602 -0.2687
 3767SOL    HW122760   1.690   2.673  11.846  2.0575 -2.1016 -0.0748
 3767SOL    HW222761   1.625   2.539  11.830 -2.6454 -0.5091 -2.4610
 3768SOL     OW22762   3.054   4.248   7.236  0.0532 -0.3024 -0.1316
 3768SOL    HW122763   3.145   4.247   7.208  0.4240 -0.5727  1.0653
 3768SOL    HW222764   3.047   4.339   7.266 -0.8070 -0.3712 -0.1135
 3769SOL     OW22765   1.502   3.665   5.586  0.5501 -0.3153  0.0638
 3769SOL    HW122766   1.431   3.708   5.634 -0.4694 -1.3261 -0.5629
 3769SOL    HW222767   1.480   3.684   5.495  0.0569  1.6412  0.5908
 3770SOL     OW22768   4.555   3.622   5.379  0.0233  0.1242  0.3112
 3770SOL    HW122769   4.584   3.682   5.311 -0.3374  1.1771  1.0861
 3770SOL    HW222770   4.554   3.540   5.328 -1.3606  0.3329 -0.0214
 3771SOL     OW22771   0.512   4.281   8.412 -0.1012 -0.6386  0.4698
 3771SOL    HW122772   0.575   4.208   8.416 -2.0792 -2.3151  1.2227
 3771SOL    HW222773   0.445   4.247   8.352 -1.6072  0.8352  1.3131
 3772SOL     OW22774   3.544   3.593   4.453 -0.0559  0.1834  0.2005
 3772SOL    HW122775   3.537   3.648   4.376  1.1787 -0.4955 -0.4027
 3772SOL    HW222776   3.467   3.537   4.442  1.3643 -2.2074  2.2309
 3773SOL     OW22777   2.369   3.328  13.561 -0.1356 -0.0851  0.3244
 3773SOL    HW122778   2.309   3.267  13.605 -0.3777 -0.5009 -0.5966
 3773SOL    HW222779   2.377   3.393  13.631  1.5947  0.5861 -0.5031
 3774SOL     OW22780   0.426   2.840  14.761 -0.1623  0.0154  0.2674
 3774SOL    HW122781   0.519   2.844  14.741 -0.4737  0.2026 -1.1962
 3774SOL    HW222782   0.396   2.772  14.701 -0.4098  0.3530  0.0020
 3775SOL     OW22783   3.447   3.703   1.187 -0.3947  0.1231  0.6579
 3775SOL    HW122784   3.501   3.683   1.263 -0.1623 -0.3975  0.3553
 3775SOL    HW222785   3.462   3.624   1.135  1.2919  0.3054  0.8564
 3776SOL     OW22786   2.077   2.200   0.332 -0.9583  0.1728  0.2233
 3776SOL    HW122787   2.053   2.284   0.370  0.2436  0.2895  0.7314
 3776SOL    HW222788   2.145   2.173   0.394  1.5450  0.4886 -2.3764
 3777SOL     OW22789   1.245   0.310   2.682 -0.1371  0.2124  0.1545
 3777SOL    HW122790   1.331   0.288   2.648 -0.0986 -1.9638  1.6032
 3777SOL    HW222791   1.229   0.399   2.651 -1.5830  0.0663  0.4703
 3778SOL     OW22792   3.724   3.791   3.070  0.0674  0.3089  0.5438
 3778SOL    HW122793   3.812   3.768   3.099  0.9460  1.9996 -0.7191
 3778SOL    HW222794   3.750   3.861   3.009 -3.1625 -1.6532 -3.0160
 3779SOL     OW22795   4.006   1.277   7.723  0.1143  0.4935  0.9142
 3779SOL    HW122796   4.016   1.317   7.809  0.2681  1.8242  0.2845
 3779SOL    HW222797   4.071   1.208   7.733 -0.8271 -0.3314  1.4248
 3780SOL     OW22798   1.205   2.275   8.163 -0.3665 -0.9266 -0.4490
 3780SOL    HW122799   1.289   2.297   8.123 -0.0012 -0.6808  0.4721
 3780SOL    HW222800   1.229   2.185   8.186 -1.6046 -0.9441  0.7604
 3781SOL     OW22801   4.367   3.229   2.493 -0.1823 -0.1074  0.7202
 3781SOL    HW122802   4.367   3.238   2.398 -0.2485 -2.0818  0.5349
 3781SOL    HW222803   4.432   3.296   2.515  2.4262 -2.4996  0.3322
 3782SOL     OW22804   2.519   2.751  16.111  0.2581  0.2209  0.3926
 3782SOL    HW122805   2.548   2.669  16.073 -3.2913 -0.6249 -0.4630
 3782SOL    HW222806   2.428   2.763  16.083  0.8800 -0.3643 -1.7982
 3783SOL     OW22807   3.059   2.541  12.838 -0.0457  0.3223  0.5021
 3783SOL    HW122808   3.076   2.540  12.744  0.1977  0.3425  0.5434
 3783SOL    HW222809   3.069   2.634  12.858  1.3077 -0.2222  2.3609
 3784SOL     OW22810   1.489   3.383   8.711 -0.1546  0.2708  0.4403
 3784SOL    HW122811   1.509   3.351   8.799 -1.5196 -1.2809  0.1820
 3784SOL    HW222812   1.395   3.365   8.704  0.1753 -1.1298 -0.3176
 3785SOL     OW22813   3.831   1.878   9.085  0.1259  0.5323  0.3668
 3785SOL    HW122814   3.785   1.954   9.049  1.7107  1.7089  0.8013
 3785SOL    HW222815   3.771   1.846   9.152  2.0748 -0.9048  1.4458
 3786SOL     OW22816   0.356   3.056   3.746  0.3639 -0.0077 -0.2364
 3786SOL    HW122817   0.382   2.971   3.712  1.1316  0.5103 -0.9313
 3786SOL    HW222818   0.309   3.024   3.823  3.4884 -2.0099  0.8676
 3787SOL     OW22819   0.118   1.742   5.255 -0.3072  0.4961 -0.3195
 3787SOL    HW122820   0.030   1.779   5.246 -0.4384  0.5350  1.2051
 3787SOL    HW222821   0.174   1.808   5.213 -1.6137  0.5236 -2.0490
 3788SOL     OW22822   3.737   2.598   5.362  0.4825  0.0916 -0.4333
 3788SOL    HW122823   3.743   2.682   5.317 -0.3197 -1.1599 -2.8420
 3788SOL    HW222824   3.752   2.533   5.294  0.4705 -1.2027  0.7968
 3789SOL     OW22825   4.684   0.149   2.232 -0.3032 -0.0114  0.4697
 3789SOL    HW122826   4.646   0.224   2.278 -2.4633  0.2904 -1.7609
 3789SOL    HW222827   4.647   0.089   2.297 -0.0565 -1.0492 -0.3469
 3790SOL     OW22828   3.458   1.676   9.413 -0.2930 -0.2552  0.1225
 3790SOL    HW122829   3.400   1.718   9.476  1.7912  1.4123  0.9447
 3790SOL    HW222830   3.461   1.588   9.449  2.3314 -0.4001 -0.4557
 3791SOL     OW22831   2.967   3.809  15.984 -0.1836 -0.3496  0.0784
 3791SOL    HW122832   3.055   3.835  16.011 -0.1444 -1.7544  1.3280
 3791SOL    HW222833   2.939   3.764  16.064 -0.0005  2.7652  1.8975
 3792SOL     OW22834   0.008   0.546   8.806  0.0773  0.0810 -0.3410
 3792SOL    HW122835   0.060   0.532   8.885 -1.0389 -2.7414 -0.0945
 3792SOL    HW222836   0.058   0.502   8.737 -0.6971 -0.5233 -0.5197
 3793SOL     OW22837   0.372   3.412   4.659 -0.4440 -0.0366  0.4349
 3793SOL    HW122838   0.333   3.325   4.657 -3.7224  1.3730  2.4249
 3793SOL    HW222839   0.446   3.396   4.718  1.0239  0.3771 -1.2906
 3794SOL     OW22840   3.233   0.946   2.297 -0.0862  0.2859 -0.1814
 3794SOL    HW122841   3.270   0.945   2.209 -2.3892  0.6772 -1.1724
 3794SOL    HW222842   3.157   1.002   2.280 -0.1779 -0.3453 -1.8972
 3795SOL     OW22843   4.674   0.127  16.745  0.1832 -0.1475 -0.1742
 3795SOL    HW122844   0.024   0.087  16.795 -1.2104 -0.3426  1.6447
 3795SOL    HW222845   4.639   0.052  16.697  0.6383  0.5682 -1.6264
 3796SOL     OW22846   0.690   1.058  16.184 -0.0751 -0.8106 -0.2306
 3796SOL    HW122847   0.727   1.139  16.149  1.0388 -0.2655  2.2096
 3796SOL    HW222848   0.653   1.026  16.102  0.5014 -1.7167 -0.1406
 3797SOL     OW22849   0.798   1.534  13.180 -0.3147 -0.4032  0.0597
 3797SOL    HW122850   0.749   1.592  13.122  0.6884  0.0537 -0.3354
 3797SOL    HW222851   0.845   1.599  13.233 -0.7253  0.5886 -0.7907
 3798SOL     OW22852   2.164   1.461  12.091  0.9836  0.4381 -0.1085
 3798SOL    HW122853   2.097   1.393  12.103  2.3137 -0.8277  0.2624
 3798SOL    HW222854   2.159   1.473  11.996 -3.0780  0.5695  0.1121
 3799SOL     OW22855   2.163   0.887   3.246  0.3227 -0.3568 -0.2070
 3799SOL    HW122856   2.112   0.901   3.166 -0.9830 -2.0149  0.3430
 3799SOL    HW222857   2.253   0.879   3.213  0.0096  1.0084 -1.4001
 3800SOL     OW22858   0.766   2.965   6.391 -0.5533  0.3691  0.1603
 3800SOL    HW122859   0.725   2.879   6.391  0.2734 -0.0516 -3.0288
 3800SOL    HW222860   0.832   2.954   6.323 -1.4342  0.0638 -0.6520
 3801SOL     OW22861   0.121   4.411   8.345  0.2773  0.6366  0.0686
 3801SOL    HW122862   0.154   4.501   8.346  1.3239  0.2657 -2.0899
 3801SOL    HW222863   0.044   4.423   8.290 -0.4835  0.4033  1.0788
 3802SOL     OW22864   1.257   0.971   9.879 -0.0568  0.2159  0.1818
 3802SOL    HW122865   1.313   1.030   9.929  3.3818 -1.1235 -2.1051
 3802SOL    HW222866   1.178   0.984   9.931 -0.2131 -3.1423  0.7695
 3803SOL     OW22867   2.668   2.946   5.050  0.3853  0.1268 -0.0538
 3803SOL    HW122868   2.694   3.015   5.112  0.5257 -0.6254  0.7206
 3803SOL    HW222869   2.705   2.973   4.966  2.3214 -2.6827 -0.1045
 3804SOL     OW22870   1.317   2.033   8.232  0.9075 -0.9093 -0.0106
 3804SOL    HW122871   1.335   1.957   8.287 -1.2527 -0.7348  0.9248
 3804SOL    HW222872   1.404   2.057   8.199  0.2880  0.0951 -0.9474
 3805SOL     OW22873   3.274   1.486   0.949 -0.4765 -0.4525  1.0213
 3805SOL    HW122874   3.217   1.529   1.013 -3.5479 -0.6972 -1.5754
 3805SOL    HW222875   3.301   1.407   0.996  0.9761 -0.8704 -0.4875
 3806SOL     OW22876   2.140   2.378   4.068 -0.1424 -0.6116  0.1412
 3806SOL    HW122877   2.226   2.397   4.106 -0.5047 -0.2321  0.7747
 3806SOL    HW222878   2.120   2.466   4.035  0.0443 -0.5881  0.0894
 3807SOL     OW22879   2.810   2.711   4.984  0.3582  0.3015 -0.4868
 3807SOL    HW122880   2.883   2.709   4.923  0.5174 -0.9273 -0.2523
 3807SOL    HW222881   2.786   2.803   4.974 -0.6858  0.2153  1.2622
 3808SOL     OW22882   1.742   1.926  14.546  0.2103  0.3204  0.2549
 3808SOL    HW122883   1.829   1.902  14.515  0.7622  2.1692  0.3755
 3808SOL    HW222884   1.726   1.855  14.608  1.0502  1.1293  1.3935
 3809SOL     OW22885   3.611   3.484   6.493 -0.2961  0.1935 -0.6713
 3809SOL    HW122886   3.520   3.457   6.483 -0.8608  2.3797 -1.5396
 3809SOL    HW222887   3.646   3.485   6.404  0.6645  0.9219 -0.2892
 3810SOL     OW22888   4.604   4.521  14.825 -0.3360  0.5364  0.3924
 3810SOL    HW122889   4.546   4.510  14.750  1.0187  0.4077 -0.6494
 3810SOL    HW222890   4.564   4.583  14.885  1.1273 -0.6115  2.5648
 3811SOL     OW22891   3.257   0.719   4.338  0.2927  0.4243  0.5543
 3811SOL    HW122892   3.237   0.691   4.427  0.6251  0.6106  0.6886
 3811SOL    HW222893   3.316   0.794   4.337 -1.4027  1.7159 -2.2591
 3812SOL     OW22894   3.079   1.538   3.760  0.4860 -0.4868  0.6285
 3812SOL    HW122895   3.026   1.567   3.835  1.0310  1.7155  0.1553
 3812SOL    HW222896   3.146   1.606   3.758 -0.6894  0.6580  0.5183
 3813SOL     OW22897   0.071   2.468   3.690  0.3196  0.0287  0.3075
 3813SOL    HW122898   0.065   2.456   3.596 -0.1496  1.2786  0.1749
 3813SOL    HW222899   4.703   2.451   3.722  0.6092  0.1200  1.1573
 3814SOL     OW22900   1.148   0.545  13.242 -0.1212  0.7663  0.4378
 3814SOL    HW122901   1.086   0.485  13.282  0.0208  0.5580  0.3461
 3814SOL    HW222902   1.211   0.554  13.313  0.6721 -0.9235 -0.0353
 3815SOL     OW22903   2.887   3.369   5.765  0.3941 -0.0869  0.2878
 3815SOL    HW122904   2.829   3.403   5.833  2.2751 -1.9912  2.8556
 3815SOL    HW222905   2.890   3.275   5.785  0.0866  0.1013  1.2187
 3816SOL     OW22906   3.435   2.189   7.409  0.6171 -0.2506 -0.5202
 3816SOL    HW122907   3.401   2.099   7.410  0.1436 -0.0704 -0.5911
 3816SOL    HW222908   3.527   2.172   7.387  0.7370 -0.1366 -0.0948
 3817SOL     OW22909   0.505   2.075   2.477  0.0931 -0.2028 -0.8516
 3817SOL    HW122910   0.485   1.981   2.485  1.2278 -0.3661  0.0341
 3817SOL    HW222911   0.494   2.076   2.382  1.4208  1.4320 -0.9823
 3818SOL     OW22912   4.036   1.960  12.936  0.1356  0.2300  0.3952
 3818SOL    HW122913   4.131   1.963  12.926 -0.1774  3.5996 -1.4594
 3818SOL    HW222914   4.023   1.990  13.026  1.5670 -0.6213  0.8796
 3819SOL     OW22915   4.375   4.353   5.355  0.1489  0.1288  0.6309
 3819SOL    HW122916   4.412   4.432   5.395 -2.6509  2.1485 -0.7337
 3819SOL    HW222917   4.424   4.358   5.273 -1.8782  2.0290 -0.4536
 3820SOL     OW22918   3.906   1.671   7.705 -0.4337  0.0579 -0.0337
 3820SOL    HW122919   3.834   1.615   7.736 -1.8999  2.0135  0.1124
 3820SOL    HW222920   3.878   1.753   7.746 -0.6938  0.7636 -1.6050
 3821SOL     OW22921   0.773   1.748   4.398 -0.4961  0.2560  0.1663
 3821SOL    HW122922   0.804   1.692   4.469  0.5043 -0.2259 -0.6449
 3821SOL    HW222923   0.785   1.831   4.444  0.3664  0.5295 -0.5428
 3822SOL     OW22924   4.345   2.323   6.544 -0.3406  0.0190 -0.8079
 3822SOL    HW122925   4.294   2.302   6.622 -0.8120 -3.4042 -2.0492
 3822SOL    HW222926   4.328   2.417   6.537  0.5246  0.1356 -1.3749
 3823SOL     OW22927   0.619   3.924  14.415  0.2273  0.0239  0.5434
 3823SOL    HW122928   0.696   3.902  14.467  0.6117 -1.1879 -0.5321
 3823SOL    HW222929   0.650   3.949  14.328  0.5994 -0.1702  0.6193
 3824SOL     OW22930   3.014   3.295   4.055  0.5221 -0.4747 -0.3912
 3824SOL    HW122931   2.996   3.384   4.026  1.6533  0.1612  0.8399
 3824SOL    HW222932   2.948   3.301   4.125 -0.7121 -0.6833 -1.5220
 3825SOL     OW22933   3.047   3.000   5.915 -0.0144  0.1017  0.0686
 3825SOL    HW122934   2.970   3.055   5.900  0.4155 -0.2982 -3.4669
 3825SOL    HW222935   3.008   2.938   5.977  0.3157 -1.2432 -1.0870
 3826SOL     OW22936   0.201   1.261   0.028 -0.0294 -0.5715 -1.0596
 3826SOL    HW122937   0.243   1.217   0.101 -0.3330 -0.0188 -0.5472
 3826SOL    HW222938   0.112   1.235   0.053 -0.2697  0.5970 -0.6608
 3827SOL     OW22939   1.110   0.298   8.146 -0.8383  0.2315 -0.1901
 3827SOL    HW122940   1.074   0.218   8.108 -0.1124  0.8239 -2.1251
 3827SOL    HW222941   1.046   0.329   8.210 -0.8802  1.2870 -0.7402
 3828SOL     OW22942   0.414   2.726   4.106 -0.0658  0.3214 -0.2726
 3828SOL    HW122943   0.456   2.795   4.158  3.0524 -1.0119 -1.0253
 3828SOL    HW222944   0.333   2.763   4.071  0.0855 -0.3036 -1.2804
 3829SOL     OW22945   1.220   0.606   2.581 -0.7448  0.5356 -0.6377
 3829SOL    HW122946   1.148   0.555   2.543 -1.0711  1.2198 -0.9279
 3829SOL    HW222947   1.286   0.592   2.513  0.1323  0.4494  0.2397
 3830SOL     OW22948   4.560   2.340  14.570  0.1347 -0.4660  0.5205
 3830SOL    HW122949   4.503   2.415  14.550  1.3464  0.2733 -0.2132
 3830SOL    HW222950   4.550   2.296  14.486 -0.5301  0.5244  0.0839
 3831SOL     OW22951   2.834   3.865   1.749 -0.1467 -0.6157 -0.1958
 3831SOL    HW122952   2.754   3.831   1.708  0.3559 -1.5510 -0.3906
 3831SOL    HW222953   2.800   3.935   1.805 -2.6117 -1.3251 -0.7788
 3832SOL     OW22954   3.056   0.209  13.247  0.5795 -0.2784  0.0940
 3832SOL    HW122955   3.047   0.238  13.337  1.4030 -0.7112  0.3201
 3832SOL    HW222956   3.141   0.166  13.261  1.7511  1.5489 -1.4014
 3833SOL     OW22957   3.369   1.627  13.361 -0.4704  0.3818 -0.3848
 3833SOL    HW122958   3.321   1.641  13.443  0.2986 -0.0088  0.1339
 3833SOL    HW222959   3.417   1.710  13.366 -0.1888  0.1401  1.0186
 3834SOL     OW22960   4.034   2.042   7.735  0.0253 -0.3929 -0.2754
 3834SOL    HW122961   3.958   1.987   7.753  0.4708 -1.2677 -1.0721
 3834SOL    HW222962   4.013   2.122   7.783 -1.0628 -1.2044  0.5952
 3835SOL     OW22963   4.648   0.840  10.166  0.2110  0.1205 -0.3746
 3835SOL    HW122964   4.641   0.744  10.165  2.2074 -0.0009 -2.3108
 3835SOL    HW222965   0.019   0.854  10.186 -0.6302  2.4791  1.7830
 3836SOL     OW22966   1.672   1.508  10.647  0.3686 -0.0390  0.4433
 3836SOL    HW122967   1.624   1.448  10.705 -0.8952 -0.0113 -0.5862
 3836SOL    HW222968   1.617   1.586  10.642  0.3918 -0.2414 -2.9297
 3837SOL     OW22969   4.436   2.121   9.049  0.0575 -0.5871 -0.1008
 3837SOL    HW122970   4.361   2.141   8.993  0.1578  0.7814  0.2497
 3837SOL    HW222971   4.479   2.206   9.049 -2.4773  0.7228  2.2516
 3838SOL     OW22972   4.566   3.169   4.308 -0.3151 -0.1358  0.3787
 3838SOL    HW122973   4.525   3.240   4.259  1.5695  0.9500  0.4035
 3838SOL    HW222974   4.497   3.151   4.372 -1.3432  0.5276 -0.5549
 3839SOL     OW22975   2.740   1.302  12.810 -0.0172  0.0601 -0.4103
 3839SOL    HW122976   2.736   1.364  12.737  0.9459 -0.2576 -0.7235
 3839SOL    HW222977   2.653   1.306  12.850 -0.4501 -0.7188 -1.2772
 3840SOL     OW22978   4.231   3.771  11.307 -0.5346  0.4365  0.3972
 3840SOL    HW122979   4.204   3.795  11.218  2.6719 -0.7539 -0.8691
 3840SOL    HW222980   4.142   3.770  11.343 -0.8384 -1.0028 -0.3645
 3841SOL     OW22981   0.813   0.079   2.452  0.1750 -0.2226 -0.2315
 3841SOL    HW122982   0.760   0.117   2.382  1.3925  1.8984 -0.0004
 3841SOL    HW222983   0.896   0.115   2.419 -0.3751  0.0365 -1.3456
 3842SOL     OW22984   0.756   0.499  13.807  0.2115  0.1737  0.0204
 3842SOL    HW122985   0.770   0.545  13.724  0.3794  0.2902  0.1122
 3842SOL    HW222986   0.741   0.575  13.864  0.6710  0.7795 -0.6555
 3843SOL     OW22987   1.349   2.143   2.688 -0.5152  0.5606  0.1651
 3843SOL    HW122988   1.366   2.146   2.594 -0.1081  4.1903  0.3571
 3843SOL    HW222989   1.442   2.147   2.713 -0.5217  2.1648 -0.0718
 3844SOL     OW22990   4.102   3.068   5.756  0.4617  0.0189  0.0390
 3844SOL    HW122991   4.106   3.068   5.852 -0.2598  0.4703  0.0695
 3844SOL    HW222992   4.039   3.001   5.731 -1.2734  0.8633  2.0496
 3845SOL     OW22993   0.244   3.877  12.045  0.7384  0.5088 -0.4201
 3845SOL    HW122994   0.200   3.792  12.056  0.7814  0.5496  0.0629
 3845SOL    HW222995   0.335   3.849  12.040  1.1971  1.9517 -0.0291
 3846SOL     OW22996   3.732   1.138   3.101  0.0976 -0.3140 -0.0059
 3846SOL    HW122997   3.673   1.088   3.157 -0.5423 -1.1442 -1.3978
 3846SOL    HW222998   3.691   1.224   3.098  2.1741  0.7514  2.6873
 3847SOL     OW22999   2.466   3.516   6.051  0.3701  0.1918 -0.3060
 3847SOL    HW123000   2.427   3.436   6.088  0.8456  0.0448 -0.1251
 3847SOL    HW223001   2.384   3.565   6.042  0.3833  0.7127  2.4377
 3848SOL     OW23002   0.660   2.225   1.086 -0.0618  0.0771  0.3861
 3848SOL    HW123003   0.685   2.267   1.168  3.8731 -1.7296  0.1226
 3848SOL    HW223004   0.739   2.193   1.043 -0.7399  0.2784 -1.0243
 3849SOL     OW23005   4.373   3.991   4.437 -0.0855  0.8225 -0.7913
 3849SOL    HW123006   4.278   4.001   4.447 -0.2039 -1.8431  0.8030
 3849SOL    HW223007   4.385   3.990   4.342 -0.7530 -2.2732 -0.8517
 3850SOL     OW23008   2.108   3.068  16.198 -0.2314 -0.7236 -0.2205
 3850SOL    HW123009   2.042   3.136  16.213 -0.6695 -0.9553 -1.0677
 3850SOL    HW223010   2.188   3.107  16.232 -1.8782  2.1822  0.2930
 3851SOL     OW23011   2.052   4.270   6.680 -0.4967  1.0823  0.0593
 3851SOL    HW123012   2.061   4.296   6.772 -0.6298  0.1279  0.3466
 3851SOL    HW223013   1.963   4.234   6.684  0.1424 -0.3562  1.0162
 3852SOL     OW23014   0.607   3.807   5.719 -0.3441  0.7787  0.1104
 3852SOL    HW123015   0.619   3.879   5.656 -0.5737 -0.0497 -0.8750
 3852SOL    HW223016   0.521   3.820   5.760 -0.3942 -2.1464  0.8872
 3853SOL     OW23017   2.318   0.386   5.457  0.2955  0.3875 -0.1587
 3853SOL    HW123018   2.271   0.438   5.392 -1.5388  0.5825  1.3465
 3853SOL    HW223019   2.399   0.379   5.406  0.3661  0.6518 -0.0858
 3854SOL     OW23020   1.781   1.264   7.895 -0.3793  0.0500  0.0441
 3854SOL    HW123021   1.728   1.241   7.972 -0.9309 -2.7385 -1.1676
 3854SOL    HW223022   1.870   1.259   7.928  0.1492 -0.9708 -1.5511
 3855SOL     OW23023   2.772   3.328   4.166 -0.3439  0.0374  0.6242
 3855SOL    HW123024   2.817   3.341   4.250  2.8410 -2.1729 -0.7251
 3855SOL    HW223025   2.752   3.419   4.144 -0.8755 -0.0674  0.6869
 3856SOL     OW23026   1.585   4.285   4.881  0.0040  0.0460 -0.0250
 3856SOL    HW123027   1.526   4.304   4.954 -1.5393 -0.2989 -1.1797
 3856SOL    HW223028   1.606   4.191   4.888  1.8803  0.4485 -0.1922
 3857SOL     OW23029   4.608   2.435  17.249  0.3784  0.2043 -0.2358
 3857SOL    HW123030   4.679   2.407  17.307  0.0864 -1.6815 -0.7769
 3857SOL    HW223031   4.586   2.518  17.292  2.0748  1.0096 -0.9518
 3858SOL     OW23032   0.883   0.614  13.099 -0.9057  0.5815  0.3367
 3858SOL    HW123033   0.923   0.528  13.086  1.8117  1.3561  3.5170
 3858SOL    HW223034   0.875   0.612  13.195  0.8747 -1.5330  0.4296
 3859SOL     OW23035   4.591   3.097   0.459  0.5012 -0.1208  0.4321
 3859SOL    HW123036   4.672   3.050   0.436  0.7210  0.7336 -0.5378
 3859SOL    HW223037   4.533   3.035   0.415  1.2080 -0.1185 -0.5190
 3860SOL     OW23038   1.264   3.790   1.703 -0.1473  0.2386 -0.1410
 3860SOL    HW123039   1.207   3.741   1.763  0.8862 -0.7305  0.0557
 3860SOL    HW223040   1.225   3.877   1.705 -1.0993 -0.1664 -1.3081
 3861SOL     OW23041   4.471   2.172  17.438 -0.0666  0.1185  0.2573
 3861SOL    HW123042   4.550   2.221  17.415  0.3940 -2.2146 -3.2203
 3861SOL    HW223043   4.402   2.217  17.389  2.2016  2.5653 -0.6801
 3862SOL     OW23044   2.497   1.772  14.971  0.2316  0.2081  0.0493
 3862SOL    HW123045   2.496   1.677  14.975 -0.9074  0.0233 -4.5786
 3862SOL    HW223046   2.591   1.787  14.983  0.3052  1.0970 -1.5784
 3863SOL     OW23047   0.095   0.576  12.304  0.2245  0.5791  0.0920
 3863SOL    HW123048   0.155   0.648  12.288 -1.2083  1.6756 -0.3829
 3863SOL    HW223049   0.016   0.615  12.265  0.0219  0.2751  0.1978
 3864SOL     OW23050   0.884   1.113   7.536  0.0727 -0.0188  0.0008
 3864SOL    HW123051   0.944   1.059   7.486 -2.1733 -3.3724  0.8937
 3864SOL    HW223052   0.823   1.043   7.562  0.5137 -0.3801  0.0683
 3865SOL     OW23053   3.407   0.724  16.571  0.7829 -0.1812  0.0317
 3865SOL    HW123054   3.327   0.776  16.578  1.1578  0.6609 -2.2526
 3865SOL    HW223055   3.444   0.751  16.487  1.5365  0.6752  0.6395
 3866SOL     OW23056   1.336   1.490  17.179  0.0017  0.5422  0.0450
 3866SOL    HW123057   1.406   1.533  17.131  0.7570 -1.7821 -0.9558
 3866SOL    HW223058   1.253   1.536  17.167  1.2171  2.3017 -1.5796
 3867SOL     OW23059   2.650   2.974   8.840 -0.1643  0.2235 -0.4812
 3867SOL    HW123060   2.723   2.912   8.835 -0.6108 -0.2158 -1.6081
 3867SOL    HW223061   2.696   3.056   8.824  1.4074 -0.6903 -0.6452
 3868SOL     OW23062   4.315   3.039  16.790 -0.3388  0.3579 -0.5294
 3868SOL    HW123063   4.402   3.069  16.765  0.5532  0.7893  3.0322
 3868SOL    HW223064   4.273   3.000  16.714 -1.3982  1.3334 -0.4422
 3869SOL     OW23065   0.724   3.478  17.176 -0.3040  0.3270  0.4771
 3869SOL    HW123066   0.794   3.521  17.225  0.0455 -0.1927  0.4266
 3869SOL    HW223067   0.655   3.544  17.173 -2.1259 -1.6504 -0.7967
 3870SOL     OW23068   2.264   2.856  16.065 -0.3484 -0.8376 -0.3285
 3870SOL    HW123069   2.245   2.922  16.132  1.7607 -0.3660 -0.1980
 3870SOL    HW223070   2.219   2.898  15.992  0.2083 -0.4627 -0.4494
 3871SOL     OW23071   1.475   4.469  15.356 -0.1275  0.1884  0.2682
 3871SOL    HW123072   1.523   4.472  15.274  1.4215  1.0298  1.2270
 3871SOL    HW223073   1.431   4.385  15.341 -3.5242  2.2612 -1.4967
 3872SOL     OW23074   1.391   2.534   5.072 -0.5382 -0.3987 -0.1725
 3872SOL    HW123075   1.486   2.543   5.085 -0.1459 -1.7346 -2.2380
 3872SOL    HW223076   1.377   2.595   5.000  0.8024 -2.2486 -1.9742
 3873SOL     OW23077   0.396   4.049   9.729 -0.3007  0.3391 -0.2400
 3873SOL    HW123078   0.453   4.107   9.680  0.5197 -0.5065 -0.2864
 3873SOL    HW223079   0.354   4.113   9.786 -1.5285 -1.5168  0.9696
 3874SOL     OW23080   0.790   0.003   3.977 -0.4142  0.5094  0.4433
 3874SOL    HW123081   0.778   0.004   4.072  0.7388  0.9680  0.5916
 3874SOL    HW223082   0.752   0.086   3.946  0.8459  0.8346 -0.2349
 3875SOL     OW23083   2.068   0.925   5.748 -0.2103  0.2421 -0.4533
 3875SOL    HW123084   2.138   0.859   5.744  1.6189  2.1919 -0.9711
 3875SOL    HW223085   2.084   0.973   5.830 -1.1925  1.0321 -0.7278
 3876SOL     OW23086   1.356   0.301   7.083  0.7340 -0.6031  0.2564
 3876SOL    HW123087   1.275   0.336   7.120  0.6779 -0.4621 -0.0005
 3876SOL    HW223088   1.403   0.381   7.058  1.1156 -0.2790  2.0390
 3877SOL     OW23089   3.033   0.096   2.475 -0.0121 -0.3242 -0.5923
 3877SOL    HW123090   3.041   0.016   2.527 -1.9579  1.2725  2.1330
 3877SOL    HW223091   3.112   0.145   2.495  1.3161 -2.2654 -1.0392
 3878SOL     OW23092   4.036   0.624  16.887  0.4970  0.0591  0.2450
 3878SOL    HW123093   4.035   0.658  16.977  1.1959  0.5459  0.0700
 3878SOL    HW223094   3.969   0.682  16.852  0.2993 -1.0732 -1.2309
 3879SOL     OW23095   0.215   1.345   2.388 -0.1678 -0.2892 -0.1109
 3879SOL    HW123096   0.133   1.322   2.433 -1.1984  2.0413 -0.7975
 3879SOL    HW223097   0.196   1.432   2.353  2.4612 -0.5095 -2.0183
 3880SOL     OW23098   2.554   0.327   4.598 -0.2907 -0.0653 -0.2938
 3880SOL    HW123099   2.548   0.265   4.671 -0.8324 -1.6210 -1.6535
 3880SOL    HW223100   2.478   0.382   4.621 -1.0298 -1.3943  0.4450
 3881SOL     OW23101   0.535   1.082   3.669  0.0113 -0.0528  0.5901
 3881SOL    HW123102   0.585   1.014   3.623  2.9521  1.6746  1.2457
 3881SOL    HW223103   0.482   1.118   3.599  0.1668 -2.7876 -0.9575
 3882SOL     OW23104   0.502   0.510   6.030  0.4895  0.2102 -0.0245
 3882SOL    HW123105   0.575   0.558   6.068  2.2839 -1.5557 -1.2429
 3882SOL    HW223106   0.459   0.572   5.971 -1.1333 -2.7100 -1.9122
 3883SOL     OW23107   3.703   1.737   2.783  0.2913  0.1369 -0.3859
 3883SOL    HW123108   3.674   1.724   2.693  0.4792  0.5373 -0.5008
 3883SOL    HW223109   3.790   1.767   2.761  0.3325  1.1546  1.1540
 3884SOL     OW23110   2.890   0.537   2.613  0.0015  0.4028 -0.5017
 3884SOL    HW123111   2.911   0.480   2.688  0.6298 -0.3909 -1.2755
 3884SOL    HW223112   2.912   0.623   2.647  0.9302 -0.3055  0.7033
 3885SOL     OW23113   1.497   1.925   9.364 -0.1980 -0.0446  0.1362
 3885SOL    HW123114   1.406   1.956   9.365  0.4104  1.7343  0.2730
 3885SOL    HW223115   1.541   2.009   9.377  1.0048 -0.5396 -0.7991
 3886SOL     OW23116   4.120   0.508   6.173 -0.1719  0.2860 -0.1885
 3886SOL    HW123117   4.132   0.429   6.120  1.2019  2.7238 -3.5242
 3886SOL    HW223118   4.049   0.550   6.125 -0.7683  1.9071  2.0686
 3887SOL     OW23119   3.673   0.588   7.948 -0.4784  0.3615 -0.5878
 3887SOL    HW123120   3.734   0.571   7.876  0.6587  0.5486  0.3426
 3887SOL    HW223121   3.681   0.682   7.964  0.8519  0.0599  0.4526
 3888SOL     OW23122   2.053   0.150  14.692  0.7543 -0.3770  0.1822
 3888SOL    HW123123   1.977   0.116  14.645 -1.1573 -0.7483  3.5377
 3888SOL    HW223124   2.027   0.242  14.690  1.0443 -0.2662  1.6450
 3889SOL     OW23125   4.627   4.336  15.530 -0.0595  0.3125  0.3442
 3889SOL    HW123126   4.720   4.319  15.550  0.0298 -1.8710 -2.0074
 3889SOL    HW223127   4.625   4.404  15.597  1.9008  1.8163 -1.1255
 3890SOL     OW23128   0.145   1.209   7.116 -0.0755  0.3641 -0.3670
 3890SOL    HW123129   0.148   1.261   7.196  1.9412 -0.3586  0.0064
 3890SOL    HW223130   0.060   1.232   7.078 -0.7162  0.5749  1.1954
 3891SOL     OW23131   1.780   4.682  13.653  0.5311 -0.0343  0.1667
 3891SOL    HW123132   1.801   4.652  13.564 -1.3323  0.0814 -0.3204
 3891SOL    HW223133   1.777   0.057  13.655 -0.5416 -0.0338 -1.3873
 3892SOL     OW23134   0.051   1.998   6.570  0.2116 -0.3393  0.2862
 3892SOL    HW123135   0.050   2.071   6.631 -0.2163 -0.2756  0.2008
 3892SOL    HW223136   0.094   1.925   6.615  3.2404  1.1144 -0.2672
 3893SOL     OW23137   4.188   1.078   7.668 -0.8942 -0.8301  0.3265
 3893SOL    HW123138   4.183   0.983   7.660  1.6440 -1.2052  2.9260
 3893SOL    HW223139   4.262   1.090   7.727 -1.2707  0.4103  0.5507
 3894SOL     OW23140   3.413   4.251   4.415  0.3394  0.4043 -0.2704
 3894SOL    HW123141   3.379   4.340   4.420 -1.1761 -0.0829 -1.8862
 3894SOL    HW223142   3.423   4.230   4.508  2.0884  3.5633  0.2623
 3895SOL     OW23143   1.517   0.869   5.394  0.3612 -0.1890 -0.5109
 3895SOL    HW123144   1.495   0.841   5.305 -1.2465  0.7361 -0.3938
 3895SOL    HW223145   1.502   0.790   5.446  2.5252 -1.2831 -1.5359
 3896SOL     OW23146   1.775   4.251   6.720  0.1329  0.0659 -0.2029
 3896SOL    HW123147   1.796   4.159   6.733 -0.4171 -0.1077 -0.5928
 3896SOL    HW223148   1.707   4.257   6.653 -0.8424  0.0874  0.7882
 3897SOL     OW23149   0.630   3.971  15.619  0.3290 -0.0218 -0.4460
 3897SOL    HW123150   0.715   4.013  15.633  1.8874 -3.1663 -0.5791
 3897SOL    HW223151   0.605   4.011  15.536 -1.4558  0.7148  0.4504
 3898SOL     OW23152   2.419   1.071   5.226 -0.1705  0.5539 -0.4023
 3898SOL    HW123153   2.343   1.053   5.282 -0.0558  1.5857  0.0931
 3898SOL    HW223154   2.375   1.112   5.152  0.2364  0.2429 -0.8137
 3899SOL     OW23155   0.909   3.444   4.984  0.5622  0.2423 -0.6238
 3899SOL    HW123156   0.927   3.364   4.936  0.7830  1.2933 -2.2976
 3899SOL    HW223157   0.944   3.514   4.928 -0.1687 -0.2223 -1.6742
 3900SOL     OW23158   3.162   3.959   9.496 -0.1900 -0.1206  0.1657
 3900SOL    HW123159   3.078   3.987   9.460 -1.0717  1.1067  3.2315
 3900SOL    HW223160   3.145   3.870   9.526 -1.4117  0.2948  0.6695
 3901SOL     OW23161   0.294   3.407   2.198 -0.8314  0.0827  0.1573
 3901SOL    HW123162   0.266   3.371   2.114  0.3953 -2.8532  1.0162
 3901SOL    HW223163   0.353   3.479   2.176 -0.9361  0.3365  0.6976
 3902SOL     OW23164   3.223   3.133   8.082 -0.3516  0.4015  0.1350
 3902SOL    HW123165   3.188   3.160   7.997 -1.1183  0.0674  0.3461
 3902SOL    HW223166   3.151   3.073   8.099 -0.7268  0.5342 -0.9608
 3903SOL     OW23167   1.936   0.769   2.386 -0.2413  0.1058  0.5610
 3903SOL    HW123168   1.973   0.765   2.298 -1.9586  1.9985 -0.2633
 3903SOL    HW223169   1.901   0.858   2.386  0.3574  0.3451  0.6029
 3904SOL     OW23170   0.107   3.032   7.449 -0.5914 -0.2999  0.2184
 3904SOL    HW123171   0.137   3.099   7.387  0.9046  0.4029  1.7255
 3904SOL    HW223172   0.193   2.997   7.470  0.4936  1.7289 -0.8580
 3905SOL     OW23173   2.148   4.130   5.122  0.2759  0.3803 -0.2126
 3905SOL    HW123174   2.229   4.177   5.100  1.2106 -1.0425  0.1569
 3905SOL    HW223175   2.154   4.067   5.051  0.4109  1.1735 -0.9043
 3906SOL     OW23176   3.183   0.381   4.630 -0.2347  0.5930 -0.1254
 3906SOL    HW123177   3.117   0.411   4.568 -1.9792 -1.7401  0.5815
 3906SOL    HW223178   3.164   0.450   4.694 -0.6603  2.1930 -1.9738
 3907SOL     OW23179   3.514   4.212   9.596 -0.5029 -0.1745  0.7322
 3907SOL    HW123180   3.453   4.210   9.522  0.8196  1.0174 -0.3943
 3907SOL    HW223181   3.578   4.146   9.570 -1.4137 -1.7516  2.4817
 3908SOL     OW23182   2.846   3.870   3.052  0.4831 -0.3986 -0.3948
 3908SOL    HW123183   2.867   3.902   3.140  1.7406 -0.1747 -0.7724
 3908SOL    HW223184   2.932   3.886   3.012 -0.0904  0.3240 -1.3314
 3909SOL     OW23185   2.642   0.113   8.680 -0.2339  0.5636  0.3731
 3909SOL    HW123186   2.576   0.154   8.737  0.6982  0.9273  1.1914
 3909SOL    HW223187   2.633   0.159   8.597 -3.0365 -0.5911  0.0125
 3910SOL     OW23188   4.249   4.088   6.565 -0.0302 -0.3151 -0.3114
 3910SOL    HW123189   4.297   4.094   6.648 -2.2670  0.7208  0.9041
 3910SOL    HW223190   4.237   4.182   6.552 -0.0698  0.1243  3.0275
 3911SOL     OW23191   3.651   3.680   8.185  0.6122 -0.0324 -0.5269
 3911SOL    HW123192   3.633   3.739   8.113 -3.1336 -1.3309 -0.6513
 3911SOL    HW223193   3.664   3.740   8.258 -2.9128  0.0058  0.1022
 3912SOL     OW23194   3.547   0.836   2.827  0.0300  0.1181 -0.0715
 3912SOL    HW123195   3.570   0.916   2.778 -0.7728 -0.2107 -0.9889
 3912SOL    HW223196   3.545   0.777   2.752 -2.5725 -0.8268  0.7397
 3913SOL     OW23197   0.410   2.301   7.316  0.1322 -0.6568  0.5008
 3913SOL    HW123198   0.398   2.222   7.264 -1.4566 -1.0349  1.4312
 3913SOL    HW223199   0.389   2.261   7.400  0.7019 -2.1017 -0.0415
 3914SOL     OW23200   3.726   4.050   7.560 -0.0945  0.3182  0.3378
 3914SOL    HW123201   3.746   4.087   7.646  4.4283 -0.5375 -0.3690
 3914SOL    HW223202   3.632   4.035   7.570  0.3562 -2.8447 -0.1463
 3915SOL     OW23203   1.764   3.612   2.783  0.4058 -0.5478 -0.3097
 3915SOL    HW123204   1.782   3.697   2.744  0.1797  0.0440  0.8560
 3915SOL    HW223205   1.848   3.582   2.819  1.1320  2.7547  0.7514
 3916SOL     OW23206   1.592   2.472  15.826  0.2383  0.1603  0.2378
 3916SOL    HW123207   1.673   2.434  15.793 -0.2686 -1.7280  1.1174
 3916SOL    HW223208   1.608   2.566  15.829 -1.0479  0.3402  1.6031
 3917SOL     OW23209   1.097   4.126  10.469  0.1364 -0.0996  0.4781
 3917SOL    HW123210   1.148   4.144  10.390 -1.0753 -0.2122 -0.3329
 3917SOL    HW223211   1.162   4.103  10.535  0.0626  0.7448  0.8350
 3918SOL     OW23212   3.319   0.776   8.245 -0.1605 -0.0491  0.0117
 3918SOL    HW123213   3.358   0.690   8.230 -2.7271 -1.1400 -0.3216
 3918SOL    HW223214   3.296   0.773   8.338 -1.7118  0.7064 -0.3558
 3919SOL     OW23215   4.696   0.437   7.032 -0.2040 -0.7364 -0.5330
 3919SOL    HW123216   4.669   0.446   6.941  2.3412 -0.4137 -1.2519
 3919SOL    HW223217   4.714   0.528   7.054  0.9175 -1.0731 -0.0306
 3920SOL     OW23218   2.984   4.020   2.029 -0.6158  0.0947  0.1361
 3920SOL    HW123219   3.000   4.112   2.005  1.3619 -0.7409 -1.7163
 3920SOL    HW223220   2.890   4.015   2.012 -0.3819 -1.9379 -0.5137
 3921SOL     OW23221   4.688   3.336   1.976  0.0937  0.1846 -0.2890
 3921SOL    HW123222   0.022   3.379   1.910 -1.6767 -0.0490 -1.8976
 3921SOL    HW223223   4.605   3.344   1.930 -0.4270 -2.6600  0.1671
 3922SOL     OW23224   3.246   2.403   7.721 -0.2560  0.1090 -0.1411
 3922SOL    HW123225   3.190   2.328   7.740 -0.8635  0.1835 -1.6408
 3922SOL    HW223226   3.241   2.457   7.800 -2.1143  1.5170 -1.2576
 3923SOL     OW23227   3.256   3.186   0.976  0.2133 -0.2069 -0.4484
 3923SOL    HW123228   3.255   3.091   0.964  1.1908 -0.1844 -0.7234
 3923SOL    HW223229   3.253   3.216   0.886 -1.4330  2.9048  0.6738
 3924SOL     OW23230   4.587   3.095   2.752 -0.3347  0.1321 -0.1797
 3924SOL    HW123231   4.630   3.062   2.830  0.9423 -2.5636 -2.0331
 3924SOL    HW223232   4.655   3.079   2.687 -0.4127 -0.1799 -0.1839
 3925SOL     OW23233   2.433   3.424   0.349  0.1081  0.2968 -0.3576
 3925SOL    HW123234   2.436   3.353   0.284 -1.3850 -0.3125  0.2310
 3925SOL    HW223235   2.515   3.466   0.322  0.2067  0.5894  0.4098
 3926SOL     OW23236   0.524   3.934   9.955  0.2252 -0.1093  0.0678
 3926SOL    HW123237   0.586   3.877   9.910  2.0529 -0.6790  3.3174
 3926SOL    HW223238   0.476   3.972   9.881  2.6027  1.2951 -0.7533
 3927SOL     OW23239   2.813   0.617   8.108  0.3610  0.6171  0.9335
 3927SOL    HW123240   2.722   0.605   8.135 -0.1027 -0.3299 -1.1219
 3927SOL    HW223241   2.812   0.701   8.062  1.4553  0.5692  0.8172
 3928SOL     OW23242   1.740   2.769   9.597 -0.1441  0.7218  0.0855
 3928SOL    HW123243   1.655   2.799   9.565 -0.8554 -0.6786  0.6669
 3928SOL    HW223244   1.797   2.779   9.521 -1.5573 -0.8293 -1.1763
 3929SOL     OW23245   0.060   2.288   4.766 -0.2057 -0.6206  0.2721
 3929SOL    HW123246   0.077   2.284   4.860 -1.8529 -2.4653  0.4680
 3929SOL    HW223247   4.689   2.263   4.767 -0.4656  0.2755 -0.9031
 3930SOL     OW23248   1.032   4.425   2.018 -0.1166 -0.5629 -0.1530
 3930SOL    HW123249   1.047   4.383   2.103  0.0800  0.6235  0.3841
 3930SOL    HW223250   1.121   4.418   1.983 -0.2249 -0.0758 -0.5220
 3931SOL     OW23251   3.872   4.285   3.544 -0.0945 -0.2538  0.4937
 3931SOL    HW123252   3.818   4.364   3.544  1.1284  0.5593  0.2174
 3931SOL    HW223253   3.928   4.304   3.469 -0.6560 -0.4406  0.0270
 3932SOL     OW23254   3.259   3.444   6.805 -0.2827  0.0362 -0.6276
 3932SOL    HW123255   3.329   3.386   6.835  0.1462 -0.8357 -3.3685
 3932SOL    HW223256   3.297   3.532   6.812  0.1555 -0.3438  1.7807
 3933SOL     OW23257   2.562   1.464   4.808 -0.3147  0.1068 -0.6076
 3933SOL    HW123258   2.484   1.467   4.863  1.1768 -1.4866  1.6083
 3933SOL    HW223259   2.536   1.486   4.718  0.6752 -1.3746 -1.2788
 3934SOL     OW23260   1.897   1.956  17.423  0.5698 -1.1669  0.6307
 3934SOL    HW123261   1.954   2.033  17.417  1.6671 -2.1105 -1.1958
 3934SOL    HW223262   1.850   1.980  17.502  0.8424  1.9976 -0.1820
 3935SOL     OW23263   0.022   1.694   1.160  0.1518  0.6642  0.4611
 3935SOL    HW123264   4.676   1.754   1.126 -0.5072 -0.9257 -1.0497
 3935SOL    HW223265   4.694   1.634   1.216 -0.3043  2.1183  1.6396
 3936SOL     OW23266   2.360   2.624   7.297 -0.0426  0.2229  0.2614
 3936SOL    HW123267   2.303   2.597   7.226 -0.8709  2.0191  0.2585
 3936SOL    HW223268   2.331   2.556   7.358  1.2792 -1.2509 -0.7242
 3937SOL     OW23269   0.840   3.323   5.420 -0.7614 -0.3925 -0.2252
 3937SOL    HW123270   0.752   3.297   5.445 -0.1696 -0.9354  1.3006
 3937SOL    HW223271   0.826   3.411   5.384 -0.0332  0.8225  2.3892
 3938SOL     OW23272   3.436   0.543   6.284  0.2705 -0.5738  0.1889
 3938SOL    HW123273   3.427   0.448   6.283 -0.0251 -0.5864  3.4495
 3938SOL    HW223274   3.471   0.554   6.373 -0.0448  2.6197 -0.0756
 3939SOL     OW23275   1.000   2.680   0.038 -0.2564 -0.0016 -0.3940
 3939SOL    HW123276   0.995   2.603   0.095  0.8684 -1.5228 -2.3591
 3939SOL    HW223277   0.990   2.747   0.106 -1.8629 -0.7127  0.0799
 3940SOL     OW23278   3.627   1.030   7.478 -0.0181  0.0550  0.4907
 3940SOL    HW123279   3.543   0.992   7.505 -0.9773  2.3946  0.8461
 3940SOL    HW223280   3.666   0.950   7.444 -0.2502  1.0063 -2.0175
 3941SOL     OW23281   2.641   2.979  10.506 -0.7203 -0.1057  1.2123
 3941SOL    HW123282   2.693   3.000  10.584  0.6929  1.5857 -0.2042
 3941SOL    HW223283   2.596   3.063  10.496 -2.4220 -1.1057  0.3570
 3942SOL     OW23284   0.445   4.464   3.864 -0.8338 -0.0322 -0.0733
 3942SOL    HW123285   0.537   4.490   3.857 -0.1826 -1.7816  2.3105
 3942SOL    HW223286   0.449   4.386   3.809  0.2795 -0.7255  1.0141
 3943SOL     OW23287   4.604   3.914   3.680  0.4696 -0.2918 -0.1595
 3943SOL    HW123288   4.679   3.939   3.733  1.5019 -3.1716 -0.2823
 3943SOL    HW223289   4.580   3.829   3.717  0.3401 -0.2624 -0.1759
 3944SOL     OW23290   1.842   2.103   2.587  0.5085  0.0264 -0.1859
 3944SOL    HW123291   1.855   2.056   2.670 -0.5005 -0.4525 -0.2914
 3944SOL    HW223292   1.927   2.135   2.556 -0.6631  2.4563 -0.8937
 3945SOL     OW23293   1.425   3.684  12.515 -0.3189  0.1766  0.2406
 3945SOL    HW123294   1.344   3.644  12.548 -1.0065  1.0103 -0.4187
 3945SOL    HW223295   1.442   3.640  12.432 -0.9514 -0.7318  0.5919
 3946SOL     OW23296   0.680   3.509  14.732 -0.1361 -0.1091 -0.0889
 3946SOL    HW123297   0.745   3.460  14.683 -0.1126 -0.3686  0.2035
 3946SOL    HW223298   0.602   3.508  14.676  0.7837  2.6134 -1.4134
 3947SOL     OW23299   2.678   3.238   9.294  0.2792 -0.1929  0.5455
 3947SOL    HW123300   2.701   3.330   9.280  2.4570 -1.2201 -2.4862
 3947SOL    HW223301   2.590   3.244   9.258 -0.0919 -1.5501  1.2129
 3948SOL     OW23302   2.556   2.903   5.432  0.2619 -0.3728  0.3753
 3948SOL    HW123303   2.476   2.850   5.433  1.2979 -1.9057  1.0060
 3948SOL    HW223304   2.589   2.898   5.342 -1.1909  0.1483 -0.1907
 3949SOL     OW23305   3.071   4.029   6.280  0.3521 -0.5248  0.1988
 3949SOL    HW123306   3.087   3.937   6.303  2.4265 -0.2388 -0.1127
 3949SOL    HW223307   3.143   4.041   6.219  1.5379 -0.1937  1.6776
 3950SOL     OW23308   3.879   4.452   5.227  0.5387 -0.2864 -0.3428
 3950SOL    HW123309   3.841   4.531   5.266 -2.9939 -2.3019  0.3474
 3950SOL    HW223310   3.880   4.474   5.134  0.1360 -1.6745 -0.6802
 3951SOL     OW23311   3.878   3.665   1.783 -0.3938  0.0667 -0.2041
 3951SOL    HW123312   3.888   3.650   1.877 -0.7852  0.2140 -0.1411
 3951SOL    HW223313   3.895   3.577   1.750 -0.2890  0.5198 -1.3518
 3952SOL     OW23314   3.516   2.436   5.501 -0.2882 -0.3325  0.4211
 3952SOL    HW123315   3.492   2.526   5.523  3.1977  0.1862  2.1095
 3952SOL    HW223316   3.585   2.461   5.439 -0.4617  1.6197  0.9976
 3953SOL     OW23317   0.051   0.154  14.057  0.7626  0.4808 -0.3380
 3953SOL    HW123318   4.705   0.197  14.004 -0.0288 -1.5962 -1.0277
 3953SOL    HW223319   0.125   0.148  13.996 -0.4163  1.0827 -1.8001
 3954SOL     OW23320   0.598   0.027   1.750  0.5585  0.0769  0.5106
 3954SOL    HW123321   0.533   4.705   1.695  0.9205 -2.1548  1.8075
 3954SOL    HW223322   0.602   0.115   1.714  0.0839  0.1209  0.5710
 3955SOL     OW23323   2.893   2.047  15.063  0.2034  0.2769 -0.3496
 3955SOL    HW123324   2.937   2.129  15.042 -0.4258  0.3469 -1.4075
 3955SOL    HW223325   2.953   2.000  15.121  0.9730  2.7652  0.8938
 3956SOL     OW23326   3.994   0.864  11.071 -0.5466  0.2559  0.0022
 3956SOL    HW123327   4.018   0.772  11.082  1.3577  0.4898 -2.2153
 3956SOL    HW223328   4.013   0.905  11.155 -0.8756 -0.4823  0.4313
 3957SOL     OW23329   1.430   0.751   5.157 -0.8392 -0.6773  0.4357
 3957SOL    HW123330   1.416   0.778   5.066 -1.9259 -0.5432  0.6413
 3957SOL    HW223331   1.359   0.687   5.165 -0.0276 -1.4820  1.1816
 3958SOL     OW23332   4.499   1.636   6.697  0.0620  0.4087  0.1612
 3958SOL    HW123333   4.571   1.613   6.638  0.4799  0.2156  0.7442
 3958SOL    HW223334   4.485   1.547   6.731  1.1965  0.2321  0.1693
 3959SOL     OW23335   3.914   2.560   2.224 -0.0345 -0.1298  0.0083
 3959SOL    HW123336   3.836   2.611   2.202 -0.0971 -0.3780 -0.3491
 3959SOL    HW223337   3.945   2.614   2.297 -0.0668  1.2593 -0.9888
 3960SOL     OW23338   0.714   1.211   5.645  0.3503 -0.5187  0.1725
 3960SOL    HW123339   0.621   1.216   5.624  0.2263 -0.9064  0.6087
 3960SOL    HW223340   0.734   1.297   5.680  0.9874 -0.8040  0.5135
 3961SOL     OW23341   2.915   1.254   0.998  0.1668 -0.2755 -0.4834
 3961SOL    HW123342   2.991   1.301   1.033 -1.4259  2.0158 -0.1680
 3961SOL    HW223343   2.914   1.180   1.060  1.9249 -0.1065 -0.2589
 3962SOL     OW23344   4.049   3.073   2.271 -0.8478 -0.3821  0.8708
 3962SOL    HW123345   4.056   3.132   2.347 -1.2120  0.9566 -0.1269
 3962SOL    HW223346   4.143   3.059   2.264 -0.9129 -0.4568  0.1454
 3963SOL     OW23347   3.525   1.039   0.147  0.2283 -0.1378 -0.3157
 3963SOL    HW123348   3.617   1.062   0.162 -0.1583  2.2456 -1.5667
 3963SOL    HW223349   3.497   1.032   0.239 -0.8098  1.2644 -0.5101
 3964SOL     OW23350   4.255   1.298   3.204 -0.7184 -0.1907  0.4024
 3964SOL    HW123351   4.202   1.318   3.281  0.4402 -2.4809  1.7793
 3964SOL    HW223352   4.293   1.381   3.175 -1.4113 -0.6701 -1.9129
 3965SOL     OW23353   1.640   1.603   5.876  0.2941  0.1606  0.4989
 3965SOL    HW123354   1.676   1.530   5.826  0.5345  0.0061  0.9038
 3965SOL    HW223355   1.662   1.588   5.968  1.6068  3.6723  0.7554
 3966SOL     OW23356   0.327   3.072   4.009 -0.3077  0.2019 -0.3706
 3966SOL    HW123357   0.301   3.120   4.088 -0.1936 -2.5593  1.3364
 3966SOL    HW223358   0.419   3.098   4.013 -0.1049 -0.2889 -1.7351
 3967SOL     OW23359   1.495   3.972  14.169 -0.5259  0.3119 -0.0828
 3967SOL    HW123360   1.462   4.050  14.124  4.1452  0.3752 -3.3956
 3967SOL    HW223361   1.509   4.002  14.259  1.5680 -0.3023 -0.2146
 3968SOL     OW23362   3.767   0.099  14.432 -0.0564 -0.7228 -0.0268
 3968SOL    HW123363   3.724   0.104  14.518  2.3411  1.8815  1.0011
 3968SOL    HW223364   3.844   0.147  14.461  1.5221 -2.3149 -1.5629
 3969SOL     OW23365   0.558   4.133   3.103  0.5020  0.6794  0.1746
 3969SOL    HW123366   0.611   4.054   3.110  0.3321  0.3847 -1.8236
 3969SOL    HW223367   0.539   4.134   3.009 -1.2633 -1.3295  0.5226
 3970SOL     OW23368   2.183   3.559   2.647 -0.1832  0.0323 -0.2823
 3970SOL    HW123369   2.222   3.496   2.587  1.4378  1.6998 -0.9880
 3970SOL    HW223370   2.244   3.630   2.624 -0.2740  0.0292 -0.5299
 3971SOL     OW23371   1.804   1.997   8.141 -0.1076  0.7925  0.3003
 3971SOL    HW123372   1.765   1.942   8.210 -2.1086  1.6893 -0.1034
 3971SOL    HW223373   1.872   2.051   8.180 -0.2747  1.4890 -0.3814
 3972SOL     OW23374   2.471   2.998   9.050  0.4362 -0.3680 -0.3119
 3972SOL    HW123375   2.498   2.911   9.080  1.2093 -0.0823 -0.1736
 3972SOL    HW223376   2.525   3.013   8.973 -2.2414 -0.6509 -2.2182
 3973SOL     OW23377   0.264   0.216  11.672  0.1859  0.2420  0.2564
 3973SOL    HW123378   0.272   0.302  11.630  0.1671 -0.2143 -0.6761
 3973SOL    HW223379   0.239   0.175  11.590 -1.5262 -1.2708  1.5537
 3974SOL     OW23380   1.471   0.163   2.907 -0.1392 -0.0224  0.6713
 3974SOL    HW123381   1.526   0.219   2.962 -0.3384  0.2486  0.5930
 3974SOL    HW223382   1.505   0.194   2.824 -2.7813  0.8547 -0.0977
 3975SOL     OW23383   0.484   2.456   6.873 -0.0523 -0.0977  0.1154
 3975SOL    HW123384   0.418   2.521   6.849 -0.6841 -0.2619  1.3757
 3975SOL    HW223385   0.545   2.464   6.800 -0.6200  0.8129 -0.2444
 3976SOL     OW23386   4.084   3.677  10.900  0.0386  0.0998 -0.1207
 3976SOL    HW123387   3.992   3.691  10.925 -0.8977 -2.7760 -2.0358
 3976SOL    HW223388   4.097   3.601  10.957 -0.3214  0.2543  0.1687
 3977SOL     OW23389   0.212   1.892  16.989 -0.6116  0.0803  0.2032
 3977SOL    HW123390   0.306   1.883  17.006 -0.4682  2.2567  0.6387
 3977SOL    HW223391   0.203   1.920  16.898  2.2455 -0.6308 -0.2965
 3978SOL     OW23392   0.045   0.501  10.457  0.2867 -0.2955 -0.1277
 3978SOL    HW123393   4.718   0.559  10.516  0.0886 -2.1666  1.5286
 3978SOL    HW223394   0.001   0.416  10.449  1.0575 -0.7995  0.9934
 3979SOL     OW23395   3.404   0.597   7.868 -0.6044  0.4287 -0.0560
 3979SOL    HW123396   3.432   0.602   7.776  0.1853  2.7243  0.2895
 3979SOL    HW223397   3.484   0.584   7.918  0.4828  2.4456 -1.2189
 3980SOL     OW23398   0.856   1.505   7.674  0.5617 -0.0889  0.0114
 3980SOL    HW123399   0.923   1.437   7.667 -0.2587 -0.9066  0.0915
 3980SOL    HW223400   0.903   1.587   7.691  2.3030 -1.0147 -0.4336
 3981SOL     OW23401   4.509   0.980  13.594  0.1910  0.2412  0.4333
 3981SOL    HW123402   4.533   0.888  13.605  1.6900  0.4938 -0.7271
 3981SOL    HW223403   4.455   1.007  13.668 -2.6793 -1.1864 -1.1658
 3982SOL     OW23404   2.030   0.290  10.159 -0.3065 -0.5262 -0.3206
 3982SOL    HW123405   1.996   0.285  10.249  0.7598  1.0703  0.1916
 3982SOL    HW223406   2.064   0.201  10.157  1.7098  0.2113  1.2275
 3983SOL     OW23407   1.497   2.986   6.093 -0.1625 -0.2010  0.5852
 3983SOL    HW123408   1.537   2.951   6.172  1.1032  0.5779  0.3078
 3983SOL    HW223409   1.431   3.048   6.123 -1.7739 -0.6326 -2.0258
 3984SOL     OW23410   4.275   4.355   6.533  0.7090 -0.0892  0.6359
 3984SOL    HW123411   4.252   4.400   6.614  0.5194  2.0306 -0.5837
 3984SOL    HW223412   4.207   4.389   6.474  1.1839  2.3105  1.4552
 3985SOL     OW23413   0.080   1.104   6.261  0.0505 -0.2233  0.0747
 3985SOL    HW123414   0.118   1.060   6.336 -0.4411 -1.5667 -0.4635
 3985SOL    HW223415   0.036   1.033   6.215 -0.4848 -0.0582  0.3246
 3986SOL     OW23416   0.398   3.979   7.242  0.4410  0.2277 -0.0213
 3986SOL    HW123417   0.340   4.046   7.278  1.1266  0.3547  0.8506
 3986SOL    HW223418   0.468   4.025   7.196  0.1473  0.7060  0.0138
 3987SOL     OW23419   1.936   4.430  12.640 -0.1851 -0.1787 -0.5139
 3987SOL    HW123420   1.906   4.514  12.674  0.2069  0.0615 -0.7556
 3987SOL    HW223421   1.965   4.387  12.720  1.9623  0.0784 -1.1457
 3988SOL     OW23422   1.190   0.207   4.847  0.0786 -0.4591 -0.3420
 3988SOL    HW123423   1.123   0.258   4.893 -1.2837  1.2017 -4.1590
 3988SOL    HW223424   1.183   0.122   4.891  2.0702 -0.8876 -0.8679
 3989SOL     OW23425   2.480   3.895   6.352  0.1407 -0.2164  0.4481
 3989SOL    HW123426   2.566   3.871   6.318 -0.5362  0.4412 -1.7587
 3989SOL    HW223427   2.463   3.975   6.303  1.5077 -0.1797  0.0284
 3990SOL     OW23428   0.757   3.144   7.201  0.0244  0.1075  0.0817
 3990SOL    HW123429   0.746   3.100   7.116  1.9076  1.9032 -1.0797
 3990SOL    HW223430   0.696   3.089   7.251  0.2135 -0.0933  0.0894
 3991SOL     OW23431   4.496   4.534   9.188  0.3187 -0.2051 -0.6421
 3991SOL    HW123432   4.505   4.501   9.099 -0.1976 -1.3031 -0.2988
 3991SOL    HW223433   4.406   4.508   9.209  0.7174 -1.2681 -0.2160
 3992SOL     OW23434   0.325   0.339   3.877 -0.3594 -0.6388  0.4431
 3992SOL    HW123435   0.324   0.278   3.950 -0.0514 -1.3130 -0.1150
 3992SOL    HW223436   0.396   0.398   3.901  1.7221 -2.8389 -0.2994
 3993SOL     OW23437   1.499   1.370  10.784 -0.2300 -0.2319  0.4177
 3993SOL    HW123438   1.449   1.433  10.837  2.7932  2.0577  0.5484
 3993SOL    HW223439   1.508   1.299  10.847  0.5963  0.8793  1.5660
 3994SOL     OW23440   2.674   4.279   0.648  0.8217 -0.3261 -0.1012
 3994SOL    HW123441   2.667   4.297   0.554  0.6901 -1.8251 -0.3782
 3994SOL    HW223442   2.583   4.283   0.675  1.2703 -0.6237  1.4420
 3995SOL     OW23443   2.049   2.784  16.238 -0.1136 -0.6229  0.6888
 3995SOL    HW123444   2.015   2.872  16.220  1.9724  0.1490  0.5123
 3995SOL    HW223445   2.125   2.778  16.181  1.0395  0.5452  2.0957
 3996SOL     OW23446   0.119   2.801  14.152 -0.6682  0.7258 -0.2510
 3996SOL    HW123447   0.059   2.784  14.224 -0.1443  0.8036  0.2014
 3996SOL    HW223448   0.161   2.715  14.154 -2.1234  0.0153  0.2452
 3997SOL     OW23449   0.338   2.990  16.942  0.1002  0.3013 -0.2744
 3997SOL    HW123450   0.325   2.896  16.953  0.3172  0.5436  2.1223
 3997SOL    HW223451   0.344   3.019  17.033 -1.1194 -1.7904  0.4779
 3998SOL     OW23452   0.824   3.133  12.975  0.4500  0.4890 -0.0316
 3998SOL    HW123453   0.875   3.058  12.944  1.1662  0.1129  2.1116
 3998SOL    HW223454   0.890   3.168  13.034  0.1211  0.4535  0.3570
 3999SOL     OW23455   4.126   3.463   2.635 -0.3305 -0.6651 -0.2947
 3999SOL    HW123456   4.166   3.548   2.655  0.4489 -0.6134 -2.0037
 3999SOL    HW223457   4.067   3.450   2.709 -0.5526  0.6993 -0.2306
 4000SOL     OW23458   0.620   3.538   6.275  0.0821  0.7061  0.5063
 4000SOL    HW123459   0.668   3.461   6.243 -2.9037 -1.0828  0.3025
 4000SOL    HW223460   0.626   3.531   6.370  1.5728  1.0475  0.4311
 4001SOL     OW23461   4.541   4.199   5.551 -0.3704 -0.0717  0.2820
 4001SOL    HW123462   4.524   4.267   5.486 -0.6087 -0.8575 -0.4817
 4001SOL    HW223463   4.452   4.204   5.586 -0.5838  1.5624 -0.4626
 4002SOL     OW23464   0.990   2.008   8.235  0.2024  0.4200 -0.0754
 4002SOL    HW123465   0.996   1.927   8.286  0.2755  0.9470  0.7518
 4002SOL    HW223466   1.081   2.012   8.204 -0.3178 -0.8335 -1.7431
 4003SOL     OW23467   4.023   2.650   0.149 -0.5898  0.0005  0.1279
 4003SOL    HW123468   3.936   2.639   0.187 -1.3119 -3.4907 -2.5383
 4003SOL    HW223469   4.064   2.681   0.230 -1.6488  1.6184  0.0506
 4004SOL     OW23470   0.795   2.139   4.447  0.3511  0.2109 -0.4717
 4004SOL    HW123471   0.794   2.230   4.416  1.9727  1.4010  2.8743
 4004SOL    HW223472   0.790   2.087   4.368 -1.4972  1.7505 -1.3882
 4005SOL     OW23473   1.358   4.622   8.653  0.6973 -0.3236 -0.3977
 4005SOL    HW123474   1.310   4.613   8.736 -0.7878 -0.8442 -1.3179
 4005SOL    HW223475   1.403   4.698   8.690 -1.1860  1.8083 -2.5075
 4006SOL     OW23476   4.106   1.533   3.623 -0.4694  0.1174 -0.3227
 4006SOL    HW123477   4.162   1.547   3.699 -0.2927 -0.7515 -0.2977
 4006SOL    HW223478   4.138   1.445   3.603  1.0254  0.7351 -0.6162
 4007SOL     OW23479   1.177   1.507   6.524 -0.2921 -0.2098  0.1108
 4007SOL    HW123480   1.266   1.543   6.525  0.0607 -1.0938  0.6311
 4007SOL    HW223481   1.181   1.432   6.584 -0.6089 -1.1498 -1.0458
 4008SOL     OW23482   3.290   3.090   2.717 -0.1745  0.1668  0.1931
 4008SOL    HW123483   3.337   3.016   2.758 -1.0709  1.2675  3.2177
 4008SOL    HW223484   3.222   3.049   2.663 -1.9417 -2.0633  4.0835
 4009SOL     OW23485   2.296   2.719  11.635 -1.0065  0.6639  0.1587
 4009SOL    HW123486   2.327   2.794  11.584 -0.5865  0.4201  0.0574
 4009SOL    HW223487   2.264   2.657  11.569 -0.1703  0.3684  0.0323
 4010SOL     OW23488   4.035   0.773   7.517  0.4304  0.7260  0.2158
 4010SOL    HW123489   3.995   0.735   7.439  0.2313 -0.6666  0.9895
 4010SOL    HW223490   3.953   0.796   7.562 -0.0313 -0.8016  0.1910
 4011SOL     OW23491   0.617   0.959   8.609 -0.1119 -0.2138 -0.5054
 4011SOL    HW123492   0.691   1.017   8.589  1.0641 -1.4251  0.3624
 4011SOL    HW223493   0.555   0.980   8.539 -2.1141  0.4197  1.4652
 4012SOL     OW23494   0.829   4.422   6.308  0.1442 -0.1093 -0.3178
 4012SOL    HW123495   0.821   4.506   6.263 -0.3224  0.1000  0.1574
 4012SOL    HW223496   0.878   4.370   6.244 -2.1885 -0.8461 -1.4871
 4013SOL     OW23497   0.092   2.490   3.035  0.2151  0.6209  0.2074
 4013SOL    HW123498   0.183   2.489   3.004 -0.9952 -1.6841 -3.3542
 4013SOL    HW223499   0.067   2.571   2.990  1.1396  1.7072  1.6597
 4014SOL     OW23500   1.922   3.624   3.678  0.8532 -0.1494  0.2677
 4014SOL    HW123501   1.863   3.655   3.610 -0.1915 -0.0530  1.2252
 4014SOL    HW223502   1.869   3.566   3.733  0.2241  0.7921  0.6562
 4015SOL     OW23503   2.444   3.024   8.632 -0.0229 -0.0350  0.2240
 4015SOL    HW123504   2.358   2.990   8.656  0.8317 -3.1855 -1.1351
 4015SOL    HW223505   2.468   3.061   8.717  0.4680 -0.5634  0.3189
 4016SOL     OW23506   0.844   1.161   2.575  0.7717 -0.0202  0.4075
 4016SOL    HW123507   0.855   1.076   2.618 -1.7193 -0.0188  1.0502
 4016SOL    HW223508   0.909   1.198   2.635 -0.3483 -1.1095  2.3163
 4017SOL     OW23509   1.265   4.314  16.704 -0.2163  0.0049  0.2912
 4017SOL    HW123510   1.353   4.302  16.738 -0.3012 -0.5703  0.2988
 4017SOL    HW223511   1.255   4.246  16.638  0.4324 -0.1458  0.3543
 4018SOL     OW23512   3.033   1.669   7.715  0.0576  0.3382  0.5252
 4018SOL    HW123513   3.036   1.673   7.619  0.4345  1.7075  0.5887
 4018SOL    HW223514   3.126   1.663   7.737  0.2452  0.3737 -0.2560
 4019SOL     OW23515   3.956   3.743  11.346  0.3329 -0.4743  0.1654
 4019SOL    HW123516   3.908   3.767  11.426 -0.6714 -0.7308 -0.3551
 4019SOL    HW223517   3.905   3.804  11.292  0.5729  1.0380  1.6376
 4020SOL     OW23518   4.657   3.289  17.197 -0.4373 -0.2963 -0.0915
 4020SOL    HW123519   4.591   3.223  17.218 -1.1136  1.1811  2.3727
 4020SOL    HW223520   4.695   3.250  17.119  1.1833  2.6040 -0.7585
 4021SOL     OW23521   3.383   2.834   7.653 -0.2485 -0.2150  0.8077
 4021SOL    HW123522   3.341   2.778   7.587 -0.4306  2.2807 -1.1987
 4021SOL    HW223523   3.300   2.875   7.674 -0.2627 -1.2876  2.7947
 4022SOL     OW23524   1.498   1.814   7.501 -0.0894  0.0316  0.1322
 4022SOL    HW123525   1.547   1.732   7.494 -1.1115 -0.6344  0.7448
 4022SOL    HW223526   1.408   1.786   7.484 -0.7420  1.8577  0.5955
 4023SOL     OW23527   2.555   1.168   2.856 -0.2402  0.2953  0.4959
 4023SOL    HW123528   2.614   1.215   2.915  1.6264 -0.5198 -0.6945
 4023SOL    HW223529   2.537   1.085   2.900 -1.4888  1.0004  1.2892
 4024SOL     OW23530   3.515   0.421   3.781  0.4400  0.1155 -0.2517
 4024SOL    HW123531   3.473   0.504   3.762 -0.8764 -1.0934 -2.6283
 4024SOL    HW223532   3.545   0.442   3.869 -0.3635 -1.6733  0.4494
 4025SOL     OW23533   1.526   1.439   6.554 -0.0118 -0.1704  0.3992
 4025SOL    HW123534   1.531   1.345   6.574  0.3065  0.1123  1.6790
 4025SOL    HW223535   1.500   1.443   6.462 -0.8653 -3.4965  0.4638
 4026SOL     OW23536   4.087   1.269   4.392 -0.2269  0.2360  0.0534
 4026SOL    HW123537   4.035   1.349   4.400  0.6544  0.9103 -0.9347
 4026SOL    HW223538   4.020   1.217   4.436 -0.5838 -0.3735 -1.2322
 4027SOL     OW23539   2.653   1.106  13.605  0.5127  0.8531 -0.1201
 4027SOL    HW123540   2.662   1.181  13.547 -1.1615  0.2926 -1.0945
 4027SOL    HW223541   2.691   1.044  13.543  1.7653  0.0988  1.3939
 4028SOL     OW23542   1.506   3.135   7.814  0.2909  0.1585 -0.0107
 4028SOL    HW123543   1.547   3.054   7.843 -4.0777 -2.5717 -1.4151
 4028SOL    HW223544   1.417   3.119   7.847  0.2740 -1.7486 -0.9797
 4029SOL     OW23545   0.708   0.233   7.133  0.1390 -0.2681 -0.3101
 4029SOL    HW123546   0.797   0.198   7.136 -0.4290 -1.8345 -1.7158
 4029SOL    HW223547   0.716   0.329   7.131 -0.1940 -0.2210  0.9162
 4030SOL     OW23548   1.951   3.613  11.046 -0.1910  0.2521 -0.3813
 4030SOL    HW123549   1.911   3.669  11.113  1.1695  0.8782 -0.0928
 4030SOL    HW223550   1.880   3.570  10.999  0.8080 -1.4057 -0.3547
 4031SOL     OW23551   2.858   1.983  11.980  0.2282  0.1452 -0.4583
 4031SOL    HW123552   2.875   1.971  11.887  2.8610 -0.3318  0.0814
 4031SOL    HW223553   2.800   2.059  11.980 -1.2545 -0.9989 -1.4719
 4032SOL     OW23554   0.622   4.146   4.209  0.2044 -0.3597 -0.0577
 4032SOL    HW123555   0.609   4.054   4.186  0.4148 -0.5277  0.5003
 4032SOL    HW223556   0.702   4.160   4.159  0.6251 -2.5467 -0.0127
 4033SOL     OW23557   1.934   3.645   7.998  0.3135 -0.2895  0.8277
 4033SOL    HW123558   1.992   3.607   8.064  2.3466  0.8251 -0.3245
 4033SOL    HW223559   1.959   3.583   7.929 -1.1618  1.0777 -0.9262
 4034SOL     OW23560   1.124   3.341   5.161  0.0343  0.6764  0.4699
 4034SOL    HW123561   1.049   3.391   5.129 -0.8029 -1.1727 -0.5145
 4034SOL    HW223562   1.082   3.257   5.182  1.6790 -0.2219  0.2117
 4035SOL     OW23563   2.749   3.461   6.293 -0.2938  1.0685 -0.0921
 4035SOL    HW123564   2.766   3.407   6.370 -0.3642  0.7405 -0.3073
 4035SOL    HW223565   2.669   3.509   6.316 -0.4384  1.1197 -0.6980
 4036SOL     OW23566   4.528   1.354   3.914 -0.3105  0.0783 -0.0120
 4036SOL    HW123567   4.595   1.359   3.982 -1.4560 -3.0451  1.3397
 4036SOL    HW223568   4.513   1.260   3.910 -2.9114  0.5659 -1.9642
 4037SOL     OW23569   2.385   0.265  10.295  0.6055 -0.4541  0.3215
 4037SOL    HW123570   2.308   0.321  10.284  0.7404 -0.9307 -2.9372
 4037SOL    HW223571   2.438   0.276  10.216 -0.9178  1.4844 -0.4418
 4038SOL     OW23572   2.284   4.270  17.429  0.2109 -0.8583 -0.1092
 4038SOL    HW123573   2.339   4.348  17.416 -0.0019 -0.8439 -0.9071
 4038SOL    HW223574   2.220   4.301  17.365  0.0398 -0.6904  0.1439
 4039SOL     OW23575   4.558   3.329   3.254  0.8827  0.1423 -0.1071
 4039SOL    HW123576   4.463   3.338   3.242  0.6866 -0.0840  1.2508
 4039SOL    HW223577   4.580   3.257   3.195  0.9646 -0.0311  0.1364
 4040SOL     OW23578   1.735   0.091  14.051  0.3741 -0.1113 -0.1063
 4040SOL    HW123579   1.729   0.185  14.062 -0.5028 -0.2424  0.5782
 4040SOL    HW223580   1.729   0.060  14.141 -2.2906  0.3930 -0.1106
 4041SOL     OW23581   1.979   4.280   8.254 -0.3615 -0.2446 -0.0678
 4041SOL    HW123582   1.990   4.263   8.347  2.0978  0.0056 -0.3195
 4041SOL    HW223583   1.921   4.207   8.232 -1.3826  0.4524  0.2880
 4042SOL     OW23584   4.036   3.478  12.587 -0.1196 -0.1782  0.5444
 4042SOL    HW123585   4.115   3.505  12.634  0.9365 -1.5091 -0.4808
 4042SOL    HW223586   3.978   3.448  12.657 -0.6346  2.6033  1.3369
 4043SOL     OW23587   4.593   2.434   1.627  0.1325  0.1681 -0.2027
 4043SOL    HW123588   4.578   2.340   1.630  0.5316 -0.0034 -3.5112
 4043SOL    HW223589   4.633   2.452   1.542 -1.5364  2.4023 -0.4951
 4044SOL     OW23590   2.855   0.241  11.899 -0.0250 -0.1414 -0.0522
 4044SOL    HW123591   2.915   0.276  11.964  0.4187 -0.9347 -0.0317
 4044SOL    HW223592   2.801   0.187  11.956  1.4027 -0.2527  1.1922
 4045SOL     OW23593   3.636   2.415   8.033  0.2472 -0.1872 -0.1996
 4045SOL    HW123594   3.590   2.460   8.103  0.0061  1.0048 -1.1211
 4045SOL    HW223595   3.676   2.492   7.992  1.0606 -0.2744  0.4414
 4046SOL     OW23596   0.460   0.972  16.314  0.0403 -0.1042  0.1961
 4046SOL    HW123597   0.547   0.989  16.277  1.1742 -0.0297  2.9167
 4046SOL    HW223598   0.420   1.059  16.315  1.1672  0.4245 -0.4751
 4047SOL     OW23599   2.313   1.689  13.116 -0.0953  0.1156 -0.6013
 4047SOL    HW123600   2.260   1.620  13.078  0.2071 -0.7204  0.4827
 4047SOL    HW223601   2.402   1.669  13.088 -0.4978 -0.8075 -1.2083
 4048SOL     OW23602   1.202   2.654   8.588  0.3624 -0.1349  0.1596
 4048SOL    HW123603   1.156   2.666   8.504  0.5973 -3.2361 -0.4138
 4048SOL    HW223604   1.194   2.561   8.607  0.4683  0.0130  0.9113
 4049SOL     OW23605   3.939   0.630   6.540  0.3450 -0.0744 -0.4439
 4049SOL    HW123606   3.886   0.685   6.598 -0.9093 -3.1587  1.2992
 4049SOL    HW223607   3.876   0.582   6.486  1.1193 -0.9587 -0.5628
 4050SOL     OW23608   2.022   3.371  17.143 -0.2274  0.5632 -0.8959
 4050SOL    HW123609   1.998   3.382  17.235 -1.1463 -2.3303 -0.7928
 4050SOL    HW223610   1.965   3.439  17.108 -1.4732 -0.0307 -0.0273
 4051SOL     OW23611   4.398   0.031   7.492 -0.2242  0.6764 -0.4822
 4051SOL    HW123612   4.447   0.104   7.454  0.8891  0.1654 -0.0187
 4051SOL    HW223613   4.312   0.062   7.463  0.1804  0.9225 -1.4206
 4052SOL     OW23614   2.231   0.388  16.327 -0.3345  0.4381 -0.2901
 4052SOL    HW123615   2.240   0.390  16.422  1.7547  3.6649 -0.5714
 4052SOL    HW223616   2.135   0.394  16.318 -0.5503  0.7465  2.0213
 4053SOL     OW23617   2.077   0.494   3.599  1.0411 -0.5990 -1.0788
 4053SOL    HW123618   2.041   0.422   3.547 -5.0911  1.6303  0.0107
 4053SOL    HW223619   2.090   0.562   3.533  0.1777 -1.8147 -2.4889
 4054SOL     OW23620   2.471   1.888   8.281 -0.2971 -0.4808 -0.1077
 4054SOL    HW123621   2.546   1.945   8.262  0.9724 -1.3832  2.2179
 4054SOL    HW223622   2.504   1.805   8.248 -0.6249 -1.2349  1.4519
 4055SOL     OW23623   3.940   4.429   1.600  0.0504  0.0858 -0.4291
 4055SOL    HW123624   4.034   4.414   1.589  0.0951 -0.0680  0.1264
 4055SOL    HW223625   3.906   4.401   1.515 -1.2774  2.1560 -0.5590
 4056SOL     OW23626   3.957   4.084   5.438 -0.2007 -0.1074  0.8453
 4056SOL    HW123627   3.894   4.151   5.413 -1.9292 -1.9183  0.3327
 4056SOL    HW223628   3.895   4.013   5.456 -0.8563 -0.3796 -2.3269
 4057SOL     OW23629   1.006   0.149   6.195  0.1582 -0.3798 -0.1010
 4057SOL    HW123630   1.003   0.245   6.197 -0.2992 -0.4574  3.4025
 4057SOL    HW223631   1.028   0.136   6.103  0.3855 -0.0551 -0.0902
 4058SOL     OW23632   3.967   1.566  15.584 -0.1471 -0.3708 -0.3060
 4058SOL    HW123633   3.906   1.570  15.657  0.5831  1.6348  0.1743
 4058SOL    HW223634   4.046   1.533  15.627  0.0413  0.4002 -0.0632
 4059SOL     OW23635   2.046   4.460   2.434 -0.2602  0.2773  0.6625
 4059SOL    HW123636   2.104   4.448   2.509 -1.6384  0.1641  1.7061
 4059SOL    HW223637   2.069   4.385   2.380 -0.4930  1.0968 -0.5765
 4060SOL     OW23638   4.275   0.259  16.668 -0.4772  0.0743 -0.0274
 4060SOL    HW123639   4.340   0.305  16.722 -0.5056  1.8379 -1.5012
 4060SOL    HW223640   4.329   0.188  16.635 -0.2536 -0.2039  0.9417
 4061SOL     OW23641   1.652   0.242   9.890  0.5849  0.2006  0.0010
 4061SOL    HW123642   1.610   0.320   9.925 -1.5926 -0.6311 -0.7587
 4061SOL    HW223643   1.612   0.243   9.803  0.7359 -0.5460 -0.0759
 4062SOL     OW23644   3.700   3.546   0.363  0.0317  0.1116 -0.4366
 4062SOL    HW123645   3.713   3.632   0.322  2.3585  0.5359  1.1292
 4062SOL    HW223646   3.788   3.509   0.369 -1.0002 -2.4047 -0.9303
 4063SOL     OW23647   3.227   2.291   4.771 -0.5906 -0.0593 -0.8386
 4063SOL    HW123648   3.276   2.219   4.731 -0.1810 -0.0516 -0.3498
 4063SOL    HW223649   3.149   2.251   4.811  1.4961 -0.6316  2.6742
 4064SOL     OW23650   2.750   4.499   2.491  0.2404  0.4971 -0.0082
 4064SOL    HW123651   2.809   4.432   2.457 -0.8437 -0.3712 -0.1679
 4064SOL    HW223652   2.734   4.463   2.578  0.0111 -0.7646 -0.5731
 4065SOL     OW23653   3.364   1.525   8.399  0.0862 -0.1089  0.1668
 4065SOL    HW123654   3.412   1.471   8.462  1.0833  0.1567 -0.3738
 4065SOL    HW223655   3.328   1.594   8.455 -3.6662 -0.3718 -1.9074
 4066SOL     OW23656   3.568   0.527   9.549  0.2148 -0.1281  0.1126
 4066SOL    HW123657   3.621   0.454   9.517 -0.8910 -0.3078 -1.3071
 4066SOL    HW223658   3.498   0.483   9.599 -0.1220 -1.3014 -1.3754
 4067SOL     OW23659   4.020   1.593   9.191  0.6930 -0.0252 -0.2552
 4067SOL    HW123660   4.042   1.503   9.217  2.2214  0.2581 -0.6245
 4067SOL    HW223661   3.932   1.575   9.157 -0.0447 -0.9240  2.1525
 4068SOL     OW23662   4.600   2.738   1.861 -0.2650 -0.6029 -0.0434
 4068SOL    HW123663   4.625   2.816   1.812 -0.1699 -0.4343  0.2735
 4068SOL    HW223664   4.609   2.759   1.954  1.2576  0.7253 -0.4926
 4069SOL     OW23665   3.436   2.137  14.434  0.5506  0.0517  0.0132
 4069SOL    HW123666   3.355   2.112  14.480 -0.1948  2.4344 -0.0074
 4069SOL    HW223667   3.491   2.174  14.503  1.3972 -1.7580  0.2988
 4070SOL     OW23668   3.942   1.850  10.856  0.5127 -0.8138 -0.2660
 4070SOL    HW123669   3.991   1.857  10.938  2.1353  0.5201 -1.3572
 4070SOL    HW223670   3.946   1.940  10.823  1.0655 -0.9431 -0.5654
 4071SOL     OW23671   4.581   2.903   8.976  0.0610 -0.6582  0.1496
 4071SOL    HW123672   4.655   2.934   9.028 -0.1051 -0.4555  0.2668
 4071SOL    HW223673   4.502   2.921   9.027 -0.8080 -1.6551 -0.8358
 4072SOL     OW23674   1.859   2.233   6.829  0.0265 -0.0743 -0.0377
 4072SOL    HW123675   1.954   2.229   6.838 -0.0253 -0.8506  0.0860
 4072SOL    HW223676   1.854   2.198   6.740  2.5381 -0.0114 -0.1867
 4073SOL     OW23677   2.762   1.749   8.394 -0.3110 -0.2537  0.9429
 4073SOL    HW123678   2.764   1.821   8.332 -0.6253 -0.6495  0.4762
 4073SOL    HW223679   2.836   1.700   8.359  1.8197  3.2584  0.6028
 4074SOL     OW23680   2.111   1.339   0.625 -0.0507 -0.2465 -0.0843
 4074SOL    HW123681   2.206   1.347   0.623 -0.0752 -0.1232 -1.0397
 4074SOL    HW223682   2.081   1.377   0.542  0.7377 -1.5468 -0.9727
 4075SOL     OW23683   3.685   2.178   6.375  0.1880  0.3284  0.4804
 4075SOL    HW123684   3.648   2.215   6.455 -1.5599 -0.2464 -0.0476
 4075SOL    HW223685   3.640   2.230   6.308  1.7683  1.2320  0.1184
 4076SOL     OW23686   4.084   3.971  10.816  0.2932 -0.9251 -0.4067
 4076SOL    HW123687   4.149   4.020  10.765  0.8864  1.3614  2.5984
 4076SOL    HW223688   4.065   3.897  10.758 -0.2583 -0.0537 -1.3444
 4077SOL     OW23689   3.411   1.840  15.598 -0.1719 -0.1364  0.6461
 4077SOL    HW123690   3.480   1.774  15.604  0.3885  0.4533  0.7005
 4077SOL    HW223691   3.379   1.820  15.511 -2.3218  1.6572  1.0197
 4078SOL     OW23692   0.531   1.470   3.042  0.1952  0.3344  0.1150
 4078SOL    HW123693   0.612   1.448   3.086 -0.3840 -0.8670  0.5742
 4078SOL    HW223694   0.529   1.398   2.978 -1.3598  0.0577  0.4750
 4079SOL     OW23695   4.382   4.573   7.090 -0.0817 -0.2536 -0.2943
 4079SOL    HW123696   4.413   4.549   7.003  0.4507 -0.4465 -0.0533
 4079SOL    HW223697   4.290   4.597   7.079 -0.3102 -1.0044 -0.0184
 4080SOL     OW23698   3.649   2.373  14.989 -0.1710 -0.2890 -0.2284
 4080SOL    HW123699   3.722   2.316  14.965  0.8935  1.5059 -1.2475
 4080SOL    HW223700   3.654   2.363  15.084 -0.4229  3.2894  0.1515
 4081SOL     OW23701   2.203   4.315   5.796  0.2366 -0.0026 -0.1430
 4081SOL    HW123702   2.287   4.333   5.754  0.7110  1.9912  1.6623
 4081SOL    HW223703   2.150   4.281   5.724 -1.3508 -0.7194  1.3531
 4082SOL     OW23704   1.970   2.307   8.545  0.5283  0.5815 -0.1772
 4082SOL    HW123705   2.053   2.267   8.572 -0.3676 -0.9749  0.2624
 4082SOL    HW223706   1.951   2.238   8.482 -0.5275 -0.1700  0.9517
 4083SOL     OW23707   0.082   2.793   6.212 -0.3369  0.1446 -0.4419
 4083SOL    HW123708   0.019   2.767   6.280  1.6310 -0.5642  1.1187
 4083SOL    HW223709   0.037   2.755   6.137 -0.9691  0.3077 -0.1487
 4084SOL     OW23710   3.996   0.531   3.559 -0.2547 -0.2558 -0.2657
 4084SOL    HW123711   4.012   0.557   3.650 -0.7743 -0.3263 -0.1554
 4084SOL    HW223712   4.056   0.457   3.554  1.6253  1.2223  0.1491
 4085SOL     OW23713   1.360   4.470  10.392 -0.1764 -0.0107 -0.7676
 4085SOL    HW123714   1.308   4.528  10.447  0.2018 -0.8935  0.5143
 4085SOL    HW223715   1.292   4.442  10.330  0.5919 -0.5715 -1.3646
 4086SOL     OW23716   4.405   4.241   3.098  0.0428  0.9198  0.1473
 4086SOL    HW123717   4.356   4.223   3.178 -0.2285 -1.9747 -0.6863
 4086SOL    HW223718   4.419   4.152   3.066  1.9030  0.8202  1.2947
 4087SOL     OW23719   0.924   0.634   4.046 -0.1233  0.0709  0.5191
 4087SOL    HW123720   0.994   0.699   4.043 -1.1430  1.1208 -1.0076
 4087SOL    HW223721   0.960   0.574   4.111  1.3920  1.5230  1.0386
 4088SOL     OW23722   1.219   2.660   9.860 -0.1322  0.5361  0.6077
 4088SOL    HW123723   1.197   2.753   9.858 -0.0255  0.5707  1.0952
 4088SOL    HW223724   1.297   2.665   9.805  0.9970 -1.9398  1.9901
 4089SOL     OW23725   1.159   2.414  10.530 -0.1210  0.3573  0.6251
 4089SOL    HW123726   1.219   2.341  10.547  0.1473  0.6105  0.7615
 4089SOL    HW223727   1.077   2.369  10.513  0.9310 -1.3908  0.0826
 4090SOL     OW23728   0.372   3.111   8.287 -0.0033  0.3312 -0.3596
 4090SOL    HW123729   0.285   3.091   8.321  0.3316  1.5787  1.2055
 4090SOL    HW223730   0.370   3.064   8.204  2.3889  1.6631 -1.1861
 4091SOL     OW23731   1.441   1.648   9.463 -0.3800  0.5796 -0.2682
 4091SOL    HW123732   1.495   1.721   9.431  1.4030 -0.8891 -0.6283
 4091SOL    HW223733   1.400   1.616   9.383 -0.5835  0.5903 -0.1673
 4092SOL     OW23734   4.257   2.060   3.688 -0.0739 -0.2320  0.3424
 4092SOL    HW123735   4.328   2.046   3.750  0.8341  1.4331 -0.3124
 4092SOL    HW223736   4.271   2.154   3.677 -0.0323 -0.3882 -0.9593
 4093SOL     OW23737   2.260   2.134   4.657  0.1827  0.4139 -0.4243
 4093SOL    HW123738   2.209   2.082   4.596 -0.9970 -0.0088  0.9216
 4093SOL    HW223739   2.234   2.093   4.739  0.6525 -1.7055 -1.3437
 4094SOL     OW23740   1.149   2.803  16.767  0.2049  0.0638 -0.3973
 4094SOL    HW123741   1.109   2.889  16.750  1.1363  0.5806  0.0157
 4094SOL    HW223742   1.106   2.787  16.851  1.6174 -0.4114  0.2144
 4095SOL     OW23743   0.287   2.454  14.373 -0.3211 -0.3178 -1.2055
 4095SOL    HW123744   0.241   2.371  14.357 -1.3005  0.2536 -1.3239
 4095SOL    HW223745   0.257   2.474  14.462 -1.3927  2.0177 -2.1059
 4096SOL     OW23746   3.152   0.572   7.685 -0.2491 -0.2010 -0.1860
 4096SOL    HW123747   3.157   0.638   7.616 -0.4802  1.0110  0.9554
 4096SOL    HW223748   3.234   0.527   7.663 -0.4938  0.4564 -2.4562
 4097SOL     OW23749   1.107   1.827   9.066  0.2547 -0.1879  0.1637
 4097SOL    HW123750   1.058   1.820   8.984 -2.1369  0.8767  1.4798
 4097SOL    HW223751   1.043   1.821   9.137 -0.5756 -2.6647 -0.8088
 4098SOL     OW23752   3.046   1.444   0.443 -0.0885  0.2220  0.4395
 4098SOL    HW123753   2.952   1.453   0.425  0.4173  0.1385 -2.2413
 4098SOL    HW223754   3.087   1.490   0.370  0.5720 -0.4836  0.3641
 4099SOL     OW23755   4.445   2.948   0.191  0.4526  0.2001 -0.2257
 4099SOL    HW123756   4.470   2.887   0.260  3.2048  0.7064 -0.7864
 4099SOL    HW223757   4.463   2.899   0.111  0.7436 -0.0800  0.0125
 4100SOL     OW23758   1.883   4.056  12.775  0.6279 -0.1755 -0.1464
 4100SOL    HW123759   1.922   4.018  12.696  1.6266 -0.6977  0.5973
 4100SOL    HW223760   1.927   4.137  12.798  0.8920  0.6641 -3.6542
 4101SOL     OW23761   1.059   4.665   0.569  0.1806  0.3472 -0.6234
 4101SOL    HW123762   1.113   4.614   0.629 -1.1113 -0.9274 -0.5223
 4101SOL    HW223763   1.081   4.621   0.487  1.2729 -1.7333  0.7938
 4102SOL     OW23764   3.184   2.660  15.531  0.0872 -0.1715 -0.4409
 4102SOL    HW123765   3.267   2.692  15.565 -1.4883  1.2251  2.1540
 4102SOL    HW223766   3.210   2.612  15.453 -0.7784 -0.3549 -0.6195
 4103SOL     OW23767   2.922   2.857   1.614 -0.2960 -0.0476 -0.4186
 4103SOL    HW123768   2.942   2.764   1.605  0.4883 -0.0415  1.1447
 4103SOL    HW223769   2.829   2.856   1.633  0.2041 -1.6321  1.9373
 4104SOL     OW23770   0.964   2.461   3.341 -0.1103  0.0454 -0.4605
 4104SOL    HW123771   0.949   2.442   3.248  0.6500  0.3484 -0.6515
 4104SOL    HW223772   0.945   2.554   3.358 -1.3631 -0.4058  0.5576
 4105SOL     OW23773   0.622   2.405   6.121  0.3158  0.2188  0.3459
 4105SOL    HW123774   0.529   2.383   6.129 -0.0875  1.9543  0.5810
 4105SOL    HW223775   0.659   2.326   6.159  2.0604  1.2372  0.7785
 4106SOL     OW23776   3.145   0.189   6.475 -0.1493 -0.0211  0.4338
 4106SOL    HW123777   3.186   0.240   6.545  1.3035  0.2515 -0.6068
 4106SOL    HW223778   3.096   0.249   6.419  0.6061  2.3853  2.3502
 4107SOL     OW23779   2.613   3.061   7.350 -0.1329  0.0025 -0.2763
 4107SOL    HW123780   2.556   3.122   7.396  0.9161  0.9262 -0.1841
 4107SOL    HW223781   2.562   2.980   7.343  1.0921 -0.6276 -1.9749
 4108SOL     OW23782   0.904   3.388   1.402  0.3303 -0.0188 -0.4249
 4108SOL    HW123783   0.887   3.294   1.409 -0.8558  0.3335  1.3038
 4108SOL    HW223784   0.997   3.383   1.380 -0.0511 -0.9555 -1.8010
 4109SOL     OW23785   4.062   3.956   0.396 -0.6400  0.0972 -0.4530
 4109SOL    HW123786   4.102   4.042   0.398 -1.2410  0.3181  1.4330
 4109SOL    HW223787   4.136   3.895   0.391  0.9312  1.8798  1.1531
 4110SOL     OW23788   0.202   0.864  10.211  0.0010 -0.5569 -0.3572
 4110SOL    HW123789   0.207   0.818  10.295  1.0146  0.4541  0.1453
 4110SOL    HW223790   0.283   0.915  10.206 -1.9375  2.6390  1.1166
 4111SOL     OW23791   2.466   3.668   5.423  0.0345 -0.4202  0.1962
 4111SOL    HW123792   2.456   3.670   5.328 -0.3026  3.1629  0.3065
 4111SOL    HW223793   2.496   3.578   5.439 -0.8187 -0.3760  2.0333
 4112SOL     OW23794   3.080   4.565  15.414 -0.1730  0.8184  0.2239
 4112SOL    HW123795   3.149   4.564  15.479  1.6307  0.8405 -1.6913
 4112SOL    HW223796   3.065   4.473  15.395 -2.1656  0.9511  1.1383
 4113SOL     OW23797   1.132   4.002   8.135  0.3489  0.7361  0.2246
 4113SOL    HW123798   1.192   4.010   8.061  1.4163  0.7682  1.1002
 4113SOL    HW223799   1.146   4.088   8.176 -1.5804  0.3888  1.5868
 4114SOL     OW23800   0.659   3.832   4.933 -0.3235 -0.0631  0.2929
 4114SOL    HW123801   0.747   3.795   4.938 -1.3528 -2.5114  0.2196
 4114SOL    HW223802   0.662   3.905   4.994  0.6220 -0.0826  0.2730
 4115SOL     OW23803   2.363   1.138  13.441  0.8569 -0.0481  0.5249
 4115SOL    HW123804   2.439   1.195  13.438  0.0511  1.0070  0.1632
 4115SOL    HW223805   2.395   1.051  13.418  2.1210  0.3159  0.9129
 4116SOL     OW23806   4.678   3.877   3.115 -0.0266 -0.2834  0.3013
 4116SOL    HW123807   0.032   3.829   3.151 -0.3558 -1.3809 -0.4756
 4116SOL    HW223808   4.622   3.800   3.109 -0.6368  0.0884  1.3008
 4117SOL     OW23809   0.925   0.142   2.038  0.2405 -0.4718  0.3422
 4117SOL    HW123810   0.897   0.232   2.019 -3.4396 -1.8697 -0.8726
 4117SOL    HW223811   0.863   0.101   1.978 -1.6872  1.7855  0.7513
 4118SOL     OW23812   2.177   2.364   1.665 -0.2958  0.1539  0.3098
 4118SOL    HW123813   2.162   2.327   1.752 -5.5271 -0.6338 -0.9559
 4118SOL    HW223814   2.264   2.328   1.644 -1.0799 -1.1570 -0.6908
 4119SOL     OW23815   3.518   1.846   3.839 -0.9762 -0.1221 -0.3721
 4119SOL    HW123816   3.575   1.778   3.877  0.3201  1.8668  1.2255
 4119SOL    HW223817   3.555   1.838   3.751  1.0312  1.4223  0.3359
 4120SOL     OW23818   0.413   4.382  15.967  0.4847  0.4724  0.8594
 4120SOL    HW123819   0.378   4.353  16.051 -0.9904 -2.1632 -0.6815
 4120SOL    HW223820   0.374   4.470  15.971 -0.7659  0.0020 -0.7860
 4121SOL     OW23821   3.083   2.270  12.562  0.0140 -0.0798 -0.0253
 4121SOL    HW123822   3.122   2.253  12.476  1.0843 -0.8987  0.6283
 4121SOL    HW223823   3.093   2.365  12.568  2.1183 -0.3009  0.0677
 4122SOL     OW23824   1.098   1.122   3.992 -0.0449 -0.9914 -0.0418
 4122SOL    HW123825   1.150   1.172   4.055  1.3286 -3.2798  0.6261
 4122SOL    HW223826   1.060   1.195   3.942  1.3104 -1.6196 -2.0075
 4123SOL     OW23827   0.095   0.342   5.230  0.0877  0.7766 -0.2358
 4123SOL    HW123828   0.104   0.247   5.228  0.0267  0.7240  1.7682
 4123SOL    HW223829   0.170   0.359   5.288 -0.9708  0.2409  1.3023
 4124SOL     OW23830   2.984   2.008   3.668  0.0698  0.4824 -0.1522
 4124SOL    HW123831   2.904   2.025   3.719 -0.0137 -0.9789  0.1952
 4124SOL    HW223832   3.037   1.965   3.734 -1.3336 -0.9707  0.0099
 4125SOL     OW23833   2.545   2.371   6.917  0.4484 -0.0122 -0.4475
 4125SOL    HW123834   2.541   2.358   7.012 -1.0573 -0.4769 -0.5631
 4125SOL    HW223835   2.596   2.297   6.886  0.9058  0.0044  0.2737
 4126SOL     OW23836   3.708   3.683   7.798 -0.2558 -0.1416  0.0295
 4126SOL    HW123837   3.648   3.619   7.761 -1.7988  1.4014 -0.1730
 4126SOL    HW223838   3.640   3.743   7.829 -3.0323 -2.6457 -1.2705
 4127SOL     OW23839   2.190   2.754   3.169 -0.4415 -0.1663 -0.0710
 4127SOL    HW123840   2.194   2.812   3.093 -0.9692 -0.2187 -0.1445
 4127SOL    HW223841   2.266   2.697   3.169 -1.2250 -1.2247 -0.5643
 4128SOL     OW23842   2.416   2.819   6.630  0.2206 -0.5667  0.2045
 4128SOL    HW123843   2.466   2.884   6.679  2.1135 -1.9219  0.0733
 4128SOL    HW223844   2.484   2.755   6.610  0.1638 -0.8569  0.9200
 4129SOL     OW23845   0.361   4.070   1.318  0.6784  0.3967 -0.0531
 4129SOL    HW123846   0.294   4.025   1.266 -0.2268  2.0898 -0.3754
 4129SOL    HW223847   0.328   4.159   1.327 -3.7691 -1.0577 -2.0433
 4130SOL     OW23848   3.665   2.621   3.982 -0.7332 -0.0511  0.0135
 4130SOL    HW123849   3.729   2.582   3.923 -0.9963  1.2643 -1.1194
 4130SOL    HW223850   3.722   2.682   4.028 -1.1899  2.0879 -2.3060
 4131SOL     OW23851   3.235   1.030   1.710  0.5615 -0.3650 -0.0402
 4131SOL    HW123852   3.168   1.092   1.739 -0.4354 -1.7178  0.5162
 4131SOL    HW223853   3.261   0.996   1.796  3.4591 -2.1973 -1.6289
 4132SOL     OW23854   3.016   4.608   9.197 -0.0917 -0.4569  0.4545
 4132SOL    HW123855   3.093   4.557   9.173 -0.0274 -0.3401  0.4096
 4132SOL    HW223856   2.962   4.532   9.179  1.9721 -2.0480  1.0049
 4133SOL     OW23857   2.865   0.859   2.235 -0.0295  0.2957  0.5428
 4133SOL    HW123858   2.926   0.869   2.308  2.4862 -0.1021 -1.4901
 4133SOL    HW223859   2.799   0.926   2.255  0.7182  0.5190  2.2861
 4134SOL     OW23860   2.110   0.921   7.263  0.1498  0.2529 -0.3286
 4134SOL    HW123861   2.066   1.001   7.235 -1.6529 -0.1938  1.2164
 4134SOL    HW223862   2.170   0.908   7.189 -0.8280  0.1322 -1.1009
 4135SOL     OW23863   4.718   0.255  11.641  0.4393 -0.3516 -0.2152
 4135SOL    HW123864   0.013   0.287  11.730 -2.2201 -0.2458  0.2283
 4135SOL    HW223865   4.650   0.315  11.610 -1.6417 -2.6700 -0.0915
 4136SOL     OW23866   1.572   2.629   4.412 -0.6442 -0.0817 -0.0763
 4136SOL    HW123867   1.618   2.545   4.408  0.0042  0.2113  1.2640
 4136SOL    HW223868   1.588   2.648   4.505  1.1964 -0.3739 -0.3404
 4137SOL     OW23869   4.280   2.184   7.634  0.0933 -0.5738 -0.3992
 4137SOL    HW123870   4.240   2.140   7.559 -3.0798  2.6350 -0.5893
 4137SOL    HW223871   4.362   2.138   7.650  0.3980  0.1316  0.1084
 4138SOL     OW23872   2.000   3.935   2.564  0.2548  0.1977 -0.4091
 4138SOL    HW123873   2.025   3.866   2.626 -4.3838 -2.3576 -1.3646
 4138SOL    HW223874   2.043   4.013   2.600 -1.0222  0.3227  0.8764
 4139SOL     OW23875   4.072   0.899  16.458 -0.4722 -0.2157 -0.4974
 4139SOL    HW123876   4.054   0.932  16.370 -0.2029  1.9464  0.2595
 4139SOL    HW223877   4.166   0.880  16.460  0.4593  4.2707 -2.0970
 4140SOL     OW23878   0.837   2.034   7.086  0.4128 -0.0400  0.3347
 4140SOL    HW123879   0.810   2.126   7.079 -0.3577 -0.1919  1.3504
 4140SOL    HW223880   0.857   2.038   7.179  0.9285 -1.5111  0.2813
 4141SOL     OW23881   3.671   3.578   5.061 -0.0510  0.0911 -0.0376
 4141SOL    HW123882   3.716   3.619   5.134 -1.0809  1.1944 -0.0240
 4141SOL    HW223883   3.668   3.485   5.083  1.8985  0.2626  0.9693
 4142SOL     OW23884   2.394   0.817   1.256  0.2931 -0.0231 -0.1305
 4142SOL    HW123885   2.330   0.885   1.275  0.9410 -0.0305  2.1750
 4142SOL    HW223886   2.348   0.734   1.242 -0.1668  0.1961  0.0868
 4143SOL     OW23887   0.309   4.024   2.943  0.2554 -0.1317  0.2041
 4143SOL    HW123888   0.322   4.070   3.026 -1.3783  1.0768 -0.2287
 4143SOL    HW223889   0.222   4.057   2.921  0.6005  1.5322  1.3527
 4144SOL     OW23890   1.911   2.168  14.527  0.2217 -0.4606  0.7506
 4144SOL    HW123891   1.941   2.258  14.508 -0.9656 -0.4004 -0.8655
 4144SOL    HW223892   1.904   2.130  14.439  0.3707 -0.6700  0.8285
 4145SOL     OW23893   4.013   2.125   9.091  0.0931 -0.5691 -0.2973
 4145SOL    HW123894   3.923   2.097   9.075 -0.0452  0.6844 -1.7931
 4145SOL    HW223895   4.010   2.219   9.109  3.2507 -1.1053  2.8476
 4146SOL     OW23896   1.349   2.047   4.735 -0.1608  0.0861  0.1325
 4146SOL    HW123897   1.424   2.093   4.774  0.3513 -0.4419 -0.2248
 4146SOL    HW223898   1.354   1.968   4.788  1.0415  0.9636  1.3355
 4147SOL     OW23899   1.021   0.339   4.985 -0.0265 -0.0518 -0.5351
 4147SOL    HW123900   0.940   0.390   4.984  1.3599  2.1481  0.8009
 4147SOL    HW223901   1.059   0.374   5.065  0.2178 -1.2664 -0.1119
 4148SOL     OW23902   0.622   3.003   2.362 -0.3555  0.5309 -0.2786
 4148SOL    HW123903   0.715   3.015   2.345 -0.8447  0.9112 -2.8364
 4148SOL    HW223904   0.589   3.090   2.336  0.2654  0.6145 -0.7914
 4149SOL     OW23905   0.848   0.919   3.299 -0.5664 -0.1105  0.3570
 4149SOL    HW123906   0.830   0.836   3.254  0.3197  1.1497 -2.3499
 4149SOL    HW223907   0.927   0.931   3.247 -1.4782  1.4657 -0.6959
 4150SOL     OW23908   1.510   2.372   7.586  0.6490 -0.1265 -0.1468
 4150SOL    HW123909   1.487   2.339   7.499  2.5132 -0.7723 -0.3989
 4150SOL    HW223910   1.429   2.422   7.595 -0.9117 -3.1021  2.1892
 4151SOL     OW23911   1.289   1.385   6.823 -0.0148 -0.0770  0.4550
 4151SOL    HW123912   1.382   1.406   6.831  0.0477  0.5752 -1.9490
 4151SOL    HW223913   1.244   1.443   6.884 -0.4236 -0.9773  1.0133
 4152SOL     OW23914   4.610   3.856   2.151  0.1145 -1.0714 -0.0717
 4152SOL    HW123915   4.704   3.845   2.138  0.1173  1.5996 -2.2656
 4152SOL    HW223916   4.602   3.897   2.237  1.7644  2.1341 -1.4593
 4153SOL     OW23917   4.001   0.651   3.815 -0.0545 -0.3728  0.0217
 4153SOL    HW123918   3.927   0.644   3.875  0.6359 -0.1691  0.9161
 4153SOL    HW223919   4.063   0.597   3.865 -0.0379 -0.3468  0.0294
 4154SOL     OW23920   0.455   1.255  16.367  0.0251  0.0288 -0.1119
 4154SOL    HW123921   0.407   1.308  16.430  1.6453  1.1012  0.2038
 4154SOL    HW223922   0.540   1.238  16.408  0.3231  0.4085 -0.5769
 4155SOL     OW23923   0.477   1.819   0.152  0.1894 -0.2885  0.0823
 4155SOL    HW123924   0.519   1.832   0.067 -1.1732 -0.3865 -0.6088
 4155SOL    HW223925   0.460   1.909   0.179 -0.7069 -0.2354 -0.6546
 4156SOL     OW23926   0.603   2.228   9.198  0.0813  0.1591  0.2460
 4156SOL    HW123927   0.605   2.207   9.105 -2.6297 -0.3633  0.3060
 4156SOL    HW223928   0.556   2.310   9.206 -1.4698 -0.9793  2.6478
 4157SOL     OW23929   1.642   0.141   0.798 -0.2584 -0.0465 -0.2334
 4157SOL    HW123930   1.694   0.106   0.725 -1.4665 -0.3936 -0.9260
 4157SOL    HW223931   1.558   0.154   0.754 -0.6887  0.9062  0.8777
 4158SOL     OW23932   0.716   2.284   8.941  0.2012  0.4094  0.2893
 4158SOL    HW123933   0.806   2.253   8.940  0.3925  0.9894 -0.4209
 4158SOL    HW223934   0.690   2.267   8.851  1.0448 -1.4647  0.4110
 4159SOL     OW23935   0.939   1.201  10.206  0.7300 -0.1624  0.0265
 4159SOL    HW123936   0.954   1.284  10.252  0.1678 -0.4528  0.7205
 4159SOL    HW223937   0.976   1.220  10.119  0.4619 -0.4860 -0.1562
 4160SOL     OW23938   4.688   0.095   5.231  0.2424 -0.5347 -0.0187
 4160SOL    HW123939   4.655   0.124   5.316  1.3977 -0.2699  0.3439
 4160SOL    HW223940   4.603   0.084   5.188  0.4994 -2.2703 -0.0818
 4161SOL     OW23941   0.823   2.950  13.547  0.5611 -0.2195 -0.1789
 4161SOL    HW123942   0.799   2.922  13.636  0.0284  0.0216 -0.2435
 4161SOL    HW223943   0.914   2.923  13.551  0.2490 -1.2359 -0.0805
 4162SOL     OW23944   0.101   4.697   1.761  0.3053 -0.8001 -0.3798
 4162SOL    HW123945   0.191   0.006   1.770 -0.1131  0.3301  0.1995
 4162SOL    HW223946   0.060   4.683   1.847 -1.1189  1.0438 -0.7495
 4163SOL     OW23947   2.710   1.707  14.152  0.0994 -0.3825  0.5656
 4163SOL    HW123948   2.660   1.625  14.145 -0.4215 -0.0186  0.0260
 4163SOL    HW223949   2.637   1.762  14.122  2.0280  2.0930  0.4218
 4164SOL     OW23950   4.379   2.984   1.592 -0.1356  0.2597  0.0374
 4164SOL    HW123951   4.293   3.024   1.606 -0.7291 -0.8294 -0.4440
 4164SOL    HW223952   4.435   3.061   1.604 -0.4046  0.7088 -1.6279
 4165SOL     OW23953   0.982   0.199   7.225  0.4741  0.2212 -0.2544
 4165SOL    HW123954   0.944   0.218   7.311 -0.3706  2.3524 -1.1089
 4165SOL    HW223955   1.060   0.255   7.234  1.2705 -0.8701 -0.3475
 4166SOL     OW23956   2.863   2.885   6.056 -0.0545  0.5081 -0.5494
 4166SOL    HW123957   2.831   2.823   6.123  2.4275  0.6989  0.8022
 4166SOL    HW223958   2.794   2.877   5.991 -1.9701 -1.5020  1.6961
 4167SOL     OW23959   0.866   2.232  14.367 -0.1501  0.1768  0.2555
 4167SOL    HW123960   0.838   2.288  14.295  1.5696  0.6580 -0.0479
 4167SOL    HW223961   0.912   2.160  14.323  2.5645  0.8953  1.9407
 4168SOL     OW23962   3.809   0.282   4.578 -0.3737 -0.2386 -0.4908
 4168SOL    HW123963   3.807   0.274   4.483 -2.1827 -1.6027 -0.3205
 4168SOL    HW223964   3.890   0.332   4.591 -0.2865 -0.2275 -1.1122
 4169SOL     OW23965   0.752   4.525   1.100  0.0522 -0.1045  0.1695
 4169SOL    HW123966   0.666   4.537   1.058  1.4060  0.5656 -2.4270
 4169SOL    HW223967   0.810   4.494   1.030  0.3856 -0.2478  0.5067
 4170SOL     OW23968   0.115   3.772   5.480 -0.2935  0.2873 -0.1517
 4170SOL    HW123969   0.127   3.700   5.542  1.5738 -0.6689 -1.6217
 4170SOL    HW223970   0.095   3.737   5.394 -1.1040 -0.0445  0.1744
 4171SOL     OW23971   1.658   1.972  15.100  0.2203  0.4948 -0.5121
 4171SOL    HW123972   1.714   2.031  15.150  1.0400 -1.6742  1.1161
 4171SOL    HW223973   1.590   1.964  15.167  1.2958 -0.2045  0.4912
 4172SOL     OW23974   2.623   1.377   2.446 -0.0722  0.2144 -0.2936
 4172SOL    HW123975   2.579   1.299   2.414 -1.0057  0.9740 -0.8777
 4172SOL    HW223976   2.569   1.444   2.404 -2.4932 -1.1924  0.6227
 4173SOL     OW23977   0.273   2.255   6.964  0.3188  0.2267  0.5509
 4173SOL    HW123978   0.324   2.300   6.897  0.0639 -1.2305 -0.6148
 4173SOL    HW223979   0.337   2.204   7.014  0.0023 -1.0963 -0.3979
 4174SOL     OW23980   2.708   4.412   4.847 -0.0126 -0.0111  0.0357
 4174SOL    HW123981   2.648   4.349   4.888 -0.9701  1.1814  0.4619
 4174SOL    HW223982   2.679   4.494   4.885 -2.7780 -0.6106 -0.7676
 4175SOL     OW23983   3.136   1.511   7.154  0.1197 -0.2046 -0.2060
 4175SOL    HW123984   3.116   1.560   7.075 -1.2431  3.2836  2.2737
 4175SOL    HW223985   3.050   1.497   7.195  0.2628  1.2741  0.5971
 4176SOL     OW23986   4.062   3.558  11.156 -0.6714 -0.0752 -0.2119
 4176SOL    HW123987   4.100   3.506  11.227  1.2357  2.3793  0.5751
 4176SOL    HW223988   4.024   3.617  11.221  1.1632 -0.1622  0.9572
 4177SOL     OW23989   0.780   0.024   2.734  0.1143 -0.1545  0.1087
 4177SOL    HW123990   0.786   0.056   2.644 -2.0087  0.0635  0.0336
 4177SOL    HW223991   0.851   0.071   2.777  0.5990  0.0673 -0.9416
 4178SOL     OW23992   2.852   0.301   3.107  0.6486 -0.1018  0.2609
 4178SOL    HW123993   2.854   0.331   3.017  0.2748  1.5121  0.8013
 4178SOL    HW223994   2.946   0.305   3.128  0.8489  2.1561 -1.1453
 4179SOL     OW23995   4.396   2.104   3.927 -0.4119 -0.2467  0.1395
 4179SOL    HW123996   4.373   2.018   3.961 -0.7716  0.0258  0.5873
 4179SOL    HW223997   4.347   2.158   3.989  1.4752  2.7808 -1.0187
 4180SOL     OW23998   3.558   4.434   5.183 -0.2568  0.1512  0.1620
 4180SOL    HW123999   3.477   4.424   5.134 -0.2016  2.6462 -0.4507
 4180SOL    HW224000   3.518   4.446   5.269  2.6763  0.1352  1.5259
 4181SOL     OW24001   3.722   1.512   6.595  0.2423 -0.0339  0.3721
 4181SOL    HW124002   3.665   1.449   6.550  0.8903  0.1483 -0.6975
 4181SOL    HW224003   3.812   1.480   6.600 -0.1827 -1.9379 -4.0864
 4182SOL     OW24004   2.900   2.909   1.336 -0.5091 -0.1299 -0.1987
 4182SOL    HW124005   2.993   2.910   1.312 -0.3813 -1.0313  0.2594
 4182SOL    HW224006   2.906   2.941   1.426  1.1580  2.8456 -1.3914
 4183SOL     OW24007   0.220   0.391  10.293 -0.3594  0.0891 -0.1435
 4183SOL    HW124008   0.174   0.442  10.360 -1.3826  0.9962 -1.5474
 4183SOL    HW224009   0.304   0.438  10.299 -0.2013 -0.2077 -0.0437
 4184SOL     OW24010   2.556   1.585   2.750 -0.2803  0.3148  0.1100
 4184SOL    HW124011   2.627   1.522   2.732  0.4158  1.8703 -2.6026
 4184SOL    HW224012   2.492   1.529   2.794  0.4928 -0.1714  0.6191
 4185SOL     OW24013   1.456   0.459   6.004  0.1119 -0.4211 -0.0174
 4185SOL    HW124014   1.526   0.416   5.956  1.8675  1.2878  1.0056
 4185SOL    HW224015   1.492   0.459   6.093 -1.2957 -0.7079  0.5529
 4186SOL     OW24016   0.095   4.558  11.261  0.2175  0.1970  0.1363
 4186SOL    HW124017   0.074   4.466  11.271 -1.6529  0.6212  0.1589
 4186SOL    HW224018   0.021   4.611  11.291  0.6271  1.2274 -0.6685
 4187SOL     OW24019   3.279   0.542   3.526  0.2389  0.2018 -0.8378
 4187SOL    HW124020   3.356   0.487   3.507  1.0372  1.0260  0.0165
 4187SOL    HW224021   3.313   0.603   3.592 -1.4611  1.8380 -1.4760
 4188SOL     OW24022   0.127   0.956   1.862 -0.3346 -0.1318 -0.4804
 4188SOL    HW124023   0.061   0.906   1.912 -1.9416  1.4806 -0.9904
 4188SOL    HW224024   0.178   0.991   1.934 -0.0347 -3.2172  0.8312
 4189SOL     OW24025   3.094   1.507  13.808  0.0184  0.2895 -0.0001
 4189SOL    HW124026   3.037   1.565  13.858 -1.0561  0.7296 -1.7204
 4189SOL    HW224027   3.166   1.495  13.870  0.0057  0.1506 -0.0124
 4190SOL     OW24028   0.638   4.660   5.984 -0.4402 -0.2757  0.3615
 4190SOL    HW124029   0.638   0.033   5.961  1.6900 -0.4365 -0.2584
 4190SOL    HW224030   0.677   4.659   6.071 -0.0391  0.0008  0.1856
 4191SOL     OW24031   3.069   1.584   8.629  0.2232  0.1458 -0.6428
 4191SOL    HW124032   3.133   1.655   8.629 -0.1508  0.4802 -1.3567
 4191SOL    HW224033   3.044   1.595   8.537 -0.7348  0.6924 -0.3212
 4192SOL     OW24034   2.605   0.763  11.132 -0.3633  0.1437 -0.1065
 4192SOL    HW124035   2.560   0.844  11.157  1.9671  1.0645  1.0460
 4192SOL    HW224036   2.691   0.770  11.173 -0.4308 -0.8736  0.2101
 4193SOL     OW24037   3.733   0.713   3.613 -0.7826 -0.0344 -0.0336
 4193SOL    HW124038   3.792   0.640   3.631  1.2812  1.8225  0.7141
 4193SOL    HW224039   3.725   0.728   3.519  1.8320 -0.4304 -0.3232
 4194SOL     OW24040   4.325   2.877   9.633 -0.0801  0.4054  0.4918
 4194SOL    HW124041   4.403   2.900   9.683  0.9131  1.0447 -1.3340
 4194SOL    HW224042   4.260   2.858   9.700  0.5508  0.6695  1.1761
 4195SOL     OW24043   2.066   0.926  13.774  0.6918  0.0212 -0.4025
 4195SOL    HW124044   1.978   0.889  13.785 -0.0512  2.1942  1.0584
 4195SOL    HW224045   2.097   0.873  13.701  3.3982 -0.5709  1.1549
 4196SOL     OW24046   3.154   2.299  15.327 -0.2437 -0.2822  0.3259
 4196SOL    HW124047   3.129   2.296  15.419  2.2413 -1.8279  0.9757
 4196SOL    HW224048   3.227   2.361  15.329  0.1008 -0.5739 -4.0391
 4197SOL     OW24049   3.012   2.950   1.983 -0.6457  0.3834 -0.3855
 4197SOL    HW124050   3.073   2.942   1.909  2.2232  1.6513  1.8382
 4197SOL    HW224051   2.938   2.903   1.944 -0.5149 -1.6572  1.8453
 4198SOL     OW24052   1.467   3.296   4.897  0.0563 -0.0969 -0.2628
 4198SOL    HW124053   1.375   3.305   4.871  0.0547  1.6810  0.3685
 4198SOL    HW224054   1.459   3.238   4.973 -2.4929  1.6881  0.8173
 4199SOL     OW24055   2.815   2.378   0.671  0.4483 -0.0368 -0.5136
 4199SOL    HW124056   2.904   2.375   0.708  0.4152  0.9057 -0.3686
 4199SOL    HW224057   2.761   2.366   0.749  1.6054 -2.0080 -0.0097
 4200SOL     OW24058   1.477   3.109   9.403  0.4384  0.4812  0.4806
 4200SOL    HW124059   1.425   3.180   9.442  0.0735  1.9436 -2.6213
 4200SOL    HW224060   1.568   3.138   9.400  0.2456  0.7873 -2.1825
 4201SOL     OW24061   4.147   3.612   5.933 -0.6971  0.4491 -0.2285
 4201SOL    HW124062   4.157   3.585   5.842  3.7995  0.5026  0.2275
 4201SOL    HW224063   4.101   3.533   5.963  2.3861 -1.3132 -0.0535
 4202SOL     OW24064   0.007   4.037   0.547  0.4946  0.3064 -0.1485
 4202SOL    HW124065   4.633   4.044   0.546  0.4679 -0.1090 -0.6357
 4202SOL    HW224066   0.036   4.120   0.510  0.8646  0.1921 -0.1192
 4203SOL     OW24067   3.145   0.356  12.617  0.1430  0.0717  0.0620
 4203SOL    HW124068   3.205   0.331  12.687 -0.1295 -1.7116 -0.3534
 4203SOL    HW224069   3.065   0.308  12.640  0.2544 -0.7787 -1.3641
 4204SOL     OW24070   3.041   0.331  11.358  0.1532 -0.0281 -0.0614
 4204SOL    HW124071   2.961   0.286  11.333 -0.0347  0.5857 -0.5643
 4204SOL    HW224072   3.055   0.391  11.285  1.3117  1.0505  1.0535
 4205SOL     OW24073   1.674   3.329   5.626 -0.4409  0.0696  0.4123
 4205SOL    HW124074   1.645   3.383   5.699 -0.5056 -2.4800  2.2855
 4205SOL    HW224075   1.589   3.321   5.582 -0.1023 -1.8475  0.0711
 4206SOL     OW24076   4.594   1.493   5.833  0.1205 -0.3480 -0.1971
 4206SOL    HW124077   4.613   1.446   5.915 -1.4905 -1.9751 -0.7611
 4206SOL    HW224078   4.667   1.465   5.777 -0.1229 -0.3809 -0.4951
 4207SOL     OW24079   2.046   0.761  14.597  0.1316  0.2650  0.0947
 4207SOL    HW124080   2.008   0.736  14.513 -0.9174 -0.6446  0.8447
 4207SOL    HW224081   1.973   0.806  14.639 -0.7080 -1.5159  0.5053
 4208SOL     OW24082   3.308   4.375   0.778 -0.4743 -0.6895 -0.2027
 4208SOL    HW124083   3.249   4.384   0.703  0.6231 -0.0358 -0.9825
 4208SOL    HW224084   3.384   4.423   0.747  0.0765 -1.9462 -0.7687
 4209SOL     OW24085   2.220   3.350   3.160  0.7433  0.2632 -0.0721
 4209SOL    HW124086   2.281   3.424   3.155 -0.0953  0.8060 -2.2854
 4209SOL    HW224087   2.201   3.344   3.066  1.0750 -0.5200 -0.0902
 4210SOL     OW24088   0.434   0.536   6.991  0.8757 -0.3974 -0.3341
 4210SOL    HW124089   0.409   0.608   6.932  2.2132  1.0381  0.8271
 4210SOL    HW224090   0.397   0.571   7.072  1.4106  0.3901 -0.4260
 4211SOL     OW24091   2.893   3.426   2.845  0.1429 -0.2125  0.4541
 4211SOL    HW124092   2.950   3.490   2.888 -0.5950  0.9359 -0.2752
 4211SOL    HW224093   2.942   3.381   2.776 -0.4782 -0.4690  0.1819
 4212SOL     OW24094   4.341   1.391   7.154 -0.2645  0.0726 -0.1185
 4212SOL    HW124095   4.426   1.427   7.126  0.0504  0.4048  1.2851
 4212SOL    HW224096   4.344   1.410   7.248  2.0083  1.3236 -0.4341
 4213SOL     OW24097   1.305   3.566   8.991 -0.4392 -0.1486 -0.1448
 4213SOL    HW124098   1.332   3.560   9.083  0.6991 -3.9148 -0.7454
 4213SOL    HW224099   1.354   3.491   8.960  1.0564  1.3470 -1.3916
 4214SOL     OW24100   3.574   0.552   5.165 -0.7362 -0.2663 -0.3489
 4214SOL    HW124101   3.606   0.507   5.087  0.8050  0.6405 -0.2465
 4214SOL    HW224102   3.496   0.505   5.196  0.9349 -2.5515  0.3544
 4215SOL     OW24103   0.618   2.184   6.305 -0.3406 -0.1781 -0.2628
 4215SOL    HW124104   0.664   2.160   6.386  0.2896  0.2901 -0.4848
 4215SOL    HW224105   0.554   2.249   6.336 -1.8146 -0.6237 -2.3455
 4216SOL     OW24106   4.099   4.667   1.028  0.2162 -0.5007  0.0686
 4216SOL    HW124107   4.105   4.577   1.059  3.0048 -0.5753 -0.6659
 4216SOL    HW224108   4.087   0.002   1.105  0.8693 -2.0869  1.3097
 4217SOL     OW24109   2.654   4.148  17.331 -0.5015  0.0114  0.4960
 4217SOL    HW124110   2.670   4.203  17.407 -0.2924 -0.7968  1.0344
 4217SOL    HW224111   2.734   4.096  17.324 -1.0995 -0.8324 -0.2161
 4218SOL     OW24112   4.562   0.547   5.922  0.0203 -0.6780 -0.3193
 4218SOL    HW124113   4.517   0.482   5.869  0.0437 -1.9976  1.2888
 4218SOL    HW224114   4.578   0.621   5.863  2.4045 -1.6731 -0.9362
 4219SOL     OW24115   3.064   2.034   3.201 -0.3843 -0.1228 -0.2938
 4219SOL    HW124116   3.012   2.069   3.273  1.1926  1.1120  0.2467
 4219SOL    HW224117   3.084   1.946   3.234 -3.3874 -1.0154 -0.8370
 4220SOL     OW24118   3.357   4.192   7.498 -0.0467  0.1399 -0.3333
 4220SOL    HW124119   3.426   4.259   7.496  0.2667 -0.2190 -1.7299
 4220SOL    HW224120   3.308   4.216   7.577  0.3755  0.9401 -0.3101
 4221SOL     OW24121   1.811   3.847  12.930  0.0024  0.0914 -0.0488
 4221SOL    HW124122   1.820   3.775  12.869 -0.2059 -0.3869  0.4806
 4221SOL    HW224123   1.831   3.924  12.877 -0.5898  0.3744  0.1406
 4222SOL     OW24124   2.695   2.619   8.274 -0.0376 -0.4762  0.2835
 4222SOL    HW124125   2.654   2.697   8.311 -0.0314 -1.1962  1.7811
 4222SOL    HW224126   2.784   2.619   8.309 -0.2095 -0.0056  0.7164
 4223SOL     OW24127   4.701   2.020  11.460 -0.5648 -0.0388 -0.2129
 4223SOL    HW124128   4.613   2.043  11.491 -0.3821  1.1475 -0.5497
 4223SOL    HW224129   0.030   2.075  11.522 -0.5635  0.4910 -0.6828
 4224SOL     OW24130   3.081   2.314   0.756 -0.2408  0.5730 -0.3004
 4224SOL    HW124131   3.164   2.332   0.712 -0.0637 -0.0221 -0.2118
 4224SOL    HW224132   3.111   2.274   0.838 -1.8675  0.4578  0.2479
 4225SOL     OW24133   3.193   1.606   1.520  0.0314  0.0525  0.2543
 4225SOL    HW124134   3.149   1.566   1.595 -0.8609  2.5170  1.0509
 4225SOL    HW224135   3.119   1.603   1.460  0.3135 -0.5386 -0.0584
 4226SOL     OW24136   0.002   2.581   8.206  0.1465 -0.1891 -0.0978
 4226SOL    HW124137   0.038   2.669   8.202 -0.7948  0.1876 -0.1482
 4226SOL    HW224138   4.631   2.596   8.228  0.4953  1.2286  0.4129
 4227SOL     OW24139   1.320   0.372   7.943  0.0406  0.2654 -0.4285
 4227SOL    HW124140   1.272   0.355   8.024 -1.8194 -2.2488 -2.0964
 4227SOL    HW224141   1.409   0.346   7.968 -1.1629 -0.8315  2.7162
 4228SOL     OW24142   1.956   2.315   3.594 -0.3883 -0.2683  0.5900
 4228SOL    HW124143   2.022   2.370   3.634 -1.8489  1.0178  1.2407
 4228SOL    HW224144   1.893   2.385   3.577 -0.0703 -0.7878 -2.7790
 4229SOL     OW24145   0.130   0.696   3.471 -0.5041  0.3643 -0.3367
 4229SOL    HW124146   0.073   0.633   3.427 -0.3230  0.3219 -0.5117
 4229SOL    HW224147   0.172   0.639   3.534 -1.5261  0.7269  0.6764
 4230SOL     OW24148   4.321   3.243   1.423  0.3860 -0.0765 -0.1519
 4230SOL    HW124149   4.329   3.334   1.393  0.1104 -0.5246 -1.5708
 4230SOL    HW224150   4.401   3.234   1.476 -0.3566  1.6697  1.2854
 4231SOL     OW24151   0.488   0.154  17.406  0.3106  0.2817 -0.7500
 4231SOL    HW124152   0.560   0.188  17.460 -1.4869 -0.3674  2.0837
 4231SOL    HW224153   0.514   0.062  17.402  0.3885  0.1471  2.3234
 4232SOL     OW24154   3.166   1.017  15.678 -0.4578 -0.0347  0.3555
 4232SOL    HW124155   3.130   0.928  15.677  1.6059 -0.8447 -2.0104
 4232SOL    HW224156   3.157   1.049  15.588 -1.5132  2.8301  1.4786
 4233SOL     OW24157   0.239   4.265  10.915  0.4280  0.3172 -0.3215
 4233SOL    HW124158   0.171   4.331  10.927 -0.7631 -0.7408 -1.1726
 4233SOL    HW224159   0.205   4.207  10.846  1.1775  0.9533 -1.2165
 4234SOL     OW24160   0.681   2.050   9.935  0.4534  0.7758 -0.5557
 4234SOL    HW124161   0.637   2.046   9.850 -0.4921  0.5633 -0.0556
 4234SOL    HW224162   0.731   2.129   9.917  1.1051  0.8171  1.5123
 4235SOL     OW24163   0.127   4.488   3.071  0.0691  0.5910  0.2916
 4235SOL    HW124164   0.146   4.574   3.108  1.1238  0.8885 -0.9153
 4235SOL    HW224165   0.114   4.499   2.977 -1.6318 -1.9849  0.2254
 4236SOL     OW24166   3.331   3.119   5.990 -0.4835  0.0374  0.0924
 4236SOL    HW124167   3.243   3.121   5.952 -1.3684  2.4407  2.2196
 4236SOL    HW224168   3.392   3.124   5.916  0.2167 -2.5991  0.4884
 4237SOL     OW24169   4.639   4.496   4.831 -0.3211  0.0276 -0.3827
 4237SOL    HW124170   4.659   4.406   4.857 -0.4644 -0.3424 -1.5328
 4237SOL    HW224171   4.699   4.501   4.757 -1.5643  0.3663 -1.3638
 4238SOL     OW24172   4.683   1.950  16.095 -0.2665  0.2413 -0.1701
 4238SOL    HW124173   4.636   1.991  16.023 -2.9546 -1.3429  0.6772
 4238SOL    HW224174   4.695   1.861  16.061  0.1000 -0.0925  0.8313
 4239SOL     OW24175   4.095   0.395   9.803  0.0174 -0.3295  0.2202
 4239SOL    HW124176   4.073   0.421   9.892 -1.1727 -0.1812 -0.1159
 4239SOL    HW224177   4.189   0.380   9.810 -0.2349 -1.6914  0.8213
 4240SOL     OW24178   2.309   1.740   7.230  0.3229 -0.3203  0.6757
 4240SOL    HW124179   2.287   1.652   7.200 -2.5100 -0.3562  2.8559
 4240SOL    HW224180   2.233   1.770   7.281 -0.5632 -1.6354  0.1168
 4241SOL     OW24181   1.034   4.282   7.520  0.2372  0.3376  0.6817
 4241SOL    HW124182   0.996   4.368   7.538  1.0089  0.2604  2.6573
 4241SOL    HW224183   0.963   4.230   7.482 -0.0483  0.6484  0.7872
 4242SOL     OW24184   3.222   0.647   6.648 -0.2365 -0.1942  0.3256
 4242SOL    HW124185   3.134   0.663   6.683 -0.2825 -1.1766  0.6544
 4242SOL    HW224186   3.234   0.553   6.660  2.0623 -0.0087 -0.4935
 4243SOL     OW24187   2.497   2.396   6.641 -0.1388 -0.0257 -0.0696
 4243SOL    HW124188   2.574   2.443   6.610 -0.9188  0.2152 -1.6127
 4243SOL    HW224189   2.519   2.380   6.733  1.7168  1.3732 -0.2902
 4244SOL     OW24190   0.535   4.265  15.481 -0.0429  0.1347  0.1298
 4244SOL    HW124191   0.461   4.260  15.420  0.2531 -2.0209 -0.0287
 4244SOL    HW224192   0.497   4.262  15.568  1.2147 -0.3436  0.6622
 4245SOL     OW24193   3.258   4.249   7.739  0.2013  0.3761  0.0894
 4245SOL    HW124194   3.310   4.327   7.720  0.5599 -0.4748 -2.4025
 4245SOL    HW224195   3.172   4.291   7.740 -0.2461 -0.5202 -0.4305
 4246SOL     OW24196   2.783   4.049   4.300 -0.5663 -0.3159  1.0393
 4246SOL    HW124197   2.755   4.094   4.380 -2.0588  0.8013 -0.1174
 4246SOL    HW224198   2.862   4.093   4.269 -0.0384 -1.4059  0.8604
 4247SOL     OW24199   0.931   1.105   4.884  0.8583 -0.1383 -0.3973
 4247SOL    HW124200   0.971   1.142   4.805  0.2352 -0.1502 -0.7229
 4247SOL    HW224201   0.895   1.185   4.922  2.6333 -0.5932  2.2607
 4248SOL     OW24202   4.279   3.601  12.695  0.1018 -0.1038 -0.2750
 4248SOL    HW124203   4.293   3.688  12.731  3.3930 -0.3975 -0.8052
 4248SOL    HW224204   4.333   3.556  12.760  1.4705  1.2624 -0.4709
 4249SOL     OW24205   0.513   0.693  13.743 -0.2388 -0.2002 -0.1300
 4249SOL    HW124206   0.577   0.697  13.814  0.4895 -1.0118 -0.7434
 4249SOL    HW224207   0.524   0.780  13.704  0.5356  0.4889  1.6612
 4250SOL     OW24208   3.862   0.092   0.516  0.6446 -0.4359  1.0187
 4250SOL    HW124209   3.864   0.182   0.549 -1.0479  0.4233 -1.2215
 4250SOL    HW224210   3.772   0.078   0.487  1.2403 -1.9335 -0.1303
 4251SOL     OW24211   3.858   0.595  15.220  0.3809 -0.2211  0.1787
 4251SOL    HW124212   3.787   0.595  15.156 -1.1823 -0.8013  1.8893
 4251SOL    HW224213   3.812   0.539  15.282  1.7202 -0.3204  1.0891
 4252SOL     OW24214   1.583   3.439   7.954 -0.0173 -0.2698 -0.0068
 4252SOL    HW124215   1.535   3.401   7.880 -1.8057  1.3539  0.3095
 4252SOL    HW224216   1.522   3.513   7.965  0.2917 -0.0935  0.4724
 4253SOL     OW24217   0.548   3.649  17.470 -0.2051  0.0498 -0.1897
 4253SOL    HW124218   0.638   3.657  17.501 -0.3836  2.6539 -0.3036
 4253SOL    HW224219   0.548   3.556  17.448  3.8640  0.4269 -1.9245
 4254SOL     OW24220   0.378   4.597  11.422  0.2176  0.6581 -0.2399
 4254SOL    HW124221   0.383   4.591  11.517 -0.0237 -1.2387 -0.3382
 4254SOL    HW224222   0.289   4.629  11.411 -0.3714 -0.6732  0.5404
 4255SOL     OW24223   4.413   2.989   3.813  0.7351  0.0594 -0.7487
 4255SOL    HW124224   4.475   2.917   3.823  0.7111  0.1443  0.0219
 4255SOL    HW224225   4.408   2.988   3.718  3.3239 -0.6920 -0.8762
 4256SOL     OW24226   1.197   1.145   4.449 -0.4768  0.1086 -0.4880
 4256SOL    HW124227   1.240   1.206   4.388  0.7571 -1.0288 -0.7805
 4256SOL    HW224228   1.105   1.146   4.422 -0.8139  0.2209  0.7014
 4257SOL     OW24229   1.188   0.217   2.961  0.4173 -0.0910  0.0470
 4257SOL    HW124230   1.278   0.204   2.992 -0.3632 -1.3444  1.7461
 4257SOL    HW224231   1.206   0.230   2.867  2.9693 -1.1802  0.3737
 4258SOL     OW24232   2.690   2.784   7.476  0.5123 -0.0339  0.0743
 4258SOL    HW124233   2.626   2.811   7.411  3.1625  1.0652 -2.0971
 4258SOL    HW224234   2.635   2.736   7.537  0.8587 -1.8759 -1.0755
 4259SOL     OW24235   1.020   3.107   8.559  0.1876 -0.0499 -0.0714
 4259SOL    HW124236   1.053   3.038   8.616 -0.2498 -0.6612 -0.5502
 4259SOL    HW224237   0.986   3.169   8.623 -0.3438 -1.1524  0.7118
 4260SOL     OW24238   1.294   1.092   9.599 -0.8918  0.0413  0.6474
 4260SOL    HW124239   1.277   1.055   9.686 -2.8020 -0.6834 -0.0262
 4260SOL    HW224240   1.367   1.149   9.620 -0.4041  0.4395 -2.1302
 4261SOL     OW24241   3.577   3.990   4.418 -0.0108 -0.4701  0.1413
 4261SOL    HW124242   3.507   4.052   4.400 -0.4769 -1.3436 -1.0147
 4261SOL    HW224243   3.652   4.048   4.401 -1.7872  1.9962  0.6550
 4262SOL     OW24244   1.617   2.098   0.387 -0.5430 -0.8072  0.0787
 4262SOL    HW124245   1.680   2.026   0.380  0.9280  0.3606  1.2410
 4262SOL    HW224246   1.576   2.089   0.301  0.4144 -0.3849 -0.4212
 4263SOL     OW24247   2.125   3.455   8.817  0.3301 -0.0075 -0.0794
 4263SOL    HW124248   2.127   3.548   8.839  0.2481 -0.0659  0.1766
 4263SOL    HW224249   2.150   3.456   8.725  0.6339 -1.9686 -0.0285
 4264SOL     OW24250   2.922   3.619  14.785  0.4339  0.2414  0.2493
 4264SOL    HW124251   2.932   3.695  14.843  0.0924  2.9518 -3.2900
 4264SOL    HW224252   2.979   3.558  14.831 -0.6826 -0.5012  0.6390
 4265SOL     OW24253   1.380   1.470  11.053  0.1495  0.0089  0.8433
 4265SOL    HW124254   1.433   1.394  11.079  1.6409  0.2959 -1.2990
 4265SOL    HW224255   1.323   1.484  11.128 -0.5584 -2.0138  0.6735
 4266SOL     OW24256   1.302   1.877   3.942  0.1577  0.1418  0.1250
 4266SOL    HW124257   1.370   1.920   3.889  0.5336 -1.1121 -0.4009
 4266SOL    HW224258   1.283   1.949   4.002  1.2047  0.3701  0.1894
 4267SOL     OW24259   0.645   4.414   9.028 -0.0346  0.4628 -0.3198
 4267SOL    HW124260   0.625   4.421   8.934  0.8994 -1.1414 -0.6511
 4267SOL    HW224261   0.730   4.368   9.025 -0.6142 -0.7608  2.4995
 4268SOL     OW24262   2.466   3.600   1.429  0.5107  0.0838  0.1797
 4268SOL    HW124263   2.529   3.529   1.436 -3.1029 -3.2047 -0.0716
 4268SOL    HW224264   2.460   3.591   1.333  1.0438  0.2309  0.1361
 4269SOL     OW24265   0.242   0.259   3.427 -0.4795  0.1887 -0.0890
 4269SOL    HW124266   0.192   0.245   3.508  0.4451 -0.3838  0.3884
 4269SOL    HW224267   0.328   0.236   3.462 -0.8024  0.1429  0.6786
 4270SOL     OW24268   2.015   2.886   5.880  0.3585  0.0774 -0.3931
 4270SOL    HW124269   2.047   2.899   5.791 -4.7525 -1.0554 -2.3627
 4270SOL    HW224270   1.930   2.844   5.867 -0.2084  0.9676  0.4370
 4271SOL     OW24271   0.772   4.221   9.412  0.1859 -0.0547  0.0783
 4271SOL    HW124272   0.862   4.191   9.428  0.9420  2.4427  0.4110
 4271SOL    HW224273   0.796   4.305   9.373  1.6476  0.1594  1.3713
 4272SOL     OW24274   1.909   1.322   4.361  0.2409 -0.8200 -0.6657
 4272SOL    HW124275   1.953   1.322   4.276 -0.7167 -0.8736 -1.1567
 4272SOL    HW224276   1.821   1.356   4.347  0.6105  0.5515  0.4096
 4273SOL     OW24277   1.223   1.038  11.088  0.2507 -0.7299  0.0796
 4273SOL    HW124278   1.280   1.023  11.163 -0.8301 -0.3482  0.9745
 4273SOL    HW224279   1.147   1.077  11.131 -0.4435  0.4750 -2.2184
 4274SOL     OW24280   0.804   0.196  13.675 -0.3154  0.3613  0.2327
 4274SOL    HW124281   0.827   0.190  13.583  1.4543  0.8195  0.6309
 4274SOL    HW224282   0.790   0.104  13.696  0.4333 -0.1731 -1.6301
 4275SOL     OW24283   1.823   3.033   6.609 -0.2424 -0.4345 -0.2806
 4275SOL    HW124284   1.862   3.101   6.663  0.8068 -0.3952 -1.0955
 4275SOL    HW224285   1.794   2.973   6.677 -0.2709 -0.1891 -0.0781
 4276SOL     OW24286   1.939   0.647   8.998 -0.3831  0.1346  0.3186
 4276SOL    HW124287   2.005   0.667   8.932  3.9268 -1.4067  4.1365
 4276SOL    HW224288   1.936   0.552   9.000  0.0570  0.1461  1.9537
 4277SOL     OW24289   0.144   0.105   6.874 -0.2992  1.2329 -0.4584
 4277SOL    HW124290   0.054   0.103   6.906  0.6674  0.1084  2.1572
 4277SOL    HW224291   0.184   0.154   6.946  1.5475  0.6922 -1.1261
 4278SOL     OW24292   4.306   4.089  12.942  0.9836  0.6435 -0.2661
 4278SOL    HW124293   4.221   4.103  12.901  0.1992 -2.5559  0.2613
 4278SOL    HW224294   4.277   4.093  13.034 -0.4950 -2.6189 -0.6010
 4279SOL     OW24295   4.467   4.038   5.855 -0.0237  0.0116  0.2878
 4279SOL    HW124296   4.449   3.988   5.775 -0.3395  0.6255 -0.0277
 4279SOL    HW224297   4.419   4.119   5.837 -3.4903 -2.2593 -0.6482
 4280SOL     OW24298   4.321   3.018   8.350  0.6637  0.1770 -0.3436
 4280SOL    HW124299   4.253   3.045   8.289 -1.3793  2.0325  2.7451
 4280SOL    HW224300   4.401   3.038   8.301  0.4020 -1.7859 -1.5713
 4281SOL     OW24301   4.142   2.428   3.460 -0.1735  0.0682  0.3705
 4281SOL    HW124302   4.146   2.405   3.553  1.0863 -1.6766 -0.1075
 4281SOL    HW224303   4.118   2.343   3.423  0.5499 -0.4208  1.0226
 4282SOL     OW24304   1.419   4.523   1.080 -0.4942  0.0907 -0.3380
 4282SOL    HW124305   1.452   4.608   1.109 -1.0495  0.5930 -1.1720
 4282SOL    HW224306   1.382   4.495   1.163 -1.0525  2.0099  0.0498
 4283SOL     OW24307   4.313   2.817   5.609 -0.3344  0.2162  0.5519
 4283SOL    HW124308   4.221   2.818   5.583  0.1745 -1.5768 -1.2707
 4283SOL    HW224309   4.311   2.893   5.668  0.6531 -0.0578  0.9514
 4284SOL     OW24310   3.179   0.721  11.141  0.1685 -0.4725 -0.3307
 4284SOL    HW124311   3.199   0.790  11.204 -2.4260 -0.6321  0.6890
 4284SOL    HW224312   3.111   0.756  11.082  0.6151  0.1941 -0.4451
 4285SOL     OW24313   2.996   1.300   8.127  0.1117 -0.0475 -0.5062
 4285SOL    HW124314   2.935   1.248   8.179 -1.7453  1.5141 -1.1090
 4285SOL    HW224315   3.079   1.302   8.176 -0.5966 -3.2177  0.7898
 4286SOL     OW24316   1.248   3.712   9.907 -0.3395 -0.5568 -0.8951
 4286SOL    HW124317   1.340   3.716   9.932 -1.0213 -1.2742  1.7618
 4286SOL    HW224318   1.243   3.620   9.880 -1.3313 -0.7027 -0.1947
 4287SOL     OW24319   1.716   4.197   5.353  0.5459 -0.2946  0.1182
 4287SOL    HW124320   1.785   4.151   5.401  0.4260 -0.9904 -0.3871
 4287SOL    HW224321   1.720   4.148   5.271  0.7750 -0.1027  0.0163
 4288SOL     OW24322   3.957   1.360   8.036 -0.1495  0.2719 -0.3595
 4288SOL    HW124323   3.863   1.379   8.031 -0.0417  0.9819  0.1913
 4288SOL    HW224324   3.985   1.444   8.072 -0.5180 -0.1003  0.7924
 4289SOL     OW24325   4.498   1.341   6.332  0.3864 -0.0440 -0.4758
 4289SOL    HW124326   4.530   1.413   6.385 -1.0263  0.5741 -0.4508
 4289SOL    HW224327   4.512   1.266   6.390  0.3207 -0.8465 -1.4880
 4290SOL     OW24328   0.835   1.029  16.455  0.4066 -0.4365  0.1656
 4290SOL    HW124329   0.803   1.104  16.505  0.7326  0.7873 -1.4673
 4290SOL    HW224330   0.804   1.044  16.365  1.9006 -0.9661 -0.4354
 4291SOL     OW24331   3.685   1.581   8.821  0.0519  0.0855  0.9579
 4291SOL    HW124332   3.611   1.636   8.795  0.6320  0.6481  0.5041
 4291SOL    HW224333   3.728   1.570   8.736 -1.9190 -0.9970  0.0953
 4292SOL     OW24334   0.185   1.625   1.978  0.8940 -0.2994  0.5616
 4292SOL    HW124335   0.274   1.592   1.992  0.9547  0.7020  2.5106
 4292SOL    HW224336   0.199   1.718   1.961 -1.5713  0.5987  3.3126
 4293SOL     OW24337   0.550   2.788   8.789 -0.9912 -0.1495 -0.2084
 4293SOL    HW124338   0.575   2.696   8.775  1.9282  0.6636 -0.3286
 4293SOL    HW224339   0.486   2.779   8.860  0.1405  1.1388  0.9679
 4294SOL     OW24340   1.702   4.033   5.129  0.2969 -0.4467 -0.0029
 4294SOL    HW124341   1.729   3.944   5.149 -1.8551 -1.0661  0.1111
 4294SOL    HW224342   1.611   4.019   5.106  0.7889 -2.2633 -0.7966
 4295SOL     OW24343   0.818   2.615  12.750  0.0178  0.1984  0.8066
 4295SOL    HW124344   0.860   2.672  12.685  0.0002 -0.3382  0.3231
 4295SOL    HW224345   0.877   2.539  12.750  0.8075  0.8146 -0.0555
 4296SOL     OW24346   1.917   3.706  12.081 -1.1372 -0.0612 -0.3273
 4296SOL    HW124347   1.852   3.761  12.123  0.5498  1.9487 -0.3513
 4296SOL    HW224348   1.982   3.761  12.037 -1.3067  0.9590  0.7130
 4297SOL     OW24349   4.421   2.806   2.790  0.1894  0.0596  0.3399
 4297SOL    HW124350   4.423   2.806   2.885 -0.7739 -0.4579  0.3693
 4297SOL    HW224351   4.500   2.756   2.772  1.3731  2.4225 -0.9509
 4298SOL     OW24352   0.934   4.158  14.615  0.2364 -0.4494 -0.2369
 4298SOL    HW124353   1.017   4.145  14.661  0.5081 -0.2771 -0.6808
 4298SOL    HW224354   0.896   4.071  14.631 -2.3712  0.6446 -0.4794
 4299SOL     OW24355   3.983   3.537   1.244 -0.4906  0.7724 -0.7332
 4299SOL    HW124356   3.987   3.633   1.242  1.1249  0.7001 -1.1265
 4299SOL    HW224357   4.030   3.527   1.327 -1.2703 -2.5154 -0.6986
 4300SOL     OW24358   2.243   2.252   1.109  0.0191  0.5008 -0.4813
 4300SOL    HW124359   2.264   2.318   1.176  0.7488  0.2649 -0.4808
 4300SOL    HW224360   2.153   2.231   1.133  0.4987 -0.7160  0.2720
 4301SOL     OW24361   2.563   2.272   3.830 -0.1692 -0.4616  0.0763
 4301SOL    HW124362   2.598   2.343   3.883 -0.1774 -1.9550  2.0855
 4301SOL    HW224363   2.573   2.302   3.740 -1.1601 -0.4383 -0.0275
 4302SOL     OW24364   0.632   0.286  13.171  0.0574 -0.1763  0.0488
 4302SOL    HW124365   0.671   0.217  13.116  2.4957  1.2405 -0.0018
 4302SOL    HW224366   0.540   0.262  13.164  0.5268 -1.6358 -1.3836
 4303SOL     OW24367   2.138   0.664   4.184 -0.3634 -0.4370  0.0790
 4303SOL    HW124368   2.218   0.715   4.171 -0.3643 -0.5883 -0.5210
 4303SOL    HW224369   2.175   0.577   4.170  0.1639  0.1784 -2.4151
 4304SOL     OW24370   3.674   1.068   6.939 -0.0958 -0.6437 -0.0920
 4304SOL    HW124371   3.611   1.139   6.924  2.0920  2.0188  3.1383
 4304SOL    HW224372   3.710   1.059   6.851 -1.5007 -0.4412 -0.6808
 4305SOL     OW24373   0.536   2.337   4.855  0.5796  0.4467  0.0988
 4305SOL    HW124374   0.604   2.385   4.901  2.1241 -0.7136 -0.9481
 4305SOL    HW224375   0.569   2.335   4.765  0.1367  2.1636 -0.0938
 4306SOL     OW24376   4.159   0.522   3.978 -0.5474 -0.1638 -0.4532
 4306SOL    HW124377   4.214   0.489   4.050 -2.9974 -1.6184  0.7425
 4306SOL    HW224378   4.232   0.552   3.924  1.0926 -1.7531  0.8426
 4307SOL     OW24379   1.746   4.284  11.019  0.1440  0.2974 -0.3246
 4307SOL    HW124380   1.718   4.364  11.062  0.9726  0.9786 -1.0446
 4307SOL    HW224381   1.729   4.310  10.928  1.3942  1.2026 -0.2920
 4308SOL     OW24382   1.241   1.131   7.481 -0.3011  0.2141 -0.1992
 4308SOL    HW124383   1.313   1.117   7.544 -0.4614  2.3761  0.4610
 4308SOL    HW224384   1.164   1.079   7.503 -1.3484  1.1897 -1.5895
 4309SOL     OW24385   0.842   1.100  10.425  0.1404 -0.3533 -0.3777
 4309SOL    HW124386   0.878   1.120  10.338  1.5798 -0.9001  0.0983
 4309SOL    HW224387   0.826   1.008  10.402  1.1079 -0.7820  0.6721
 4310SOL     OW24388   0.181   2.171   6.157  0.2431 -0.8113 -0.3553
 4310SOL    HW124389   0.234   2.092   6.150 -0.3256 -1.0242 -2.3455
 4310SOL    HW224390   0.096   2.139   6.129 -0.3631  0.6489 -0.1699
 4311SOL     OW24391   0.194   3.930   0.807 -0.0958  0.5550  0.0225
 4311SOL    HW124392   0.161   3.934   0.717  0.4220 -0.1060 -0.1967
 4311SOL    HW224393   0.160   4.010   0.846  2.2546  1.4363  0.2218
 4312SOL     OW24394   4.070   0.080   5.435  0.4132  0.0671  0.3268
 4312SOL    HW124395   4.140   0.014   5.434 -0.5819 -0.9737 -0.1350
 4312SOL    HW224396   4.114   0.154   5.393  1.1540 -0.7930 -0.4143
 4313SOL     OW24397   4.438   2.367   5.829 -0.2403  0.4901  0.7655
 4313SOL    HW124398   4.361   2.400   5.782  0.1133 -0.4948 -0.4717
 4313SOL    HW224399   4.460   2.297   5.769 -1.8552  0.5908  0.0505
 4314SOL     OW24400   4.651   1.314   7.832  0.5179  0.2170 -0.4724
 4314SOL    HW124401   0.019   1.331   7.862  0.2275  0.4665  0.2454
 4314SOL    HW224402   4.665   1.245   7.768  1.5156 -1.5654  1.6848
 4315SOL     OW24403   3.802   1.491   2.279  0.3981 -0.0204  0.4273
 4315SOL    HW124404   3.893   1.478   2.252  0.4726 -2.0169  1.6439
 4315SOL    HW224405   3.766   1.460   2.195 -0.0533 -0.7158  0.8736
 4316SOL     OW24406   2.098   2.870   2.135  0.2229 -0.5928  0.3206
 4316SOL    HW124407   2.023   2.930   2.130 -1.5950 -3.1092 -2.5340
 4316SOL    HW224408   2.157   2.914   2.074 -0.5226 -1.5283 -1.0941
 4317SOL     OW24409   0.484   4.377   4.645  0.2280 -0.1103 -0.6504
 4317SOL    HW124410   0.573   4.363   4.676  0.5567 -0.2102 -1.6226
 4317SOL    HW224411   0.479   4.323   4.566 -0.8879 -1.1528  0.1341
 4318SOL     OW24412   2.890   2.654   1.903 -0.9290 -0.0195  0.2119
 4318SOL    HW124413   2.968   2.631   1.953 -0.9542  1.4088  0.9312
 4318SOL    HW224414   2.917   2.632   1.814 -0.7432 -1.1445  0.5426
 4319SOL     OW24415   3.461   4.349  17.019  0.3846  0.2734 -0.1729
 4319SOL    HW124416   3.434   4.423  17.073  0.1115 -1.2975  1.8857
 4319SOL    HW224417   3.434   4.375  16.931 -0.0719 -0.9754 -0.4111
 4320SOL     OW24418   2.594   3.139   2.135  0.2190  0.4266 -0.3948
 4320SOL    HW124419   2.605   3.234   2.146  0.5530  0.0125  2.8260
 4320SOL    HW224420   2.686   3.115   2.135 -0.4590 -2.0935 -1.7700
 4321SOL     OW24421   4.584   3.334   5.993  0.1721 -0.5222 -0.4408
 4321SOL    HW124422   4.658   3.390   5.971 -0.4192  0.3245 -0.2986
 4321SOL    HW224423   4.515   3.400   6.000 -0.0494 -1.0864  2.5268
 4322SOL     OW24424   2.071   3.206   4.261 -0.1748 -0.1055 -0.0438
 4322SOL    HW124425   2.012   3.273   4.227 -0.8719 -1.0380 -0.6838
 4322SOL    HW224426   2.044   3.202   4.353  0.9177 -0.5851  0.2688
 4323SOL     OW24427   1.714   4.180   0.669 -0.4226  0.6474 -0.6013
 4323SOL    HW124428   1.686   4.272   0.658  1.0971  0.9520 -1.9362
 4323SOL    HW224429   1.646   4.135   0.619 -0.9307 -0.2831  0.9466
 4324SOL     OW24430   3.445   0.278   5.679 -0.1338  0.0781  0.8376
 4324SOL    HW124431   3.446   0.275   5.775 -1.3495  2.7119  0.9288
 4324SOL    HW224432   3.509   0.211   5.654 -2.6898 -1.8914 -0.4249
 4325SOL     OW24433   1.262   0.570   2.100 -0.6671 -0.7651  0.1305
 4325SOL    HW124434   1.342   0.553   2.150  1.1409 -1.4831 -3.0167
 4325SOL    HW224435   1.283   0.510   2.028 -2.4178 -0.8653 -0.2887
 4326SOL     OW24436   4.160   0.728   6.380  0.3824 -0.0591  0.0934
 4326SOL    HW124437   4.171   0.667   6.307  2.2198 -0.9943  1.1606
 4326SOL    HW224438   4.075   0.709   6.421  0.8914 -1.1209  0.6464
 4327SOL     OW24439   3.135   1.054   8.861  0.0751  0.3525 -0.2096
 4327SOL    HW124440   3.050   1.093   8.839 -0.6996 -0.4394  1.4395
 4327SOL    HW224441   3.106   1.006   8.938  0.3123  0.9438  0.2507
 4328SOL     OW24442   0.903   4.041   1.708 -0.0348 -0.4115 -0.1093
 4328SOL    HW124443   0.974   4.106   1.699  0.1879 -0.6012  0.2921
 4328SOL    HW224444   0.852   4.073   1.634  0.2196 -0.3462 -0.2589
 4329SOL     OW24445   3.464   3.826   0.131  0.7705  0.1767 -0.0361
 4329SOL    HW124446   3.452   3.837   0.226  0.2064  0.5729 -0.1561
 4329SOL    HW224447   3.416   3.746   0.109 -0.6355  1.0059 -0.0284
 4330SOL     OW24448   3.823   1.161   8.773  0.1278  0.1736  0.6917
 4330SOL    HW124449   3.918   1.150   8.771  0.1038 -0.1898  1.6270
 4330SOL    HW224450   3.816   1.191   8.863  0.7974  1.5040  0.3041
 4331SOL     OW24451   3.461   4.204   4.688 -0.3029  0.1500 -0.8028
 4331SOL    HW124452   3.366   4.194   4.701 -0.5668  1.7141 -1.4749
 4331SOL    HW224453   3.499   4.131   4.736  1.3898  1.4792 -0.1460
 4332SOL     OW24454   1.232   3.643   7.776 -0.6336  0.0613 -0.2325
 4332SOL    HW124455   1.274   3.710   7.722  0.6389 -0.8994 -0.4513
 4332SOL    HW224456   1.275   3.661   7.860  1.3696 -2.4120 -0.7181
 4333SOL     OW24457   2.509   0.061   5.916  0.3809 -0.5102  0.1570
 4333SOL    HW124458   2.413   0.067   5.923  0.7383  1.7444  3.1969
 4333SOL    HW224459   2.521   0.067   5.821 -1.4435 -1.2539 -0.1358
 4334SOL     OW24460   2.730   2.050   6.533  0.3473  0.5108  0.7882
 4334SOL    HW124461   2.768   2.134   6.557  0.4912  0.6924 -0.0954
 4334SOL    HW224462   2.781   2.021   6.457  0.4932  0.2472  0.9870
 4335SOL     OW24463   3.667   2.674   7.947 -0.3439 -0.3678  0.3552
 4335SOL    HW124464   3.611   2.740   7.988  0.6473  1.0304 -0.5508
 4335SOL    HW224465   3.724   2.738   7.904  0.8855 -1.2587  0.6730
 4336SOL     OW24466   2.208   1.338   3.559 -0.3081  0.1628 -0.5744
 4336SOL    HW124467   2.268   1.288   3.614 -0.4918 -1.3448 -1.7385
 4336SOL    HW224468   2.209   1.280   3.483 -0.4884 -2.0584  1.1231
 4337SOL     OW24469   2.758   1.786  15.011 -0.1934 -0.5656  0.8210
 4337SOL    HW124470   2.824   1.730  15.054 -0.1170 -0.1764  1.2104
 4337SOL    HW224471   2.801   1.871  15.021  2.4436 -1.8609  0.5115
 4338SOL     OW24472   1.898   2.809   5.531 -0.3167 -0.2293  0.0496
 4338SOL    HW124473   1.872   2.748   5.600 -0.4800  0.0502  0.2398
 4338SOL    HW224474   1.851   2.891   5.552  0.4529  0.3762 -0.6009
 4339SOL     OW24475   3.242   3.065  10.274 -0.2279  0.2018  0.2070
 4339SOL    HW124476   3.305   3.092  10.207 -1.3951 -0.4274 -1.1407
 4339SOL    HW224477   3.233   3.148  10.321 -0.1124 -0.3318  1.1684
 4340SOL     OW24478   4.429   0.438   3.432  0.3293 -0.5695 -0.0282
 4340SOL    HW124479   4.427   0.399   3.519  1.0282 -1.1964 -0.2890
 4340SOL    HW224480   4.372   0.514   3.438  0.4130 -0.4575 -0.6581
 4341SOL     OW24481   2.029   0.069   7.429 -0.1874 -0.8143 -0.2048
 4341SOL    HW124482   2.005   0.010   7.500  0.6161 -0.6055  0.2397
 4341SOL    HW224483   2.125   0.062   7.429 -0.2561 -1.6201 -1.3868
 4342SOL     OW24484   2.610   2.860  16.832  0.0394  0.3209  0.0860
 4342SOL    HW124485   2.603   2.857  16.737  0.5830  2.4099 -0.0214
 4342SOL    HW224486   2.558   2.782  16.850 -0.4428  0.5110 -0.4693
 4343SOL     OW24487   3.450   3.467   8.237  0.7114 -0.5083 -0.0850
 4343SOL    HW124488   3.470   3.409   8.164 -1.3148 -1.5266  0.1852
 4343SOL    HW224489   3.519   3.532   8.224 -0.9001  1.2791  0.2928
 4344SOL     OW24490   0.683   2.812   0.269 -0.2694 -0.2207 -0.5931
 4344SOL    HW124491   0.673   2.734   0.215 -5.8715 -1.4263  2.0898
 4344SOL    HW224492   0.648   2.785   0.354 -0.5218  0.4006 -0.5009
 4345SOL     OW24493   1.497   2.772   1.847  0.5943  0.5788 -0.6564
 4345SOL    HW124494   1.504   2.684   1.884  0.6180  0.5842 -0.6479
 4345SOL    HW224495   1.558   2.820   1.904  1.8969 -1.7180 -0.1477
 4346SOL     OW24496   2.870   0.581   5.531 -0.3617 -0.1222 -0.4867
 4346SOL    HW124497   2.890   0.670   5.561  2.0775 -1.1917  1.0242
 4346SOL    HW224498   2.775   0.573   5.530 -0.2290 -1.8347 -0.1605
 4347SOL     OW24499   1.483   0.361  11.631 -0.0119  0.1096  0.6165
 4347SOL    HW124500   1.437   0.428  11.681  1.0189  2.6392 -1.7852
 4347SOL    HW224501   1.414   0.331  11.572  0.1213 -1.1398  1.1001
 4348SOL     OW24502   4.303   3.431   8.128  0.3342  0.3115  0.2327
 4348SOL    HW124503   4.210   3.451   8.136 -0.2948 -1.7897 -1.5135
 4348SOL    HW224504   4.328   3.414   8.219 -1.8858 -2.9473  0.2602
 4349SOL     OW24505   4.663   4.098   3.485  0.3348 -0.1631 -0.4850
 4349SOL    HW124506   4.627   4.081   3.399 -1.5406  1.6138 -0.0546
 4349SOL    HW224507   4.624   4.032   3.542 -1.5512  0.6368 -0.8742
 4350SOL     OW24508   0.507   2.007   6.534 -0.2024 -0.7224 -0.3594
 4350SOL    HW124509   0.498   1.981   6.442  1.1348 -0.6649 -0.5049
 4350SOL    HW224510   0.505   1.925   6.584  2.4878 -1.6465 -1.7408
 4351SOL     OW24511   0.405   4.011   4.958  0.1054 -0.7668  0.5865
 4351SOL    HW124512   0.487   4.043   4.995 -0.5098  0.6657  0.6973
 4351SOL    HW224513   0.392   4.037   4.867  0.2314  3.1446  1.6572
 4352SOL     OW24514   2.959   2.222   4.826  0.0853  0.1114  0.7940
 4352SOL    HW124515   2.890   2.200   4.763  0.1266 -0.2626  0.8781
 4352SOL    HW224516   2.918   2.296   4.871 -0.0185  0.2166  0.5277
 4353SOL     OW24517   0.403   0.905   3.900  0.0015 -0.6822 -0.2705
 4353SOL    HW124518   0.352   0.908   3.820  0.3447 -2.1664 -0.5270
 4353SOL    HW224519   0.469   0.972   3.882 -0.3621 -0.6503 -1.4529
 4354SOL     OW24520   3.313   0.400   9.565 -0.6780 -0.1703 -0.3139
 4354SOL    HW124521   3.287   0.315   9.531  2.3544 -0.8789 -0.8490
 4354SOL    HW224522   3.366   0.387   9.644 -0.3634 -3.1074 -1.0076
 4355SOL     OW24523   3.204   3.738   5.897  0.0077  0.1071  0.3956
 4355SOL    HW124524   3.287   3.716   5.939 -0.9423 -2.4860  0.9102
 4355SOL    HW224525   3.188   3.826   5.932  1.8528  0.2981  0.7469
 4356SOL     OW24526   0.203   2.108   0.185 -0.3065 -0.3537 -0.0594
 4356SOL    HW124527   0.247   2.072   0.262  2.2730  0.7921 -1.0021
 4356SOL    HW224528   0.152   2.029   0.167  1.0638 -0.9694 -1.2612
 4357SOL     OW24529   1.611   4.205   3.705  0.0959  0.5794  0.4863
 4357SOL    HW124530   1.628   4.298   3.694 -1.7942  0.9073  0.2703
 4357SOL    HW224531   1.691   4.179   3.658 -0.5359  1.0629 -0.8628
 4358SOL     OW24532   4.123   1.833   9.109 -0.0383 -0.4205  0.2823
 4358SOL    HW124533   4.035   1.869   9.102  0.0604 -0.0089  1.1969
 4358SOL    HW224534   4.092   1.747   9.137  1.1114 -0.6031  0.9805
 4359SOL     OW24535   3.582   3.269   3.114 -0.0177 -0.4119  0.0458
 4359SOL    HW124536   3.608   3.354   3.078 -0.3314 -0.3203  0.0321
 4359SOL    HW224537   3.613   3.197   3.060  0.9880 -0.4124  0.6104
 4360SOL     OW24538   3.103   0.225  10.928 -0.4773 -0.4772 -0.2143
 4360SOL    HW124539   3.101   0.315  10.895 -0.7432  0.5294  2.5715
 4360SOL    HW224540   3.011   0.219  10.952 -0.6114  0.6928 -0.4591
 4361SOL     OW24541   4.003   1.747   6.492  0.0392  0.0734  0.1134
 4361SOL    HW124542   3.916   1.725   6.460 -0.4164 -1.7807  2.6394
 4361SOL    HW224543   4.043   1.669   6.531 -1.3755 -1.2526 -1.0923
 4362SOL     OW24544   0.935   0.341  15.187  0.1438 -0.2086 -0.3056
 4362SOL    HW124545   0.959   0.248  15.186 -0.3859 -0.3513  0.4069
 4362SOL    HW224546   0.886   0.359  15.267 -1.6810  0.5078 -1.5809
 4363SOL     OW24547   4.094   0.051   4.452  0.0638  0.1506 -0.2882
 4363SOL    HW124548   4.179   0.071   4.413  0.8516 -1.0131  0.8369
 4363SOL    HW224549   4.038   0.101   4.392  0.6230  2.0336  0.7423
 4364SOL     OW24550   1.682   2.437   6.614 -0.3377 -0.4217  0.1322
 4364SOL    HW124551   1.738   2.359   6.609 -0.6639 -0.7078  0.9062
 4364SOL    HW224552   1.642   2.408   6.696  0.7402 -0.4620  0.6412
 4365SOL     OW24553   2.610   1.316   0.445 -0.3198 -0.6984 -0.2246
 4365SOL    HW124554   2.638   1.268   0.367  0.1880  1.3374 -1.3017
 4365SOL    HW224555   2.623   1.244   0.506 -0.2621 -1.0241 -0.6202
 4366SOL     OW24556   1.254   0.747  12.240 -0.3519  0.2934  0.6950
 4366SOL    HW124557   1.231   0.667  12.287 -0.3201  0.8220  1.6139
 4366SOL    HW224558   1.258   0.813  12.309  0.3265 -0.7386  1.6520
 4367SOL     OW24559   3.781   4.167   6.439  0.7264 -0.1795 -0.2920
 4367SOL    HW124560   3.719   4.222   6.488  1.1404  0.3480 -0.3625
 4367SOL    HW224561   3.718   4.103   6.405  1.7742 -0.4535 -1.7015
 4368SOL     OW24562   2.744   2.168   4.674  0.6581  0.8706 -0.5717
 4368SOL    HW124563   2.697   2.128   4.601  0.7580 -0.3475  0.0350
 4368SOL    HW224564   2.701   2.254   4.671  1.4940  1.2944 -0.4054
 4369SOL     OW24565   4.538   1.307   7.523 -0.0414 -0.3232  0.8445
 4369SOL    HW124566   4.517   1.227   7.474 -0.3915  0.3143 -0.0270
 4369SOL    HW224567   4.453   1.323   7.562  0.1030  2.6250 -0.0761
 4370SOL     OW24568   4.660   4.405   8.110  0.3526  0.6084  0.1569
 4370SOL    HW124569   4.578   4.359   8.130  0.1328  0.0024 -2.1560
 4370SOL    HW224570   4.712   4.337   8.068 -0.6663 -1.0069  1.4610
 4371SOL     OW24571   0.921   2.746   8.727 -0.4906  0.4397 -0.2804
 4371SOL    HW124572   0.882   2.834   8.733  0.1648  0.8013 -1.3445
 4371SOL    HW224573   1.007   2.760   8.688  0.4630 -0.0783  1.6372
 4372SOL     OW24574   3.011   0.457   5.965 -0.2013 -0.6107 -0.2215
 4372SOL    HW124575   3.081   0.512   6.000 -0.4511 -1.8365  2.1989
 4372SOL    HW224576   2.947   0.522   5.937 -0.5870 -1.3336 -1.0324
 4373SOL     OW24577   2.061   4.718   0.543  0.1385  0.1984  0.0178
 4373SOL    HW124578   2.102   4.662   0.477  0.1593  0.8547 -0.5341
 4373SOL    HW224579   2.048   0.077   0.492  1.7908  1.1782  1.1221
 4374SOL     OW24580   0.628   1.365   8.309  0.4794  0.4906 -0.2984
 4374SOL    HW124581   0.617   1.441   8.252  0.1548 -0.2734 -1.2684
 4374SOL    HW224582   0.594   1.298   8.249  0.7638  0.3505 -0.3022
 4375SOL     OW24583   1.410   4.512   6.876 -0.3593 -0.0340 -0.1606
 4375SOL    HW124584   1.472   4.468   6.934 -0.9014  0.9250  1.1529
 4375SOL    HW224585   1.414   4.602   6.909  0.9000 -0.2540  0.3094
 4376SOL     OW24586   3.660   1.591   5.606  0.2625  0.3810 -0.8693
 4376SOL    HW124587   3.647   1.666   5.664 -0.4139  0.4624 -1.1309
 4376SOL    HW224588   3.645   1.519   5.669 -2.3496  2.2464  0.6171
 4377SOL     OW24589   2.642   2.258  13.994  0.7687 -0.2590 -0.4614
 4377SOL    HW124590   2.722   2.218  14.028  0.8419  0.1163 -0.1870
 4377SOL    HW224591   2.654   2.353  13.995 -1.7115  0.0022  1.5104
 4378SOL     OW24592   0.863   0.870   5.011 -0.0745  0.1784 -0.0934
 4378SOL    HW124593   0.881   0.962   4.994  0.4263  0.2887  1.0308
 4378SOL    HW224594   0.811   0.837   4.937 -0.0181  1.4360 -0.6843
 4379SOL     OW24595   0.658   3.462   4.601  0.3436  0.2426 -0.4916
 4379SOL    HW124596   0.625   3.430   4.686  3.4404  0.2402  0.7026
 4379SOL    HW224597   0.583   3.444   4.545  0.1913  0.2817 -0.3020
 4380SOL     OW24598   3.304   3.242   9.366 -0.1822 -0.1271 -0.5036
 4380SOL    HW124599   3.231   3.182   9.348 -1.1151  0.4724  1.2740
 4380SOL    HW224600   3.363   3.212   9.297 -0.7486  0.8358 -1.3986
 4381SOL     OW24601   2.865   1.568  13.532 -0.0314  0.5285 -0.1644
 4381SOL    HW124602   2.915   1.647  13.511  0.6300  0.3446  0.7317
 4381SOL    HW224603   2.930   1.498  13.524 -1.0744 -0.9054  3.7641
 4382SOL     OW24604   2.801   2.437   8.597 -0.0700  0.6723 -0.0528
 4382SOL    HW124605   2.896   2.429   8.595 -0.1914 -0.7958  0.0214
 4382SOL    HW224606   2.794   2.445   8.692  0.3773  0.9494 -0.0433
 4383SOL     OW24607   1.796   0.110   6.758 -0.1018 -0.2126  0.2647
 4383SOL    HW124608   1.727   0.173   6.780  0.7111  1.2017 -1.2253
 4383SOL    HW224609   1.823   0.140   6.671  0.3032  0.7876  0.7392
 4384SOL     OW24610   3.483   1.313   6.849 -0.5196  0.6968 -0.0260
 4384SOL    HW124611   3.547   1.382   6.867  1.6737 -1.2309 -0.4809
 4384SOL    HW224612   3.464   1.314   6.755  2.9651 -0.7449 -0.7211
 4385SOL     OW24613   2.778   3.525   2.505  0.1199 -0.6923 -0.4238
 4385SOL    HW124614   2.858   3.544   2.554  1.0731 -2.3421 -1.3061
 4385SOL    HW224615   2.788   3.599   2.445 -0.9305  0.4754  0.8452
 4386SOL     OW24616   1.455   1.517   0.019 -0.3888 -0.0065  0.3931
 4386SOL    HW124617   1.432   1.493   0.109  0.0684 -1.5693  0.1023
 4386SOL    HW224618   1.376   1.491  17.657 -0.9921  1.3190  0.6793
 4387SOL     OW24619   2.608   3.009  13.194  0.2525  0.0747 -0.4234
 4387SOL    HW124620   2.565   3.065  13.258  0.1108 -3.4517  2.5137
 4387SOL    HW224621   2.691   2.985  13.235  0.2502 -0.2317 -0.6003
 4388SOL     OW24622   0.231   2.654   0.058  0.4113  0.3470 -0.3369
 4388SOL    HW124623   0.199   2.743   0.041  0.1086  0.2002 -0.5398
 4388SOL    HW224624   0.318   2.646   0.018  1.0653 -1.3942  1.4453
 4389SOL     OW24625   4.067   4.417  15.871 -0.0390 -1.1529 -0.5206
 4389SOL    HW124626   4.122   4.482  15.829 -1.2594  0.7547  0.8244
 4389SOL    HW224627   4.084   4.432  15.964 -0.7326 -0.1537 -0.5497
 4390SOL     OW24628   3.928   4.317  16.145 -0.4459  0.3638 -0.7502
 4390SOL    HW124629   4.006   4.290  16.193 -1.6370 -2.2015 -0.2309
 4390SOL    HW224630   3.879   4.374  16.205  0.1738  0.5235 -0.3966
 4391SOL     OW24631   3.049   1.635   4.711 -0.3305 -0.5040 -0.2928
 4391SOL    HW124632   3.062   1.678   4.796  1.0505  1.8415 -1.7157
 4391SOL    HW224633   2.956   1.616   4.717 -0.6519  1.2336  0.2877
 4392SOL     OW24634   0.281   1.244   6.880 -0.3910 -0.1956  0.2847
 4392SOL    HW124635   0.239   1.219   6.962 -2.8661 -1.7116 -1.4407
 4392SOL    HW224636   0.372   1.260   6.908  0.2394 -2.4709 -0.5069
 4393SOL     OW24637   3.016   2.431  16.768  0.1213  1.1471 -0.2823
 4393SOL    HW124638   2.960   2.506  16.754  2.1684  2.1671 -3.0427
 4393SOL    HW224639   3.083   2.457  16.704 -0.5813  1.2165 -0.9870
 4394SOL     OW24640   3.576   3.515   9.054 -0.2157 -0.9399 -0.2274
 4394SOL    HW124641   3.558   3.583   9.118 -1.1758 -1.5089  0.1107
 4394SOL    HW224642   3.656   3.543   9.010  1.1046  0.7985  3.2903
 4395SOL     OW24643   3.524   3.758   9.226 -0.3003 -0.0523  0.1490
 4395SOL    HW124644   3.586   3.712   9.283 -1.4162 -1.9869 -0.1908
 4395SOL    HW224645   3.580   3.835   9.215 -1.0597  0.2866 -1.2734
 4396SOL     OW24646   3.971   0.333  17.046  0.4236 -0.1043  0.8349
 4396SOL    HW124647   4.015   0.281  16.978 -0.6359  2.5434 -1.8400
 4396SOL    HW224648   3.983   0.419  17.007 -0.4748  0.5303  1.9807
 4397SOL     OW24649   3.382   3.032   1.626  0.5449 -0.3657 -0.5425
 4397SOL    HW124650   3.384   3.081   1.544  3.6509 -2.2019 -1.5620
 4397SOL    HW224651   3.463   2.981   1.631  1.3494  0.8716 -0.8718
 4398SOL     OW24652   3.077   0.982   3.101 -0.5570  0.4622 -0.1827
 4398SOL    HW124653   3.106   0.902   3.057  1.2904 -0.1998  2.2292
 4398SOL    HW224654   3.077   0.952   3.191  0.0418  0.0569 -0.3235
 4399SOL     OW24655   3.787   3.277   2.007 -0.1892 -0.0361  0.7253
 4399SOL    HW124656   3.709   3.305   2.056  1.4787  0.9624  2.8577
 4399SOL    HW224657   3.804   3.189   2.042  0.0656 -0.2752 -0.0162
 4400SOL     OW24658   4.338   3.202   2.210  0.8293  0.1420  0.3932
 4400SOL    HW124659   4.307   3.127   2.160  0.4852  0.7089 -0.2585
 4400SOL    HW224660   4.334   3.266   2.138  0.2016 -0.9106 -0.5145
 4401SOL     OW24661   3.179   0.201   9.460 -0.8555  0.3852  0.1452
 4401SOL    HW124662   3.114   0.225   9.395 -1.7136  0.2775  0.9695
 4401SOL    HW224663   3.168   0.106   9.466 -2.0453  0.4068 -1.7109
 4402SOL     OW24664   1.480   4.369   8.524  0.0604  0.0092 -0.0183
 4402SOL    HW124665   1.447   4.456   8.547 -0.1150 -0.2683  0.8082
 4402SOL    HW224666   1.423   4.317   8.581  1.3787  0.0811  1.3627
 4403SOL     OW24667   0.446   1.607   2.020  0.5915  0.5735 -0.2237
 4403SOL    HW124668   0.497   1.539   2.064 -0.7036  1.3421  2.4267
 4403SOL    HW224669   0.474   1.582   1.932  1.1646 -0.6102  0.2968
 4404SOL     OW24670   1.972   2.179   9.457  0.3042  0.2934 -0.9201
 4404SOL    HW124671   1.954   2.183   9.551  0.3220 -0.5313 -0.8808
 4404SOL    HW224672   2.011   2.092   9.450  2.7508  1.2462  0.6591
 4405SOL     OW24673   0.558   3.513   8.754  0.0434  0.5578  0.5573
 4405SOL    HW124674   0.561   3.580   8.822  0.1020  1.1319 -0.0152
 4405SOL    HW224675   0.502   3.550   8.686 -0.4994  1.4039  1.4621
 4406SOL     OW24676   1.298   0.198   1.025  0.2000  0.3980  0.3853
 4406SOL    HW124677   1.364   0.147   1.073 -0.7233 -0.4819  0.7123
 4406SOL    HW224678   1.352   0.267   0.987 -0.2251 -1.2786 -3.2572
 4407SOL     OW24679   0.260   3.293   4.201  0.2438 -0.6080  0.0204
 4407SOL    HW124680   0.229   3.222   4.258  0.6623 -0.0074  0.9858
 4407SOL    HW224681   0.176   3.338   4.196  1.4511  1.5159 -1.0122
 4408SOL     OW24682   2.349   0.436   6.993 -0.0394 -0.4185  0.7324
 4408SOL    HW124683   2.366   0.359   7.047  0.3970 -0.7588  0.1198
 4408SOL    HW224684   2.260   0.456   7.021  0.3418  0.0304  1.6165
 4409SOL     OW24685   1.092   3.942   4.533 -0.0277 -0.1472 -0.3877
 4409SOL    HW124686   1.169   3.991   4.506 -0.9591  1.3905 -0.2362
 4409SOL    HW224687   1.031   3.987   4.475 -0.2831  1.1613  0.9004
 4410SOL     OW24688   1.571   4.008   8.103  0.0438 -0.3211  0.1347
 4410SOL    HW124689   1.612   3.922   8.091  0.6143 -0.3306  2.0772
 4410SOL    HW224690   1.488   3.992   8.059 -0.7850  0.9303  1.2487
 4411SOL     OW24691   3.785   3.281   2.781  0.2981  0.1586  0.0521
 4411SOL    HW124692   3.689   3.285   2.784  0.2301 -2.1829  1.2605
 4411SOL    HW224693   3.793   3.210   2.718 -1.0433 -0.9341  1.0806
 4412SOL     OW24694   3.940   0.223   3.221 -0.1582  0.4217  0.1119
 4412SOL    HW124695   3.903   0.237   3.134  0.1962 -1.2534 -0.3078
 4412SOL    HW224696   3.988   0.141   3.218 -0.9300 -0.0226 -0.1886
 4413SOL     OW24697   1.467   4.065   8.351 -0.0175  0.5592  0.4176
 4413SOL    HW124698   1.432   3.976   8.356  0.0005  0.5002 -0.4534
 4413SOL    HW224699   1.510   4.055   8.266 -2.2852 -0.3162 -0.6372
 4414SOL     OW24700   2.814   2.355  12.357 -0.6414  1.1259  0.9953
 4414SOL    HW124701   2.861   2.422  12.406  2.5114 -2.2286  2.5981
 4414SOL    HW224702   2.770   2.405  12.289  0.1092 -1.9485 -1.7689
 4415SOL     OW24703   2.608   4.214   5.212 -0.0582 -0.2565  0.2152
 4415SOL    HW124704   2.674   4.204   5.280  1.5010 -0.1550 -1.2839
 4415SOL    HW224705   2.556   4.279   5.260 -0.3929  0.3725 -0.9898
 4416SOL     OW24706   2.741   2.494   3.434  0.3703  0.2184  0.2918
 4416SOL    HW124707   2.759   2.491   3.340 -1.0809 -0.0940  0.0124
 4416SOL    HW224708   2.825   2.463   3.466 -0.3718 -1.6263  0.4688
 4417SOL     OW24709   0.916   1.798   9.301  0.1981 -0.0847 -0.2380
 4417SOL    HW124710   0.914   1.796   9.397  0.4003 -2.3599 -0.2878
 4417SOL    HW224711   0.852   1.730   9.280  0.3791 -0.4598  0.4151
 4418SOL     OW24712   1.425   4.683  12.413  0.1358 -0.2349  0.0914
 4418SOL    HW124713   1.480   0.040  12.402 -0.0348 -0.1848 -0.3875
 4418SOL    HW224714   1.347   0.011  12.438  0.1932  0.4133 -0.9875
 4419SOL     OW24715   4.431   0.772   3.609 -0.0470  0.5689 -0.1630
 4419SOL    HW124716   4.439   0.842   3.675  1.3110 -0.8225  1.1386
 4419SOL    HW224717   4.470   0.805   3.528 -0.7985 -0.5237 -0.9680
 4420SOL     OW24718   2.455   2.672   4.488 -0.4845  0.4914  0.4180
 4420SOL    HW124719   2.467   2.748   4.431 -1.3058  1.5002  1.5857
 4420SOL    HW224720   2.416   2.718   4.562  0.0989  1.4616  0.1249
 4421SOL     OW24721   0.591   3.147   2.753  0.4436 -0.0006 -0.2664
 4421SOL    HW124722   0.682   3.156   2.724  1.0595 -2.6924  0.9050
 4421SOL    HW224723   0.560   3.218   2.697 -0.7439 -0.5070 -0.2367
 4422SOL     OW24724   2.136   3.817  13.581  0.2442 -1.0217  0.8671
 4422SOL    HW124725   2.227   3.819  13.610  0.4803  0.9649 -0.0098
 4422SOL    HW224726   2.112   3.730  13.614 -1.7986 -0.6619  0.3316
 4423SOL     OW24727   0.269   4.212   6.949  0.5622  0.7194  0.0415
 4423SOL    HW124728   0.358   4.178   6.940  0.1707 -0.0721 -0.7751
 4423SOL    HW224729   0.293   4.300   6.979  3.7605  0.0124 -0.3837
 4424SOL     OW24730   3.476   1.510   3.920  0.5800 -0.0346  0.1175
 4424SOL    HW124731   3.410   1.501   3.989  1.0184 -2.4681  0.2254
 4424SOL    HW224732   3.467   1.419   3.893  1.3624  0.2385 -1.0224
 4425SOL     OW24733   0.527   0.774   4.319  0.0703  0.3382  0.1147
 4425SOL    HW124734   0.457   0.783   4.255  1.3545  0.4879 -1.2755
 4425SOL    HW224735   0.500   0.830   4.392  1.4917  1.4715 -0.2272
 4426SOL     OW24736   0.135   1.793   5.933  0.0250  0.1619 -0.2363
 4426SOL    HW124737   0.197   1.753   5.872  0.9472 -0.5250  1.1473
 4426SOL    HW224738   0.185   1.764   6.009 -1.8940  0.9969  1.3331
 4427SOL     OW24739   1.577   2.040   4.116 -0.1152 -0.6286  0.2166
 4427SOL    HW124740   1.581   1.944   4.123  0.8706 -0.5735  0.3563
 4427SOL    HW224741   1.650   2.054   4.056  0.6427  0.3797  1.3674
 4428SOL     OW24742   2.010   4.656   5.992 -0.7550 -0.0637  0.2183
 4428SOL    HW124743   1.961   4.614   6.062 -0.1086 -0.8514  0.1864
 4428SOL    HW224744   2.094   4.685   6.027 -0.3367 -0.1843 -0.6981
 4429SOL     OW24745   3.505   0.342   9.761 -0.0472  0.7916  0.3914
 4429SOL    HW124746   3.526   0.249   9.769 -0.4573  0.7101  0.5091
 4429SOL    HW224747   3.557   0.385   9.828  1.4750 -1.5117  0.6917
 4430SOL     OW24748   2.231   1.398   0.967 -0.1041  0.4333  0.2950
 4430SOL    HW124749   2.175   1.365   1.038 -0.7903  0.6771 -0.1380
 4430SOL    HW224750   2.165   1.425   0.904 -0.2926  0.0007  0.3105
 4431SOL     OW24751   3.748   3.250   3.670 -0.1660  0.3713  0.7258
 4431SOL    HW124752   3.741   3.187   3.742  0.8303  0.1831  0.6658
 4431SOL    HW224753   3.771   3.191   3.599  0.1438  4.3445 -2.4711
 4432SOL     OW24754   1.612   1.744  12.583 -0.1903  0.2593 -0.0706
 4432SOL    HW124755   1.671   1.781  12.649 -0.6495 -2.6397  1.9827
 4432SOL    HW224756   1.583   1.820  12.534 -0.0858  1.3181  1.4984
 4433SOL     OW24757   3.604   4.380   7.500  0.1814 -0.2786  0.5496
 4433SOL    HW124758   3.673   4.345   7.556  0.0426  1.8115  2.0531
 4433SOL    HW224759   3.553   4.408   7.577 -2.4209 -2.5015 -0.3603
 4434SOL     OW24760   2.731   1.019   7.583 -0.2101  0.5551 -0.1037
 4434SOL    HW124761   2.748   1.056   7.669 -2.7596  0.5909  0.3675
 4434SOL    HW224762   2.646   1.060   7.566 -1.7186 -1.6182  2.4047
 4435SOL     OW24763   2.671   1.483  13.681 -0.6678  0.0044  0.3624
 4435SOL    HW124764   2.753   1.512  13.640 -1.4222  1.3744 -0.1643
 4435SOL    HW224765   2.715   1.425  13.743  0.4592  0.5205  0.0627
 4436SOL     OW24766   0.247   1.545   7.344  0.4330 -0.1762 -0.7586
 4436SOL    HW124767   0.320   1.493   7.378  1.9229  2.3949 -0.0042
 4436SOL    HW224768   0.182   1.516   7.408 -0.6841  1.4746 -1.1523
 4437SOL     OW24769   3.731   0.207   6.018 -0.2482 -0.1099  0.1966
 4437SOL    HW124770   3.726   0.241   6.107  0.6217 -0.9632  0.5687
 4437SOL    HW224771   3.641   0.217   5.989  0.7595  0.2497 -2.8517
 4438SOL     OW24772   0.711   0.344   6.811 -0.0873  0.4064  0.4198
 4438SOL    HW124773   0.722   0.350   6.716 -3.0064 -0.5203  0.0341
 4438SOL    HW224774   0.701   0.250   6.828 -0.3016  0.1988 -0.8480
 4439SOL     OW24775   2.712   0.113  14.301  0.4383 -0.3656 -0.5467
 4439SOL    HW124776   2.791   0.077  14.260 -0.0949 -3.2490  0.9718
 4439SOL    HW224777   2.653   0.052  14.258 -1.3893  2.1046 -1.5142
 4440SOL     OW24778   2.240   2.383   3.445  0.6819  0.2879 -0.0977
 4440SOL    HW124779   2.210   2.382   3.535  1.6427 -0.8388  0.2026
 4440SOL    HW224780   2.170   2.431   3.399 -0.0801 -1.9024 -1.2587
 4441SOL     OW24781   0.314   0.452   3.253  0.3226 -0.4681 -0.4577
 4441SOL    HW124782   0.286   0.381   3.311  0.5846  1.0280  1.4842
 4441SOL    HW224783   0.241   0.514   3.260  2.5734  2.3460 -1.7158
 4442SOL     OW24784   4.490   2.213  15.823  0.0112 -0.1575 -0.3049
 4442SOL    HW124785   4.492   2.117  15.819  1.9897 -0.1155 -0.3535
 4442SOL    HW224786   4.405   2.211  15.868  0.6233 -0.8577  0.8299
 4443SOL     OW24787   4.511   4.533  11.295 -0.2071  0.0632  0.1965
 4443SOL    HW124788   4.500   4.601  11.362 -0.2596  0.8167 -0.5858
 4443SOL    HW224789   4.480   4.588  11.223 -1.1564  0.8565  1.2084
 4444SOL     OW24790   0.077   0.586   5.565  0.1179  0.2933  0.0949
 4444SOL    HW124791   0.162   0.618   5.535 -0.1842 -0.4390 -1.5426
 4444SOL    HW224792   0.039   0.553   5.484 -2.9125  0.3557  1.5003
 4445SOL     OW24793   4.595   3.452   4.545  0.8018 -0.1165  0.0455
 4445SOL    HW124794   4.635   3.367   4.565 -1.5574 -1.3057 -0.1947
 4445SOL    HW224795   4.600   3.500   4.628  0.9716  0.8492 -0.5237
 4446SOL     OW24796   2.496   1.150   4.900  0.0470 -0.3550 -0.0720
 4446SOL    HW124797   2.535   1.214   4.959  0.6061 -0.6923 -0.0766
 4446SOL    HW224798   2.403   1.163   4.920  0.6148  1.3930  1.4131
 4447SOL     OW24799   3.700   1.218   4.999  0.1701 -0.1599 -0.3086
 4447SOL    HW124800   3.640   1.276   5.046  0.1907  0.0759 -0.5754
 4447SOL    HW224801   3.784   1.260   5.014 -0.9507  1.9115  0.1891
 4448SOL     OW24802   2.805   3.105   9.554 -0.1131  0.4110 -0.0589
 4448SOL    HW124803   2.774   3.128   9.466 -2.3147 -2.8550 -0.1206
 4448SOL    HW224804   2.825   3.187   9.600 -1.2021  0.6570 -0.0137
 4449SOL     OW24805   0.989   0.419   2.945  0.2036  0.3569  0.4157
 4449SOL    HW124806   0.955   0.367   2.873  0.9710  1.7457 -0.9400
 4449SOL    HW224807   1.074   0.378   2.963  0.5239  1.7550  2.1681
 4450SOL     OW24808   3.976   1.527   4.008 -0.1929 -0.3313  0.1588
 4450SOL    HW124809   4.054   1.530   4.064 -1.1737  1.4140  1.4441
 4450SOL    HW224810   4.015   1.585   3.942 -1.1965 -0.8289 -0.8778
 4451SOL     OW24811   2.816   0.877   3.163 -0.1612 -0.3423 -0.1880
 4451SOL    HW124812   2.893   0.929   3.140 -0.9450  0.0201 -1.9679
 4451SOL    HW224813   2.852   0.789   3.155 -1.1979 -0.8055  0.2326
 4452SOL     OW24814   3.167   4.670   8.445 -0.5784  0.7480  0.2851
 4452SOL    HW124815   3.176   0.040   8.474  1.2169  0.3732  0.8823
 4452SOL    HW224816   3.251   4.638   8.478 -1.5530 -3.0045 -0.8308
 4453SOL     OW24817   1.440   1.699   5.137  0.2492 -0.1408  0.8410
 4453SOL    HW124818   1.517   1.673   5.187  0.3419  0.7695  1.1687
 4453SOL    HW224819   1.388   1.621   5.156  1.2769 -0.5718  1.8773
 4454SOL     OW24820   3.756   3.095  13.092 -0.4265  0.5939 -0.3757
 4454SOL    HW124821   3.756   3.017  13.146 -1.8342  1.7086  1.2252
 4454SOL    HW224822   3.769   3.162  13.159 -0.9937 -0.3141  0.6417
 4455SOL     OW24823   1.106   3.034   6.771 -0.0455 -0.1212 -0.2207
 4455SOL    HW124824   1.134   3.118   6.734 -1.7739  0.3451 -0.4596
 4455SOL    HW224825   1.023   3.057   6.813  0.3831  1.4529 -0.2340
 4456SOL     OW24826   1.372   0.512   9.233  0.9587 -0.3140 -1.0475
 4456SOL    HW124827   1.458   0.479   9.256  0.5296 -1.2795 -0.8428
 4456SOL    HW224828   1.322   0.431   9.233 -0.1915  0.4027  3.2421
 4457SOL     OW24829   0.643   4.281   1.751 -0.6438 -0.1451 -0.0182
 4457SOL    HW124830   0.619   4.317   1.666  1.7129  1.4703 -0.0109
 4457SOL    HW224831   0.709   4.345   1.779 -1.3161 -1.0898  3.7987
 4458SOL     OW24832   1.182   2.328   6.609  0.4513  0.2394  0.0293
 4458SOL    HW124833   1.258   2.307   6.554  0.7620  1.0147  0.1662
 4458SOL    HW224834   1.214   2.416   6.630 -1.0482  0.0831  2.9506
 4459SOL     OW24835   2.998   3.542   1.902  0.1462 -0.0459  0.6079
 4459SOL    HW124836   2.944   3.593   1.963 -0.3472  1.2744 -0.9374
 4459SOL    HW224837   3.010   3.460   1.950 -3.3382 -1.1472 -0.4137
 4460SOL     OW24838   0.034   3.858  16.134  0.2952  0.7301  0.3879
 4460SOL    HW124839   0.087   3.799  16.189 -0.0225  0.5781  0.5281
 4460SOL    HW224840   0.105   3.921  16.129  0.9647 -0.0209  0.2880
 4461SOL     OW24841   1.533   3.231   4.532 -0.4435  0.0817  0.4118
 4461SOL    HW124842   1.438   3.243   4.539 -0.3368  0.3415  1.4136
 4461SOL    HW224843   1.559   3.262   4.619  1.8056  0.3885 -0.3855
 4462SOL     OW24844   2.701   4.203  10.646  0.2824  0.4961 -0.0120
 4462SOL    HW124845   2.743   4.249  10.719  0.4227 -1.2860  1.0238
 4462SOL    HW224846   2.743   4.117  10.648 -0.7230 -0.0151 -1.0258
 4463SOL     OW24847   3.493   2.154  13.725 -0.5484  0.6898  0.0834
 4463SOL    HW124848   3.482   2.222  13.792  0.7848  0.5664  0.4398
 4463SOL    HW224849   3.552   2.095  13.772 -0.2916 -0.5480 -1.7936
 4464SOL     OW24850   1.153   1.838  12.529  0.4832 -0.5994  0.2527
 4464SOL    HW124851   1.151   1.743  12.532 -1.5476 -0.4755  2.6683
 4464SOL    HW224852   1.149   1.864  12.622  1.0937 -2.2388  0.7294
 4465SOL     OW24853   2.636   1.304   4.068 -0.1702 -0.3828  0.6609
 4465SOL    HW124854   2.605   1.327   3.981 -2.7278 -0.3393  1.5859
 4465SOL    HW224855   2.724   1.288   4.035 -0.2366  0.0322  0.2869
 4466SOL     OW24856   3.058   2.345   8.660  0.6155  0.4290  0.4688
 4466SOL    HW124857   3.130   2.314   8.605  0.5059 -1.8101  1.5949
 4466SOL    HW224858   3.054   2.288   8.736 -0.7808 -0.6061 -0.3722
 4467SOL     OW24859   0.979   3.719   2.461 -0.0680  0.1339  0.1031
 4467SOL    HW124860   0.938   3.728   2.547 -1.6644 -0.3737 -0.6017
 4467SOL    HW224861   0.919   3.657   2.420  0.7668 -0.3690 -0.3582
 4468SOL     OW24862   1.377   3.829   7.654 -0.0528 -0.5148 -0.0227
 4468SOL    HW124863   1.462   3.796   7.624  1.1676  1.3516  1.4119
 4468SOL    HW224864   1.405   3.917   7.680  0.9323 -0.7662 -0.2207
 4469SOL     OW24865   0.295   0.811   4.665 -0.4249 -0.2656  0.0746
 4469SOL    HW124866   0.239   0.863   4.607 -0.0468  0.0049 -0.0468
 4469SOL    HW224867   0.371   0.868   4.658 -1.1086  0.9752  3.1328
 4470SOL     OW24868   3.442   1.896  12.333 -0.3088 -0.2544  0.0657
 4470SOL    HW124869   3.366   1.907  12.390  0.3166  0.2254  0.8043
 4470SOL    HW224870   3.472   1.986  12.342 -1.9206  0.3050 -0.2358
 4471SOL     OW24871   3.681   1.477   4.759  0.6533 -0.2171 -0.4483
 4471SOL    HW124872   3.773   1.450   4.754  1.0059  0.4478  2.2884
 4471SOL    HW224873   3.643   1.424   4.689 -1.3776 -1.7029  1.8065
 4472SOL     OW24874   1.943   1.576   9.298  0.3166  0.2059  0.0875
 4472SOL    HW124875   1.856   1.537   9.307  0.9650 -1.4313 -0.9115
 4472SOL    HW224876   1.959   1.632   9.374  2.8699 -0.5854  0.1176
 4473SOL     OW24877   0.966   2.683   3.529  0.1565  0.2989 -0.3080
 4473SOL    HW124878   0.870   2.677   3.531  0.3309 -3.6617 -3.2487
 4473SOL    HW224879   0.975   2.770   3.491 -1.2590 -0.8760 -3.3294
 4474SOL     OW24880   3.552   1.360   4.241  0.0017  0.0303 -0.2151
 4474SOL    HW124881   3.630   1.398   4.200 -1.7990  0.4853 -3.2382
 4474SOL    HW224882   3.502   1.440   4.256 -2.8794 -1.6052 -1.1724
 4475SOL     OW24883   0.527   2.265  15.456  0.2865  0.2696  0.1184
 4475SOL    HW124884   0.485   2.218  15.384 -0.6001 -1.1558  1.5827
 4475SOL    HW224885   0.602   2.208  15.473 -0.0232 -0.4580 -0.9416
 4476SOL     OW24886   1.664   2.014   7.417  0.4463 -0.3367  0.1159
 4476SOL    HW124887   1.629   2.055   7.338  0.3086 -0.3569  0.1660
 4476SOL    HW224888   1.610   1.935   7.423  1.3838 -1.0733 -1.1009
 4477SOL     OW24889   2.069   0.910  14.128 -0.0257  0.5781  0.4210
 4477SOL    HW124890   2.117   0.939  14.051 -0.4023 -0.5756 -0.2591
 4477SOL    HW224891   1.998   0.876  14.073 -0.9346  0.3043  1.7479
 4478SOL     OW24892   2.776   1.374  16.702 -0.6249  0.3994 -0.0936
 4478SOL    HW124893   2.733   1.454  16.673 -0.7126  0.8544  1.2883
 4478SOL    HW224894   2.791   1.339  16.614 -1.3226  0.6158 -0.3024
 4479SOL     OW24895   3.760   2.368   1.846  0.5158 -0.2680  0.4849
 4479SOL    HW124896   3.830   2.394   1.786  1.1108 -0.5852  1.0454
 4479SOL    HW224897   3.729   2.293   1.797  0.4240 -1.8870  2.9979
 4480SOL     OW24898   1.916   3.493   6.611  0.1851 -0.2726  0.5878
 4480SOL    HW124899   1.936   3.422   6.549  0.1976  0.4614 -0.2482
 4480SOL    HW224900   2.003   3.532   6.621 -0.2791  0.8423  0.1777
 4481SOL     OW24901   3.619   3.029   5.919 -0.3131  0.0038 -0.2658
 4481SOL    HW124902   3.626   3.124   5.922 -2.1806  0.1878 -1.5531
 4481SOL    HW224903   3.685   2.998   5.981 -2.3932 -0.7154  1.5765
 4482SOL     OW24904   2.366   1.527   8.394  0.9826  0.4265  0.2270
 4482SOL    HW124905   2.296   1.548   8.456  0.0686  0.6036 -0.8624
 4482SOL    HW224906   2.328   1.451   8.349  0.5579  1.1652 -0.6449
 4483SOL     OW24907   4.343   0.879   9.158  0.0318  0.1603 -0.3914
 4483SOL    HW124908   4.350   0.969   9.189 -0.0967 -0.9975  2.9175
 4483SOL    HW224909   4.282   0.841   9.221 -0.3329  2.7526  0.7900
 4484SOL     OW24910   4.044   1.501   5.849  0.4770 -0.3108 -0.0041
 4484SOL    HW124911   4.039   1.419   5.801 -0.6769 -0.4565  0.3671
 4484SOL    HW224912   4.137   1.494   5.870  0.0383 -1.7135  1.4627
 4485SOL     OW24913   0.044   0.922   1.569  0.1091 -0.3534 -0.5767
 4485SOL    HW124914   0.087   0.838   1.580  0.1610 -0.3516 -0.7564
 4485SOL    HW224915   0.092   0.974   1.633 -0.3788  0.7447 -1.0943
 4486SOL     OW24916   1.623   1.018   7.733  0.3631  0.0578 -0.0903
 4486SOL    HW124917   1.712   0.983   7.731 -0.3630 -1.7669  0.4886
 4486SOL    HW224918   1.611   1.009   7.827 -2.8828 -2.1009 -0.7019
 4487SOL     OW24919   0.836   2.807  11.726 -0.0075 -0.2316  0.2405
 4487SOL    HW124920   0.848   2.768  11.640  1.1853 -1.0444  0.7674
 4487SOL    HW224921   0.904   2.874  11.730 -0.2316  0.0027  0.1237
 4488SOL     OW24922   0.464   1.714  15.449 -0.6057  0.6330  0.6247
 4488SOL    HW124923   0.541   1.741  15.399  0.4456 -0.2132  1.7814
 4488SOL    HW224924   0.501   1.632  15.483 -1.3534  0.0191 -0.0315
 4489SOL     OW24925   2.590   2.218  13.338 -0.2163 -0.1997 -0.1040
 4489SOL    HW124926   2.672   2.175  13.312  0.4618  0.8444  0.3456
 4489SOL    HW224927   2.595   2.301  13.291  2.4529 -1.0769 -1.4016
 4490SOL     OW24928   2.279   4.246   3.717  0.6354  0.3071 -0.2757
 4490SOL    HW124929   2.319   4.327   3.747  0.9861  0.4586 -1.1470
 4490SOL    HW224930   2.190   4.241   3.752  0.6243 -1.2397 -0.4883
 4491SOL     OW24931   3.023   3.595  12.573  0.6326 -0.8065 -0.3754
 4491SOL    HW124932   3.097   3.609  12.514  1.8445  0.6750  1.5209
 4491SOL    HW224933   2.964   3.657  12.531  0.6366 -0.6953 -0.2144
 4492SOL     OW24934   3.266   1.272   9.534  0.6390  0.3943 -0.1273
 4492SOL    HW124935   3.183   1.318   9.520  0.2729  0.0144  0.8493
 4492SOL    HW224936   3.328   1.342   9.553  0.3365  0.6103  0.0639
 4493SOL     OW24937   0.899   1.250   4.420 -0.0421  0.3772  0.5071
 4493SOL    HW124938   0.868   1.228   4.332 -0.6239  1.5793  0.4069
 4493SOL    HW224939   0.949   1.330   4.404  1.0920 -0.3084  0.6328
 4494SOL     OW24940   0.961   0.325   8.387  0.3685  1.0036 -0.0300
 4494SOL    HW124941   1.044   0.350   8.429  2.6094 -2.2292 -2.5547
 4494SOL    HW224942   0.895   0.341   8.454 -1.1030 -2.2340 -0.7277
 4495SOL     OW24943   0.803   1.586   5.929  0.1863  0.3007  0.4451
 4495SOL    HW124944   0.848   1.545   5.855  2.3537  0.9402  1.4382
 4495SOL    HW224945   0.719   1.603   5.885  1.3608 -1.0643 -2.3303
 4496SOL     OW24946   1.508   2.912   7.400 -0.4671 -0.4320 -0.8200
 4496SOL    HW124947   1.477   2.846   7.462  0.5790 -0.1786 -0.0289
 4496SOL    HW224948   1.433   2.969   7.390  0.4144  0.2833 -3.4055
 4497SOL     OW24949   0.091   0.984   3.904 -0.0273  0.3642 -0.4623
 4497SOL    HW124950   0.136   0.970   3.820 -0.0698  0.2530 -0.4666
 4497SOL    HW224951   0.107   0.896   3.937 -0.4806  0.5362  0.2098
 4498SOL     OW24952   3.172   1.722   8.885  1.0642 -0.4796  0.2783
 4498SOL    HW124953   3.214   1.736   8.800 -0.2970 -1.3061 -0.5418
 4498SOL    HW224954   3.243   1.683   8.936  0.5597  1.0376  2.1360
 4499SOL     OW24955   2.881   1.415   0.703  0.1685  0.1963  0.2837
 4499SOL    HW124956   2.837   1.499   0.692  0.1689  0.1186 -0.2825
 4499SOL    HW224957   2.827   1.379   0.773 -1.0233  1.3643 -0.0526
 4500SOL     OW24958   3.328   3.394   4.611  0.0749  0.3474 -0.4030
 4500SOL    HW124959   3.376   3.352   4.683  2.2734  1.1301 -1.4020
 4500SOL    HW224960   3.322   3.485   4.640 -0.1633  0.4993 -0.9337
 4501SOL     OW24961   1.906   0.240   6.989 -0.3641 -0.5505  0.6659
 4501SOL    HW124962   1.887   0.199   6.905 -0.4189  1.3362 -0.2365
 4501SOL    HW224963   1.956   0.171   7.034 -0.0560 -0.1139  0.9935
 4502SOL     OW24964   3.441   3.519   0.451 -0.0872  0.2000 -0.1608
 4502SOL    HW124965   3.533   3.534   0.430  0.3280  0.7403  2.0084
 4502SOL    HW224966   3.421   3.467   0.374  1.1942  1.3289 -1.2360
 4503SOL     OW24967   0.660   2.099   3.452  0.2544 -0.2975 -0.0478
 4503SOL    HW124968   0.678   2.192   3.465 -1.5317  0.0985 -0.4391
 4503SOL    HW224969   0.742   2.055   3.476  0.2927  0.2856  0.8746
 4504SOL     OW24970   3.440   1.190   6.184 -0.3095 -0.2203 -0.2401
 4504SOL    HW124971   3.361   1.137   6.194  0.8595 -1.7187  0.9212
 4504SOL    HW224972   3.411   1.272   6.224 -1.2175 -1.2381  1.1813
 4505SOL     OW24973   1.071   1.337   5.428  0.1495  0.6653  0.1215
 4505SOL    HW124974   1.155   1.349   5.383 -0.6816  2.4597 -0.9473
 4505SOL    HW224975   1.093   1.374   5.514  1.8370  0.2436 -0.1342
 4506SOL     OW24976   1.140   4.396   8.589 -0.1040 -0.5742  0.0288
 4506SOL    HW124977   1.175   4.464   8.532 -0.7999 -1.3002 -1.2792
 4506SOL    HW224978   1.214   4.357   8.635  0.2104  0.3194  0.2849
 4507SOL     OW24979   0.484   2.777   7.088 -0.1070 -0.5652  0.0029
 4507SOL    HW124980   0.422   2.821   7.146  1.1498 -0.2377  1.0820
 4507SOL    HW224981   0.483   2.686   7.118  0.9119 -0.5442  0.0884
 4508SOL     OW24982   1.535   1.780  14.189 -0.0325  0.2190  0.0141
 4508SOL    HW124983   1.580   1.849  14.237 -1.4488  0.5254  0.9082
 4508SOL    HW224984   1.575   1.703  14.229 -3.6683 -1.9113 -0.4335
 4509SOL     OW24985   0.242   4.258   5.459  0.2896 -0.5402  0.0827
 4509SOL    HW124986   0.185   4.181   5.455 -0.0561 -0.3639  1.3599
 4509SOL    HW224987   0.185   4.312   5.515  0.4519 -1.1919  0.8650
 4510SOL     OW24988   3.334   2.516   8.900 -0.6313 -0.1195  0.4479
 4510SOL    HW124989   3.401   2.569   8.942 -0.1253  0.0482 -0.5726
 4510SOL    HW224990   3.267   2.584   8.892 -1.3194 -0.8947 -0.3572
 4511SOL     OW24991   3.827   0.887   7.661  0.6450 -0.1609 -0.1222
 4511SOL    HW124992   3.817   0.981   7.643 -0.1950 -0.1515  0.4207
 4511SOL    HW224993   3.801   0.888   7.753 -1.5672  1.0417 -0.7327
 4512SOL     OW24994   2.254   0.897  11.320  0.3922 -0.5239 -0.0720
 4512SOL    HW124995   2.334   0.937  11.287 -0.0994  0.0098 -0.6016
 4512SOL    HW224996   2.231   0.859  11.235 -1.6184 -1.0555  0.7044
 4513SOL     OW24997   1.682   4.307   6.978  0.1111  0.4396 -0.0410
 4513SOL    HW124998   1.768   4.302   7.019  0.4962 -1.3627 -1.0811
 4513SOL    HW224999   1.710   4.286   6.889  0.8245 -1.5680  0.6505
 4514SOL     OW25000   3.390   0.755   2.400 -0.2276 -0.1782 -0.0153
 4514SOL    HW125001   3.343   0.834   2.375  0.9567 -0.0380 -1.8211
 4514SOL    HW225002   3.387   0.700   2.322  0.3894 -0.5475  0.2147
 4515SOL     OW25003   0.221   1.573   9.662  0.0664 -0.1590  0.2522
 4515SOL    HW125004   0.254   1.508   9.599  2.1617  0.5167  0.6424
 4515SOL    HW225005   0.132   1.579   9.627  0.0349  0.1856  0.3957
 4516SOL     OW25006   2.375   3.563   3.150 -0.0795  0.0940 -0.9649
 4516SOL    HW125007   2.466   3.586   3.129 -0.2421  2.6692  1.1575
 4516SOL    HW225008   2.324   3.636   3.116  0.3371  2.8887  4.3710
 4517SOL     OW25009   4.305   0.753  16.475  0.4270  0.0406 -0.0158
 4517SOL    HW125010   4.353   0.672  16.464 -1.2153 -0.9278 -0.0249
 4517SOL    HW225011   4.381   0.808  16.459  0.6063 -0.1237  0.2700
 4518SOL     OW25012   4.383   4.441   7.816  0.5280  0.1751  0.2723
 4518SOL    HW125013   4.451   4.415   7.754  1.2952  0.3578  1.0349
 4518SOL    HW225014   4.422   4.520   7.854 -0.7064 -0.7141  3.3938
 4519SOL     OW25015   0.138   0.192   8.439 -0.2188  0.4458 -0.5108
 4519SOL    HW125016   0.066   0.239   8.396  0.2315 -0.6964 -2.4739
 4519SOL    HW225017   0.161   0.259   8.503  2.3161  0.0240 -0.9952
 4520SOL     OW25018   3.087   4.153   1.045  0.3397  0.4930 -0.2246
 4520SOL    HW125019   3.016   4.138   0.983  0.0209  0.9461  0.0283
 4520SOL    HW225020   3.121   4.063   1.041 -1.1685  0.0050 -1.9325
 4521SOL     OW25021   3.456   4.475   6.740 -0.6377 -0.6957  0.4343
 4521SOL    HW125022   3.487   4.515   6.822  2.0578 -1.2871 -0.2802
 4521SOL    HW225023   3.363   4.456   6.752 -0.5583 -1.2920  0.1143
 4522SOL     OW25024   0.930   3.448   2.758 -0.0078  0.0800  0.0112
 4522SOL    HW125025   1.005   3.477   2.809  0.5293 -1.8409  0.3161
 4522SOL    HW225026   0.975   3.395   2.692 -0.8152  0.4112 -0.8165
 4523SOL     OW25027   3.047   3.513   0.686  0.0033  0.0786 -0.0058
 4523SOL    HW125028   3.068   3.513   0.593  1.4526 -0.1430  0.3203
 4523SOL    HW225029   3.084   3.595   0.720  0.2742 -0.0200 -0.0614
 4524SOL     OW25030   2.919   1.643  13.956  0.0656 -0.2561  0.0155
 4524SOL    HW125031   2.928   1.635  14.051 -2.0152 -1.8281  0.0927
 4524SOL    HW225032   2.833   1.686  13.963  1.5461  3.0665 -2.6643
 4525SOL     OW25033   2.990   2.520   3.569  0.1073 -0.3627 -0.1958
 4525SOL    HW125034   3.034   2.453   3.621  0.7239  1.6666  1.8600
 4525SOL    HW225035   3.019   2.504   3.479 -1.0577 -0.6068 -0.5269
 4526SOL     OW25036   4.101   1.795   4.311  0.0334 -0.5623 -0.6206
 4526SOL    HW125037   4.195   1.784   4.326 -0.6806 -0.6441  3.7106
 4526SOL    HW225038   4.064   1.724   4.363  0.5681  0.8551  1.6690
 4527SOL     OW25039   4.002   0.241   2.934 -0.2139 -0.2024  0.3242
 4527SOL    HW125040   4.046   0.157   2.922 -0.1800 -0.3388  1.4050
 4527SOL    HW225041   4.057   0.303   2.886 -0.3165 -1.1039 -0.9669
 4528SOL     OW25042   1.531   2.247  16.783 -0.1518 -0.1897 -0.2424
 4528SOL    HW125043   1.571   2.325  16.821  2.0350 -1.2561 -0.3296
 4528SOL    HW225044   1.436   2.259  16.780  0.0315  1.2698 -0.0905
 4529SOL     OW25045   2.762   2.823   6.601  0.2323 -0.1043 -0.1864
 4529SOL    HW125046   2.826   2.892   6.586  2.3645 -2.0369  0.1467
 4529SOL    HW225047   2.723   2.860   6.681  0.3241 -1.6435  0.5634
 4530SOL     OW25048   3.125   1.610   2.020  0.7679  0.9045  0.0118
 4530SOL    HW125049   3.142   1.652   2.104  1.1243 -1.0040  0.9058
 4530SOL    HW225050   3.085   1.530   2.053  1.2197 -0.1298 -1.9058
 4531SOL     OW25051   4.305   2.449   7.693  0.1514 -0.3660 -0.3073
 4531SOL    HW125052   4.277   2.362   7.667 -0.2457  0.2014 -1.7875
 4531SOL    HW225053   4.248   2.471   7.767  0.5178 -0.5701  0.0344
 4532SOL     OW25054   1.640   2.008   2.046 -0.2484 -0.4340 -0.5504
 4532SOL    HW125055   1.605   1.920   2.030  0.5440 -0.6348 -1.1880
 4532SOL    HW225056   1.564   2.066   2.043 -0.1968 -0.4074 -1.3694
 4533SOL     OW25057   1.477   0.120   2.138 -0.0778  0.5089  0.0696
 4533SOL    HW125058   1.496   0.087   2.050 -1.8585 -0.0792 -0.1135
 4533SOL    HW225059   1.492   0.041   2.191 -0.5643 -0.3322 -1.0394
 4534SOL     OW25060   1.929   3.560  12.485 -0.0053  0.1245 -0.3065
 4534SOL    HW125061   1.895   3.485  12.436 -0.5604  0.6962 -0.8020
 4534SOL    HW225062   2.001   3.586  12.427 -0.1306  0.7976 -0.1578
 4535SOL     OW25063   0.842   0.849   5.538  0.4218 -0.1960 -0.0143
 4535SOL    HW125064   0.919   0.793   5.550 -0.8082 -1.9419 -0.3060
 4535SOL    HW225065   0.887   0.927   5.506 -0.9995  0.7348  0.2675
 4536SOL     OW25066   0.692   1.630  12.916  0.3091  0.5226 -0.3979
 4536SOL    HW125067   0.677   1.543  12.879  1.4851 -0.2938  1.0586
 4536SOL    HW225068   0.604   1.668  12.922  0.7354  1.5616 -0.8205
 4537SOL     OW25069   1.295   4.545  10.765  0.3504 -0.2216  0.4554
 4537SOL    HW125070   1.384   4.512  10.773  0.7929  0.4853 -1.5242
 4537SOL    HW225071   1.242   4.473  10.799  0.6967 -0.6028  0.1880
 4538SOL     OW25072   3.578   2.400   6.259  0.7122  0.6153 -0.3593
 4538SOL    HW125073   3.619   2.479   6.222  0.4644 -0.4035 -2.8019
 4538SOL    HW225074   3.486   2.426   6.264  0.2468 -1.3286  0.8747
 4539SOL     OW25075   2.737   3.503   3.359 -0.5345 -0.0832  0.3186
 4539SOL    HW125076   2.808   3.439   3.360 -0.4651  0.0206  1.7832
 4539SOL    HW225077   2.669   3.460   3.307 -1.5612  0.0536  1.5419
 4540SOL     OW25078   4.717   2.628   7.150 -0.1751  0.0747  0.2364
 4540SOL    HW125079   4.644   2.618   7.211 -2.8775  0.4138 -2.9267
 4540SOL    HW225080   0.036   2.542   7.162 -0.7230 -0.3527 -0.9410
 4541SOL     OW25081   1.862   3.980   6.780 -0.1581  0.0033 -0.1181
 4541SOL    HW125082   1.839   3.898   6.738 -0.3576 -0.0175  0.0334
 4541SOL    HW225083   1.858   3.958   6.873 -0.0587 -1.4632 -0.4684
 4542SOL     OW25084   2.977   1.534   8.374  1.1663 -0.4170  0.4853
 4542SOL    HW125085   3.035   1.460   8.353  1.0484 -0.4917  0.4198
 4542SOL    HW225086   2.911   1.488   8.425  0.6336  0.5250  0.6293
 4543SOL     OW25087   1.694   1.619  17.189 -0.0884  0.8428 -0.0106
 4543SOL    HW125088   1.670   1.552  17.124  1.1015  0.5829 -0.1921
 4543SOL    HW225089   1.739   1.681  17.132  0.6922 -1.7988 -2.3040
 4544SOL     OW25090   0.299   1.898   1.955 -0.3321  0.9411 -0.1595
 4544SOL    HW125091   0.350   1.979   1.962 -1.0357  1.4713 -1.2603
 4544SOL    HW225092   0.358   1.866   1.887  0.2836  0.8131  0.4364
 4545SOL     OW25093   0.155   4.567   0.532 -0.7075 -0.3601 -0.0016
 4545SOL    HW125094   0.147   4.552   0.626 -1.2396  0.3016  0.0585
 4545SOL    HW225095   0.230   4.626   0.522  0.3395 -1.4711  1.2975
 4546SOL     OW25096   2.086   2.445   4.999  0.3796  0.4014  0.1866
 4546SOL    HW125097   2.055   2.508   4.933 -2.5929 -1.3829 -0.1169
 4546SOL    HW225098   2.002   2.416   5.035  0.0313 -0.3034 -1.1792
 4547SOL     OW25099   0.801   2.567   9.884  0.2603  0.0350 -0.2562
 4547SOL    HW125100   0.706   2.558   9.890  0.2336 -1.2731 -2.6469
 4547SOL    HW225101   0.788   2.619   9.805 -1.8878  0.4574  0.3859
 4548SOL     OW25102   1.474   0.097   5.991  0.0797  0.2573  0.7379
 4548SOL    HW125103   1.564   0.105   6.020  0.7086  0.5777 -1.3180
 4548SOL    HW225104   1.470   0.181   5.946  3.0764  0.3469  0.6875
 4549SOL     OW25105   2.336   2.456   1.301 -0.0791  0.3527 -0.5441
 4549SOL    HW125106   2.394   2.441   1.375 -0.3010  1.7978 -0.0688
 4549SOL    HW225107   2.367   2.542   1.273  0.7468 -0.0195 -0.7777
 4550SOL     OW25108   3.431   3.503   7.337 -0.2952 -0.1312 -0.1592
 4550SOL    HW125109   3.355   3.507   7.395  0.2649 -0.8948  0.6303
 4550SOL    HW225110   3.457   3.413   7.355  1.4841  0.3968 -0.0271
 4551SOL     OW25111   4.025   0.318   8.138  0.2276 -0.6619  0.6086
 4551SOL    HW125112   4.024   0.273   8.222  1.9724 -0.1859  0.8816
 4551SOL    HW225113   4.013   0.406   8.174  0.8706  0.5473 -2.0540
 4552SOL     OW25114   0.815   2.433   8.463 -0.6103 -0.2474  0.0225
 4552SOL    HW125115   0.863   2.374   8.405 -0.3737  1.0407 -1.0965
 4552SOL    HW225116   0.732   2.452   8.418 -0.3538 -0.1945 -0.4245
 4553SOL     OW25117   1.356   1.801   8.398 -0.1432  0.2653 -0.0842
 4553SOL    HW125118   1.300   1.809   8.475  1.0567 -2.2666  1.0594
 4553SOL    HW225119   1.436   1.763   8.435  0.8182 -0.4062 -2.8365
 4554SOL     OW25120   4.203   0.050  16.113  0.3038 -0.1791 -0.7736
 4554SOL    HW125121   4.163   0.071  16.029  0.5727  1.6082 -0.4471
 4554SOL    HW225122   4.188   4.676  16.121 -2.3245  0.3369  0.1411
 4555SOL     OW25123   1.718   3.871  14.056  0.5416 -0.3340  0.0146
 4555SOL    HW125124   1.704   3.926  13.979  2.9311 -0.2700 -0.3729
 4555SOL    HW225125   1.639   3.893  14.105  1.4070 -1.4500  1.9223
 4556SOL     OW25126   0.904   2.579   7.232  0.3769 -0.2665  0.0773
 4556SOL    HW125127   0.898   2.663   7.185  1.9963  0.8341  1.8390
 4556SOL    HW225128   0.829   2.531   7.196  1.8878 -1.4830 -1.3945
 4557SOL     OW25129   3.914   2.490  16.266  0.3576  0.2436 -0.2499
 4557SOL    HW125130   3.831   2.460  16.229 -0.1594  1.6227 -0.2017
 4557SOL    HW225131   3.923   2.567  16.209  0.4086  1.2086  1.0824
 4558SOL     OW25132   4.704   2.246   7.073 -0.1136  0.1597 -0.2603
 4558SOL    HW125133   4.660   2.175   7.026 -1.5720  1.2840 -0.5688
 4558SOL    HW225134   0.075   2.228   7.055  0.2504  1.6480  0.1241
 4559SOL     OW25135   4.303   2.977  15.593  0.2400  0.2816  0.1124
 4559SOL    HW125136   4.294   3.052  15.534  1.1310 -0.2150 -0.6576
 4559SOL    HW225137   4.266   2.910  15.536 -2.4434  0.6041  1.4880
 4560SOL     OW25138   3.071   1.067  14.447 -0.5809  0.3872 -1.0027
 4560SOL    HW125139   3.021   1.031  14.374  0.3393  0.2283 -1.5661
 4560SOL    HW225140   3.014   1.044  14.520  2.4177 -3.0205  0.3049
 4561SOL     OW25141   1.144   4.103   7.279 -0.1169 -0.1632  0.8429
 4561SOL    HW125142   1.206   4.055   7.335  0.1934 -0.7227  0.0117
 4561SOL    HW225143   1.067   4.121   7.333 -0.5779  0.2899  0.0370
 4562SOL     OW25144   4.007   4.005   6.600  0.1737 -0.2003  0.7429
 4562SOL    HW125145   4.092   4.042   6.574 -0.3911  0.3513 -0.3288
 4562SOL    HW225146   3.942   4.068   6.569 -0.4951 -0.6975  1.1569
 4563SOL     OW25147   1.380   0.363   7.640 -0.1725  0.1064  0.2634
 4563SOL    HW125148   1.367   0.348   7.734 -0.1022 -0.0953  0.2403
 4563SOL    HW225149   1.468   0.326   7.629 -0.2681 -0.3226  0.9488
 4564SOL     OW25150   4.325   0.314   5.075  0.3256 -0.2784 -0.3477
 4564SOL    HW125151   4.278   0.324   4.992 -0.5578 -0.3652  0.1442
 4564SOL    HW225152   4.409   0.352   5.050  0.0592 -0.2488 -1.2024
 4565SOL     OW25153   0.521   0.921   0.374 -0.5274 -0.2174  0.7988
 4565SOL    HW125154   0.523   0.921   0.469  1.5070 -1.5500  0.7647
 4565SOL    HW225155   0.502   0.828   0.358  1.7568 -0.0827 -2.8202
 4566SOL     OW25156   1.706   3.495  11.677 -0.2522  0.3342  0.2541
 4566SOL    HW125157   1.789   3.543  11.675  0.0581 -0.2329 -0.5392
 4566SOL    HW225158   1.687   3.501  11.770 -0.8866  1.0414  0.0760
 4567SOL     OW25159   3.241   1.288   9.129 -0.5245  0.1412 -0.0761
 4567SOL    HW125160   3.180   1.307   9.200 -0.0650  1.6387 -0.0886
 4567SOL    HW225161   3.303   1.229   9.171 -1.2145 -1.4157 -1.2574
 4568SOL     OW25162   2.951   1.106  16.561 -0.1532  0.1992  0.1919
 4568SOL    HW125163   2.907   1.090  16.477 -1.3739 -0.1645  0.8879
 4568SOL    HW225164   2.920   1.028  16.608  0.4559 -0.6884 -0.8751
 4569SOL     OW25165   1.422   4.688  16.866  0.1210  0.3040  0.1716
 4569SOL    HW125166   1.401   4.594  16.871  1.5437 -0.0095  0.3396
 4569SOL    HW225167   1.335   4.715  16.838 -0.4442 -1.7216 -0.0416
 4570SOL     OW25168   0.426   2.860   6.620  0.1961 -0.2795 -0.1799
 4570SOL    HW125169   0.393   2.796   6.557  0.1595 -0.8697  0.4354
 4570SOL    HW225170   0.410   2.818   6.705 -0.1244  1.3094  0.5485
 4571SOL     OW25171   4.039   1.896  13.243  0.0428 -0.0694 -0.1003
 4571SOL    HW125172   4.020   1.836  13.315  0.1732 -0.4059 -0.3452
 4571SOL    HW225173   4.055   1.828  13.177  1.8744 -0.3206  0.6209
 4572SOL     OW25174   4.349   3.281   8.615 -0.8639 -0.7649  0.1491
 4572SOL    HW125175   4.298   3.202   8.627  1.4701 -2.1280  1.1762
 4572SOL    HW225176   4.373   3.305   8.705  1.3048 -0.3565 -0.5311
 4573SOL     OW25177   4.601   1.451   3.641  0.3476  0.6580  0.5866
 4573SOL    HW125178   4.574   1.540   3.662 -0.5531  0.4059  0.4821
 4573SOL    HW225179   4.612   1.410   3.727 -2.1909 -2.5624 -0.6168
 4574SOL     OW25180   1.656   0.072   8.547  0.4167  0.4994  0.0819
 4574SOL    HW125181   1.600   0.141   8.584  1.4001  1.6447 -0.5625
 4574SOL    HW225182   1.637   0.074   8.453  0.0097  1.5966  0.1925
 4575SOL     OW25183   0.135   3.640   1.532 -0.3638 -0.4398  0.3319
 4575SOL    HW125184   0.094   3.581   1.468  0.3701 -0.0596 -0.4905
 4575SOL    HW225185   0.063   3.669   1.588 -1.0505  0.7693 -1.1815
 4576SOL     OW25186   4.211   3.674  10.063  0.2011 -0.4779  0.2607
 4576SOL    HW125187   4.294   3.706  10.101  1.1302 -1.9557 -0.5547
 4576SOL    HW225188   4.191   3.604  10.124 -1.0570  0.4963  0.9781
 4577SOL     OW25189   2.111   3.088   9.324 -0.0053 -0.5529  0.0833
 4577SOL    HW125190   2.195   3.135   9.326 -1.2237  1.6129  0.1576
 4577SOL    HW225191   2.050   3.158   9.346 -0.7907 -1.6559  1.4029
 4578SOL     OW25192   0.931   0.983   0.347 -0.3820  0.1633 -0.4334
 4578SOL    HW125193   1.007   0.937   0.311 -0.6581 -0.6626  0.0119
 4578SOL    HW225194   0.908   0.904   0.396  2.3883 -0.8270 -0.6996
 4579SOL     OW25195   2.423   1.847   5.962  0.4473  0.3535 -0.2417
 4579SOL    HW125196   2.406   1.846   6.056 -0.6910  0.5723 -0.4495
 4579SOL    HW225197   2.409   1.753   5.950 -4.1635  1.1287 -0.6767
 4580SOL     OW25198   1.156   2.308   3.466  0.0885  0.3738 -0.4300
 4580SOL    HW125199   1.098   2.372   3.425 -1.3090 -0.4808  0.2544
 4580SOL    HW225200   1.208   2.350   3.535  0.4399 -1.6366  0.4996
 4581SOL     OW25201   3.609   0.554  10.359 -0.2563  0.6835 -0.2643
 4581SOL    HW125202   3.648   0.642  10.362  0.7498  0.2568 -0.8363
 4581SOL    HW225203   3.661   0.523  10.285  1.5262  0.2770  1.1623
 4582SOL     OW25204   3.027   3.314  15.150 -0.2899  0.4502  0.0364
 4582SOL    HW125205   2.957   3.272  15.101  1.1182 -0.7881 -0.9134
 4582SOL    HW225206   2.988   3.309  15.237  0.2326  1.7342  0.3461
 4583SOL     OW25207   1.407   0.317   1.420  0.3656 -0.2167  1.0197
 4583SOL    HW125208   1.456   0.344   1.342 -1.7084  1.0743  0.1828
 4583SOL    HW225209   1.344   0.383   1.450 -3.2557 -2.0996 -2.4827
 4584SOL     OW25210   1.228   3.465   9.787  0.1471  0.1355 -0.2608
 4584SOL    HW125211   1.191   3.396   9.732  0.9311 -0.8982  0.5381
 4584SOL    HW225212   1.312   3.480   9.743 -0.6533  1.3456 -1.4026
 4585SOL     OW25213   3.712   0.281   1.572  0.1916  0.5092  0.1305
 4585SOL    HW125214   3.756   0.203   1.539 -0.5813  0.2311 -0.2348
 4585SOL    HW225215   3.621   0.259   1.552  0.1054 -0.9435  2.1033
 4586SOL     OW25216   0.783   0.003   0.508  0.3153 -0.6477 -0.0095
 4586SOL    HW125217   0.878   0.003   0.518  0.3988 -2.8660 -0.8433
 4586SOL    HW225218   0.751   4.636   0.486  0.4775 -0.0826 -2.5467
 4587SOL     OW25219   1.683   2.020  16.792  0.0009 -0.8104  0.3616
 4587SOL    HW125220   1.645   2.108  16.782 -1.2788 -1.1677  2.0524
 4587SOL    HW225221   1.647   1.983  16.712 -1.8032  1.4474  0.1224
 4588SOL     OW25222   2.786   1.146   8.273 -0.2371  0.1237 -0.1152
 4588SOL    HW125223   2.696   1.138   8.307 -0.6315  2.3098 -0.6366
 4588SOL    HW225224   2.833   1.135   8.355 -0.6762  0.4588  0.1813
 4589SOL     OW25225   1.271   4.515  12.263  0.0701 -0.1748 -0.1327
 4589SOL    HW125226   1.186   4.523  12.307  0.2160 -0.8910  0.2717
 4589SOL    HW225227   1.322   4.567  12.325 -0.0517 -0.6018  0.3270
 4590SOL     OW25228   2.349   3.592   7.355  0.0912 -0.2988 -0.9708
 4590SOL    HW125229   2.361   3.679   7.317 -0.4533 -0.6395 -1.9281
 4590SOL    HW225230   2.261   3.601   7.390 -0.2758  0.5462 -2.1211
 4591SOL     OW25231   3.891   3.982   9.619 -0.5667  0.2011 -0.4950
 4591SOL    HW125232   3.971   3.936   9.645 -2.3835 -2.6960 -0.0470
 4591SOL    HW225233   3.895   4.045   9.690  0.2542 -0.7853  0.3297
 4592SOL     OW25234   4.373   2.982   2.055 -0.4761 -0.2409  0.0810
 4592SOL    HW125235   4.365   2.913   1.990 -1.6611 -1.5598  1.6183
 4592SOL    HW225236   4.455   2.955   2.097 -1.2917 -1.5764  0.8266
 4593SOL     OW25237   0.333   1.826   2.681 -0.1887  0.6298  0.1925
 4593SOL    HW125238   0.294   1.772   2.750  0.3282 -0.5003 -0.4091
 4593SOL    HW225239   0.256   1.840   2.626 -0.2154  2.2308  0.6273
 4594SOL     OW25240   1.470   0.574   3.058 -0.1164  0.7479  0.2334
 4594SOL    HW125241   1.493   0.578   2.965 -0.2007  0.3268  0.1940
 4594SOL    HW225242   1.464   0.667   3.081  0.0072  0.8070  0.0270
 4595SOL     OW25243   3.048   0.305   4.272 -0.1633 -0.5465 -0.3589
 4595SOL    HW125244   3.120   0.248   4.245 -3.0150 -3.4089 -1.7404
 4595SOL    HW225245   2.971   0.254   4.249 -1.8113  1.0112  1.6919
 4596SOL     OW25246   3.991   3.733   6.653 -0.5710 -0.1320 -0.0157
 4596SOL    HW125247   4.057   3.687   6.602 -0.9424 -1.6108  0.8237
 4596SOL    HW225248   4.018   3.825   6.656 -2.4052  0.4128  0.0407
 4597SOL     OW25249   0.916   0.211   4.612  0.0367  0.7571  0.5046
 4597SOL    HW125250   0.866   0.150   4.557  0.7421  0.7227 -0.0977
 4597SOL    HW225251   0.871   0.201   4.696  0.7967 -1.3995  0.6567
 4598SOL     OW25252   2.848   1.165   3.769  0.0348 -0.4662 -0.2488
 4598SOL    HW125253   2.886   1.203   3.848  0.4848 -0.3468 -0.5271
 4598SOL    HW225254   2.896   1.209   3.699  1.3349 -1.4681  0.0091
 4599SOL     OW25255   3.742   4.222   5.995  0.2372  0.1214 -0.3912
 4599SOL    HW125256   3.720   4.139   5.954  2.1384 -0.4564 -0.2196
 4599SOL    HW225257   3.837   4.222   6.000  0.1568 -0.2060  1.1440
 4600SOL     OW25258   3.191   4.626  13.173 -0.3165 -0.0973  0.1120
 4600SOL    HW125259   3.241   4.704  13.196  2.2400 -1.5745 -0.4042
 4600SOL    HW225260   3.253   4.597  13.105 -2.6207  0.8700 -2.3890
 4601SOL     OW25261   1.498   4.022   3.864  0.5897  0.1661 -0.5313
 4601SOL    HW125262   1.484   4.093   3.927  1.6603 -1.2077  1.2537
 4601SOL    HW225263   1.538   4.073   3.793  0.0622 -0.0165 -0.9587
 4602SOL     OW25264   3.478   3.299   3.625 -0.0122 -1.4161 -0.0366
 4602SOL    HW125265   3.507   3.334   3.541  0.7758 -0.1917  0.7495
 4602SOL    HW225266   3.567   3.289   3.660 -0.4649 -1.2851  1.1444
 4603SOL     OW25267   2.675   0.878  12.077 -0.7704  0.2889 -0.3405
 4603SOL    HW125268   2.592   0.836  12.055 -1.0184  0.9001 -0.5624
 4603SOL    HW225269   2.648   0.894  12.168 -1.8103 -3.4382 -0.0235
 4604SOL     OW25270   3.488   0.712   8.733 -0.1699 -0.5360  0.4309
 4604SOL    HW125271   3.560   0.773   8.750  0.8072 -1.8236  0.9307
 4604SOL    HW225272   3.407   0.749   8.769 -1.4576 -1.4426 -1.5245
 4605SOL     OW25273   1.442   2.375   8.086 -0.2881  0.3380 -0.0160
 4605SOL    HW125274   1.478   2.453   8.129  2.4488 -2.0209  1.9575
 4605SOL    HW225275   1.489   2.306   8.133 -3.3019 -1.6617  0.0854
 4606SOL     OW25276   4.055   0.633   3.213  0.0805  0.0759  0.3620
 4606SOL    HW125277   3.978   0.580   3.195 -0.9824  1.0767  2.0118
 4606SOL    HW225278   4.109   0.562   3.248  1.6658  0.1306 -1.9740
 4607SOL     OW25279   2.062   0.783   6.912  0.4384 -0.5194 -0.0809
 4607SOL    HW125280   1.985   0.727   6.901  0.0281  0.2157 -0.8893
 4607SOL    HW225281   2.097   0.760   6.998  3.0076 -2.5952 -1.6494
 4608SOL     OW25282   4.615   4.360   6.863  0.1670 -0.2187 -0.2933
 4608SOL    HW125283   4.543   4.420   6.844  0.7498  0.4348 -0.4252
 4608SOL    HW225284   4.664   4.371   6.782  2.9471  2.1843  1.7227
 4609SOL     OW25285   3.717   0.069   2.240 -0.5869 -0.1019  0.0658
 4609SOL    HW125286   3.786   0.072   2.173 -0.6218 -0.5282  0.0098
 4609SOL    HW225287   3.762   0.009   2.300 -1.7111 -0.8564  0.1528
 4610SOL     OW25288   3.751   3.997   2.847 -0.5111 -0.0924 -0.1310
 4610SOL    HW125289   3.715   3.976   2.761 -1.5769  0.6882  0.1222
 4610SOL    HW225290   3.701   4.068   2.886 -0.9180  0.8829 -2.4233
 4611SOL     OW25291   0.996   3.249   8.795  0.6283  0.5375 -0.2465
 4611SOL    HW125292   1.061   3.313   8.823  0.8601  1.0039 -1.8476
 4611SOL    HW225293   0.919   3.305   8.786  1.7464  1.9714 -0.9130
 4612SOL     OW25294   3.637   0.475   4.914  0.7632  0.0778 -0.9786
 4612SOL    HW125295   3.663   0.518   4.833  1.3332  3.3263  0.9171
 4612SOL    HW225296   3.723   0.438   4.935 -1.0153 -1.3863  3.9037
 4613SOL     OW25297   0.278   2.860  15.968  0.2452 -0.4574 -0.0840
 4613SOL    HW125298   0.300   2.802  15.895 -1.4461 -0.8701 -0.2547
 4613SOL    HW225299   0.262   2.947  15.931 -0.2362 -0.6477 -0.3188
 4614SOL     OW25300   3.108   3.356   2.315  0.3770 -0.3548 -0.0958
 4614SOL    HW125301   3.149   3.377   2.231 -0.2801  0.6985 -0.1548
 4614SOL    HW225302   3.178   3.389   2.372 -0.4105  0.7603  0.2389
 4615SOL     OW25303   4.627   2.371   8.563  0.3091 -0.5026 -0.2275
 4615SOL    HW125304   4.593   2.314   8.633  0.8218 -1.4552 -0.7569
 4615SOL    HW225305   4.620   2.449   8.618 -3.1798 -1.1149  0.1570
 4616SOL     OW25306   2.991   0.049   4.786  0.3666  0.1108  0.1482
 4616SOL    HW125307   3.020   0.141   4.783 -0.9956  0.5262 -0.4257
 4616SOL    HW225308   3.024   0.027   4.873 -0.6161  2.3000  1.0813
 4617SOL     OW25309   4.141   4.714   7.048 -0.3203 -0.2158 -0.5149
 4617SOL    HW125310   4.144   0.052   6.973 -0.3357  1.3124  0.6852
 4617SOL    HW225311   4.046   4.703   7.051 -0.3718  0.1922 -0.7320
 4618SOL     OW25312   3.875   0.004  12.375 -0.3890 -0.7391 -0.4014
 4618SOL    HW125313   3.871   0.084  12.324  1.1024  0.5655  1.5087
 4618SOL    HW225314   3.885   0.037  12.465 -0.9905 -1.6648  0.0010
 4619SOL     OW25315   3.923   1.879  13.941 -0.0309  0.0969 -0.2219
 4619SOL    HW125316   4.002   1.826  13.930  0.3673  0.6172  0.0860
 4619SOL    HW225317   3.871   1.840  14.010 -1.2989  0.6699 -0.8587
 4620SOL     OW25318   3.112   1.130   2.867  0.1567 -0.1490 -0.1664
 4620SOL    HW125319   3.036   1.108   2.813  0.9167 -0.0076 -1.2825
 4620SOL    HW225320   3.079   1.097   2.951  0.4592  0.3493  0.1477
 4621SOL     OW25321   1.795   4.067   5.597  0.2331  0.2387  0.0065
 4621SOL    HW125322   1.715   4.022   5.568  0.6802  0.7891 -2.0182
 4621SOL    HW225323   1.844   3.987   5.616  3.4769  2.3821  0.6954
 4622SOL     OW25324   1.885   1.166   8.980 -0.2329 -0.2612 -0.3480
 4622SOL    HW125325   1.852   1.084   9.015 -1.0179  0.3932  0.4552
 4622SOL    HW225326   1.823   1.232   9.012  1.8172  1.0531  0.9384
 4623SOL     OW25327   4.163   2.289  14.781 -0.5258  0.1442 -0.5734
 4623SOL    HW125328   4.139   2.200  14.758  3.3771 -0.3020 -2.9427
 4623SOL    HW225329   4.200   2.311  14.695  1.4171  1.4664  0.5831
 4624SOL     OW25330   2.019   1.042   4.211 -0.2981  0.3465 -0.1189
 4624SOL    HW125331   2.089   1.074   4.154 -0.6653 -0.1268 -0.8267
 4624SOL    HW225332   2.065   1.015   4.291  0.0773 -0.9977 -0.7924
 4625SOL     OW25333   4.332   4.155   4.837 -0.7960 -0.0339 -0.5449
 4625SOL    HW125334   4.259   4.171   4.777  0.0437 -0.9988 -1.8039
 4625SOL    HW225335   4.288   4.140   4.921 -0.5296  0.7827 -0.2593
 4626SOL     OW25336   1.017   1.439   3.452 -0.1916  0.0999  0.0188
 4626SOL    HW125337   1.066   1.521   3.460 -1.3320  0.6843  0.9016
 4626SOL    HW225338   0.939   1.454   3.505 -1.3481  2.1477 -2.2334
 4627SOL     OW25339   1.277   0.608  17.571 -0.3944  0.8809 -0.3149
 4627SOL    HW125340   1.275   0.672  17.500 -2.6515  0.5853 -0.5240
 4627SOL    HW225341   1.245   0.530  17.526 -0.8363  0.4131  0.8202
 4628SOL     OW25342   3.458   3.957  10.076  0.1710 -0.0593  0.1127
 4628SOL    HW125343   3.545   3.946  10.113  0.1026  0.7638  0.5166
 4628SOL    HW225344   3.485   3.981   9.987 -2.9489 -1.4652 -1.2270
 4629SOL     OW25345   2.312   2.753   8.891 -0.9239  0.0647  0.2256
 4629SOL    HW125346   2.318   2.718   8.980 -1.8333 -4.8865 -1.6902
 4629SOL    HW225347   2.382   2.704   8.849  0.2131  0.3832  1.7449
 4630SOL     OW25348   1.583   2.403  15.360 -0.4508  0.4768 -0.1340
 4630SOL    HW125349   1.608   2.417  15.268 -0.7054  1.0785 -0.1082
 4630SOL    HW225350   1.668   2.415  15.403 -1.8300  2.7469  1.9350
 4631SOL     OW25351   2.950   2.378  15.166 -0.6933 -0.2057 -0.2504
 4631SOL    HW125352   2.963   2.358  15.073 -2.1169 -0.9406 -0.2957
 4631SOL    HW225353   3.037   2.358  15.199 -0.1936  0.8025 -0.9641
 4632SOL     OW25354   4.158   3.510   5.660 -1.1084  0.7322  0.1532
 4632SOL    HW125355   4.188   3.423   5.685 -2.8488  0.8635  2.7370
 4632SOL    HW225356   4.228   3.554   5.611 -0.7535  0.8709  0.7828
 4633SOL     OW25357   2.916   2.124   3.419  0.4701 -0.3364 -0.2333
 4633SOL    HW125358   2.823   2.123   3.442  0.0998  1.4946 -1.6214
 4633SOL    HW225359   2.949   2.113   3.508 -2.3946 -3.5865  0.4295
 4634SOL     OW25360   3.174   1.820   6.538 -0.3834  0.2166  0.5424
 4634SOL    HW125361   3.089   1.847   6.571 -0.4611 -0.9085  1.2671
 4634SOL    HW225362   3.146   1.824   6.446 -1.3881  3.4687  1.0026
 4635SOL     OW25363   0.450   3.191   7.987  0.1618 -0.0633 -0.5285
 4635SOL    HW125364   0.494   3.220   7.907  0.1102 -0.1438 -0.5847
 4635SOL    HW225365   0.421   3.274   8.025  1.8908  0.2558  0.1244
 4636SOL     OW25366   0.751   2.741   9.664 -0.3238 -0.0696 -0.3511
 4636SOL    HW125367   0.689   2.686   9.616  1.3186 -1.8785 -0.4096
 4636SOL    HW225368   0.790   2.782   9.587 -2.8040  2.1975 -0.4120
 4637SOL     OW25369   1.503   4.639  15.566  0.0631  0.3425  0.5227
 4637SOL    HW125370   1.419   4.674  15.538 -0.7439 -0.2071  2.2203
 4637SOL    HW225371   1.525   4.598  15.482  0.9783  0.6729  0.6021
 4638SOL     OW25372   3.182   1.497   2.489 -0.0063  1.0437 -0.5816
 4638SOL    HW125373   3.206   1.583   2.524  3.3087 -0.0929 -0.0467
 4638SOL    HW225374   3.225   1.440   2.552 -0.5040  0.0690 -1.1309
 4639SOL     OW25375   4.273   3.080   0.886  0.6406 -0.3294 -0.0361
 4639SOL    HW125376   4.190   3.060   0.844  1.0155 -3.1854  0.6123
 4639SOL    HW225377   4.337   3.094   0.816  1.5945 -0.0827  0.8882
 4640SOL     OW25378   0.986   4.615   7.934  0.3071 -0.1395 -0.2802
 4640SOL    HW125379   0.922   4.562   7.885 -1.5866  1.3205  0.6330
 4640SOL    HW225380   1.040   4.552   7.982 -1.5448 -2.8064 -1.6469
 4641SOL     OW25381   4.608   0.567   7.828  0.0614  0.1536 -0.0000
 4641SOL    HW125382   4.671   0.512   7.875  0.2975 -1.3268 -2.0395
 4641SOL    HW225383   4.663   0.599   7.756  0.4245 -1.1907 -0.3144
 4642SOL     OW25384   3.188   1.831   2.268  0.6018  0.4694  0.1885
 4642SOL    HW125385   3.221   1.858   2.353  0.0256  1.6085  0.0496
 4642SOL    HW225386   3.109   1.886   2.271  0.3048  0.1182 -1.2125
 4643SOL     OW25387   2.108   2.497   4.562  0.3366 -0.1794 -0.1371
 4643SOL    HW125388   2.167   2.509   4.488  1.5712 -0.4313  0.8207
 4643SOL    HW225389   2.046   2.567   4.540  0.4828  0.3944  1.3146
 4644SOL     OW25390   2.325   0.120  14.719  0.1626  0.4297  0.6076
 4644SOL    HW125391   2.232   0.142  14.710  0.6022  1.4524 -1.3727
 4644SOL    HW225392   2.370   0.203  14.701  3.7620 -1.5599  0.4669
 4645SOL     OW25393   2.141   4.031   4.613  0.0397  0.2152  0.1448
 4645SOL    HW125394   2.093   4.086   4.675 -4.3766 -2.2042 -1.1244
 4645SOL    HW225395   2.063   3.996   4.569 -1.2877 -0.1651  2.8122
 4646SOL     OW25396   1.975   1.257   9.450 -0.6433  0.0884 -0.4077
 4646SOL    HW125397   1.956   1.207   9.530  0.2420 -1.0533 -0.9244
 4646SOL    HW225398   1.973   1.345   9.488 -1.5643 -0.8145  1.6406
 4647SOL     OW25399   2.283   3.610   9.717  0.7536 -0.2915 -0.5152
 4647SOL    HW125400   2.303   3.595   9.810  0.9207  1.3139 -0.2966
 4647SOL    HW225401   2.202   3.661   9.720  1.3034  0.4088  3.1232
 4648SOL     OW25402   1.873   0.786   4.390  0.0253  0.2731 -0.1467
 4648SOL    HW125403   1.939   0.744   4.335  0.8387  1.8960 -0.4031
 4648SOL    HW225404   1.787   0.770   4.350 -0.1863 -0.3891  0.5621
 4649SOL     OW25405   2.887   3.210   2.276  0.2165 -0.2032  0.2025
 4649SOL    HW125406   2.936   3.127   2.284  2.7132  1.4414  2.1232
 4649SOL    HW225407   2.946   3.276   2.313  0.1486 -0.2996  0.4842
 4650SOL     OW25408   0.444   0.651   0.370 -0.6382 -0.4865 -0.9084
 4650SOL    HW125409   0.373   0.590   0.389  0.2261 -1.0861  0.3949
 4650SOL    HW225410   0.443   0.654   0.274 -0.1640 -0.3355 -0.9066
 4651SOL     OW25411   1.664   3.422   6.046 -0.1532  0.5213  0.6094
 4651SOL    HW125412   1.700   3.352   5.992  0.1065  1.1574 -0.0434
 4651SOL    HW225413   1.726   3.484   6.007 -0.4072 -0.0662 -0.7141
 4652SOL     OW25414   4.642   3.154   3.067  0.1565  0.0939  0.0548
 4652SOL    HW125415   4.614   3.066   3.091  0.2611 -0.1880 -0.8709
 4652SOL    HW225416   0.003   3.128   3.025  1.1707  1.2447  1.3208
 4653SOL     OW25417   0.343   3.954  14.405 -0.5469 -0.0330  0.0811
 4653SOL    HW125418   0.317   3.945  14.497 -3.6760  0.7878 -0.7057
 4653SOL    HW225419   0.438   3.951  14.411 -0.5319  0.1237 -0.0757
 4654SOL     OW25420   0.898   3.098  10.176 -0.0364  0.0008  0.7050
 4654SOL    HW125421   0.974   3.151  10.196  0.9944 -1.7013  1.3160
 4654SOL    HW225422   0.881   3.051  10.258  1.0380  1.1637  1.5834
 4655SOL     OW25423   3.677   2.038   7.058  0.3595 -0.4712 -0.5012
 4655SOL    HW125424   3.632   1.977   6.999  0.7617 -0.9755 -0.2837
 4655SOL    HW225425   3.742   2.085   7.005 -0.9560  1.2411 -0.6274
 4656SOL     OW25426   3.012   2.736  16.779 -0.0004  0.4133 -0.2775
 4656SOL    HW125427   3.093   2.760  16.824  1.1365 -2.0868 -1.0246
 4656SOL    HW225428   2.953   2.794  16.828 -0.7846 -0.2324 -0.4547
 4657SOL     OW25429   3.134   0.033  13.970 -0.6015 -0.3492  0.0940
 4657SOL    HW125430   3.198   0.101  13.992 -1.5230  0.2965  0.7785
 4657SOL    HW225431   3.070   0.067  13.908  0.4731  1.0584 -0.2355
 4658SOL     OW25432   0.519   0.405   4.064  0.2894  0.0817 -0.8203
 4658SOL    HW125433   0.487   0.410   4.154  2.4290 -3.1121  0.1290
 4658SOL    HW225434   0.555   0.494   4.062  0.5946 -0.0501 -1.2491
 4659SOL     OW25435   3.536   2.291   4.013 -0.6202  0.0273 -0.5281
 4659SOL    HW125436   3.558   2.362   4.073 -3.2271  0.2096  0.1945
 4659SOL    HW225437   3.602   2.225   4.037 -1.5967  0.2472  2.6839
 4660SOL     OW25438   0.257   0.265   7.092 -0.6184 -0.4757 -0.0801
 4660SOL    HW125439   0.336   0.212   7.104 -1.1466 -1.0013  1.0967
 4660SOL    HW225440   0.301   0.350   7.089 -0.7449 -0.3695  1.1536
 4661SOL     OW25441   2.185   0.940   6.747 -0.4506  0.2887  0.0022
 4661SOL    HW125442   2.174   0.896   6.663 -2.9235  1.2462 -0.1750
 4661SOL    HW225443   2.159   0.871   6.808  0.3982  0.9950  1.1809
 4662SOL     OW25444   4.364   1.008  14.255  0.4159 -0.2792  0.0501
 4662SOL    HW125445   4.330   1.057  14.180  0.0894  0.0821  0.4370
 4662SOL    HW225446   4.286   0.961  14.284  0.2848 -1.7988 -2.7372
 4663SOL     OW25447   3.877   4.582   5.571  0.2982 -0.3371  0.3822
 4663SOL    HW125448   3.901   4.561   5.662  0.4132 -1.6279  0.0537
 4663SOL    HW225449   3.800   4.524   5.566 -0.4962  0.8914 -1.2326
 4664SOL     OW25450   1.342   2.483   7.854 -0.0127 -0.4150 -0.1134
 4664SOL    HW125451   1.381   2.431   7.925  0.5186 -0.4773 -0.4480
 4664SOL    HW225452   1.346   2.410   7.793 -1.2805  1.1602 -2.0899
 4665SOL     OW25453   1.713   4.245  12.564  0.4548  0.2544 -0.2297
 4665SOL    HW125454   1.801   4.278  12.580  0.8381 -0.5188 -0.7336
 4665SOL    HW225455   1.665   4.326  12.546  0.6672  0.5731  0.6541
 4666SOL     OW25456   3.104   3.696   7.954 -0.1715 -0.3441 -0.4305
 4666SOL    HW125457   3.189   3.676   7.915 -0.6267 -1.7267 -0.7164
 4666SOL    HW225458   3.095   3.788   7.929 -1.9414 -0.2359  0.5772
 4667SOL     OW25459   3.608   0.850   7.082 -0.2202  0.5634 -0.2460
 4667SOL    HW125460   3.573   0.784   7.022  1.9165 -0.1723 -0.6625
 4667SOL    HW225461   3.639   0.902   7.008  0.1613 -1.5518 -1.5847
 4668SOL     OW25462   2.694   4.350   5.915 -0.3580  0.5169  0.1761
 4668SOL    HW125463   2.635   4.289   5.870  1.3588 -1.1035  0.1166
 4668SOL    HW225464   2.702   4.306   6.000  1.8118  1.4096  0.4187
 4669SOL     OW25465   0.217   2.307   7.864 -0.0492  0.0607  1.0007
 4669SOL    HW125466   0.156   2.292   7.936 -1.8964 -1.1151 -0.8199
 4669SOL    HW225467   0.300   2.287   7.908 -0.4356 -1.8632  0.8373
 4670SOL     OW25468   2.719   3.122  15.494 -0.1115  0.0731 -0.0132
 4670SOL    HW125469   2.781   3.195  15.488 -0.0183  0.1035  1.3664
 4670SOL    HW225470   2.663   3.133  15.571  1.9691  0.1129  1.5032
 4671SOL     OW25471   4.448   4.550   8.464 -0.4499 -0.2923  0.0609
 4671SOL    HW125472   4.433   4.457   8.452  1.4157 -0.6408  0.4124
 4671SOL    HW225473   4.498   4.544   8.546 -0.2554  1.0428  0.0445
 4672SOL     OW25474   1.772   0.471   6.439 -1.0360 -0.1327  0.4713
 4672SOL    HW125475   1.825   0.393   6.455 -0.1366  0.5725  0.9262
 4672SOL    HW225476   1.809   0.538   6.497 -0.8398  1.8512 -1.9373
 4673SOL     OW25477   3.134   0.761   2.958  0.2686 -0.9287  0.0923
 4673SOL    HW125478   3.084   0.681   2.944 -2.2237  0.5255  0.5469
 4673SOL    HW225479   3.137   0.791   2.867 -2.2431 -1.0143 -0.0138
 4674SOL     OW25480   4.243   2.881  17.481  0.0218  0.7219  0.6795
 4674SOL    HW125481   4.164   2.850  17.526  1.2316 -4.8514 -0.9907
 4674SOL    HW225482   4.307   2.840  17.539  1.2088 -1.5026 -2.2306
 4675SOL     OW25483   1.698   4.557   5.480 -0.4778  0.1587  0.0084
 4675SOL    HW125484   1.790   4.575   5.497  0.4906 -4.8097 -0.0026
 4675SOL    HW225485   1.672   4.648   5.466  2.9280  1.4574  2.0774
 4676SOL     OW25486   1.764   4.631   3.248 -0.0714 -0.5025 -0.0108
 4676SOL    HW125487   1.700   4.565   3.275 -0.9334  0.5633  0.5299
 4676SOL    HW225488   1.728   4.700   3.304 -0.1056 -0.4608 -0.0849
 4677SOL     OW25489   1.788   2.057  17.632  0.3415  0.0377  0.0439
 4677SOL    HW125490   1.813   2.072   0.038 -0.7688  1.3774  0.1284
 4677SOL    HW225491   1.693   2.072  17.636 -0.0991 -2.9123  1.4357
 4678SOL     OW25492   3.190   3.157   3.047 -0.0364  0.7028  0.4705
 4678SOL    HW125493   3.209   3.087   2.984  1.3422 -1.3853  3.2352
 4678SOL    HW225494   3.218   3.236   3.000  1.1239  0.0253  0.0343
 4679SOL     OW25495   2.078   4.701   3.853  0.0809 -0.1160  0.0915
 4679SOL    HW125496   2.173   4.711   3.851  0.0381  0.2226 -0.1917
 4679SOL    HW225497   2.057   4.625   3.799  3.8781 -0.1966 -1.2241
 4680SOL     OW25498   2.949   0.173   8.356  0.1914  0.5863  0.5805
 4680SOL    HW125499   3.033   0.210   8.383  3.1026 -5.2996 -0.2492
 4680SOL    HW225500   2.978   0.082   8.364  1.6861  0.8598 -1.4628
 4681SOL     OW25501   2.497   1.833   3.919 -0.9580 -0.8191  0.3698
 4681SOL    HW125502   2.582   1.789   3.912  0.3353  1.7791 -0.1159
 4681SOL    HW225503   2.484   1.848   3.825  0.7157 -1.0069  0.1181
 4682SOL     OW25504   0.682   3.281   8.716  0.4661 -0.0514  0.0911
 4682SOL    HW125505   0.646   3.366   8.741 -3.0999 -0.6983 -2.7553
 4682SOL    HW225506   0.618   3.263   8.647  0.3674  1.5139 -0.2122
 4683SOL     OW25507   3.510   3.368   5.504 -0.3927 -0.2628 -0.4259
 4683SOL    HW125508   3.605   3.357   5.510 -0.4758 -1.1166 -0.6869
 4683SOL    HW225509   3.511   3.416   5.422  0.2247  0.0524 -0.2351
 4684SOL     OW25510   4.548   0.577  10.174  0.3774  0.2226  0.1490
 4684SOL    HW125511   4.628   0.537  10.139  0.5154  1.5782 -1.0945
 4684SOL    HW225512   4.517   0.496  10.214 -0.5832 -0.4558 -1.9774
 4685SOL     OW25513   2.036   2.342  12.843  0.3590 -0.3611  0.7179
 4685SOL    HW125514   2.072   2.258  12.815  1.9334  0.5240  0.0987
 4685SOL    HW225515   1.943   2.319  12.834  0.5420 -0.1127 -1.7107
 4686SOL     OW25516   1.940   4.173   4.748 -0.4457 -0.4900 -0.2817
 4686SOL    HW125517   1.925   4.232   4.822 -2.4938 -1.2728 -0.0708
 4686SOL    HW225518   1.876   4.104   4.764  0.8179 -1.7045 -0.5237
 4687SOL     OW25519   3.944   2.709   7.245  0.5674  0.1113  0.0103
 4687SOL    HW125520   3.858   2.684   7.211  0.1531  1.7489 -0.1716
 4687SOL    HW225521   3.937   2.659   7.326  0.3062 -0.1748 -0.1859
 4688SOL     OW25522   2.974   2.623   2.408 -0.2299 -0.2756  0.8779
 4688SOL    HW125523   2.910   2.558   2.381 -0.1453 -0.0449  0.1151
 4688SOL    HW225524   2.945   2.709   2.377  0.7705  0.2324  1.3157
 4689SOL     OW25525   3.199   2.264   7.186  0.9844  0.4631 -0.2216
 4689SOL    HW125526   3.265   2.256   7.255 -0.1418  0.3869  0.8554
 4689SOL    HW225527   3.120   2.238   7.235  1.0993 -1.8688 -1.2632
 4690SOL     OW25528   2.266   0.848  16.186  0.0546 -0.1570 -0.0914
 4690SOL    HW125529   2.229   0.763  16.209 -1.1641  0.1859 -0.7927
 4690SOL    HW225530   2.207   0.866  16.112  0.9923 -1.5578 -1.1885
 4691SOL     OW25531   2.370   0.974  15.722  0.2115  0.0679  0.6615
 4691SOL    HW125532   2.413   0.906  15.773 -2.8996 -1.3527  1.3647
 4691SOL    HW225533   2.409   1.052  15.762  3.1712 -1.2565  0.3460
 4692SOL     OW25534   4.321   1.003   8.328 -0.4667  0.2656  0.4204
 4692SOL    HW125535   4.293   1.065   8.261 -2.4696  0.1999  1.2143
 4692SOL    HW225536   4.409   0.976   8.301 -0.0013  0.1813  2.0396
 4693SOL     OW25537   2.083   3.870  12.591  0.0592  0.5218 -0.0673
 4693SOL    HW125538   2.154   3.842  12.649 -1.0446 -1.2093  0.4362
 4693SOL    HW225539   2.008   3.815  12.614 -0.4987  1.6629  0.8462
 4694SOL     OW25540   2.007   3.764   2.757 -0.8579 -0.0862 -0.0379
 4694SOL    HW125541   2.004   3.793   2.848 -0.0275 -1.7723  0.5365
 4694SOL    HW225542   2.037   3.673   2.764 -0.7625 -0.0483  0.0360
 4695SOL     OW25543   0.875   3.420   7.175  0.5099  0.1678  0.2657
 4695SOL    HW125544   0.799   3.367   7.200  1.6487  0.0124  3.2921
 4695SOL    HW225545   0.887   3.386   7.086 -0.1015 -2.2304  1.0848
 4696SOL     OW25546   1.615   4.484  12.541  0.4639 -0.6238 -0.0800
 4696SOL    HW125547   1.645   4.561  12.589  0.7722  0.0591 -1.3493
 4696SOL    HW225548   1.527   4.513  12.518  0.0782 -0.5120  1.5925
 4697SOL     OW25549   3.500   0.989   1.551  0.0749  0.0701 -0.5271
 4697SOL    HW125550   3.592   0.962   1.542  0.7794  3.1457 -2.4859
 4697SOL    HW225551   3.504   1.063   1.612  0.1986  0.0957 -0.5660
 4698SOL     OW25552   2.735   0.424   1.912  0.1401 -0.3014  0.4038
 4698SOL    HW125553   2.698   0.444   1.825  2.0097  0.4496 -0.2213
 4698SOL    HW225554   2.779   0.341   1.895 -0.5772 -0.0920 -2.5499
 4699SOL     OW25555   0.419   0.924   5.723 -0.4946  0.0314  0.0392
 4699SOL    HW125556   0.429   0.932   5.628 -1.2421 -0.4064 -0.0694
 4699SOL    HW225557   0.508   0.946   5.751 -0.1554 -0.7614 -0.4030
 4700SOL     OW25558   2.150   4.568   5.760  0.9082  0.3978  0.4592
 4700SOL    HW125559   2.090   4.621   5.812 -0.3409  0.3899 -0.9828
 4700SOL    HW225560   2.163   4.486   5.808  0.7841  0.8237  1.2061
 4701SOL     OW25561   3.674   0.539  16.348  0.4432  0.0942 -0.1712
 4701SOL    HW125562   3.742   0.595  16.384  0.7908  0.1617 -0.9260
 4701SOL    HW225563   3.602   0.599  16.330  0.9551  0.0279 -2.5004
 4702SOL     OW25564   4.083   3.517   1.506  0.0811 -0.3606 -0.4673
 4702SOL    HW125565   4.024   3.476   1.569  2.2234 -0.1410  1.6550
 4702SOL    HW225566   4.168   3.515   1.549 -1.2104  0.5580  2.1447
 4703SOL     OW25567   2.345   2.769   9.419 -0.6668  0.3189 -0.1567
 4703SOL    HW125568   2.364   2.861   9.398 -0.1838 -0.0683 -1.3605
 4703SOL    HW225569   2.331   2.760   9.514  1.0482  1.5655  0.2300
 4704SOL     OW25570   0.823   2.269  16.220  0.2358 -0.1609 -0.6057
 4704SOL    HW125571   0.796   2.182  16.247  1.4392 -0.6767 -1.0621
 4704SOL    HW225572   0.752   2.291  16.160  0.7335  2.1194 -0.3977
 4705SOL     OW25573   3.764   3.965   5.884 -0.2489 -0.0154 -0.7494
 4705SOL    HW125574   3.743   3.878   5.849  1.4496 -1.0665  0.8368
 4705SOL    HW225575   3.859   3.953   5.888 -0.5287 -2.5344 -1.5227
 4706SOL     OW25576   3.357   0.417   5.279  0.0516 -0.1790  0.2841
 4706SOL    HW125577   3.367   0.332   5.238 -0.6734 -0.5000  0.7666
 4706SOL    HW225578   3.318   0.377   5.357  1.9679 -0.5211  1.0624
 4707SOL     OW25579   4.197   3.693  13.020 -0.4233  0.0403  0.1440
 4707SOL    HW125580   4.225   3.606  12.992  2.1569  0.7152  0.6486
 4707SOL    HW225581   4.252   3.744  12.961 -0.0452  1.7820  2.0213
 4708SOL     OW25582   0.109   4.515   3.630  0.0329 -0.0562  0.0039
 4708SOL    HW125583   0.118   4.440   3.688 -0.4876  0.7939  1.1955
 4708SOL    HW225584   0.070   4.472   3.554  3.5472 -0.0181 -1.7841
 4709SOL     OW25585   3.215   3.028  13.339 -0.3888  0.1726  0.0909
 4709SOL    HW125586   3.219   3.091  13.411 -0.5564  0.3276 -0.0325
 4709SOL    HW225587   3.119   3.027  13.339 -0.3768 -0.9277  0.8451
 4710SOL     OW25588   3.941   2.622   2.759 -0.4679  0.9581  0.1732
 4710SOL    HW125589   4.028   2.633   2.719 -1.4370 -1.7128 -2.7014
 4710SOL    HW225590   3.927   2.533   2.728  0.5087  1.5617 -2.0187
 4711SOL     OW25591   1.115   1.092   4.690 -0.0522  0.4744  0.8828
 4711SOL    HW125592   1.169   1.069   4.615  1.4699  2.5933  1.3107
 4711SOL    HW225593   1.058   1.016   4.703 -1.4624  1.7124  2.0276
 4712SOL     OW25594   2.101   0.589   5.851 -0.0611  0.0982 -0.2153
 4712SOL    HW125595   2.107   0.629   5.765 -0.6154 -0.1859 -0.3837
 4712SOL    HW225596   2.152   0.511   5.829 -1.9373  0.4875 -5.8380
 4713SOL     OW25597   0.377   2.961   2.116  0.2778 -0.0479  0.0866
 4713SOL    HW125598   0.307   2.910   2.075 -0.2367  0.1845  0.6620
 4713SOL    HW225599   0.384   2.914   2.199  0.0442  1.4227  0.9527
 4714SOL     OW25600   2.037   1.431   0.390 -0.3655 -0.0451 -0.2550
 4714SOL    HW125601   1.949   1.465   0.403 -0.0274  0.6662  0.1929
 4714SOL    HW225602   2.050   1.463   0.301  2.2670  0.4482  0.2934
 4715SOL     OW25603   3.210   4.650  10.190  0.0389  0.2453 -0.0243
 4715SOL    HW125604   3.198   4.650  10.095 -1.7968 -1.3092  0.2113
 4715SOL    HW225605   3.124   4.672  10.226 -0.6292 -1.5891 -0.5024
 4716SOL     OW25606   2.032   4.368   2.108 -0.2496 -0.4899  0.3375
 4716SOL    HW125607   2.125   4.377   2.129  0.3232  0.4669 -2.6930
 4716SOL    HW225608   2.015   4.295   2.167 -0.6448 -1.6580 -1.2211
 4717SOL     OW25609   4.301   0.942  12.847  0.7717 -0.4512  0.5557
 4717SOL    HW125610   4.256   0.923  12.764  1.6796 -0.1892  0.0111
 4717SOL    HW225611   4.245   1.017  12.869 -1.0792 -1.9567  1.0147
 4718SOL     OW25612   4.463   3.615   2.881  0.1181 -0.3347  0.1619
 4718SOL    HW125613   4.476   3.523   2.858  0.7425 -0.6820  1.9018
 4718SOL    HW225614   4.374   3.601   2.913  0.2570 -2.1041 -0.2122
 4719SOL     OW25615   4.280   2.123   7.912 -0.3769 -0.4354  0.2959
 4719SOL    HW125616   4.187   2.137   7.928 -0.1423  2.9714 -1.4827
 4719SOL    HW225617   4.295   2.147   7.821 -0.8650 -2.8244 -0.4051
 4720SOL     OW25618   4.435   3.832   1.484 -0.5035  0.3019 -0.6956
 4720SOL    HW125619   4.346   3.848   1.516 -0.4110  1.1210 -0.8539
 4720SOL    HW225620   4.420   3.803   1.394  0.1472 -0.8783 -0.4240
 4721SOL     OW25621   0.069   3.192   6.216  0.5291 -0.4727  0.0849
 4721SOL    HW125622   0.025   3.119   6.259 -1.6222  1.2502  0.7682
 4721SOL    HW225623   0.158   3.191   6.252  0.4879  1.6587  0.2536
 4722SOL     OW25624   2.981   4.505   6.547  0.1648 -0.1033  0.1036
 4722SOL    HW125625   2.900   4.514   6.498  0.6961  1.9884 -0.3757
 4722SOL    HW225626   2.994   4.414   6.521 -0.0689 -0.3691  0.9061
 4723SOL     OW25627   3.385   0.389   3.217 -0.5756  0.3559  0.0835
 4723SOL    HW125628   3.448   0.394   3.145  3.3165 -1.2023  3.3901
 4723SOL    HW225629   3.431   0.392   3.300 -2.1953 -0.0465  0.9916
 4724SOL     OW25630   2.079   0.698   3.780 -0.2828  0.1285  0.0039
 4724SOL    HW125631   2.055   0.623   3.725  0.2740  0.1864 -0.3197
 4724SOL    HW225632   2.117   0.665   3.862 -1.1751 -0.1949  0.2807
 4725SOL     OW25633   0.655   1.972  16.588  0.4845  0.2863  0.0512
 4725SOL    HW125634   0.603   1.906  16.633  1.2870 -0.3279  0.0830
 4725SOL    HW225635   0.661   2.040  16.654 -0.1846 -0.7002  1.1208
 4726SOL     OW25636   3.060   2.696   5.139  0.3508 -0.3643  0.1647
 4726SOL    HW125637   2.988   2.706   5.202  1.3866 -0.1950  1.3185
 4726SOL    HW225638   3.064   2.601   5.128 -1.3980 -0.3400 -0.7126
 4727SOL     OW25639   2.751   2.269   7.551 -0.0779  0.2394  0.2174
 4727SOL    HW125640   2.661   2.276   7.517  0.2691  3.4309  0.0254
 4727SOL    HW225641   2.788   2.350   7.516 -1.5791  1.3947  1.3585
 4728SOL     OW25642   3.067   1.499   3.326  0.1099  0.1312 -0.1956
 4728SOL    HW125643   3.007   1.573   3.339  0.1696  0.1055  0.2156
 4728SOL    HW225644   3.144   1.556   3.314  0.0599  0.2719  0.1351
 4729SOL     OW25645   1.309   4.588   3.615  0.0730  0.1953 -0.4049
 4729SOL    HW125646   1.368   4.656   3.582 -0.4990  0.7624 -0.2746
 4729SOL    HW225647   1.330   4.523   3.548  2.1668  1.9285 -1.4313
 4730SOL     OW25648   3.732   1.208   8.510  0.0113 -0.4560  0.4889
 4730SOL    HW125649   3.762   1.147   8.443  0.2346 -1.3569  1.4117
 4730SOL    HW225650   3.804   1.196   8.571 -0.8606 -1.3672  1.3488
 4731SOL     OW25651   3.903   2.650   9.089  0.4729 -0.0886  0.2976
 4731SOL    HW125652   3.903   2.745   9.093 -0.7814 -0.0882  0.3570
 4731SOL    HW225653   3.866   2.616   9.171  1.6589  0.4177  1.0495
 4732SOL     OW25654   0.927   4.499   0.860  0.1735  0.2312 -0.2731
 4732SOL    HW125655   0.991   4.570   0.859 -2.3043  2.4629 -1.8607
 4732SOL    HW225656   0.962   4.450   0.786  1.6291  1.7891 -0.6014
 4733SOL     OW25657   1.462   2.593   5.765  0.0793 -0.1523 -0.0147
 4733SOL    HW125658   1.445   2.539   5.688 -1.8601 -0.2806  0.5289
 4733SOL    HW225659   1.408   2.669   5.742 -0.3436 -0.8023 -1.1687
 4734SOL     OW25660   0.987   4.268  10.690 -0.1857 -0.3766 -0.1807
 4734SOL    HW125661   1.019   4.202  10.751  0.4676 -0.6589 -0.8211
 4734SOL    HW225662   1.015   4.230  10.606 -2.5751  1.8250 -1.9433
 4735SOL     OW25663   4.262   0.741   4.297 -0.2514  0.1082 -0.2243
 4735SOL    HW125664   4.256   0.803   4.370  1.0685  0.5483 -0.5002
 4735SOL    HW225665   4.181   0.771   4.255 -0.1078 -0.4753 -0.9313
 4736SOL     OW25666   3.636   3.441   6.146  0.3289  0.1531 -0.0723
 4736SOL    HW125667   3.659   3.376   6.080 -2.5033 -0.3881 -0.5526
 4736SOL    HW225668   3.711   3.449   6.204 -0.1064 -0.7196  0.6022
 4737SOL     OW25669   3.506   2.415  10.170 -1.1161  0.0579 -0.3499
 4737SOL    HW125670   3.488   2.322  10.158 -1.5757  0.3574 -2.0091
 4737SOL    HW225671   3.516   2.445  10.079  2.7177 -0.0277  0.0549
 4738SOL     OW25672   0.179   4.573  13.289  0.2713  0.5905 -0.0620
 4738SOL    HW125673   0.111   4.513  13.321  0.5635 -0.5462 -1.5654
 4738SOL    HW225674   0.144   4.564  13.201  1.3493 -0.4619 -0.3888
 4739SOL     OW25675   4.615   4.267  11.200 -0.2426 -1.0756  0.1225
 4739SOL    HW125676   4.554   4.323  11.248  0.0151 -1.0248  0.3881
 4739SOL    HW225677   4.665   4.247  11.279 -0.4088 -3.4470 -0.3743
 4740SOL     OW25678   4.019   2.344   8.728  0.4374 -0.0324  0.3450
 4740SOL    HW125679   4.068   2.411   8.680  2.0794  0.0897  2.1928
 4740SOL    HW225680   4.087   2.279   8.709 -1.4306 -1.8370 -0.1165
 4741SOL     OW25681   0.795   4.685   6.213  0.1947  0.4630  0.7269
 4741SOL    HW125682   0.869   0.025   6.202 -0.6114  0.8424 -2.5181
 4741SOL    HW225683   0.740   0.012   6.274 -0.0533 -1.5187  2.0346
 4742SOL     OW25684   3.663   0.315   4.344 -0.1437  0.3894  0.7310
 4742SOL    HW125685   3.626   0.336   4.429  5.5454  3.5647  2.3680
 4742SOL    HW225686   3.589   0.265   4.308 -2.0989  1.6814  2.9896
 4743SOL     OW25687   4.682   2.264   3.091 -0.0018  1.1631 -0.2005
 4743SOL    HW125688   0.039   2.220   3.124  0.0126 -0.0045 -1.8230
 4743SOL    HW225689   4.718   2.348   3.063 -0.8498  1.5874 -0.0415
 4744SOL     OW25690   2.690   2.071   3.594  0.2784 -0.0410  0.5127
 4744SOL    HW125691   2.660   2.161   3.585  0.6664 -0.0310 -0.7288
 4744SOL    HW225692   2.667   2.060   3.686 -3.2580 -2.6564 -0.6978
 4745SOL     OW25693   1.910   2.535   7.007 -0.1448 -0.1489 -0.2302
 4745SOL    HW125694   1.868   2.555   6.923 -1.6813  0.3295  0.6500
 4745SOL    HW225695   2.000   2.507   6.990 -0.3918  0.3874 -2.4385
 4746SOL     OW25696   2.523   3.182  13.361 -0.3554 -0.1400 -0.4184
 4746SOL    HW125697   2.583   3.255  13.374 -1.0873  1.0650 -3.9336
 4746SOL    HW225698   2.462   3.218  13.426 -0.4760  1.5607 -1.4602
 4747SOL     OW25699   4.539   0.418   1.240  0.4122 -0.6320 -0.2376
 4747SOL    HW125700   4.462   0.463   1.204 -0.0904 -1.0578  0.2970
 4747SOL    HW225701   4.500   0.375   1.316  0.8864  0.5644  0.6576
 4748SOL     OW25702   3.801   1.139   1.162  0.4866 -0.0402 -0.5183
 4748SOL    HW125703   3.757   1.203   1.105  0.1954 -0.6430 -0.9685
 4748SOL    HW225704   3.894   1.132   1.140  0.6596 -2.5941  1.0440
 4749SOL     OW25705   1.620   2.613   2.355 -0.3790 -0.2686  0.1015
 4749SOL    HW125706   1.561   2.552   2.400 -0.2680 -1.4264 -1.3221
 4749SOL    HW225707   1.681   2.639   2.423  0.1126  0.7840 -0.7325
 4750SOL     OW25708   3.968   1.485   4.746  0.0401 -0.0811 -0.6683
 4750SOL    HW125709   3.971   1.572   4.785  0.1226 -0.2284 -0.3378
 4750SOL    HW225710   4.058   1.460   4.770 -0.4498 -2.8547 -1.7020
 4751SOL     OW25711   2.577   2.546  10.883 -0.5663 -0.5680 -0.1163
 4751SOL    HW125712   2.654   2.541  10.826  0.8385  0.4416  1.6966
 4751SOL    HW225713   2.610   2.591  10.960 -1.6265 -0.4872  0.2868
 4752SOL     OW25714   1.783   0.021   9.877  0.0305 -0.1147 -0.0190
 4752SOL    HW125715   1.741   0.105   9.896  1.5847  0.2211  1.9156
 4752SOL    HW225716   1.826   0.015   9.962 -0.4170  0.4667  0.2503
 4753SOL     OW25717   3.754   0.092   5.752 -0.0375  0.5585 -0.3516
 4753SOL    HW125718   3.845   0.065   5.735 -0.3579 -0.2062 -0.8441
 4753SOL    HW225719   3.752   0.098   5.847  1.4763  0.4106 -0.3095
 4754SOL     OW25720   0.995   0.587   8.046 -0.2901  0.1370  0.3661
 4754SOL    HW125721   1.039   0.651   8.102 -0.5310  0.4015  0.2551
 4754SOL    HW225722   1.061   0.557   7.983 -0.2607 -0.8050  0.8533
 4755SOL     OW25723   1.707   3.755   8.923 -0.0309  0.4530  0.1264
 4755SOL    HW125724   1.755   3.756   9.006  1.3763 -1.2876 -0.6666
 4755SOL    HW225725   1.621   3.787   8.949 -0.3505 -1.7974  1.8131
 4756SOL     OW25726   2.196   3.172  12.170  0.2595 -0.4584  0.2187
 4756SOL    HW125727   2.243   3.128  12.242  1.3018 -0.5785 -0.5308
 4756SOL    HW225728   2.197   3.095  12.113  1.8340  2.0360 -3.0981
 4757SOL     OW25729   3.221   0.652  10.512 -0.5849 -0.0730 -0.0698
 4757SOL    HW125730   3.246   0.566  10.477 -0.8337 -1.0299  2.1042
 4757SOL    HW225731   3.307   0.694  10.516 -1.0820  0.9722 -0.2713
 4758SOL     OW25732   4.112   3.648   0.539 -0.7079 -0.0160 -0.2877
 4758SOL    HW125733   4.152   3.661   0.625 -1.7102  1.4337 -0.0387
 4758SOL    HW225734   4.189   3.639   0.482 -1.2907  1.4491 -1.3326
 4759SOL     OW25735   4.382   0.237  14.328 -0.5300  0.8338  0.2752
 4759SOL    HW125736   4.420   0.291  14.259  0.4333  1.0207  0.9544
 4759SOL    HW225737   4.340   0.302  14.385 -2.4312  0.4198 -0.6742
 4760SOL     OW25738   1.953   1.057   0.422 -0.1199 -0.1211  0.0284
 4760SOL    HW125739   1.992   1.141   0.400  0.2589 -0.3659 -0.2258
 4760SOL    HW225740   1.866   1.079   0.388  1.1341  4.1469 -0.3334
 4761SOL     OW25741   1.061   1.131   6.405  0.5109  0.6148 -0.2058
 4761SOL    HW125742   0.991   1.078   6.445  0.7936 -1.6026 -2.6330
 4761SOL    HW225743   1.047   1.210   6.457  0.9803  0.4499  0.1692
 4762SOL     OW25744   2.428   3.385   8.544 -0.0155  0.0703  0.1795
 4762SOL    HW125745   2.466   3.442   8.610 -0.8968 -0.8542  1.5015
 4762SOL    HW225746   2.500   3.330   8.514 -0.8028 -0.3500 -0.9461
 4763SOL     OW25747   4.667   2.079   3.845 -0.0894 -0.0064 -0.0047
 4763SOL    HW125748   4.572   2.081   3.858  0.1958  0.6301  1.9171
 4763SOL    HW225749   4.683   1.994   3.886 -1.2473 -0.5496 -0.6399
 4764SOL     OW25750   2.503   4.511  15.072  0.1636 -0.4406 -0.7226
 4764SOL    HW125751   2.594   4.492  15.048  0.2748  0.3733 -0.9378
 4764SOL    HW225752   2.490   4.589  15.018 -1.0478  1.8472  2.8354
 4765SOL     OW25753   0.320   2.573   8.744  0.0926  0.5115 -0.2131
 4765SOL    HW125754   0.342   2.482   8.763 -2.4271 -0.5595 -2.5643
 4765SOL    HW225755   0.258   2.601   8.812 -0.4883  0.4388 -0.7188
 4766SOL     OW25756   2.714   2.883  10.275 -0.1379 -0.5279 -0.0822
 4766SOL    HW125757   2.767   2.958  10.249  1.9165 -1.4580  1.4789
 4766SOL    HW225758   2.691   2.898  10.366  2.2899 -0.9721  0.5953
 4767SOL     OW25759   4.184   0.794   8.964  0.3894 -0.5178 -0.3705
 4767SOL    HW125760   4.107   0.847   8.984  0.7031 -0.6229  1.1113
 4767SOL    HW225761   4.250   0.824   9.026 -2.1744  1.2499  1.5534
 4768SOL     OW25762   4.211   1.788   2.555  0.4610 -0.3919  0.0492
 4768SOL    HW125763   4.144   1.722   2.573  0.4017 -0.4273 -0.3012
 4768SOL    HW225764   4.234   1.787   2.648  0.6228  1.1388  0.0176
 4769SOL     OW25765   3.024   1.701   2.748 -0.1553 -0.0310 -0.1831
 4769SOL    HW125766   3.035   1.613   2.785 -0.3592  0.5970  1.3973
 4769SOL    HW225767   3.020   1.751   2.830 -1.3775  0.0333 -0.2850
 4770SOL     OW25768   2.730   1.648   0.645 -0.1362  0.1841  0.4189
 4770SOL    HW125769   2.713   1.737   0.615 -0.7088 -0.1555 -0.2835
 4770SOL    HW225770   2.660   1.629   0.708 -0.1539  1.4109  0.7543
 4771SOL     OW25771   2.835   0.152   5.825 -0.1345 -0.2869  0.5147
 4771SOL    HW125772   2.744   0.134   5.848  0.0812 -0.2104  1.4266
 4771SOL    HW225773   2.818   0.210   5.751  3.6716  0.7078  0.3897
 4772SOL     OW25774   0.735   2.125   5.977 -0.3295 -0.2137 -0.0752
 4772SOL    HW125775   0.810   2.179   5.953  0.4469 -0.6189  1.4237
 4772SOL    HW225776   0.763   2.098   6.065 -0.7736 -0.6956 -0.0853
 4773SOL     OW25777   3.837   4.633   3.919 -1.1153 -0.0121  0.3783
 4773SOL    HW125778   3.751   4.675   3.917 -0.1775  1.8037 -1.0848
 4773SOL    HW225779   3.818   4.540   3.923 -3.8401  0.5345 -0.0345
 4774SOL     OW25780   1.596   3.550   7.592 -0.0951 -0.3887 -0.1770
 4774SOL    HW125781   1.512   3.558   7.637  0.0287  1.5437 -0.3259
 4774SOL    HW225782   1.584   3.464   7.550 -1.6397 -0.7190  0.9226
 4775SOL     OW25783   2.282   4.309   4.604  0.4965  0.5497  0.3681
 4775SOL    HW125784   2.336   4.364   4.547 -1.2241  0.5841 -1.2246
 4775SOL    HW225785   2.299   4.220   4.573 -1.6075  1.0218 -2.0965
 4776SOL     OW25786   3.855   2.117  12.758 -0.1073 -0.3314  0.0142
 4776SOL    HW125787   3.900   2.064  12.823  2.0021  0.9024 -0.4199
 4776SOL    HW225788   3.770   2.073  12.750  0.0661 -0.8814  1.3156
 4777SOL     OW25789   0.321   3.674  15.458  0.5502 -0.1364 -0.5276
 4777SOL    HW125790   0.376   3.604  15.494 -0.3637  0.6500  2.4124
 4777SOL    HW225791   0.391   3.721  15.414  0.6559  1.1777  1.0413
 4778SOL     OW25792   1.596   2.191   5.528  0.2817  0.7627  0.1257
 4778SOL    HW125793   1.550   2.273   5.542  0.0819  1.0379 -2.1365
 4778SOL    HW225794   1.673   2.218   5.478  1.7721 -0.5065  1.7141
 4779SOL     OW25795   0.886   3.482   1.872 -0.3033 -0.0342 -0.7250
 4779SOL    HW125796   0.931   3.524   1.798 -0.5722  0.4411 -0.6176
 4779SOL    HW225797   0.924   3.394   1.868 -0.1374  0.1159 -2.6356
 4780SOL     OW25798   4.248   2.231   2.546 -0.7412  0.2009  0.0315
 4780SOL    HW125799   4.289   2.209   2.630  1.5082 -0.1439 -1.1629
 4780SOL    HW225800   4.288   2.156   2.502 -2.1484 -0.4311 -0.1817
 4781SOL     OW25801   3.500   3.137   8.790 -0.1561  0.0877  0.8654
 4781SOL    HW125802   3.478   3.223   8.827  0.5293 -0.1468  1.8374
 4781SOL    HW225803   3.555   3.168   8.718  0.3854 -3.0747 -0.0636
 4782SOL     OW25804   2.938   1.222  12.981  0.1298 -0.0126  0.0985
 4782SOL    HW125805   2.994   1.203  12.906  1.6815  0.4376  1.1640
 4782SOL    HW225806   2.866   1.257  12.928 -1.3183 -1.6160  0.9914
 4783SOL     OW25807   2.235   1.909   9.249  0.4526 -0.3261  0.3270
 4783SOL    HW125808   2.169   1.918   9.318  0.0938  1.7863 -0.3014
 4783SOL    HW225809   2.307   1.962   9.285  0.1376  0.3077  0.0218
 4784SOL     OW25810   1.027   1.466   3.147  0.4505 -0.0457 -0.3573
 4784SOL    HW125811   1.118   1.485   3.125  0.0169  0.0649 -2.0967
 4784SOL    HW225812   1.032   1.441   3.239 -1.0722 -1.3458 -0.6354
 4785SOL     OW25813   2.156   2.690   4.078 -0.2071  0.1162  0.0177
 4785SOL    HW125814   2.114   2.704   4.163  0.2201  0.4078  0.1793
 4785SOL    HW225815   2.249   2.711   4.089 -0.5074  1.7200 -0.4810
 4786SOL     OW25816   3.415   2.310   2.684  1.0581 -0.1105  0.3476
 4786SOL    HW125817   3.507   2.324   2.703  1.0923 -1.0711  0.9038
 4786SOL    HW225818   3.372   2.395   2.699 -0.8702 -1.3007  1.6004
 4787SOL     OW25819   2.716   2.635  15.502 -0.1435  0.0373 -0.4500
 4787SOL    HW125820   2.775   2.710  15.508  0.7634 -0.6918 -0.1544
 4787SOL    HW225821   2.646   2.664  15.444 -2.3487 -1.7479  1.3034
 4788SOL     OW25822   1.680   4.431  12.100 -0.2171 -1.0925  0.5588
 4788SOL    HW125823   1.702   4.523  12.090  1.6410 -1.4815  1.0110
 4788SOL    HW225824   1.738   4.418  12.175 -1.1598 -4.1574  0.7616
 4789SOL     OW25825   1.964   1.575   5.882  0.0048  0.5746  0.1229
 4789SOL    HW125826   1.929   1.655   5.921  2.4738  0.9303  1.6331
 4789SOL    HW225827   1.927   1.509   5.941 -1.6961  0.3510 -1.2005
 4790SOL     OW25828   4.500   4.435   8.924  0.0745 -0.2566 -0.0346
 4790SOL    HW125829   4.484   4.343   8.941 -0.8201 -0.3467 -1.4094
 4790SOL    HW225830   4.545   4.424   8.841 -0.7512  0.2991 -0.5551
 4791SOL     OW25831   4.014   1.363   8.456  0.1673 -0.0315 -0.7252
 4791SOL    HW125832   3.988   1.273   8.438  0.2724 -0.4036  0.9677
 4791SOL    HW225833   4.004   1.358   8.551  2.7593  0.2227 -0.4298
 4792SOL     OW25834   0.383   2.048   7.177  0.8559  0.0421 -0.3775
 4792SOL    HW125835   0.305   1.993   7.169  0.2993  0.8005 -0.1560
 4792SOL    HW225836   0.456   1.994   7.207 -0.6588  0.0302  3.2757
 4793SOL     OW25837   1.796   3.121   3.427 -0.0194  0.0627 -0.0310
 4793SOL    HW125838   1.756   3.043   3.463  0.4478  0.5439  1.5073
 4793SOL    HW225839   1.822   3.173   3.503 -2.6228  1.2698  0.0019
 4794SOL     OW25840   0.138   3.783   1.867 -0.3517 -0.4727 -0.0223
 4794SOL    HW125841   0.053   3.821   1.848  0.4618  0.4200 -1.8629
 4794SOL    HW225842   0.176   3.792   1.780 -2.0639  1.5656 -0.5439
 4795SOL     OW25843   0.601   3.790   3.350 -0.1308  0.4981 -0.3998
 4795SOL    HW125844   0.643   3.812   3.267 -1.2044  2.6427 -0.3694
 4795SOL    HW225845   0.528   3.737   3.317  0.6160 -1.0322  0.4126
 4796SOL     OW25846   1.740   4.355   2.043  0.1152  0.0427  0.2558
 4796SOL    HW125847   1.751   4.302   2.122  0.0552 -0.1050  0.1637
 4796SOL    HW225848   1.830   4.386   2.050  0.1415 -0.2189  1.0838
 4797SOL     OW25849   2.817   0.236   2.549  0.2312 -0.0159  0.0427
 4797SOL    HW125850   2.745   0.198   2.498  2.4225 -2.2551 -1.3778
 4797SOL    HW225851   2.882   0.167   2.536  0.7768  0.7760 -1.4458
 4798SOL     OW25852   1.213   4.349  15.091  0.3045  0.2207 -0.5362
 4798SOL    HW125853   1.237   4.364  15.000 -1.0539 -1.3293 -1.1425
 4798SOL    HW225854   1.274   4.279  15.111 -0.1330 -0.0468 -0.1352
 4799SOL     OW25855   2.531   1.625   8.194  0.0841 -0.0388 -0.4325
 4799SOL    HW125856   2.479   1.590   8.266  2.6951  0.6489  1.7673
 4799SOL    HW225857   2.610   1.573   8.205  0.1563 -0.2798 -2.1424
 4800SOL     OW25858   2.026   3.708   2.006  0.0719  0.6657  0.1254
 4800SOL    HW125859   2.059   3.697   2.096 -0.9183 -0.5509  0.3273
 4800SOL    HW225860   2.012   3.616   1.986 -2.8279  0.9651  0.8878
 4801SOL     OW25861   0.901   1.942   5.139 -0.4547  0.1574 -0.1479
 4801SOL    HW125862   0.851   1.963   5.060  0.3080 -0.1753 -0.7143
 4801SOL    HW225863   0.968   2.009   5.128  0.0525 -0.1415  1.0748
 4802SOL     OW25864   1.290   3.420   7.590 -0.0380  0.2792  0.0225
 4802SOL    HW125865   1.262   3.474   7.664 -0.8441  0.3439 -0.3261
 4802SOL    HW225866   1.218   3.357   7.578 -0.6155  0.8802  0.3099
 4803SOL     OW25867   4.310   1.377  14.690 -0.1070 -0.1312 -0.4611
 4803SOL    HW125868   4.266   1.328  14.620  0.4698  0.4600 -1.2411
 4803SOL    HW225869   4.359   1.308  14.734  0.0068  1.4537  1.9002
 4804SOL     OW25870   1.632   4.521   6.479 -0.0666 -0.4297  0.1294
 4804SOL    HW125871   1.718   4.528   6.521  1.1885 -3.3067 -1.9269
 4804SOL    HW225872   1.662   4.476   6.400  2.0036  2.7209 -0.9195
 4805SOL     OW25873   3.228   2.974   5.717  0.3342  0.6066 -0.4835
 4805SOL    HW125874   3.171   2.930   5.654  2.8537 -0.3559 -2.0935
 4805SOL    HW225875   3.159   2.985   5.782 -0.1729  0.0730 -0.9307
 4806SOL     OW25876   0.940   3.437  12.906 -0.3430  0.3196 -0.4078
 4806SOL    HW125877   0.967   3.403  12.991 -1.9849 -1.3401 -0.5470
 4806SOL    HW225878   0.880   3.506  12.934 -0.5229  0.3296 -0.8239
 4807SOL     OW25879   2.486   4.586   7.649  0.2941  0.5755  0.1445
 4807SOL    HW125880   2.501   4.652   7.582  1.4337  0.1444 -0.0185
 4807SOL    HW225881   2.550   4.522   7.620  2.8535  2.6412  1.2410
 4808SOL     OW25882   2.536   4.032   6.961 -0.6450  0.3653  0.0036
 4808SOL    HW125883   2.565   4.024   6.870  0.7778 -0.7914  0.5561
 4808SOL    HW225884   2.563   3.948   6.997  1.4561  0.8380 -0.4456
 4809SOL     OW25885   3.512   3.817  10.493 -0.4179 -0.3311 -0.2473
 4809SOL    HW125886   3.588   3.788  10.442  0.0704  1.0674 -0.3206
 4809SOL    HW225887   3.443   3.774  10.444  0.4823 -1.4683 -0.5028
 4810SOL     OW25888   3.221   1.590   3.105  0.0039  0.1575 -0.7969
 4810SOL    HW125889   3.225   1.499   3.075 -2.5837 -0.3572  0.4438
 4810SOL    HW225890   3.301   1.620   3.061  0.5285 -1.1567 -0.7406
 4811SOL     OW25891   1.811   0.275  12.990  0.0773 -0.1350  0.6901
 4811SOL    HW125892   1.740   0.225  13.028  0.5434 -1.6929 -0.4662
 4811SOL    HW225893   1.856   0.198  12.954 -1.7053 -1.5231  1.4450
 4812SOL     OW25894   0.623   1.861   7.834  0.5641 -0.6864 -0.0782
 4812SOL    HW125895   0.528   1.864   7.846  0.6717  1.0495  0.3207
 4812SOL    HW225896   0.640   1.799   7.763 -0.2477  0.2874 -1.1037
 4813SOL     OW25897   4.062   0.622   8.039  0.7843  0.2816  0.0522
 4813SOL    HW125898   4.158   0.631   8.042  0.6669  1.3124  0.5299
 4813SOL    HW225899   4.050   0.601   8.132 -0.2697 -1.6803 -0.5230
 4814SOL     OW25900   2.386   2.545   3.816 -0.0709 -0.0583  0.1916
 4814SOL    HW125901   2.477   2.574   3.808  0.1308 -0.8196 -0.2510
 4814SOL    HW225902   2.397   2.481   3.886 -0.6313 -0.9880 -0.5681
 4815SOL     OW25903   4.493   4.474   7.325 -0.0952 -0.4604  0.1178
 4815SOL    HW125904   4.447   4.514   7.251 -1.6109 -0.2364  1.1660
 4815SOL    HW225905   4.562   4.534   7.353 -0.1602 -0.6534  0.6939
 4816SOL     OW25906   1.611   3.744  15.398 -0.6637 -0.2382  0.2791
 4816SOL    HW125907   1.568   3.828  15.382  1.7152  0.9176 -0.1380
 4816SOL    HW225908   1.551   3.701  15.458 -0.5294 -1.9147 -0.7747
 4817SOL     OW25909   0.920   0.477   4.523  0.0070 -0.0179  0.9809
 4817SOL    HW125910   0.825   0.477   4.516 -0.1680  0.0856  3.5400
 4817SOL    HW225911   0.922   0.391   4.565 -1.1712 -0.3270  0.4156
 4818SOL     OW25912   2.199   1.204  16.156  0.7488  0.1478  0.2254
 4818SOL    HW125913   2.164   1.196  16.067  0.5561 -1.7044  0.4759
 4818SOL    HW225914   2.160   1.288  16.182  0.8589  0.4037 -0.4169
 4819SOL     OW25915   2.824   1.247   7.001  0.2006 -0.2779 -0.5748
 4819SOL    HW125916   2.829   1.158   6.966  1.1158 -0.1348 -0.8061
 4819SOL    HW225917   2.905   1.256   7.051 -1.4572 -1.5546  2.3384
 4820SOL     OW25918   0.406   0.537   8.704  0.0320  0.0807  0.0724
 4820SOL    HW125919   0.477   0.600   8.688  1.9450 -1.9088  0.6936
 4820SOL    HW225920   0.409   0.532   8.799  1.2587 -1.3845 -0.0295
 4821SOL     OW25921   3.002   4.551   9.937  1.0893 -0.2241 -0.1937
 4821SOL    HW125922   3.098   4.546   9.936  1.2134  2.3131 -0.2215
 4821SOL    HW225923   2.993   4.623   9.998 -1.8913 -0.6761 -0.1182
 4822SOL     OW25924   1.094   1.270   9.963 -0.0619  0.9429  0.0615
 4822SOL    HW125925   1.075   1.336   9.896  1.3366  0.2947 -0.9659
 4822SOL    HW225926   1.188   1.262   9.949 -0.2616 -0.2069 -0.6443
 4823SOL     OW25927   2.713   3.758  12.661 -0.4190 -0.6560 -0.3323
 4823SOL    HW125928   2.770   3.730  12.589  0.2914 -3.3244  1.2783
 4823SOL    HW225929   2.668   3.835  12.627 -1.3421 -0.8026  0.5619
 4824SOL     OW25930   2.607   4.550   6.068  0.4463 -0.2023  0.0906
 4824SOL    HW125931   2.600   4.635   6.025 -3.0521 -0.4269  0.2181
 4824SOL    HW225932   2.639   4.501   5.992 -2.1806 -0.5137 -0.8259
 4825SOL     OW25933   1.810   3.963   1.579 -0.6581 -0.3074  0.2937
 4825SOL    HW125934   1.862   3.886   1.556 -0.1205  0.2262 -0.2824
 4825SOL    HW225935   1.874   4.033   1.567 -0.2901 -0.8565 -0.9976
 4826SOL     OW25936   2.574   3.206  16.351 -0.2036 -0.3224  0.4595
 4826SOL    HW125937   2.484   3.217  16.320 -0.5517 -0.2068  1.5234
 4826SOL    HW225938   2.557   3.134  16.412 -2.1179  0.2082  0.5573
 4827SOL     OW25939   0.578   1.122  16.795 -0.4791 -0.5033 -0.1131
 4827SOL    HW125940   0.508   1.066  16.827  0.0922 -0.6762  0.8404
 4827SOL    HW225941   0.605   1.160  16.879  1.7228 -3.1583  0.3995
 4828SOL     OW25942   4.377   4.045   1.769  0.2157  0.1939 -0.0757
 4828SOL    HW125943   4.416   4.121   1.727  1.8960 -0.4177  0.3803
 4828SOL    HW225944   4.362   4.085   1.855  0.4066  0.6884 -0.2728
 4829SOL     OW25945   4.067   2.181   7.173  0.0034 -0.2307 -0.1805
 4829SOL    HW125946   4.158   2.149   7.173 -0.1064 -0.5455 -0.1527
 4829SOL    HW225947   4.012   2.134   7.236 -0.5042  0.4968 -0.0866
 4830SOL     OW25948   3.074   1.298   8.633  0.1302  0.3110 -0.0090
 4830SOL    HW125949   3.131   1.285   8.557  1.4614 -1.7463  1.3494
 4830SOL    HW225950   3.058   1.392   8.625 -0.2109  0.2917  0.4824
 4831SOL     OW25951   0.031   0.800   2.048 -0.0118 -0.5029  0.3460
 4831SOL    HW125952   4.670   0.784   2.095 -1.5881  0.8529 -1.9420
 4831SOL    HW225953   0.093   0.775   2.117  0.8260 -1.1761 -0.6576
 4832SOL     OW25954   3.112   3.811   7.620 -0.6760 -0.2490  0.3386
 4832SOL    HW125955   3.176   3.835   7.552  1.2907 -0.0657  2.2462
 4832SOL    HW225956   3.066   3.895   7.621  1.5679  1.0483 -2.4286
 4833SOL     OW25957   3.040   1.693   4.990 -0.5578  0.1439  0.2040
 4833SOL    HW125958   3.059   1.613   5.038 -3.3362 -0.5367  0.1990
 4833SOL    HW225959   2.976   1.741   5.043 -0.2758  1.3450 -0.5573
 4834SOL     OW25960   0.630   3.860   2.695  0.4012  0.3474  0.3675
 4834SOL    HW125961   0.560   3.834   2.755 -1.5080 -1.9125 -2.8158
 4834SOL    HW225962   0.667   3.775   2.672 -2.6361 -0.9931  0.3832
 4835SOL     OW25963   1.120   4.643   5.894 -0.2507 -0.1701 -0.4254
 4835SOL    HW125964   1.032   4.646   5.857  0.1752  0.3813 -1.4021
 4835SOL    HW225965   1.121   0.012   5.925 -3.7668  0.3328 -1.7964
 4836SOL     OW25966   0.197   2.282  17.650  0.3053  0.1600 -0.2808
 4836SOL    HW125967   0.246   2.200  17.649 -0.5625 -0.3704  1.8408
 4836SOL    HW225968   0.149   2.268   0.046 -0.8822  3.7553 -0.3447
 4837SOL     OW25969   4.193   3.413  11.336 -0.0887 -0.0250  0.4941
 4837SOL    HW125970   4.282   3.448  11.328  0.2119 -1.2393 -1.4412
 4837SOL    HW225971   4.209   3.319  11.329 -1.4698 -0.1485 -0.8218
 4838SOL     OW25972   0.819   0.226  13.391 -0.6152  0.0935  0.2524
 4838SOL    HW125973   0.774   0.265  13.316 -3.3020 -1.1875  1.2155
 4838SOL    HW225974   0.829   0.135  13.362 -0.0270 -0.0578  0.9397
 4839SOL     OW25975   2.504   1.532   4.569 -0.3237  0.7821 -0.0174
 4839SOL    HW125976   2.530   1.615   4.529 -1.9842  1.7662  0.9286
 4839SOL    HW225977   2.416   1.535   4.531 -0.5926 -0.2581  0.5133
 4840SOL     OW25978   0.448   4.216   4.407 -0.4365 -0.1636  0.2525
 4840SOL    HW125979   0.486   4.177   4.329  1.8141  0.3439  1.1009
 4840SOL    HW225980   0.449   4.147   4.473  1.1988  0.0397  0.4321
 4841SOL     OW25981   1.001   2.478  16.200 -0.3912  0.4068 -0.2193
 4841SOL    HW125982   1.071   2.464  16.264 -0.4424  0.3332 -0.1796
 4841SOL    HW225983   0.943   2.408  16.230  0.6507  0.2311  1.3978
 4842SOL     OW25984   0.401   4.427  13.106  0.3358  0.1278 -0.3703
 4842SOL    HW125985   0.436   4.480  13.034  1.6550 -0.8837 -0.4809
 4842SOL    HW225986   0.335   4.481  13.149  0.3393  0.3123 -0.5931
 4843SOL     OW25987   4.550   3.146  17.502  0.3997  0.1409 -0.2143
 4843SOL    HW125988   4.488   3.141  17.429  0.2681 -0.8675 -0.0245
 4843SOL    HW225989   4.554   3.242  17.505 -2.8573  0.2752 -0.2820
 4844SOL     OW25990   0.472   2.914   3.122 -0.2258  0.0273 -0.4750
 4844SOL    HW125991   0.413   2.900   3.049  0.8771 -0.9850 -1.1627
 4844SOL    HW225992   0.550   2.909   3.067 -0.3543  1.0638 -0.7471
 4845SOL     OW25993   2.782   0.161   4.567 -0.3641  0.3600  0.8019
 4845SOL    HW125994   2.691   0.191   4.562 -0.5420 -0.2192  0.5800
 4845SOL    HW225995   2.825   0.240   4.600  1.4085 -0.3098  0.0978
 4846SOL     OW25996   0.689   0.115   3.134 -0.3943 -1.1711  0.4275
 4846SOL    HW125997   0.673   0.075   3.049 -1.4994  0.2943 -0.0484
 4846SOL    HW225998   0.784   0.119   3.137 -0.3794 -1.4725  0.3746
 4847SOL     OW25999   0.356   2.765   7.805  0.0884  0.7070 -0.0825
 4847SOL    HW126000   0.281   2.718   7.841 -0.2539  1.8633  0.7046
 4847SOL    HW226001   0.393   2.687   7.764 -1.3387  0.6992 -1.3775
 4848SOL     OW26002   4.152   3.107  11.327  0.4670  0.1326  0.2070
 4848SOL    HW126003   4.084   3.047  11.296  0.1028  0.7068 -0.0921
 4848SOL    HW226004   4.228   3.084  11.273  0.4941  2.5286 -0.7826
 4849SOL     OW26005   3.708   0.238   6.802  0.5492  0.0592 -0.3054
 4849SOL    HW126006   3.727   0.145   6.815 -0.6011 -0.3355 -1.3998
 4849SOL    HW226007   3.787   0.263   6.755  1.5224  0.2330  1.4353
 4850SOL     OW26008   4.201   2.839   8.963 -0.3641  1.1731  0.1517
 4850SOL    HW126009   4.251   2.885   9.030 -0.9362  0.7191  0.8844
 4850SOL    HW226010   4.115   2.880   8.974 -1.2458 -1.8145  4.3745
 4851SOL     OW26011   1.720   1.643   6.982 -0.6522 -0.0483 -0.2088
 4851SOL    HW126012   1.740   1.727   6.939 -0.3631 -0.0337 -0.0418
 4851SOL    HW226013   1.741   1.581   6.912 -1.0105 -1.5185  0.9966
 4852SOL     OW26014   4.332   0.833   7.168  0.2559 -0.6279 -0.4813
 4852SOL    HW126015   4.320   0.851   7.261  0.2462  0.4433 -0.6953
 4852SOL    HW226016   4.243   0.839   7.133  0.0985  2.4138  0.4339
 4853SOL     OW26017   1.080   4.471  12.433  0.1919  0.1086 -0.0106
 4853SOL    HW126018   0.997   4.428  12.411 -0.2730  2.1154 -2.1832
 4853SOL    HW226019   1.097   4.438  12.521 -0.5357 -0.6124 -0.1350
 4854SOL     OW26020   0.135   4.491  10.312  0.0082 -0.5541  0.2362
 4854SOL    HW126021   0.202   4.435  10.273  1.0865  0.7775  0.1932
 4854SOL    HW226022   0.182   4.553  10.368  2.0396 -0.5045 -1.5544
 4855SOL     OW26023   3.765   1.752   4.747 -0.1057 -0.6517 -0.4405
 4855SOL    HW126024   3.691   1.801   4.710 -0.8019 -2.0696 -0.9414
 4855SOL    HW226025   3.732   1.662   4.748 -3.1794  0.4740  0.5091
 4856SOL     OW26026   3.675   1.826   5.801 -0.2289 -0.2092  0.2320
 4856SOL    HW126027   3.722   1.906   5.781 -1.9323  1.4073  2.6829
 4856SOL    HW226028   3.731   1.799   5.873 -0.7074  0.6259  0.9105
 4857SOL     OW26029   2.199   1.522   7.000 -0.2859 -0.1236 -0.3086
 4857SOL    HW126030   2.142   1.523   7.077  1.6296 -1.5604  1.1515
 4857SOL    HW226031   2.134   1.502   6.933 -0.4426  1.5763 -0.6383
 4858SOL     OW26032   0.684   3.956   6.792 -0.0438 -0.1546  0.3330
 4858SOL    HW126033   0.732   3.926   6.869  2.0324  3.0224  0.2747
 4858SOL    HW226034   0.711   3.889   6.730 -0.2832  1.2219 -1.2483
 4859SOL     OW26035   4.546   0.231   7.407  0.1065  0.2742 -0.2343
 4859SOL    HW126036   4.491   0.308   7.419 -2.3942 -0.9041 -4.0036
 4859SOL    HW226037   4.607   0.245   7.334  1.2911 -3.0177  0.1158
 4860SOL     OW26038   0.286   1.646  13.406 -0.3526  0.3522 -0.0729
 4860SOL    HW126039   0.269   1.741  13.409  0.6310  0.5411 -0.3007
 4860SOL    HW226040   0.381   1.649  13.419 -0.2078  0.5318 -1.1648
 4861SOL     OW26041   1.364   1.083   4.783  0.2053  0.1673 -0.0391
 4861SOL    HW126042   1.271   1.080   4.765  0.4209  1.6981 -1.3730
 4861SOL    HW226043   1.391   1.163   4.738 -2.0258 -0.9937 -3.4216
 4862SOL     OW26044   4.203   1.128   0.717 -0.0039 -0.5451 -0.2099
 4862SOL    HW126045   4.267   1.170   0.660 -0.1451  2.0143  1.4795
 4862SOL    HW226046   4.251   1.054   0.752 -1.2925 -1.9592 -1.4436
 4863SOL     OW26047   4.645   2.944   9.407  0.3069  0.2528  0.3083
 4863SOL    HW126048   4.557   2.964   9.438 -0.1510 -1.9136  0.4470
 4863SOL    HW226049   4.674   3.032   9.383  0.6211  0.0669  0.0049
 4864SOL     OW26050   4.576   4.142   4.735  0.5712 -0.6799  0.4449
 4864SOL    HW126051   4.486   4.153   4.763  0.0410  0.4802 -1.6857
 4864SOL    HW226052   4.623   4.130   4.817  4.0612 -2.5875 -1.7852
 4865SOL     OW26053   2.725   3.039  14.578 -0.1049 -0.6529  0.4974
 4865SOL    HW126054   2.705   2.953  14.616 -1.4509  0.1867  1.6885
 4865SOL    HW226055   2.672   3.036  14.499  1.2151  0.3833 -0.4254
 4866SOL     OW26056   0.673   2.947  10.044 -0.1205 -0.5768 -0.1604
 4866SOL    HW126057   0.649   2.913  10.130  3.1790  0.4044  1.1542
 4866SOL    HW226058   0.727   3.024  10.064 -1.5412  0.0560  1.2686
 4867SOL     OW26059   1.284   3.573   5.959 -0.5964  0.9482 -0.1757
 4867SOL    HW126060   1.370   3.614   5.952  0.0150 -0.4511 -1.0280
 4867SOL    HW226061   1.228   3.650   5.959 -0.9137  0.7183  0.0992
 4868SOL     OW26062   2.629   2.398   5.689 -0.0144  0.1357  0.2465
 4868SOL    HW126063   2.610   2.455   5.615  1.8067  0.3212 -0.0809
 4868SOL    HW226064   2.539   2.371   5.710 -0.2213 -0.6059 -1.5927
 4869SOL     OW26065   2.327   0.939   3.484 -0.2263  0.1930  0.2573
 4869SOL    HW126066   2.407   0.976   3.447  0.4571 -0.0901  1.4534
 4869SOL    HW226067   2.271   0.941   3.405 -0.3850  0.1267  0.3680
 4870SOL     OW26068   2.556   2.002   9.141 -0.1958  0.5065 -0.6178
 4870SOL    HW126069   2.518   2.020   9.227  1.1218 -0.8727  0.2741
 4870SOL    HW226070   2.602   1.921   9.164 -2.0031  0.1553  1.7781
 4871SOL     OW26071   1.565   3.267   8.461  0.3244 -0.2019  0.4713
 4871SOL    HW126072   1.479   3.226   8.465 -0.0624  0.6195  0.4606
 4871SOL    HW226073   1.558   3.304   8.549  0.9298  0.2963  0.3049
 4872SOL     OW26074   3.599   0.453   3.054  0.4213  0.0801 -0.3079
 4872SOL    HW126075   3.664   0.522   3.067  0.7444 -0.6939  2.0910
 4872SOL    HW226076   3.656   0.376   3.041 -0.4274 -1.0606  2.6847
 4873SOL     OW26077   2.608   3.925   4.684 -0.4545  0.2581 -0.1487
 4873SOL    HW126078   2.554   3.996   4.649 -1.5101 -0.2084  0.5292
 4873SOL    HW226079   2.690   3.972   4.700 -0.8631 -0.0084  2.7919
 4874SOL     OW26080   4.520   3.031  10.300  0.3780  0.3262 -0.5791
 4874SOL    HW126081   4.463   3.026  10.223 -1.4916 -1.9571  0.9333
 4874SOL    HW226082   4.508   2.938  10.322  0.6069  0.2687 -0.7075
 4875SOL     OW26083   3.545   2.829  12.001  0.1331  0.4856 -0.4101
 4875SOL    HW126084   3.552   2.923  12.018 -0.5889  0.0749  2.1235
 4875SOL    HW226085   3.451   2.812  11.992  0.0272  1.7031 -1.6499
 4876SOL     OW26086   3.548   1.401   8.587  0.3856  0.3622  0.0049
 4876SOL    HW126087   3.513   1.363   8.668 -1.8090  1.7643 -0.3038
 4876SOL    HW226088   3.603   1.330   8.553  0.2730 -0.5648  1.7558
 4877SOL     OW26089   2.301   1.973   6.648 -0.2064  0.1023  0.4157
 4877SOL    HW126090   2.347   2.053   6.623  0.3204 -0.7239 -1.2767
 4877SOL    HW226091   2.293   1.984   6.742  1.8859  1.6258  0.3960
 4878SOL     OW26092   2.632   3.259   3.919 -0.2645  0.0191 -0.1179
 4878SOL    HW126093   2.692   3.283   3.990 -0.4774  1.5544 -0.4646
 4878SOL    HW226094   2.654   3.166   3.913  1.0138  0.3999 -1.2792
 4879SOL     OW26095   0.707   3.648   3.911 -0.1003 -0.4772  0.7952
 4879SOL    HW126096   0.666   3.683   3.832 -0.6051 -1.1952  0.7337
 4879SOL    HW226097   0.719   3.557   3.881 -1.2903 -0.3093 -0.1566
 4880SOL     OW26098   1.129   1.219   6.156  0.3224 -0.3780  0.0041
 4880SOL    HW126099   1.107   1.163   6.230 -0.0465 -1.7790 -1.1563
 4880SOL    HW226100   1.167   1.293   6.203  0.9056 -2.2410  2.4770
 4881SOL     OW26101   1.385   4.360   5.713  0.0394 -0.4144 -0.3831
 4881SOL    HW126102   1.435   4.380   5.634  1.8275 -0.1799  0.8265
 4881SOL    HW226103   1.403   4.436   5.767  0.7975  0.2336 -1.5546
 4882SOL     OW26104   3.085   2.982   8.397  0.1058 -0.0221 -0.5374
 4882SOL    HW126105   3.163   2.927   8.400 -1.8758 -2.6717  1.8907
 4882SOL    HW226106   3.052   2.949   8.313  0.9197  0.0546 -0.8906
 4883SOL     OW26107   4.507   2.431   2.492  0.0526  0.5070  0.3951
 4883SOL    HW126108   4.561   2.426   2.571  0.4660  0.8166  0.1337
 4883SOL    HW226109   4.419   2.420   2.528  0.5792  0.9515  1.8509
 4884SOL     OW26110   1.843   0.269   2.635 -0.4912 -0.5346 -0.0900
 4884SOL    HW126111   1.850   0.233   2.546  0.2176  1.5400 -0.8696
 4884SOL    HW226112   1.852   0.361   2.612 -1.2107 -0.6494 -0.8172
 4885SOL     OW26113   2.118   4.536   7.242 -0.2121  0.0363  0.2172
 4885SOL    HW126114   2.195   4.486   7.270  1.2072  1.1396 -1.6659
 4885SOL    HW226115   2.058   4.500   7.306 -1.3974 -0.0752 -0.9571
 4886SOL     OW26116   1.741   4.371   9.962  0.2074  0.0998  0.0762
 4886SOL    HW126117   1.651   4.385   9.993  0.0777  1.2926 -0.8493
 4886SOL    HW226118   1.780   4.369  10.049 -1.6007  1.3133  0.9254
 4887SOL     OW26119   3.216   3.745   7.242 -0.3478  0.1000  0.2619
 4887SOL    HW126120   3.260   3.795   7.311 -0.2788  0.5954 -0.1409
 4887SOL    HW226121   3.174   3.668   7.282 -2.0343 -0.0213 -1.7034
 4888SOL     OW26122   3.467   0.253   6.505  0.0206 -0.3470 -0.0558
 4888SOL    HW126123   3.438   0.179   6.560 -0.4140  0.9364  1.4408
 4888SOL    HW226124   3.493   0.325   6.562 -1.5567 -0.4592  0.8134
 4889SOL     OW26125   1.256   4.374   1.883 -0.6520  0.1095  0.4643
 4889SOL    HW126126   1.348   4.385   1.860 -0.3951 -0.9937  0.9329
 4889SOL    HW226127   1.215   4.344   1.802  0.6116  1.9540 -0.8517
 4890SOL     OW26128   1.109   2.374   4.563 -0.0420 -0.3430 -0.3547
 4890SOL    HW126129   1.181   2.382   4.499 -0.3193  0.3640 -0.5747
 4890SOL    HW226130   1.108   2.465   4.593  0.1692  0.5323 -2.9938
 4891SOL     OW26131   4.583   0.738   4.805 -0.1917  0.1189  0.0891
 4891SOL    HW126132   4.501   0.699   4.834  0.1136  0.5912  1.6076
 4891SOL    HW226133   4.608   0.677   4.736 -1.8972 -0.4686 -0.0081
 4892SOL     OW26134   3.771   4.391  12.487 -0.0889  0.4632  0.3575
 4892SOL    HW126135   3.720   4.310  12.491  1.8585 -0.7478  0.7525
 4892SOL    HW226136   3.859   4.360  12.466 -1.2561 -1.6448 -1.4018
 4893SOL     OW26137   1.776   2.597   3.361  0.1500  0.3291  0.1110
 4893SOL    HW126138   1.818   2.623   3.279  0.0075 -0.7190 -0.3067
 4893SOL    HW226139   1.683   2.593   3.339  0.4509 -2.6938 -0.6834
 4894SOL     OW26140   2.640   4.132   3.123 -0.4126 -0.0981  0.3450
 4894SOL    HW126141   2.730   4.099   3.134 -0.2939 -0.3184 -1.3506
 4894SOL    HW226142   2.652   4.186   3.045 -1.2669  0.1148  0.3611
 4895SOL     OW26143   2.628   0.643   6.469  0.5577 -0.5730  0.5176
 4895SOL    HW126144   2.551   0.587   6.455 -0.7221  1.1263  0.7071
 4895SOL    HW226145   2.587   0.715   6.518 -1.3157 -2.2185  1.4105
 4896SOL     OW26146   4.717   0.915   5.520 -0.8886 -0.3073 -0.3543
 4896SOL    HW126147   4.664   0.928   5.442  0.5086  0.4543 -1.1667
 4896SOL    HW226148   0.033   1.002   5.533 -1.0292 -0.3142  0.0882
 4897SOL     OW26149   1.780   3.731   3.184  0.2977 -0.5201  0.4191
 4897SOL    HW126150   1.759   3.647   3.225  2.1656 -0.3259  1.7556
 4897SOL    HW226151   1.700   3.745   3.133  2.2800  2.0131 -1.9894
 4898SOL     OW26152   2.626   3.518   7.420  0.2186  0.0548 -0.5655
 4898SOL    HW126153   2.656   3.546   7.334 -1.2988 -0.4263 -1.2389
 4898SOL    HW226154   2.536   3.549   7.424 -0.6729 -2.4931 -1.1785
 4899SOL     OW26155   4.565   1.076   3.927 -0.3014  0.2972 -0.3437
 4899SOL    HW126156   4.659   1.055   3.928 -1.0263 -2.7249  1.4521
 4899SOL    HW226157   4.554   1.058   4.020  0.4899 -0.5667 -0.4120
 4900SOL     OW26158   0.993   4.603   3.663 -0.5055  0.7603  0.1441
 4900SOL    HW126159   1.062   4.606   3.597 -1.6761  1.3517 -1.0512
 4900SOL    HW226160   0.931   4.666   3.627 -1.1166 -0.0251 -0.2023
 4901SOL     OW26161   1.732   1.369  15.562  0.0798 -0.2757 -0.0209
 4901SOL    HW126162   1.716   1.403  15.474 -0.2908  1.8480  0.8642
 4901SOL    HW226163   1.714   1.450  15.609 -0.2169  0.3215 -1.1540
 4902SOL     OW26164   0.144   1.453   8.749 -0.3339 -0.3429 -0.6177
 4902SOL    HW126165   0.191   1.536   8.746  1.2064 -1.2006 -0.3132
 4902SOL    HW226166   0.051   1.477   8.741 -0.2127  0.9490  1.9337
 4903SOL     OW26167   0.617   0.282   1.648 -0.1002 -0.0477 -0.2063
 4903SOL    HW126168   0.578   0.296   1.562 -0.2041 -0.4198 -0.2205
 4903SOL    HW226169   0.690   0.344   1.644 -0.1249  0.0183  0.3114
 4904SOL     OW26170   2.452   0.262   6.634  0.4551 -0.4557 -0.4571
 4904SOL    HW126171   2.500   0.200   6.579  3.5393  1.3592  0.2185
 4904SOL    HW226172   2.420   0.202   6.702  1.0628 -0.0559  0.1813
 4905SOL     OW26173   3.266   1.254   5.695 -0.6482  0.6359 -0.1740
 4905SOL    HW126174   3.304   1.217   5.774 -0.6162 -1.0456 -0.9701
 4905SOL    HW226175   3.350   1.247   5.649 -1.0822 -1.4112 -0.6666
 4906SOL     OW26176   1.304   4.143  12.406 -0.6228 -0.1476  0.2192
 4906SOL    HW126177   1.365   4.178  12.341 -1.7236 -0.1685 -0.8161
 4906SOL    HW226178   1.220   4.151  12.360 -1.1745  0.6622  1.3528
 4907SOL     OW26179   0.089   1.091   3.547 -0.5802 -0.0132 -0.3241
 4907SOL    HW126180   0.111   1.183   3.563  0.2197 -0.0031 -1.5113
 4907SOL    HW226181   0.059   1.099   3.457 -0.8724  0.6411 -0.1666
 4908SOL     OW26182   1.393   1.161  10.005 -0.1738 -0.1219 -0.4109
 4908SOL    HW126183   1.406   1.153  10.099 -2.9661  2.2086  0.1852
 4908SOL    HW226184   1.473   1.210   9.981 -0.4958  0.5781 -0.0541
 4909SOL     OW26185   2.843   0.204   9.680 -0.2022 -0.3584 -0.3030
 4909SOL    HW126186   2.827   0.276   9.618 -1.1087 -0.0798  0.2526
 4909SOL    HW226187   2.927   0.225   9.722  0.0033 -0.7391 -0.5254
 4910SOL     OW26188   0.858   1.495   5.320 -0.1060 -0.5571 -0.1595
 4910SOL    HW126189   0.832   1.450   5.239  1.7127 -1.9463  0.0267
 4910SOL    HW226190   0.951   1.475   5.329  0.3005  1.3487 -0.1562
 4911SOL     OW26191   1.469   1.827   8.076 -0.0601  0.5644  0.4199
 4911SOL    HW126192   1.538   1.818   8.141 -0.8722  0.3590  1.2419
 4911SOL    HW226193   1.529   1.872   8.015 -0.7880 -0.7812 -1.2784
 4912SOL     OW26194   1.714   1.510   6.156 -0.1269  0.1004 -0.0952
 4912SOL    HW126195   1.715   1.431   6.101 -2.4150 -0.5885  0.8378
 4912SOL    HW226196   1.776   1.499   6.227  0.3799 -1.8421 -0.8267
 4913SOL     OW26197   2.303   2.098   3.385  0.3468 -0.4488 -0.3633
 4913SOL    HW126198   2.339   2.150   3.313 -4.5481  1.6352 -1.3081
 4913SOL    HW226199   2.211   2.125   3.382  0.7406  0.8299 -1.2278
 4914SOL     OW26200   1.826   2.733   7.576 -0.2105  0.1637  0.4317
 4914SOL    HW126201   1.796   2.643   7.594 -1.0329  0.4575  0.5505
 4914SOL    HW226202   1.921   2.730   7.584 -0.1737 -1.5935 -0.6769
 4915SOL     OW26203   2.295   3.165   6.991  0.0483  0.7209 -0.2741
 4915SOL    HW126204   2.320   3.220   7.065  0.7584  0.4751 -0.3331
 4915SOL    HW226205   2.253   3.231   6.935 -0.8060 -0.5002 -1.0737
 4916SOL     OW26206   4.079   3.690   7.427 -0.3939 -0.1230 -0.6483
 4916SOL    HW126207   4.087   3.785   7.432  1.3443 -0.1658 -2.5438
 4916SOL    HW226208   4.021   3.674   7.502 -1.0263 -0.6725 -1.2552
 4917SOL     OW26209   1.538   3.142  10.888 -0.1219  0.7103  0.2595
 4917SOL    HW126210   1.476   3.214  10.878  0.0931  0.6720 -1.4239
 4917SOL    HW226211   1.478   3.068  10.894  3.6357 -2.2253  1.0366
 4918SOL     OW26212   4.598   4.718   6.459 -0.4794 -0.7670  0.1745
 4918SOL    HW126213   4.660   4.692   6.526  0.9087  1.5861 -0.1884
 4918SOL    HW226214   4.638   4.667   6.389 -0.7467 -1.6709  0.6833
 4919SOL     OW26215   0.577   1.776   6.642 -0.6836  0.6060 -0.1391
 4919SOL    HW126216   0.637   1.730   6.584 -1.5455 -0.5733 -0.0786
 4919SOL    HW226217   0.580   1.711   6.712 -1.5003  2.6152  1.7679
 4920SOL     OW26218   1.977   3.567   5.250 -0.4348  0.2740  0.6850
 4920SOL    HW126219   1.962   3.514   5.173 -2.0029 -0.3563  1.4213
 4920SOL    HW226220   2.071   3.552   5.258 -0.1860 -0.3037 -3.5604
 4921SOL     OW26221   0.102   3.360   7.831  0.0072 -0.0347 -0.2038
 4921SOL    HW126222   0.011   3.377   7.855 -0.0272  0.6667 -0.8618
 4921SOL    HW226223   0.096   3.271   7.795  3.8903 -0.6767  0.7543
 4922SOL     OW26224   2.861   2.342   5.571  0.5562 -0.1024 -0.7240
 4922SOL    HW126225   2.782   2.346   5.625  3.9671 -0.8606  4.3510
 4922SOL    HW226226   2.822   2.308   5.491 -0.3562  2.3074 -1.3195
 4923SOL     OW26227   1.840   2.469   5.979 -0.2372 -0.4292 -0.6942
 4923SOL    HW126228   1.845   2.564   5.977  3.5050 -0.5731  2.3896
 4923SOL    HW226229   1.777   2.457   5.908  0.1186  1.0153 -1.2558
 4924SOL     OW26230   0.126   0.514  17.301  0.5167 -0.2127 -0.4633
 4924SOL    HW126231   0.201   0.570  17.280 -0.4355  0.5101 -1.9430
 4924SOL    HW226232   0.172   0.440  17.341  0.6887 -1.5830 -3.1657
 4925SOL     OW26233   1.523   4.410   3.920  0.0384 -0.2120 -0.3550
 4925SOL    HW126234   1.505   4.427   4.012  0.7618  0.6965 -0.3857
 4925SOL    HW226235   1.568   4.326   3.914  0.2749 -0.0325 -1.1294
 4926SOL     OW26236   3.396   0.820   3.047 -0.1217 -0.2791  0.5697
 4926SOL    HW126237   3.308   0.826   3.009  1.3384 -1.8407 -3.1209
 4926SOL    HW226238   3.446   0.819   2.965  2.1663 -1.9879  1.9894
 4927SOL     OW26239   2.360   0.861   4.810 -0.2350  0.5745  0.6619
 4927SOL    HW126240   2.391   0.952   4.812  2.1463 -0.1750 -0.9686
 4927SOL    HW226241   2.369   0.831   4.719  2.0092  1.2710  0.6409
 4928SOL     OW26242   3.004   1.339   9.798 -0.2947 -0.7646 -0.3021
 4928SOL    HW126243   2.973   1.284   9.870  3.4531 -0.2578  1.7560
 4928SOL    HW226244   3.094   1.343   9.831 -1.1206  0.4461  1.8226
 4929SOL     OW26245   1.068   4.155  12.270 -0.3042 -0.5401  0.3196
 4929SOL    HW126246   1.008   4.080  12.274  1.9933 -2.4082 -0.8263
 4929SOL    HW226247   1.005   4.227  12.267  0.7621  0.3713  0.1810
 4930SOL     OW26248   3.220   2.033   8.680 -0.0020  0.7162  0.2668
 4930SOL    HW126249   3.244   2.099   8.614 -0.5901  0.4469 -0.2170
 4930SOL    HW226250   3.214   2.088   8.758 -2.0041  1.4303 -0.3764
 4931SOL     OW26251   1.331   1.009  14.664 -0.1490  0.2480 -0.3255
 4931SOL    HW126252   1.261   0.947  14.641  0.1614  0.4184 -1.7338
 4931SOL    HW226253   1.357   1.057  14.586 -0.6852  1.0446 -0.0213
 4932SOL     OW26254   0.676   2.388   4.614  0.1231  0.0119 -0.3553
 4932SOL    HW126255   0.711   2.385   4.525 -1.1329 -1.8124 -0.7750
 4932SOL    HW226256   0.756   2.402   4.666 -0.9374  0.9475  1.0346
 4933SOL     OW26257   1.899   3.925   7.916 -0.0887 -0.1750 -0.0040
 4933SOL    HW126258   1.898   3.840   7.960 -0.1552 -0.6137 -0.8691
 4933SOL    HW226259   1.904   3.894   7.826  0.0269  0.7736 -0.3225
 4934SOL     OW26260   0.589   2.384   8.263 -0.0272  0.0078  0.2370
 4934SOL    HW126261   0.546   2.408   8.181  0.3365 -2.1492 -0.5830
 4934SOL    HW226262   0.558   2.468   8.298  1.5067  0.6612  0.0187
 4935SOL     OW26263   3.307   2.115   2.306 -0.0018 -0.0718  0.3651
 4935SOL    HW126264   3.358   2.196   2.299  0.5737 -0.5176 -0.7273
 4935SOL    HW226265   3.378   2.058   2.274  0.5993  0.5144  0.6562
 4936SOL     OW26266   2.879   4.165  11.822  0.6476 -0.1946 -0.1907
 4936SOL    HW126267   2.956   4.107  11.815  0.3327 -0.8092  1.4832
 4936SOL    HW226268   2.901   4.222  11.748 -0.2914  1.3955  0.7637
 4937SOL     OW26269   0.833   2.036   9.198 -0.1449 -0.1741  0.1011
 4937SOL    HW126270   0.853   1.953   9.242 -0.7502  0.1278  0.9459
 4937SOL    HW226271   0.739   2.028   9.183 -0.3510 -0.8508  1.7994
 4938SOL     OW26272   0.100   1.956  14.241  0.3339  0.2702  0.3889
 4938SOL    HW126273   0.157   1.880  14.238  1.6128  1.2271  0.1579
 4938SOL    HW226274   0.071   1.964  14.150 -0.8209 -2.2033  0.5586
 4939SOL     OW26275   2.987   3.186   1.465  0.4572 -0.0277 -0.0953
 4939SOL    HW126276   2.902   3.197   1.507  0.8225 -0.3941  0.7324
 4939SOL    HW226277   3.041   3.202   1.542 -0.4400  0.2912  0.4614
 4940SOL     OW26278   0.575   0.079  11.662 -0.4400  0.0198  0.1006
 4940SOL    HW126279   0.526   0.151  11.624  1.1180 -0.0731 -2.0814
 4940SOL    HW226280   0.643   0.068  11.596  1.6960 -2.1740  2.6519
 4941SOL     OW26281   3.782   4.685   7.230 -0.3406 -0.6690  0.7847
 4941SOL    HW126282   3.828   0.042   7.263  2.3552 -0.5299 -3.3802
 4941SOL    HW226283   3.830   4.611   7.268 -0.0125 -1.0047 -0.3042
 4942SOL     OW26284   1.868   0.792   4.085 -0.0772 -0.0879  0.5915
 4942SOL    HW126285   1.909   0.868   4.125 -1.4075  0.7747  0.2902
 4942SOL    HW226286   1.938   0.727   4.081  1.2006  1.3011  0.5249
 4943SOL     OW26287   0.446   2.220   4.085 -0.4003 -0.7623  0.0738
 4943SOL    HW126288   0.459   2.211   4.180 -1.2062  0.0760  0.2683
 4943SOL    HW226289   0.366   2.170   4.075  0.4873 -2.2473  0.4222
 4944SOL     OW26290   1.080   2.125  12.344 -1.0538  0.0358 -0.3287
 4944SOL    HW126291   1.054   2.181  12.417 -0.6896  0.7012 -0.7044
 4944SOL    HW226292   1.038   2.046  12.378 -0.0245  0.2497  1.3750
 4945SOL     OW26293   4.288   1.838   5.350 -0.5655 -0.2493  0.4580
 4945SOL    HW126294   4.266   1.804   5.437 -1.0031 -1.3617 -0.0938
 4945SOL    HW226295   4.239   1.920   5.355 -0.5016 -0.1598 -0.4603
 4946SOL     OW26296   4.582   1.190  16.960 -0.0653  0.3357  0.4380
 4946SOL    HW126297   4.601   1.275  16.999  1.0830  0.9421 -1.4494
 4946SOL    HW226298   4.527   1.151  17.028 -2.7331  0.8579 -1.4447
 4947SOL     OW26299   1.787   2.803   0.358  0.1096 -0.3177 -0.2097
 4947SOL    HW126300   1.874   2.797   0.397  0.5175 -3.1882 -1.5634
 4947SOL    HW226301   1.733   2.826   0.434 -0.5859 -0.9136 -0.5207
 4948SOL     OW26302   2.824   2.412  12.901 -0.2940 -0.0433 -0.8437
 4948SOL    HW126303   2.803   2.482  12.963 -0.8873 -1.4496  0.5474
 4948SOL    HW226304   2.916   2.438  12.895 -0.0353 -0.5774  0.7054
 4949SOL     OW26305   0.865   1.491   0.760  0.0082  0.4625 -0.6851
 4949SOL    HW126306   0.928   1.553   0.723  0.5202  1.9037  2.6076
 4949SOL    HW226307   0.825   1.453   0.682 -1.6371  0.1067  0.3460
 4950SOL     OW26308   4.592   0.652   7.364  0.1780  0.3624 -0.2309
 4950SOL    HW126309   4.672   0.604   7.387  1.1263  1.4564 -1.2385
 4950SOL    HW226310   4.615   0.684   7.277  2.3621  4.2239  1.7786
 4951SOL     OW26311   0.367   3.209   6.277  0.2294 -0.2058  0.2404
 4951SOL    HW126312   0.319   3.126   6.271  0.4200 -0.5936  3.7974
 4951SOL    HW226313   0.428   3.195   6.349  0.3155 -0.6409  0.0792
 4952SOL     OW26314   1.849   4.494   4.200  0.1186 -0.5928 -0.2547
 4952SOL    HW126315   1.776   4.480   4.139 -0.1488  1.1316 -0.3338
 4952SOL    HW226316   1.894   4.569   4.161  0.9914 -1.5629 -1.1219
 4953SOL     OW26317   0.772   4.465   7.821 -0.0571  0.1427  0.3432
 4953SOL    HW126318   0.783   4.370   7.823  0.0550  0.2305  3.5128
 4953SOL    HW226319   0.746   4.485   7.911 -0.1778 -0.4334  0.4401
 4954SOL     OW26320   0.978   2.223   9.024 -1.0263  0.1975  0.4573
 4954SOL    HW126321   0.974   2.162   8.951 -1.1031  1.0336 -0.2350
 4954SOL    HW226322   0.941   2.162   9.087 -0.1792 -1.0643 -0.2739
 4955SOL     OW26323   3.361   1.069   0.759  0.0501 -0.3475 -0.3382
 4955SOL    HW126324   3.372   1.008   0.686  0.4877 -0.5798 -0.0746
 4955SOL    HW226325   3.331   1.009   0.827  0.4504  2.4533  2.2881
 4956SOL     OW26326   1.765   3.046   5.555  0.1664  0.0050 -0.3990
 4956SOL    HW126327   1.720   3.111   5.609  0.2367 -1.2014  1.1329
 4956SOL    HW226328   1.811   3.110   5.502  0.7871 -0.1968 -0.1021
 4957SOL     OW26329   3.913   1.056   2.806  0.0760  0.1782 -0.4384
 4957SOL    HW126330   3.969   1.103   2.867  1.0756 -3.2598  1.2741
 4957SOL    HW226331   3.876   0.990   2.865  1.5682  0.0052  0.2878
 4958SOL     OW26332   2.639   0.456   3.224  0.0064 -0.0586 -0.2197
 4958SOL    HW126333   2.685   0.503   3.293 -0.0816 -0.1641 -0.0880
 4958SOL    HW226334   2.707   0.411   3.173  0.0423 -0.9636  0.6202
 4959SOL     OW26335   1.848   4.037   8.148  0.6639 -0.7738  0.3566
 4959SOL    HW126336   1.753   4.026   8.138  0.8649 -1.7708 -0.4123
 4959SOL    HW226337   1.873   3.991   8.068  1.3700  1.9034 -0.9829
 4960SOL     OW26338   4.253   0.764   2.227  0.3987 -0.6900 -0.2407
 4960SOL    HW126339   4.197   0.799   2.297  2.1075 -0.3569  0.9675
 4960SOL    HW226340   4.222   0.810   2.149  0.6408 -0.6538 -0.3155
 4961SOL     OW26341   2.542   0.645  16.147  0.0831  0.0051 -0.4289
 4961SOL    HW126342   2.631   0.625  16.116  0.7218  2.3890 -0.1034
 4961SOL    HW226343   2.542   0.739  16.133  0.7320  0.1456  0.5360
 4962SOL     OW26344   3.114   3.412   1.304  0.1612  0.4857  0.6188
 4962SOL    HW126345   3.066   3.333   1.327  1.7556 -0.4699  0.6448
 4962SOL    HW226346   3.099   3.414   1.210 -0.3972 -1.5298  0.6835
 4963SOL     OW26347   4.687   1.180  15.174  0.1392 -0.5555  0.1309
 4963SOL    HW126348   4.615   1.165  15.236  2.1252  0.5568  2.7216
 4963SOL    HW226349   0.033   1.115  15.197  1.1393 -0.2258 -1.9004
 4964SOL     OW26350   3.626   2.667   6.147  0.3070 -0.9879  0.0012
 4964SOL    HW126351   3.614   2.594   6.086  0.8498 -0.2884 -0.9439
 4964SOL    HW226352   3.713   2.692   6.116  1.2680 -1.7779  2.0533
 4965SOL     OW26353   1.152   0.292  16.921  0.0391 -0.1966 -0.0284
 4965SOL    HW126354   1.181   0.215  16.872 -1.7238 -0.0665 -1.2619
 4965SOL    HW226355   1.125   0.344  16.845 -3.0784 -0.8905  0.6232
 4966SOL     OW26356   0.028   4.187   4.386 -0.0750  0.2663  0.1529
 4966SOL    HW126357   4.700   4.255   4.433 -0.5780  0.2411 -0.3274
 4966SOL    HW226358   4.708   4.102   4.404 -1.7224  1.5444  2.5888
 4967SOL     OW26359   3.601   4.218  12.068  0.2503 -0.9243  0.1312
 4967SOL    HW126360   3.660   4.180  12.002  1.1112  3.1265 -1.3966
 4967SOL    HW226361   3.673   4.256  12.119 -1.6501 -0.2626  2.2754
 4968SOL     OW26362   3.387   1.901   0.916 -0.9385  0.2258 -0.1713
 4968SOL    HW126363   3.310   1.870   0.963 -1.4778  0.7695 -0.6741
 4968SOL    HW226364   3.398   1.823   0.861  2.2511  1.2901 -1.0744
 4969SOL     OW26365   1.829   0.292  12.553  0.2316  0.7004 -0.1571
 4969SOL    HW126366   1.842   0.322  12.643  1.6890  2.0458 -0.8114
 4969SOL    HW226367   1.914   0.314  12.516  0.4948 -1.2671 -0.6814
 4970SOL     OW26368   0.437   1.987   2.926 -0.6253  0.3151 -0.5584
 4970SOL    HW126369   0.422   1.966   2.834 -2.2899 -1.6144  0.1498
 4970SOL    HW226370   0.463   1.897   2.945  0.8654  0.3944 -2.1869
 4971SOL     OW26371   3.562   1.495  10.888 -0.1340 -0.1791  0.0874
 4971SOL    HW126372   3.478   1.536  10.907  0.2618  1.1936 -1.1536
 4971SOL    HW226373   3.552   1.425  10.953 -1.1594  1.0625  1.2865
 4972SOL     OW26374   2.424   3.395   6.610 -0.2151 -0.2539 -0.6878
 4972SOL    HW126375   2.377   3.321   6.575  0.2107  0.5602 -2.9779
 4972SOL    HW226376   2.473   3.430   6.535  0.6552 -0.7726 -0.3578
 4973SOL     OW26377   2.057   2.009   5.422  0.1258  0.6501  0.1818
 4973SOL    HW126378   2.071   1.934   5.479 -1.3913 -0.4408 -0.8961
 4973SOL    HW226379   2.077   1.979   5.333  2.5499  1.2069  0.5460
 4974SOL     OW26380   2.479   4.425   5.320 -0.1252 -0.0309 -0.1923
 4974SOL    HW126381   2.405   4.485   5.329  0.0121  0.2740 -1.0833
 4974SOL    HW226382   2.549   4.478   5.282  0.6477 -0.6308  0.4153
 4975SOL     OW26383   1.501   4.215   7.461 -0.4162 -0.4350 -0.4767
 4975SOL    HW126384   1.439   4.283   7.436  0.1864  0.3910  0.2975
 4975SOL    HW226385   1.558   4.232   7.385  0.0276  0.3707  0.0376
 4976SOL     OW26386   4.426   3.781   7.766  0.2123 -0.8054 -0.5242
 4976SOL    HW126387   4.428   3.737   7.851 -2.3089  0.0810  0.0089
 4976SOL    HW226388   4.333   3.805   7.758  0.7212  1.2751 -0.0698
 4977SOL     OW26389   3.543   0.574   8.294 -0.1153  0.2462 -0.9898
 4977SOL    HW126390   3.607   0.636   8.330 -1.1585  1.0885 -0.5744
 4977SOL    HW226391   3.584   0.541   8.215  2.4029  1.4698 -0.1904
 4978SOL     OW26392   3.410   3.565   5.704  0.2634 -0.0171 -0.0883
 4978SOL    HW126393   3.450   3.514   5.634  0.7956  2.8531 -1.9023
 4978SOL    HW226394   3.322   3.529   5.716 -0.7381  1.9464 -1.4962
 4979SOL     OW26395   3.270   2.607   4.668  0.2375  0.3775 -0.4283
 4979SOL    HW126396   3.333   2.629   4.737  0.0377 -0.6809  0.1054
 4979SOL    HW226397   3.238   2.522   4.699 -0.1408  0.3464 -0.9064
 4980SOL     OW26398   0.960   2.959  14.852 -0.1290 -0.4533  0.1695
 4980SOL    HW126399   0.966   3.013  14.931 -1.0733 -1.4724  0.9466
 4980SOL    HW226400   1.045   2.924  14.826  0.5995 -0.1154  2.0929
 4981SOL     OW26401   4.707   4.681   8.030 -0.2665  0.3831 -0.0390
 4981SOL    HW126402   4.685   4.588   8.038  0.6405 -0.0673 -2.7920
 4981SOL    HW226403   0.035   4.668   7.949 -0.7793  2.1517 -0.6227
 4982SOL     OW26404   1.725   2.907   4.582  0.0190  0.4714 -0.3273
 4982SOL    HW126405   1.700   2.986   4.629 -1.7564 -1.3789  1.8493
 4982SOL    HW226406   1.652   2.853   4.612 -0.0123  0.6899 -0.0086
 4983SOL     OW26407   4.521   3.718   6.811 -0.0137 -0.4150 -0.2219
 4983SOL    HW126408   4.507   3.811   6.793 -3.1209 -0.7565  0.4601
 4983SOL    HW226409   4.616   3.709   6.813 -0.1419 -1.5660  0.4321
 4984SOL     OW26410   3.931   1.592   1.645  0.2966  0.0749 -0.2198
 4984SOL    HW126411   3.902   1.568   1.733  0.8274 -1.6830 -0.5177
 4984SOL    HW226412   3.862   1.563   1.586  0.5882 -1.6082  0.2562
 4985SOL     OW26413   4.090   3.109   3.170 -0.1953  0.4929 -0.3958
 4985SOL    HW126414   4.040   3.088   3.091  1.8720 -0.4622 -1.4306
 4985SOL    HW226415   4.023   3.158   3.218  0.5239  0.6970  0.3850
 4986SOL     OW26416   4.088   4.493   0.821 -0.7868 -0.1840  0.3534
 4986SOL    HW126417   4.088   4.441   0.901 -0.0935 -0.6084  0.0684
 4986SOL    HW226418   4.113   4.581   0.850  1.8381 -0.4603 -1.0915
 4987SOL     OW26419   1.472   2.869   7.882 -0.0295 -0.4288  0.1624
 4987SOL    HW126420   1.554   2.867   7.930 -0.0413 -0.4519  0.1816
 4987SOL    HW226421   1.414   2.806   7.926  1.6975 -0.7460  1.9735
 4988SOL     OW26422   1.516   3.248   6.532  1.0171 -0.0978  0.7820
 4988SOL    HW126423   1.553   3.333   6.555  0.6814  0.7006 -1.6234
 4988SOL    HW226424   1.548   3.237   6.442  1.5366 -2.3292  1.2498
 4989SOL     OW26425   2.200   3.772   7.713  0.2706 -0.0395 -0.4483
 4989SOL    HW126426   2.106   3.766   7.699  0.1935 -0.0458  0.0727
 4989SOL    HW226427   2.233   3.805   7.630 -2.5583  3.4046 -0.2210
 4990SOL     OW26428   0.433   3.862   5.427 -0.0870  0.3635 -0.1679
 4990SOL    HW126429   0.384   3.887   5.349 -1.6956 -1.5031  0.2575
 4990SOL    HW226430   0.367   3.858   5.496  0.5025  1.5112  0.4618
 4991SOL     OW26431   1.861   4.258   4.421  0.0520 -0.2629 -0.3524
 4991SOL    HW126432   1.815   4.252   4.505 -1.1461  1.1388 -0.9065
 4991SOL    HW226433   1.931   4.322   4.437  0.4218 -0.6218 -0.5090
 4992SOL     OW26434   0.358   0.991   3.253 -0.2066  0.5154  0.0227
 4992SOL    HW126435   0.400   1.020   3.172  0.5506  1.9418  0.9339
 4992SOL    HW226436   0.385   1.059   3.314 -0.0934 -0.6632  1.2985
 4993SOL     OW26437   0.817   0.768   7.465  0.4636  0.6436 -0.0506
 4993SOL    HW126438   0.883   0.699   7.470 -1.0681 -0.8620 -0.8953
 4993SOL    HW226439   0.842   0.816   7.386  0.7450  3.0101  1.4594
 4994SOL     OW26440   3.797   4.479   7.946 -0.0800  0.1934 -0.4029
 4994SOL    HW126441   3.874   4.433   7.914 -0.4770  0.2164 -1.3921
 4994SOL    HW226442   3.785   4.539   7.872  0.1205  1.1519  0.3336
 4995SOL     OW26443   2.506   1.561   9.112 -0.1083  0.0967 -0.3358
 4995SOL    HW126444   2.416   1.538   9.135  0.5510  0.9886  3.2069
 4995SOL    HW226445   2.490   1.607   9.029  1.9674  0.2623 -0.6458
 4996SOL     OW26446   1.469   4.303   2.267 -0.1799 -0.2615 -0.2346
 4996SOL    HW126447   1.389   4.253   2.254  0.1902 -0.6144 -1.1089
 4996SOL    HW226448   1.506   4.245   2.333 -0.4883  1.9657  1.9399
 4997SOL     OW26449   0.278   0.613   5.213 -0.5616 -0.1520 -0.0796
 4997SOL    HW126450   0.364   0.582   5.240 -0.6263 -0.4946 -0.2699
 4997SOL    HW226451   0.255   0.668   5.288  1.3326  0.4123  0.0947
 4998SOL     OW26452   0.433   1.282   7.788 -0.0152 -0.5034 -0.1477
 4998SOL    HW126453   0.524   1.302   7.811 -0.0709 -0.9398  0.4444
 4998SOL    HW226454   0.422   1.190   7.810 -3.0648  0.2313  1.4456
 4999SOL     OW26455   0.943   3.433   8.521 -0.0180  0.8795 -0.3544
 4999SOL    HW126456   0.900   3.347   8.522 -0.4623  1.1055  0.6048
 4999SOL    HW226457   0.866   3.489   8.536 -1.6033 -2.3802  3.8303
 5000SOL     OW26458   1.409   0.542   8.527 -0.3859 -0.0350  0.0370
 5000SOL    HW126459   1.447   0.630   8.527 -0.0199 -0.1984 -1.6921
 5000SOL    HW226460   1.481   0.497   8.572  0.8885  1.6833 -0.2817
 5001SOL     OW26461   2.131   1.576   6.114  0.3334 -0.1586 -0.5858
 5001SOL    HW126462   2.084   1.616   6.041  1.2888  0.2095 -0.9892
 5001SOL    HW226463   2.140   1.654   6.168 -0.7973 -0.3896 -0.0476
 5002SOL     OW26464   1.707   0.238   5.226  0.2794 -0.1930 -0.4569
 5002SOL    HW126465   1.786   0.211   5.180  1.9388 -1.2383  2.9509
 5002SOL    HW226466   1.660   0.271   5.150  0.2997 -1.7821 -1.1432
 5003SOL     OW26467   4.448   1.109  17.205 -0.0070  0.0266 -0.1050
 5003SOL    HW126468   4.368   1.138  17.249  0.3220 -0.7227  0.9789
 5003SOL    HW226469   4.509   1.094  17.277  0.5884  4.0255  0.2277
 5004SOL     OW26470   3.392   2.025   4.090 -0.4277 -0.8637  0.3226
 5004SOL    HW126471   3.316   2.016   4.033 -0.5925 -1.1908  0.5951
 5004SOL    HW226472   3.440   2.101   4.058 -0.3032 -0.7681  0.7311
 5005SOL     OW26473   2.037   0.625  12.976  0.4644 -0.4031  0.3417
 5005SOL    HW126474   2.124   0.642  13.011  0.5703 -1.2453  0.5028
 5005SOL    HW226475   2.021   0.709  12.933  2.4753 -0.3819 -0.3718
 5006SOL     OW26476   4.469   2.473   3.124  0.0342 -0.1310 -0.0930
 5006SOL    HW126477   4.494   2.542   3.185 -0.5460 -0.5215  0.5917
 5006SOL    HW226478   4.546   2.417   3.125 -0.8293 -1.3364 -0.6719
 5007SOL     OW26479   1.380   3.308   5.530 -0.2206 -0.1086  0.5908
 5007SOL    HW126480   1.339   3.392   5.551  1.2262  0.2916  1.8321
 5007SOL    HW226481   1.395   3.315   5.436 -1.4648  0.2495  0.4205
 5008SOL     OW26482   0.572   1.987   5.784 -0.2914  0.0666 -0.3565
 5008SOL    HW126483   0.654   1.954   5.746  0.3002 -0.2766  1.2145
 5008SOL    HW226484   0.603   2.014   5.870  2.0994  0.8463 -1.4576
 5009SOL     OW26485   3.839   2.957   8.287 -0.3758  0.1749  0.0392
 5009SOL    HW126486   3.789   2.998   8.216 -0.7479 -1.1230 -0.4654
 5009SOL    HW226487   3.861   3.038   8.333 -0.2480  0.5185 -0.6244
 5010SOL     OW26488   0.942   3.962   5.785  0.0576 -0.4193  0.1990
 5010SOL    HW126489   0.903   4.018   5.718 -3.1581  0.7848  3.1214
 5010SOL    HW226490   0.909   3.877   5.753  0.2988 -0.9142  1.2765
 5011SOL     OW26491   4.581   3.779   0.910 -0.1678  0.1959  0.3977
 5011SOL    HW126492   4.527   3.830   0.850  0.6141 -0.5118 -0.9210
 5011SOL    HW226493   4.589   3.699   0.857 -3.5281 -1.0685  1.7975
 5012SOL     OW26494   4.414   3.100   9.495 -0.5671 -0.3295 -0.5262
 5012SOL    HW126495   4.361   3.021   9.494 -2.8755  1.2458 -0.9455
 5012SOL    HW226496   4.386   3.141   9.577 -0.7253 -0.7031 -0.3981
 5013SOL     OW26497   3.289   3.183  13.559  0.3936  0.5823 -0.1192
 5013SOL    HW126498   3.362   3.204  13.501 -1.8145  0.6982 -2.8219
 5013SOL    HW226499   3.334   3.119  13.614 -1.0572 -1.7056 -1.6225
 5014SOL     OW26500   3.401   2.632   5.110 -0.3956  0.2202  0.1847
 5014SOL    HW126501   3.424   2.547   5.073 -1.0773  0.4365 -0.7363
 5014SOL    HW226502   3.430   2.683   5.035  2.1686  0.5031  1.3576
 5015SOL     OW26503   3.469   4.707   5.304  0.5112 -0.4790  0.0141
 5015SOL    HW126504   3.509   0.050   5.363  0.8255 -0.7300  0.0705
 5015SOL    HW226505   3.440   0.040   5.231 -0.0461 -0.0433  0.5599
 5016SOL     OW26506   0.487   2.762   3.365  0.2092  0.0432  0.4175
 5016SOL    HW126507   0.479   2.805   3.280  0.6805  0.4716  0.5873
 5016SOL    HW226508   0.401   2.719   3.365  1.6039 -2.7498 -1.3096
 5017SOL     OW26509   3.364   3.051   3.492  0.4162 -0.2929 -0.0441
 5017SOL    HW126510   3.355   3.091   3.406  2.8013  1.0215  0.3302
 5017SOL    HW226511   3.382   3.129   3.544  0.0821 -0.4310  0.2769
 5018SOL     OW26512   4.630   1.346   2.018  0.2486  0.5985 -0.0518
 5018SOL    HW126513   4.676   1.307   2.093  0.3003 -0.4624 -0.6371
 5018SOL    HW226514   4.548   1.356   2.067 -0.6400 -1.6292 -1.0766
 5019SOL     OW26515   4.325   4.713   3.926 -0.6510  0.3438  0.5343
 5019SOL    HW126516   4.236   0.017   3.952  0.1815  2.8911  0.9515
 5019SOL    HW226517   4.341   4.657   4.002 -4.5965  0.5515  1.5194
 5020SOL     OW26518   3.159   2.151   2.053  0.0259  0.3107 -0.1165
 5020SOL    HW126519   3.168   2.113   2.141 -1.6607  0.7289  0.2455
 5020SOL    HW226520   3.107   2.228   2.078 -0.1079 -0.1219  0.9703
 5021SOL     OW26521   1.768   2.261  12.848  0.1951 -0.2644 -0.1412
 5021SOL    HW126522   1.702   2.193  12.858 -1.6491  1.4552 -0.4954
 5021SOL    HW226523   1.736   2.310  12.772  0.2961 -1.0584 -0.7002
 5022SOL     OW26524   0.652   4.577   2.475 -0.2858 -0.3102 -0.3986
 5022SOL    HW126525   0.723   4.521   2.505  0.1187 -0.0154 -0.8097
 5022SOL    HW226526   0.710   4.652   2.466  0.3550 -0.9027 -1.1561
 5023SOL     OW26527   0.177   1.233   5.108  0.3867 -0.7690 -0.1682
 5023SOL    HW126528   0.110   1.271   5.165  1.7817 -0.8429  1.4963
 5023SOL    HW226529   0.159   1.140   5.117  2.1464 -1.2847 -1.9497
 5024SOL     OW26530   3.758   4.603  10.942 -0.5733  0.6242  0.3442
 5024SOL    HW126531   3.836   4.550  10.924 -1.7106 -1.0526  0.3609
 5024SOL    HW226532   3.761   4.658  10.864  0.3155 -1.0999 -0.8547
 5025SOL     OW26533   0.359   0.974  16.983  0.1929 -0.2895 -0.1288
 5025SOL    HW126534   0.274   0.931  16.984 -0.5220  1.1245 -0.9723
 5025SOL    HW226535   0.394   0.961  17.071 -1.2655  2.1116  0.7921
 5026SOL     OW26536   3.946   1.327   5.042  0.4760  0.0860  1.2482
 5026SOL    HW126537   4.033   1.288   5.044  1.2108  1.5905 -1.6816
 5026SOL    HW226538   3.980   1.408   5.079 -0.2120  0.5047  0.9629
 5027SOL     OW26539   2.345   2.364   9.047  0.1354  0.2045  0.0819
 5027SOL    HW126540   2.361   2.449   9.089 -0.8565  0.7506 -0.6775
 5027SOL    HW226541   2.274   2.339   9.106  1.1561  1.0953  1.6978
 5028SOL     OW26542   3.927   4.378   2.191  0.6009 -0.5929 -0.1322
 5028SOL    HW126543   3.857   4.424   2.145  0.4106 -1.2877 -0.5268
 5028SOL    HW226544   3.912   4.424   2.274  1.0644 -1.2801  0.3280
 5029SOL     OW26545   2.482   2.991   3.115 -0.2716  0.0391  0.0909
 5029SOL    HW126546   2.440   3.059   3.061 -0.8520  0.2406  0.7980
 5029SOL    HW226547   2.456   3.019   3.202 -0.7835  0.3582 -0.1630
 5030SOL     OW26548   0.662   4.470  13.893  0.2383  0.2523 -0.0796
 5030SOL    HW126549   0.582   4.477  13.945  0.9888 -2.0908  1.3944
 5030SOL    HW226550   0.634   4.468  13.801  0.1917 -0.1491 -0.0600
 5031SOL     OW26551   4.689   2.654   6.023 -0.1448 -0.5161  0.1932
 5031SOL    HW126552   4.607   2.619   6.056 -0.0539 -0.0700  0.8993
 5031SOL    HW226553   4.714   2.577   5.972 -0.7127 -1.8109  1.8721
 5032SOL     OW26554   2.703   3.628  10.950 -0.3194 -0.0764 -0.2892
 5032SOL    HW126555   2.700   3.534  10.930  1.5697 -0.1290 -0.2527
 5032SOL    HW226556   2.679   3.625  11.042 -1.8593 -0.0887 -0.6837
 5033SOL     OW26557   2.735   1.171  16.869 -0.0168  0.1848 -0.6118
 5033SOL    HW126558   2.656   1.144  16.822  0.2295  2.0616 -2.0847
 5033SOL    HW226559   2.747   1.253  16.822  2.4467 -0.5310 -1.2729
 5034SOL     OW26560   2.280   1.068  13.873  0.0558  0.7094 -0.3197
 5034SOL    HW126561   2.206   1.014  13.846  0.4157 -0.8334  1.7672
 5034SOL    HW226562   2.233   1.151  13.870  1.1153  1.2819 -1.4456
 5035SOL     OW26563   4.579   1.719  15.973 -0.0008  0.1297  0.2703
 5035SOL    HW126564   4.584   1.624  15.965 -1.0190 -0.0509  1.7407
 5035SOL    HW226565   4.497   1.732  16.021 -0.3784  1.4703 -0.7298
 5036SOL     OW26566   1.357   0.634   8.991 -0.0042 -0.5842 -0.3036
 5036SOL    HW126567   1.420   0.580   8.942  0.3039 -1.1048  0.6653
 5036SOL    HW226568   1.352   0.588   9.075 -0.8435 -0.6028 -0.3660
 5037SOL     OW26569   2.684   2.479  11.652  0.2914 -0.1932 -0.0276
 5037SOL    HW126570   2.723   2.445  11.572 -0.2949  0.8247 -0.7505
 5037SOL    HW226571   2.706   2.404  11.708  0.0990 -2.3705 -2.8745
 5038SOL     OW26572   4.583   2.053   5.432  0.1277  0.5273 -0.2345
 5038SOL    HW126573   4.660   2.109   5.442  0.8206 -0.9006  2.5958
 5038SOL    HW226574   4.512   2.117   5.442  0.5705  0.8021  1.1594
 5039SOL     OW26575   2.786   2.130   5.342  0.4207 -0.3857  0.7372
 5039SOL    HW126576   2.697   2.144   5.374 -0.1107 -2.2113  0.0317
 5039SOL    HW226577   2.772   2.093   5.255  0.7535  1.7654 -0.2269
 5040SOL     OW26578   3.464   0.631   2.169  0.4410  0.1163 -0.0796
 5040SOL    HW126579   3.475   0.569   2.241 -0.8467 -2.0404 -1.7042
 5040SOL    HW226580   3.545   0.609   2.122 -0.1313  0.7113 -1.3489
 5041SOL     OW26581   1.644   3.241   4.271  0.4811 -0.0765 -0.0078
 5041SOL    HW126582   1.598   3.238   4.355  0.6096  1.0392  0.1045
 5041SOL    HW226583   1.705   3.315   4.275  1.3993 -0.5831 -4.0386
 5042SOL     OW26584   3.872   3.918   2.358 -0.1273 -0.1748  0.1044
 5042SOL    HW126585   3.791   3.943   2.313  0.4217 -0.0457 -0.8121
 5042SOL    HW226586   3.920   3.999   2.342 -1.2803  0.3314 -0.7679
 5043SOL     OW26587   4.210   0.471   4.352  0.1171  0.1828 -0.8900
 5043SOL    HW126588   4.250   0.409   4.291  3.3797  1.4240 -0.0562
 5043SOL    HW226589   4.255   0.556   4.348  0.3041 -0.0059 -2.5801
 5044SOL     OW26590   1.134   4.042   1.973  0.0650 -0.5821 -0.3052
 5044SOL    HW126591   1.221   4.017   2.002  0.0197  1.3474  1.4869
 5044SOL    HW226592   1.138   4.033   1.878 -0.9268  3.1127 -0.6695
 5045SOL     OW26593   3.629   2.597  17.274 -0.2460  0.5355 -0.2936
 5045SOL    HW126594   3.678   2.655  17.333 -0.3339 -0.3317  0.6313
 5045SOL    HW226595   3.690   2.523  17.268 -1.3105 -0.3573  0.0796
 5046SOL     OW26596   0.627   2.322   7.827 -0.0370  0.5830  0.6392
 5046SOL    HW126597   0.585   2.391   7.878 -0.0969  1.0102  0.0117
 5046SOL    HW226598   0.602   2.245   7.878  0.8751 -1.0805 -1.4262
 5047SOL     OW26599   2.805   1.141   4.469 -0.2400  0.0610  0.2238
 5047SOL    HW126600   2.723   1.187   4.488 -1.5193 -2.3980  0.6685
 5047SOL    HW226601   2.813   1.103   4.556 -0.8281  1.0572  0.7121
 5048SOL     OW26602   0.366   1.876   7.805  0.1488  0.5219  0.3160
 5048SOL    HW126603   0.307   1.923   7.747  0.4257  0.6634  0.1490
 5048SOL    HW226604   0.330   1.790   7.782  1.4253  0.0351  0.1248
 5049SOL     OW26605   0.124   2.729   5.452  0.3724 -0.2411  0.3452
 5049SOL    HW126606   0.072   2.692   5.381  0.2641 -0.2132  0.4099
 5049SOL    HW226607   0.068   2.715   5.529  0.0448 -1.9168 -0.1969
 5050SOL     OW26608   3.903   0.025   3.674 -0.1326 -0.2458  0.1773
 5050SOL    HW126609   3.856   0.104   3.701 -0.0364 -1.3946  3.7908
 5050SOL    HW226610   3.912   4.687   3.750 -0.5401 -1.1788 -0.4955
 5051SOL     OW26611   0.502   2.515   3.910  0.3529  0.2611 -0.3731
 5051SOL    HW126612   0.415   2.525   3.872 -0.6021  0.0028  1.7005
 5051SOL    HW226613   0.490   2.548   3.999 -0.0703 -0.5062 -0.1397
 5052SOL     OW26614   4.201   4.202   2.554 -0.2045 -0.2290 -0.5544
 5052SOL    HW126615   4.220   4.236   2.466 -1.5104  1.8391 -0.0463
 5052SOL    HW226616   4.133   4.262   2.585 -0.0169 -0.9600  1.2239
 5053SOL     OW26617   0.071   3.712   6.844  0.5460 -0.0476  0.8259
 5053SOL    HW126618   0.101   3.644   6.904  1.5455  1.7241  2.3143
 5053SOL    HW226619   0.152   3.763   6.839 -0.4571  1.2706 -2.2789
 5054SOL     OW26620   1.914   1.855  15.434  0.6110  0.1661  0.2965
 5054SOL    HW126621   1.860   1.928  15.404 -2.0921 -2.2845 -0.9246
 5054SOL    HW226622   1.967   1.843  15.356  1.1535 -0.4950  0.7681
 5055SOL     OW26623   0.979   1.339   3.826 -0.5811 -0.8739 -0.4036
 5055SOL    HW126624   0.946   1.420   3.865 -1.0622  0.2437 -3.1503
 5055SOL    HW226625   0.923   1.336   3.748  0.6326 -0.8426 -1.2799
 5056SOL     OW26626   1.208   1.559  12.520 -0.1061  0.1755 -0.0671
 5056SOL    HW126627   1.296   1.526  12.535 -0.6775 -1.7447 -0.9179
 5056SOL    HW226628   1.156   1.500  12.575 -0.6019  0.4913 -0.1924
 5057SOL     OW26629   3.731   2.144  11.683 -0.0091  0.1395 -0.2292
 5057SOL    HW126630   3.703   2.142  11.774 -1.2276  0.5365 -0.5951
 5057SOL    HW226631   3.669   2.088  11.637 -0.8061  2.7764 -2.3976
 5058SOL     OW26632   1.946   3.176   7.188 -0.2098  0.1893  0.0565
 5058SOL    HW126633   1.860   3.188   7.228  0.5575 -0.8327  2.0538
 5058SOL    HW226634   1.992   3.253   7.222  1.0497 -1.0129  1.1054
 5059SOL     OW26635   4.334   1.616   2.356  0.1434 -0.2682 -0.1077
 5059SOL    HW126636   4.288   1.542   2.395 -0.5964  1.0671  1.5728
 5059SOL    HW226637   4.303   1.684   2.417  0.1237 -1.4647  1.2195
 5060SOL     OW26638   4.307   1.422   4.488  0.0317  0.0934  0.3761
 5060SOL    HW126639   4.290   1.446   4.579 -0.7969  2.6044 -0.4215
 5060SOL    HW226640   4.228   1.377   4.460  1.1667 -1.1016 -0.8791
 5061SOL     OW26641   2.350   1.269   2.620  0.1204 -0.4951 -0.3424
 5061SOL    HW126642   2.364   1.275   2.715  1.4225  1.6243 -0.6845
 5061SOL    HW226643   2.280   1.332   2.606  0.8141 -0.4993 -3.7403
 5062SOL     OW26644   4.252   0.202   4.658 -0.1143  0.2113 -0.0347
 5062SOL    HW126645   4.275   0.124   4.606 -2.6806 -0.0457 -0.7785
 5062SOL    HW226646   4.338   0.219   4.697 -0.9686 -0.2219  1.9990
 5063SOL     OW26647   4.605   0.261   7.742  0.4422 -0.0985 -0.4870
 5063SOL    HW126648   4.538   0.230   7.803  1.2194  0.5798  0.7127
 5063SOL    HW226649   4.554   0.256   7.661 -1.4044  0.6439  0.6270
 5064SOL     OW26650   1.134   0.215   7.825  0.0910 -0.1371 -0.7933
 5064SOL    HW126651   1.206   0.274   7.845  0.7933 -0.7586 -1.4858
 5064SOL    HW226652   1.156   0.125   7.850 -1.6176 -0.2151  0.3870
 5065SOL     OW26653   2.940   3.257  10.018 -0.0589  0.6627  0.7896
 5065SOL    HW126654   2.899   3.306  10.088  1.1586  2.1784  0.4463
 5065SOL    HW226655   2.920   3.300   9.935  0.1934 -0.4977  0.1157
 5066SOL     OW26656   0.131   4.414  13.587  0.0500  0.5900  0.7629
 5066SOL    HW126657   0.110   4.380  13.500 -0.1585  0.4401  0.8740
 5066SOL    HW226658   0.223   4.436  13.573 -0.6475  2.9911 -0.1331
 5067SOL     OW26659   4.219   1.975   2.367  0.5762 -0.3228  0.0832
 5067SOL    HW126660   4.230   1.914   2.440  0.8417 -0.8832 -0.4213
 5067SOL    HW226661   4.304   2.015   2.349 -0.0411  0.5036 -0.9561
 5068SOL     OW26662   3.287   4.096   2.090  0.1687 -0.1363 -0.0331
 5068SOL    HW126663   3.326   4.010   2.104 -0.2650 -0.4899 -0.9667
 5068SOL    HW226664   3.199   4.080   2.125  0.4944 -0.0113  0.8538
 5069SOL     OW26665   0.979   4.097   2.739 -0.2000 -0.5515  0.1601
 5069SOL    HW126666   1.001   4.004   2.735  1.2703 -0.2305  0.9579
 5069SOL    HW226667   1.006   4.139   2.657 -0.4049  1.9178  1.3777
 5070SOL     OW26668   4.570   4.271   7.636 -0.2925 -0.3095 -0.4667
 5070SOL    HW126669   4.666   4.263   7.641  0.1346  4.3791 -0.9558
 5070SOL    HW226670   4.551   4.265   7.543  1.0690  0.4898 -0.8015
 5071SOL     OW26671   2.938   3.805  12.448 -0.1870 -0.2533 -0.1028
 5071SOL    HW126672   2.924   3.899  12.435  2.4406  0.2427  0.7467
 5071SOL    HW226673   2.920   3.768  12.361  1.9039  0.1613 -0.7141
 5072SOL     OW26674   2.234   2.292   7.158  0.1859  0.0122 -0.2090
 5072SOL    HW126675   2.167   2.328   7.216  1.1503  0.6863  0.4828
 5072SOL    HW226676   2.289   2.365   7.130 -1.5238  1.3632 -0.0735
 5073SOL     OW26677   1.625   2.928  10.231 -0.3327  0.6229 -0.4423
 5073SOL    HW126678   1.599   2.941  10.140  1.6938  0.7289 -0.9930
 5073SOL    HW226679   1.676   2.848  10.225  0.9430  1.3545  0.7264
 5074SOL     OW26680   2.895   3.088   2.585 -0.0500 -0.1190 -0.1112
 5074SOL    HW126681   2.849   3.137   2.653  0.3396  1.4007 -0.9438
 5074SOL    HW226682   2.860   3.135   2.509 -2.4841 -2.6759 -0.5548
 5075SOL     OW26683   3.380   2.420   2.006 -0.2564  0.1877  0.2260
 5075SOL    HW126684   3.401   2.329   1.985 -3.4216 -0.7114  1.0218
 5075SOL    HW226685   3.395   2.417   2.101  0.8970  0.9988  0.0661
 5076SOL     OW26686   0.011   2.114   9.018 -0.2666  0.1768 -0.4589
 5076SOL    HW126687   4.652   2.114   9.072 -0.1036  1.2002 -0.2180
 5076SOL    HW226688   0.068   2.162   9.077 -1.1826  1.3854 -0.5460
 5077SOL     OW26689   4.664   2.237   6.734 -0.1615 -0.1046 -0.1840
 5077SOL    HW126690   4.629   2.265   6.649 -0.8485  0.8616  0.4057
 5077SOL    HW226691   0.019   2.296   6.742 -0.8245  0.5373  1.5530
 5078SOL     OW26692   2.659   1.657  10.337  0.3782 -0.2040  0.2097
 5078SOL    HW126693   2.637   1.565  10.319 -3.5098  0.9364 -0.7538
 5078SOL    HW226694   2.753   1.657  10.357  0.0878 -1.2594  1.5893
 5079SOL     OW26695   1.457   1.650  13.546 -0.0139 -0.1804 -0.2086
 5079SOL    HW126696   1.484   1.626  13.458  0.3436  1.3534 -0.5241
 5079SOL    HW226697   1.479   1.572  13.596 -1.3987 -0.7754 -0.5118
 5080SOL     OW26698   0.689   2.908  17.412  0.0742 -0.2558 -0.0413
 5080SOL    HW126699   0.625   2.894  17.482  2.0402  1.3286  2.0876
 5080SOL    HW226700   0.757   2.842  17.426 -0.2727 -0.6572 -0.2669
 5081SOL     OW26701   1.146   4.110   8.463  0.3678  0.0009 -0.1074
 5081SOL    HW126702   1.079   4.153   8.517  1.1118  1.1871 -0.1479
 5081SOL    HW226703   1.215   4.098   8.528 -1.1561  1.5567  1.8289
 5082SOL     OW26704   2.051   2.414   9.101  0.3521 -0.3977 -0.0573
 5082SOL    HW126705   2.052   2.480   9.032 -2.2329 -0.3332 -0.0143
 5082SOL    HW226706   1.973   2.437   9.152 -0.8148 -1.3294 -1.4301
 5083SOL     OW26707   3.510   3.822   3.251  0.5685 -0.5178  0.5140
 5083SOL    HW126708   3.471   3.735   3.259 -0.0791 -0.3577 -0.9190
 5083SOL    HW226709   3.581   3.811   3.188  0.4200  1.1399  0.0491
 5084SOL     OW26710   1.180   0.901   3.649  0.3578 -0.3576  0.0871
 5084SOL    HW126711   1.136   0.843   3.711 -0.8707 -1.1671 -1.5392
 5084SOL    HW226712   1.186   0.839   3.577  0.3637  0.0289 -0.2467
 5085SOL     OW26713   4.502   2.832  11.073  0.0041  0.3802  0.4394
 5085SOL    HW126714   4.459   2.849  10.989  1.2298  3.7767  0.5258
 5085SOL    HW226715   4.485   2.906  11.131  0.1257  2.8704 -2.7083
 5086SOL     OW26716   4.123   2.112   5.340  0.1599 -0.0174  0.6642
 5086SOL    HW126717   4.063   2.082   5.408 -1.0570 -0.4615 -0.6023
 5086SOL    HW226718   4.112   2.207   5.350 -0.3652 -0.0747  0.6313
 5087SOL     OW26719   2.763   2.371  15.358  1.0548  0.0759  0.0781
 5087SOL    HW126720   2.844   2.377  15.307  1.1865 -1.2532  0.1314
 5087SOL    HW226721   2.749   2.461  15.389 -1.7290 -0.6548  0.9197
 5088SOL     OW26722   1.595   3.711   0.384  0.7604  0.5650 -0.0401
 5088SOL    HW126723   1.635   3.793   0.355 -3.5804  2.1957 -1.4606
 5088SOL    HW226724   1.544   3.690   0.305 -0.6533  0.7060  0.8239
 5089SOL     OW26725   1.256   3.020   6.335 -0.1895  0.2897  0.2452
 5089SOL    HW126726   1.273   2.954   6.403 -0.4117 -1.4364 -1.3912
 5089SOL    HW226727   1.262   3.099   6.389  0.1744 -0.3443  1.1456
 5090SOL     OW26728   1.893   0.811   6.407  0.1173 -0.9234 -0.9195
 5090SOL    HW126729   1.815   0.797   6.353  0.7131 -0.3981 -1.9344
 5090SOL    HW226730   1.955   0.764   6.351 -0.2450 -0.7063 -1.5026
 5091SOL     OW26731   4.570   4.057   8.638 -0.2094 -0.7046 -0.1703
 5091SOL    HW126732   4.660   4.033   8.619 -0.3736 -0.2085 -1.6101
 5091SOL    HW226733   4.522   3.996   8.582 -2.0138  0.1088  0.4950
 5092SOL     OW26734   0.137   3.207  16.602 -0.5858  0.7043  0.4711
 5092SOL    HW126735   0.061   3.258  16.575 -1.0935 -0.4496 -0.2786
 5092SOL    HW226736   0.130   3.137  16.538  1.1022 -0.5196  1.6295
 5093SOL     OW26737   3.872   4.240   8.524  0.4133 -0.2056 -0.0711
 5093SOL    HW126738   3.886   4.245   8.618 -0.1767  0.0685  0.0071
 5093SOL    HW226739   3.776   4.250   8.524  0.5697  1.2597  1.7240
 5094SOL     OW26740   4.141   2.867   7.448  0.2235  0.7237 -0.3271
 5094SOL    HW126741   4.092   2.804   7.395 -1.1506  4.0266 -3.0125
 5094SOL    HW226742   4.141   2.834   7.538 -2.0121  0.2911 -0.4883
 5095SOL     OW26743   1.030   2.769   3.837 -0.2222 -0.0420 -0.5168
 5095SOL    HW126744   1.106   2.731   3.794 -1.5156 -0.6382 -2.2732
 5095SOL    HW226745   1.035   2.835   3.768  1.1741 -0.9006 -1.2381
 5096SOL     OW26746   0.536   0.345  11.931 -0.1884  0.1790  0.3623
 5096SOL    HW126747   0.604   0.332  11.997 -0.8369  1.0110  1.1951
 5096SOL    HW226748   0.592   0.352  11.854 -1.2796 -1.2934 -0.5645
 5097SOL     OW26749   0.751   3.785   9.879  0.2057 -0.7977  0.6456
 5097SOL    HW126750   0.760   3.747   9.792 -0.4290  3.5079 -1.3301
 5097SOL    HW226751   0.831   3.750   9.919  1.6710  1.2533 -0.4883
 5098SOL     OW26752   4.160   3.419   5.007 -0.0639 -0.0558 -0.3021
 5098SOL    HW126753   4.191   3.410   4.917 -0.9091  1.4923 -0.7519
 5098SOL    HW226754   4.068   3.443   4.993 -0.3890 -1.4165 -0.5012
 5099SOL     OW26755   3.001   0.415   6.821  0.1048 -0.4864 -0.1357
 5099SOL    HW126756   3.020   0.479   6.890  1.2688 -0.4504 -0.5004
 5099SOL    HW226757   2.919   0.438   6.777  0.9614 -1.8969 -2.4986
 5100SOL     OW26758   1.465   1.957  13.284 -0.0408 -0.0839  0.4474
 5100SOL    HW126759   1.457   1.930  13.376 -1.6099  1.3055  0.7063
 5100SOL    HW226760   1.525   2.030  13.299 -0.1377  0.0711  0.0886
 5101SOL     OW26761   4.461   1.928   0.221 -0.3142 -0.0087 -0.2748
 5101SOL    HW126762   4.401   1.901   0.290 -1.3259 -0.9111 -1.5283
 5101SOL    HW226763   4.412   1.932   0.140 -0.4999 -2.3018 -0.2809
 5102SOL     OW26764   2.710   3.853   8.315 -0.0869 -0.7563 -0.7540
 5102SOL    HW126765   2.709   3.882   8.406  2.9401  0.0817 -1.0025
 5102SOL    HW226766   2.685   3.938   8.280  0.3683 -0.6948 -0.9233
 5103SOL     OW26767   1.144   0.003   5.459 -0.1719  0.0636 -0.2880
 5103SOL    HW126768   1.093   0.003   5.540  0.5755  0.5936  0.1810
 5103SOL    HW226769   1.229   4.694   5.490 -0.0810  1.1046  0.4534
 5104SOL     OW26770   3.463   4.176  16.008  0.5561 -0.4695  0.3018
 5104SOL    HW126771   3.442   4.244  15.944 -0.2458 -0.9022  0.0972
 5104SOL    HW226772   3.553   4.154  15.984  0.4060 -0.8732  0.1107
 5105SOL     OW26773   0.039   4.315  13.332  0.1336 -0.3953  0.3279
 5105SOL    HW126774   0.077   4.258  13.265 -0.4096  0.4349 -0.6794
 5105SOL    HW226775   4.677   4.344  13.295  0.5042  0.8598  0.4918
 5106SOL     OW26776   2.144   2.198  15.930  0.2619  0.7816 -0.1331
 5106SOL    HW126777   2.088   2.262  15.972  0.7948 -1.0517  3.3542
 5106SOL    HW226778   2.226   2.192  15.980 -0.2991 -3.6606  0.2768
 5107SOL     OW26779   3.362   2.225   6.985  0.4195 -0.0288 -0.5932
 5107SOL    HW126780   3.289   2.231   7.047  0.2819 -2.5901 -0.5013
 5107SOL    HW226781   3.386   2.132   6.994 -1.8055 -0.3864  1.6497
 5108SOL     OW26782   2.793   0.656  13.747 -0.4261  0.7250  0.1964
 5108SOL    HW126783   2.702   0.634  13.725 -0.7824  0.1795  2.2394
 5108SOL    HW226784   2.788   0.684  13.838 -2.3993  2.3331 -0.4131
 5109SOL     OW26785   2.591   1.381  10.515  0.2253 -0.2647  0.0781
 5109SOL    HW126786   2.570   1.361  10.606 -0.0335 -1.7120 -0.3015
 5109SOL    HW226787   2.504   1.412  10.488  0.9802  0.9703 -0.9540
 5110SOL     OW26788   4.256   2.149   1.528 -0.1393  0.1956  0.1222
 5110SOL    HW126789   4.348   2.148   1.553  0.4678 -0.5325 -2.1399
 5110SOL    HW226790   4.222   2.124   1.614  0.2677 -0.0338  0.2180
 5111SOL     OW26791   1.792   3.248   5.883  0.2526  0.2574  0.9217
 5111SOL    HW126792   1.873   3.199   5.867 -0.0157 -0.1930  0.9409
 5111SOL    HW226793   1.725   3.185   5.857  2.5371 -1.1818 -1.5326
 5112SOL     OW26794   2.288   0.054   6.407  0.2474  1.3662  0.7180
 5112SOL    HW126795   2.330   4.700   6.364 -2.1118 -0.4185  1.5531
 5112SOL    HW226796   2.248   0.014   6.484  0.0381 -0.5331 -0.3875
 5113SOL     OW26797   3.430   0.013   6.668  0.0028  0.4338  0.2976
 5113SOL    HW126798   3.468   4.654   6.704  0.2508  0.3426 -0.1636
 5113SOL    HW226799   3.347   4.700   6.635  0.5227 -0.9607  0.4402
 5114SOL     OW26800   3.609   2.523   9.929 -0.6590  0.1515 -0.0199
 5114SOL    HW126801   3.599   2.616   9.907  0.7772  0.6790  1.5243
 5114SOL    HW226802   3.683   2.519   9.990 -1.4353  0.0306  0.9135
 5115SOL     OW26803   3.411   4.336  16.744  0.1732  0.7053 -0.3007
 5115SOL    HW126804   3.317   4.343  16.756  0.0622 -0.1247 -0.6631
 5115SOL    HW226805   3.406   4.260  16.686  2.6078 -0.3165  0.8090
 5116SOL     OW26806   2.055   3.319   8.316  0.1687 -0.3411  0.1210
 5116SOL    HW126807   2.136   3.344   8.273  1.3065  1.8199  3.4709
 5116SOL    HW226808   2.048   3.226   8.295 -3.2990 -0.3404  1.1527
 5117SOL     OW26809   1.823   4.418  11.635 -0.5328 -0.1928 -0.0948
 5117SOL    HW126810   1.814   4.345  11.696  0.1709 -0.8062 -0.7269
 5117SOL    HW226811   1.901   4.461  11.668 -3.0289  2.4726  2.3288
 5118SOL     OW26812   2.342   3.855   7.208  0.8818  0.0314  0.0520
 5118SOL    HW126813   2.336   3.940   7.165  2.4491  0.2327  0.2230
 5118SOL    HW226814   2.279   3.810   7.152  0.6124 -0.3091  0.6313
 5119SOL     OW26815   2.351   3.584   0.554  0.0806 -0.1424  0.0533
 5119SOL    HW126816   2.387   3.520   0.492 -1.9344 -0.8247 -0.3809
 5119SOL    HW226817   2.272   3.614   0.510  1.1212 -0.2059 -1.8858
 5120SOL     OW26818   4.095   3.079   6.682  0.4173  0.3793 -0.2086
 5120SOL    HW126819   4.002   3.058   6.673  1.0055 -1.0230 -2.8857
 5120SOL    HW226820   4.115   2.988   6.705  1.8526  0.3949 -1.3965
 5121SOL     OW26821   4.455   3.652  10.837  0.2474  0.5314  0.3831
 5121SOL    HW126822   4.549   3.646  10.823  0.2994  1.1111  0.4984
 5121SOL    HW226823   4.446   3.636  10.931 -2.7688  1.1483  0.2103
 5122SOL     OW26824   2.794   3.601   5.512  0.2139 -0.3861 -0.5849
 5122SOL    HW126825   2.882   3.638   5.508 -0.5850  1.7135  1.2541
 5122SOL    HW226826   2.752   3.649   5.583  3.6928  0.8540  0.6453
 5123SOL     OW26827   1.691   3.234  10.387  0.9044 -0.6938  0.2323
 5123SOL    HW126828   1.754   3.168  10.358  1.8966  0.0767  0.6509
 5123SOL    HW226829   1.738   3.298  10.440  0.4001  0.7871 -1.0825
 5124SOL     OW26830   3.301   0.798   8.509 -0.0841  0.0900  0.0255
 5124SOL    HW126831   3.354   0.741   8.565 -2.0574  0.0430  1.8525
 5124SOL    HW226832   3.302   0.884   8.552 -0.0207 -0.0615  0.3275
 5125SOL     OW26833   4.278   1.519   5.626  0.5366 -0.6770  0.0705
 5125SOL    HW126834   4.247   1.610   5.624 -0.1217 -0.8799  1.2732
 5125SOL    HW226835   4.289   1.497   5.718  0.3385  2.5870  0.8738
 5126SOL     OW26836   3.080   3.422   7.789  0.4675  0.1946  0.3545
 5126SOL    HW126837   3.072   3.517   7.787 -0.1003  0.1677  1.6069
 5126SOL    HW226838   3.152   3.425   7.852 -0.4171 -1.8349  1.4623
 5127SOL     OW26839   0.126   1.863  10.304 -0.0859  0.1640  0.2543
 5127SOL    HW126840   0.191   1.793  10.306 -1.7311 -1.4204 -3.2158
 5127SOL    HW226841   0.088   1.855  10.216 -0.0251 -3.4079  0.5750
 5128SOL     OW26842   3.768   2.114   8.275 -0.0445  0.4954 -0.1456
 5128SOL    HW126843   3.732   2.069   8.352 -1.9771  0.0713 -1.2873
 5128SOL    HW226844   3.817   2.181   8.322 -0.8899 -0.5701  2.2747
 5129SOL     OW26845   2.472   1.578   0.430  0.0644  0.7284 -0.5819
 5129SOL    HW126846   2.534   1.526   0.379  0.2875 -1.6650  2.1587
 5129SOL    HW226847   2.467   1.529   0.511 -0.9802 -0.2379 -1.2401
 5130SOL     OW26848   4.214   3.301  10.092  0.0921 -0.2351  0.7902
 5130SOL    HW126849   4.209   3.343  10.178  1.1152  1.7131 -0.1094
 5130SOL    HW226850   4.124   3.323  10.067  0.8253  3.6093  1.5181
 5131SOL     OW26851   1.314   1.412   6.159 -0.6357  0.3427  0.5260
 5131SOL    HW126852   1.258   1.434   6.085 -1.4415  0.9496  1.3189
 5131SOL    HW226853   1.370   1.489   6.160 -0.6863  0.3825  0.0284
 5132SOL     OW26854   0.583   1.657   2.343 -0.4920  0.2405 -0.1955
 5132SOL    HW126855   0.543   1.645   2.430  1.0709  0.7176  0.5853
 5132SOL    HW226856   0.519   1.719   2.307  1.1922  2.2871  0.3701
 5133SOL     OW26857   0.964   1.717  12.970 -0.1665 -0.2218  0.4348
 5133SOL    HW126858   0.869   1.710  12.969 -0.0266 -2.1275 -1.0879
 5133SOL    HW226859   0.996   1.628  12.953 -1.4481 -0.2101 -2.0154
 5134SOL     OW26860   4.093   1.138   8.754  0.4124 -0.1073 -0.2800
 5134SOL    HW126861   4.113   1.059   8.704 -1.6168 -0.5025 -0.4539
 5134SOL    HW226862   4.140   1.195   8.693  2.6583 -2.2895 -0.6237
 5135SOL     OW26863   3.121   2.211   8.910 -0.3807  0.4912  0.3178
 5135SOL    HW126864   3.168   2.160   8.977  0.1740  0.9048  0.2477
 5135SOL    HW226865   3.111   2.296   8.952  2.6581  0.2998  1.4304
 5136SOL     OW26866   3.083   0.563   3.335 -0.1275 -0.2559 -0.5546
 5136SOL    HW126867   3.134   0.641   3.312 -1.2599  0.7237  0.2112
 5136SOL    HW226868   3.131   0.550   3.417  0.1723  0.2529 -0.6526
 5137SOL     OW26869   0.220   4.373   1.016 -0.1360 -0.5896 -0.5252
 5137SOL    HW126870   0.198   4.291   0.972  0.0163 -0.2949 -1.1614
 5137SOL    HW226871   0.302   4.355   1.062 -0.5873  1.0992  0.9540
 5138SOL     OW26872   3.386   4.055   7.234 -0.3012  0.2716  0.2692
 5138SOL    HW126873   3.349   4.074   7.320  1.5918  1.7956  0.7560
 5138SOL    HW226874   3.477   4.045   7.261 -0.5104 -1.5145  0.3002
 5139SOL     OW26875   1.711   3.264   7.310 -0.3384 -0.0712 -0.2557
 5139SOL    HW126876   1.655   3.263   7.388  3.9969  1.9847  2.8456
 5139SOL    HW226877   1.646   3.291   7.244 -0.3771  0.6914  0.1050
 5140SOL     OW26878   1.873   2.839  12.934  0.3322  0.4292  0.0378
 5140SOL    HW126879   1.842   2.910  12.989  0.1582  0.7188 -0.4322
 5140SOL    HW226880   1.833   2.857  12.849  1.5126 -0.1281 -0.6348
 5141SOL     OW26881   3.314   4.694  15.319  0.5950 -0.1687  0.5590
 5141SOL    HW126882   3.288   0.062  15.292  1.3301  0.3242  1.4927
 5141SOL    HW226883   3.226   4.659  15.337  0.4574  0.9571  2.0346
 5142SOL     OW26884   4.654   0.412   2.362 -0.1769  0.5150  0.6051
 5142SOL    HW126885   4.566   0.400   2.397  0.5469 -0.2425  2.1888
 5142SOL    HW226886   4.693   0.490   2.402 -1.1640  1.2443  0.1346
 5143SOL     OW26887   4.143   3.952  13.503 -0.2100 -0.2894 -0.3064
 5143SOL    HW126888   4.144   3.901  13.422  0.7715 -0.2342 -0.3296
 5143SOL    HW226889   4.143   3.877  13.562  0.1575 -0.1202 -0.0923
 5144SOL     OW26890   2.024   1.937   7.171 -0.0195 -0.0512 -0.1519
 5144SOL    HW126891   1.974   1.859   7.148  1.1584 -0.1819 -2.2618
 5144SOL    HW226892   2.066   1.912   7.254  3.9803 -0.3368 -2.2708
 5145SOL     OW26893   4.316   1.323  16.169 -0.7417 -0.3595  0.5984
 5145SOL    HW126894   4.254   1.324  16.242  0.3932  0.1364  1.5506
 5145SOL    HW226895   4.256   1.375  16.115  0.4619  0.0354 -0.3687
 5146SOL     OW26896   2.437   0.546   7.849 -0.1204 -0.0429 -0.2029
 5146SOL    HW126897   2.489   0.518   7.924  0.0418  2.6181  0.6710
 5146SOL    HW226898   2.416   0.468   7.797  1.6485 -0.3126 -0.5126
 5147SOL     OW26899   1.918   4.073  11.511 -0.9404 -0.4053 -0.1295
 5147SOL    HW126900   1.910   4.157  11.556 -0.2835 -0.3815 -0.0661
 5147SOL    HW226901   1.935   4.114  11.427 -1.7996 -1.9051 -1.0349
 5148SOL     OW26902   4.407   0.251   3.933  0.4267  0.4196 -0.1512
 5148SOL    HW126903   4.476   0.242   3.999 -1.1595 -1.4605  1.2756
 5148SOL    HW226904   4.383   0.159   3.923 -0.7244  0.9690 -2.3339
 5149SOL     OW26905   0.882   2.250   5.622 -0.0764 -0.4901  0.1159
 5149SOL    HW126906   0.844   2.335   5.644 -1.0684 -0.5705 -1.2742
 5149SOL    HW226907   0.976   2.267   5.628 -0.4637  1.5180  0.4376
 5150SOL     OW26908   4.086   3.528   2.252  0.3668  0.0546 -0.9878
 5150SOL    HW126909   4.119   3.467   2.187  0.5215 -0.1610 -0.7037
 5150SOL    HW226910   4.155   3.594   2.258  1.6395 -1.2660 -1.3298
 5151SOL     OW26911   4.199   3.696   6.440  0.5463 -0.1562  0.3342
 5151SOL    HW126912   4.287   3.712   6.405  0.4176  3.0862  1.4794
 5151SOL    HW226913   4.142   3.715   6.366  1.1870  0.9341  0.1230
 5152SOL     OW26914   2.227   3.509   9.150  0.5940 -0.9566 -0.2521
 5152SOL    HW126915   2.166   3.498   9.224 -0.5548 -0.0188 -1.0450
 5152SOL    HW226916   2.189   3.447   9.088  1.4148  0.5176 -2.2143
 5153SOL     OW26917   2.601   3.720   6.957  0.1534  0.2213  0.1324
 5153SOL    HW126918   2.644   3.721   6.871 -1.0658 -2.6772 -0.5046
 5153SOL    HW226919   2.658   3.661   7.006 -1.8702 -1.3154  0.6163
 5154SOL     OW26920   1.351   4.223  12.869  0.0541 -0.0089  0.0445
 5154SOL    HW126921   1.307   4.200  12.787 -1.7700  1.0143  0.7483
 5154SOL    HW226922   1.440   4.194  12.851 -0.3361 -1.4319  0.3975
 5155SOL     OW26923   3.476   3.513   0.719 -0.3096  0.0050  0.0218
 5155SOL    HW126924   3.454   3.521   0.626 -2.1739 -0.7164  0.3863
 5155SOL    HW226925   3.462   3.605   0.742  0.3823 -0.7055  3.3403
 5156SOL     OW26926   2.299   0.134   1.386 -0.1235 -0.2385 -0.1254
 5156SOL    HW126927   2.320   0.226   1.402 -0.0969 -0.4603  1.0846
 5156SOL    HW226928   2.290   0.099   1.474  0.8348  0.1626  0.1252
 5157SOL     OW26929   2.331   0.106   8.463  0.0108 -0.5623 -0.1682
 5157SOL    HW126930   2.254   0.159   8.480  1.0143  0.8649 -0.0759
 5157SOL    HW226931   2.343   0.039   8.531  0.4051 -0.0451  0.2703
 5158SOL     OW26932   0.088   2.202   5.472  0.8043 -0.2837 -0.7810
 5158SOL    HW126933   0.149   2.276   5.472  0.9320 -0.3857  0.2988
 5158SOL    HW226934   0.066   2.207   5.565 -1.1354  1.1840 -1.3459
 5159SOL     OW26935   4.061   1.037   9.479  0.7940  0.6504 -0.3820
 5159SOL    HW126936   4.002   1.090   9.534  1.6969  1.6540 -0.3985
 5159SOL    HW226937   4.146   1.077   9.498  2.1438 -1.8091 -1.3542
 5160SOL     OW26938   1.210   2.213   9.243 -0.2519  0.5884 -0.3017
 5160SOL    HW126939   1.186   2.305   9.239  2.2630  1.2482 -0.1484
 5160SOL    HW226940   1.123   2.185   9.273 -0.2560 -0.1002 -0.9613
 5161SOL     OW26941   2.439   0.791   2.746 -0.5253 -0.0195 -0.1213
 5161SOL    HW126942   2.438   0.869   2.690 -1.3904  0.0351 -0.0362
 5161SOL    HW226943   2.523   0.752   2.722 -0.3260 -0.4705  1.2814
 5162SOL     OW26944   2.748   3.059  12.970  0.1595  0.2706 -0.1437
 5162SOL    HW126945   2.697   3.080  13.048  0.4114  0.3000  0.0137
 5162SOL    HW226946   2.784   2.979  13.009 -0.5892 -0.6053 -1.2543
 5163SOL     OW26947   1.067   0.170   3.435 -0.1136  0.8750 -0.3559
 5163SOL    HW126948   1.057   0.171   3.530  0.2524  0.9947 -0.3158
 5163SOL    HW226949   0.986   0.125   3.412 -0.4485  1.1165  0.3459
 5164SOL     OW26950   1.283   1.928   6.760 -0.9002  0.0852 -0.7408
 5164SOL    HW126951   1.367   1.973   6.767 -0.3536 -1.1619  0.5937
 5164SOL    HW226952   1.227   1.981   6.817 -0.8467 -0.6828  0.0293
 5165SOL     OW26953   2.262   1.124   1.847 -0.2789 -0.3586  0.2964
 5165SOL    HW126954   2.340   1.069   1.859  0.4171  0.8103  1.1041
 5165SOL    HW226955   2.252   1.127   1.752  0.8329 -0.4634  0.1763
 5166SOL     OW26956   3.895   1.914   1.604  0.1538  0.3468 -0.2703
 5166SOL    HW126957   3.856   1.914   1.517 -0.2037 -1.5687 -0.1049
 5166SOL    HW226958   3.861   1.832   1.639  0.5193  0.2592 -0.1187
 5167SOL     OW26959   4.152   3.414  16.346  1.0316  0.9636  0.3615
 5167SOL    HW126960   4.167   3.362  16.267 -2.2672 -0.8686  0.9463
 5167SOL    HW226961   4.063   3.442  16.324  0.1797 -0.9961  1.3610
 5168SOL     OW26962   3.531   1.164  17.198 -0.3898  0.0675 -0.2626
 5168SOL    HW126963   3.585   1.242  17.208  1.1865 -0.6790 -2.9401
 5168SOL    HW226964   3.518   1.150  17.104 -2.3360 -0.6834  0.1157
 5169SOL     OW26965   3.868   3.330   8.849  1.0252  0.4277  0.2467
 5169SOL    HW126966   3.891   3.302   8.938  1.3083  2.3251  0.7814
 5169SOL    HW226967   3.849   3.421   8.872 -0.5707  0.3202 -0.6823
 5170SOL     OW26968   4.188   4.208   0.420  0.2071 -0.1839 -0.3294
 5170SOL    HW126969   4.226   4.263   0.488  0.1207  0.6800 -0.9763
 5170SOL    HW226970   4.152   4.276   0.364 -0.5075 -0.4302 -0.1628
 5171SOL     OW26971   3.522   3.267  13.435  0.2173  0.5520 -0.4692
 5171SOL    HW126972   3.499   3.315  13.355 -0.6759  1.3319  0.2536
 5171SOL    HW226973   3.615   3.259  13.417  0.2424  0.6546 -0.3878
 5172SOL     OW26974   1.289   4.611   4.420  0.0019  0.4358  0.2028
 5172SOL    HW126975   1.333   4.695   4.434  0.6841 -0.0936  1.2183
 5172SOL    HW226976   1.221   4.632   4.356  1.5584  1.1623 -1.2084
 5173SOL     OW26977   1.566   1.106   3.710 -0.2826 -0.1698  0.0174
 5173SOL    HW126978   1.498   1.149   3.658 -1.8995 -0.4178  1.9279
 5173SOL    HW226979   1.520   1.081   3.790  0.6105 -1.8720 -0.0038
 5174SOL     OW26980   3.431   4.136   6.771  0.0536  0.0570  0.2502
 5174SOL    HW126981   3.376   4.134   6.849  3.6613  1.0744  2.8135
 5174SOL    HW226982   3.510   4.182   6.797 -1.3049  1.4478  1.9137
 5175SOL     OW26983   3.498   1.095   4.129  0.1556 -0.5247 -0.0989
 5175SOL    HW126984   3.507   1.167   4.192  2.1446 -1.3536  0.5551
 5175SOL    HW226985   3.489   1.140   4.045  0.6606  0.4950  0.3928
 5176SOL     OW26986   1.803   1.517   2.778  0.4021 -0.2366  0.4333
 5176SOL    HW126987   1.809   1.568   2.697 -1.0655  0.7628  0.9532
 5176SOL    HW226988   1.797   1.425   2.751  1.8385 -1.9438  6.0603
 5177SOL     OW26989   4.056   3.732   4.959  0.1564 -0.3025  0.1028
 5177SOL    HW126990   4.008   3.662   5.003 -0.7550  0.3157  0.0946
 5177SOL    HW226991   4.054   3.805   5.021  0.0824 -0.5637  0.4109
 5178SOL     OW26992   3.176   2.736   8.938  0.5328 -0.2771 -0.0374
 5178SOL    HW126993   3.242   2.785   8.889  1.4359 -1.9553 -0.5144
 5178SOL    HW226994   3.102   2.731   8.877 -1.3077  1.3129  2.0896
 5179SOL     OW26995   2.652   0.975   2.349  0.2746 -0.1768  0.5482
 5179SOL    HW126996   2.638   1.067   2.327 -0.7511 -0.2245  1.0369
 5179SOL    HW226997   2.564   0.941   2.339 -0.1221  0.7017  1.0229
 5180SOL     OW26998   0.559   3.506  14.979  0.0037 -0.0257 -0.2209
 5180SOL    HW126999   0.612   3.451  15.037  0.2180  0.6068  0.1768
 5180SOL    HW227000   0.613   3.500  14.900 -1.1357  0.3858 -1.0387
 5181SOL     OW27001   0.273   4.642  10.481  0.5791 -0.3456  0.1956
 5181SOL    HW127002   0.218   4.704  10.529 -0.0449 -0.2179 -0.6967
 5181SOL    HW227003   0.331   4.706  10.438 -0.4143 -0.8792 -1.9197
 5182SOL     OW27004   2.037   2.448   0.402 -0.1637  0.2724 -0.1581
 5182SOL    HW127005   1.945   2.471   0.413 -0.7748 -2.0212 -0.3422
 5182SOL    HW227006   2.079   2.478   0.482  0.7750  0.2483 -0.6482
 5183SOL     OW27007   0.273   0.674  17.612  0.0633  0.2025 -0.1376
 5183SOL    HW127008   0.293   0.736  17.682  0.5310 -1.3440  1.0776
 5183SOL    HW227009   0.242   0.742  17.552  1.8687  3.5423  2.7562
 5184SOL     OW27010   0.631   2.696  15.321  0.4734  0.6482  0.2716
 5184SOL    HW127011   0.692   2.627  15.295 -1.6234 -1.8989  2.1900
 5184SOL    HW227012   0.573   2.644  15.377 -1.3162  1.9844 -0.3575
 5185SOL     OW27013   1.978   0.480  14.431 -0.5260  0.4049  0.2021
 5185SOL    HW127014   2.057   0.477  14.485 -1.0078  1.0560  0.9378
 5185SOL    HW227015   1.978   0.571  14.401 -1.4361  0.5549  0.6508
 5186SOL     OW27016   0.257   2.741   0.405 -0.2299  0.0858  0.0269
 5186SOL    HW127017   0.322   2.788   0.353  0.1543  0.6875  1.0720
 5186SOL    HW227018   0.277   2.648   0.391  1.7751  0.4376  0.5466
 5187SOL     OW27019   0.450   3.818  10.174 -0.3281  0.1910 -0.1241
 5187SOL    HW127020   0.486   3.732  10.150 -2.7206  0.0549 -3.2687
 5187SOL    HW227021   0.472   3.869  10.096  1.4944 -0.4672 -0.0515
 5188SOL     OW27022   0.230   3.024   4.296  0.1030  1.0659  0.8423
 5188SOL    HW127023   0.220   2.973   4.377 -0.2671  1.0279  0.7736
 5188SOL    HW227024   0.162   2.990   4.238  1.0249  0.5197  0.1008
 5189SOL     OW27025   4.537   2.369  11.422 -0.4310 -0.1034 -0.2326
 5189SOL    HW127026   4.451   2.370  11.380 -0.1898  1.2063 -0.7136
 5189SOL    HW227027   4.548   2.277  11.446  2.2420  0.8012  2.0004
 5190SOL     OW27028   4.347   4.175   7.882  0.6201  0.7255  0.5353
 5190SOL    HW127029   4.439   4.148   7.876 -0.1326 -1.9293  1.0661
 5190SOL    HW227030   4.364   4.262   7.917  0.3042  0.8975  0.2653
 5191SOL     OW27031   4.276   3.020   4.080  1.1734  0.0643 -0.2172
 5191SOL    HW127032   4.330   3.031   4.002 -0.1342  0.1804 -1.1254
 5191SOL    HW227033   4.208   3.085   4.058  0.1274 -1.4074 -1.3907
 5192SOL     OW27034   3.316   2.037  12.944  0.0168 -0.5935 -0.1872
 5192SOL    HW127035   3.252   2.095  12.985  0.1939  0.1572 -0.9570
 5192SOL    HW227036   3.288   2.058  12.855  0.2601 -0.7554 -0.3017
 5193SOL     OW27037   3.001   3.634  11.221 -0.0612  0.5424 -0.0843
 5193SOL    HW127038   2.996   3.549  11.178  0.6143 -0.2609  1.4202
 5193SOL    HW227039   2.989   3.696  11.149 -3.6700  1.3183  1.2007
 5194SOL     OW27040   1.932   2.498   2.897  0.2416 -0.2459 -0.5061
 5194SOL    HW127041   2.010   2.495   2.842 -0.9103  2.3782 -2.3157
 5194SOL    HW227042   1.853   2.516   2.845 -0.2140 -0.2738  0.1855
 5195SOL     OW27043   4.628   0.189   1.652  0.5283 -0.1316  0.4406
 5195SOL    HW127044   4.680   0.117   1.686 -0.0433 -0.7515 -0.0083
 5195SOL    HW227045   4.594   0.240   1.726  0.4027  0.9248 -0.3369
 5196SOL     OW27046   1.173   1.889   8.033  0.1145 -0.7263 -0.2199
 5196SOL    HW127047   1.131   1.850   8.109 -1.0061  0.3423 -0.3017
 5196SOL    HW227048   1.263   1.892   8.065 -0.2604  0.9312  0.6771
 5197SOL     OW27049   2.321   2.148   3.736 -0.5825 -0.3692  0.4999
 5197SOL    HW127050   2.404   2.182   3.770 -0.5487 -0.3668  0.4123
 5197SOL    HW227051   2.352   2.114   3.653  1.8020 -1.7851  1.9718
 5198SOL     OW27052   4.354   4.618   0.576 -0.0329  0.3044 -0.2182
 5198SOL    HW127053   4.354   4.696   0.631  0.4450 -0.6530  1.1441
 5198SOL    HW227054   4.445   4.613   0.545 -0.1423  1.1134 -0.6816
 5199SOL     OW27055   4.414   1.842   5.915 -0.2742 -0.1463 -0.4065
 5199SOL    HW127056   4.453   1.780   5.977  2.4829  1.2280 -0.7637
 5199SOL    HW227057   4.478   1.832   5.845 -0.3025 -2.3387 -0.1133
 5200SOL     OW27058   1.271   4.631   6.145  0.3691  0.1211  0.1049
 5200SOL    HW127059   1.334   4.562   6.167 -0.8924 -0.7466  0.9451
 5200SOL    HW227060   1.304   4.670   6.064 -2.4945  0.0486 -1.0585
 5201SOL     OW27061   4.682   3.274   6.642 -0.9152 -0.3470  0.5512
 5201SOL    HW127062   0.051   3.294   6.617 -0.5138 -0.6584  1.7426
 5201SOL    HW227063   4.643   3.355   6.609 -0.6010 -0.3690  0.1266
 5202SOL     OW27064   0.881   1.331   5.094 -0.2634  0.0121 -0.6090
 5202SOL    HW127065   0.790   1.322   5.067  0.3499 -1.8465 -2.0157
 5202SOL    HW227066   0.882   1.285   5.178 -0.4660  1.5686  0.2525
 5203SOL     OW27067   1.263   4.611   0.807  0.3801 -0.1505  0.2796
 5203SOL    HW127068   1.198   4.648   0.867 -1.3469 -1.0752 -1.0131
 5203SOL    HW227069   1.314   4.549   0.859 -1.2056 -1.5365  0.1946
 5204SOL     OW27070   3.701   3.953   9.230 -0.0433 -0.2412  0.3545
 5204SOL    HW127071   3.682   3.956   9.323 -1.7187 -0.2852  0.0052
 5204SOL    HW227072   3.675   4.040   9.201  0.7179 -0.6387 -1.5295
 5205SOL     OW27073   1.499   2.285   6.084 -0.3900  0.8915  0.0831
 5205SOL    HW127074   1.549   2.305   6.005 -1.1430  2.8093  0.1027
 5205SOL    HW227075   1.412   2.311   6.054  1.0643  2.4496 -2.7556
 5206SOL     OW27076   3.916   1.126  15.330  0.9923 -0.3720 -0.4050
 5206SOL    HW127077   4.002   1.095  15.301  2.2054  2.0441  0.5239
 5206SOL    HW227078   3.917   1.212  15.287  0.5770 -0.6169 -0.8994
 5207SOL     OW27079   3.695   2.813   2.780 -0.3592 -0.0613  0.1798
 5207SOL    HW127080   3.665   2.797   2.690 -0.0191 -0.5430  0.1493
 5207SOL    HW227081   3.752   2.737   2.796 -0.1428 -0.0141 -0.3572
 5208SOL     OW27082   4.544   2.551  10.500  0.1857 -0.3529 -0.1443
 5208SOL    HW127083   4.558   2.457  10.500  3.6012  0.1213  1.3724
 5208SOL    HW227084   4.496   2.550  10.583 -1.2569  2.5412 -0.9166
 5209SOL     OW27085   0.968   2.305   6.466  1.0193  0.5597  0.4635
 5209SOL    HW127086   0.902   2.258   6.517  2.3544 -0.2795  1.4331
 5209SOL    HW227087   1.038   2.291   6.530  0.1150 -2.9636  0.7008
 5210SOL     OW27088   4.499   0.322   8.639  0.5197 -0.7674 -0.2718
 5210SOL    HW127089   4.571   0.354   8.584 -0.0079  0.7833 -0.0696
 5210SOL    HW227090   4.457   0.401   8.673  0.0595 -2.0200  2.0647
 5211SOL     OW27091   3.409   0.444   7.529 -0.2164  0.2967 -0.4421
 5211SOL    HW127092   3.347   0.445   7.456 -1.0578 -0.6766  0.2629
 5211SOL    HW227093   3.483   0.483   7.482 -0.1432 -0.0936 -0.6510
 5212SOL     OW27094   0.335   3.339   3.134 -0.7685 -0.1859  0.0734
 5212SOL    HW127095   0.312   3.355   3.225  1.4639 -3.0837  1.1269
 5212SOL    HW227096   0.376   3.253   3.138 -0.2850 -0.0609 -1.9924
 5213SOL     OW27097   2.758   4.078   5.568  0.0272 -0.2441 -0.0223
 5213SOL    HW127098   2.778   4.150   5.508 -1.9976  0.2930 -0.0393
 5213SOL    HW227099   2.740   4.009   5.505  0.7714 -0.1504 -0.3432
 5214SOL     OW27100   0.780   3.680  15.639  0.2192  0.2413  0.0884
 5214SOL    HW127101   0.693   3.698  15.674  0.6375 -0.8197  1.7265
 5214SOL    HW227102   0.778   3.737  15.563  1.1377  2.1792  1.5130
 5215SOL     OW27103   2.052   2.114   9.004  0.4771  0.8009  0.4358
 5215SOL    HW127104   1.968   2.159   8.996  0.5320  1.0582  1.2223
 5215SOL    HW227105   2.063   2.143   9.095 -3.1781  1.4195  0.6613
 5216SOL     OW27106   3.483   0.448   6.733  0.7703 -0.0704 -0.3716
 5216SOL    HW127107   3.387   0.443   6.731  0.6834  1.1910  0.9941
 5216SOL    HW227108   3.507   0.363   6.771  0.7579  0.5968  1.1229
 5217SOL     OW27109   1.233   0.097  14.996  0.2662 -0.2844  0.0756
 5217SOL    HW127110   1.207   0.005  14.994  0.9877 -0.4849  0.0809
 5217SOL    HW227111   1.169   0.124  14.930 -0.1314 -2.7207 -0.5409
 5218SOL     OW27112   0.904   1.108   5.472  0.3280 -0.6094  0.1926
 5218SOL    HW127113   0.835   1.150   5.524  0.3179 -1.4523  0.8601
 5218SOL    HW227114   0.969   1.178   5.475  1.8405 -1.9788 -0.3657
 5219SOL     OW27115   2.126   4.419  17.253 -0.0921  0.0027  0.1607
 5219SOL    HW127116   2.083   4.397  17.170 -1.0104  1.2319  0.3075
 5219SOL    HW227117   2.111   4.513  17.267  0.3578  0.0796  0.1099
 5220SOL     OW27118   2.735   2.718   4.505  0.1238  0.0926 -0.2418
 5220SOL    HW127119   2.678   2.791   4.530  2.1904  0.7701  2.4920
 5220SOL    HW227120   2.665   2.658   4.479  0.6194 -0.9805  0.9739
 5221SOL     OW27121   0.014   3.405   4.212 -0.5135 -0.1336 -0.2702
 5221SOL    HW127122   4.685   3.323   4.222  1.3259 -1.4978 -2.1239
 5221SOL    HW227123   4.660   3.452   4.174 -1.4507  0.4688  2.3262
 5222SOL     OW27124   3.718   2.198   6.758 -0.1552 -0.0509  0.1965
 5222SOL    HW127125   3.647   2.208   6.695  0.3922  1.6059 -0.1690
 5222SOL    HW227126   3.758   2.285   6.758 -1.5170  0.5757  1.2999
 5223SOL     OW27127   3.340   0.488   5.875 -0.0041 -0.4854 -0.8952
 5223SOL    HW127128   3.317   0.535   5.956  0.1730 -1.4658 -0.2748
 5223SOL    HW227129   3.313   0.552   5.809  0.0290  1.1015  0.6280
 5224SOL     OW27130   0.426   4.343   8.032 -0.2331 -0.6814  0.5882
 5224SOL    HW127131   0.402   4.264   8.079  0.1407 -0.9386  0.3508
 5224SOL    HW227132   0.381   4.330   7.949  0.9928  1.4611 -0.4282
 5225SOL     OW27133   3.046   4.034   5.451  0.2727 -0.2376 -0.4038
 5225SOL    HW127134   3.045   4.072   5.539  0.2054 -2.0407  0.3844
 5225SOL    HW227135   3.053   4.116   5.401 -3.9040  0.8514  0.8455
 5226SOL     OW27136   2.950   2.536   7.857  0.0043  0.3222 -0.0718
 5226SOL    HW127137   2.912   2.584   7.784  0.2227 -0.1520 -0.4972
 5226SOL    HW227138   2.885   2.466   7.864  2.7180 -1.9440  2.7121
 5227SOL     OW27139   2.854   0.600  10.294 -0.1636  0.2905  0.1910
 5227SOL    HW127140   2.787   0.551  10.340 -0.2992  0.5104  0.2277
 5227SOL    HW227141   2.829   0.612  10.202 -0.7512 -1.0410  0.1751
 5228SOL     OW27142   0.465   3.155  14.403 -0.2928  0.1252 -0.0625
 5228SOL    HW127143   0.405   3.204  14.460  0.6552  1.8347 -0.5265
 5228SOL    HW227144   0.403   3.089  14.374  1.3224 -1.3643 -0.0987
 5229SOL     OW27145   4.642   0.721   8.521 -0.3634 -0.0008 -0.2659
 5229SOL    HW127146   0.015   0.705   8.534 -0.4277  0.6560  1.0195
 5229SOL    HW227147   4.651   0.784   8.449  1.4120  0.8117  0.6608
 5230SOL     OW27148   0.031   3.208   5.746  0.0968  0.1959 -0.2231
 5230SOL    HW127149   0.050   3.162   5.828  0.9566  0.3229 -0.3617
 5230SOL    HW227150   0.116   3.209   5.702 -0.3982 -0.4282 -1.2079
 5231SOL     OW27151   0.115   1.300   3.208  0.0725 -0.0998  0.3759
 5231SOL    HW127152   0.072   1.384   3.222 -1.0884 -0.6475  0.1307
 5231SOL    HW227153   0.208   1.323   3.204  0.5131 -1.8365  0.6928
 5232SOL     OW27154   4.170   0.856   2.470 -0.2887  0.2691 -0.6626
 5232SOL    HW127155   4.168   0.852   2.566 -0.3616 -2.8244 -0.7810
 5232SOL    HW227156   4.158   0.951   2.464 -1.1526  0.0246 -2.7253
 5233SOL     OW27157   3.850   1.531   3.685 -0.3134  0.3887 -0.0499
 5233SOL    HW127158   3.938   1.549   3.654 -0.5872 -0.7931 -1.5403
 5233SOL    HW227159   3.808   1.501   3.604  0.2109 -1.2174  0.2827
 5234SOL     OW27160   2.462   2.669  16.981  0.4710  0.7222 -0.1603
 5234SOL    HW127161   2.547   2.691  17.018  1.2730 -0.4068 -1.3238
 5234SOL    HW227162   2.405   2.732  17.025 -0.3347  0.0992 -0.2843
 5235SOL     OW27163   2.412   2.635  17.306 -0.2668 -0.5233  0.1645
 5235SOL    HW127164   2.491   2.642  17.254 -0.4115 -1.3852 -0.1659
 5235SOL    HW227165   2.446   2.672  17.388  0.8935 -0.4511 -0.3482
 5236SOL     OW27166   3.185   2.696   0.212 -0.2324  0.2687 -0.0261
 5236SOL    HW127167   3.204   2.611   0.253 -0.2912  0.0232 -0.5101
 5236SOL    HW227168   3.108   2.733   0.254 -1.3573  0.1057 -1.9775
 5237SOL     OW27169   0.021   2.752   4.705 -1.0280 -0.2534  0.4032
 5237SOL    HW127170   0.067   2.675   4.672  0.6006  0.9799 -0.1728
 5237SOL    HW227171   0.020   2.812   4.631  1.5115 -0.3301  0.3178
 5238SOL     OW27172   4.143   4.591   2.234  0.2829  0.1030 -0.1316
 5238SOL    HW127173   4.228   4.547   2.228  0.3541  0.0175  1.4225
 5238SOL    HW227174   4.097   4.545   2.164  2.6539  1.0417 -2.3230
 5239SOL     OW27175   2.122   3.389   7.249  0.4086  0.1299 -0.2436
 5239SOL    HW127176   2.208   3.361   7.219  1.0508  2.7722 -0.8138
 5239SOL    HW227177   2.106   3.475   7.210  1.2325  0.0623 -0.7082
 5240SOL     OW27178   3.065   2.242  14.942 -0.1897 -0.5527  0.1589
 5240SOL    HW127179   3.155   2.257  14.914 -0.1147 -0.3895  0.4967
 5240SOL    HW227180   3.038   2.171  14.882 -1.0073 -0.2391  0.1570
 5241SOL     OW27181   1.839   3.292   7.578  0.0380  0.4204  0.4367
 5241SOL    HW127182   1.747   3.307   7.555  0.3434 -1.3216 -1.9170
 5241SOL    HW227183   1.843   3.199   7.600 -0.1587  0.2149 -0.3994
 5242SOL     OW27184   0.177   2.492   4.639  0.4424  0.1696 -0.9312
 5242SOL    HW127185   0.133   2.422   4.687  1.2792  1.2339  1.3448
 5242SOL    HW227186   0.253   2.512   4.694  0.2165  2.0033 -1.2981
 5243SOL     OW27187   3.808   1.697   1.987 -0.4018 -0.2943  0.5755
 5243SOL    HW127188   3.750   1.730   1.918  1.7778 -1.3067 -1.7147
 5243SOL    HW227189   3.826   1.616   1.941  1.7809  0.3113  0.3557
 5244SOL     OW27190   2.491   4.011   2.685 -0.3768 -0.3696  0.0224
 5244SOL    HW127191   2.441   3.930   2.679 -0.9071 -0.0337 -0.0535
 5244SOL    HW227192   2.566   3.986   2.740 -2.1875 -1.7201  1.8696
 5245SOL     OW27193   0.318   2.269   3.517  0.6659  0.0889 -0.4614
 5245SOL    HW127194   0.234   2.289   3.559  1.4325  1.1796  0.5493
 5245SOL    HW227195   0.376   2.259   3.592 -0.1042 -1.8655 -0.1205
 5246SOL     OW27196   1.384   0.971   3.081 -0.4203  0.0530  0.1097
 5246SOL    HW127197   1.382   1.010   2.994  0.9287  1.0200  0.5061
 5246SOL    HW227198   1.341   1.040   3.131 -1.9894 -0.9601  0.1559
 5247SOL     OW27199   3.849   0.338   5.018  0.2190 -0.0539  0.3019
 5247SOL    HW127200   3.784   0.274   5.046 -0.4046  0.7548  0.7003
 5247SOL    HW227201   3.896   0.265   4.979 -0.2136 -1.1204  1.7943
 5248SOL     OW27202   1.433   0.856   8.194 -0.1821 -0.0867 -0.5654
 5248SOL    HW127203   1.337   0.851   8.191 -0.2339  0.2896  0.6259
 5248SOL    HW227204   1.445   0.913   8.269 -0.3650  0.0470 -0.6368
 5249SOL     OW27205   1.723   0.445   7.077 -0.0514 -0.2156  0.4993
 5249SOL    HW127206   1.745   0.353   7.060  0.9837 -0.1760  1.5854
 5249SOL    HW227207   1.632   0.462   7.054  0.8242  2.5737 -0.8797
 5250SOL     OW27208   3.206   4.273   0.044 -0.0419 -0.2169  0.2160
 5250SOL    HW127209   3.173   4.199  17.679  1.1984  1.2594 -2.7354
 5250SOL    HW227210   3.266   4.233   0.107 -1.3381 -2.5859 -0.0370
 5251SOL     OW27211   3.281   4.521   5.390  0.3646  0.2010  0.3027
 5251SOL    HW127212   3.352   4.576   5.358 -0.5174  2.6801  2.5566
 5251SOL    HW227213   3.257   4.572   5.468  1.9929 -0.2537  1.0964
 5252SOL     OW27214   0.784   1.197   1.686  0.5500 -0.6892 -0.7988
 5252SOL    HW127215   0.799   1.238   1.771 -1.8934 -1.5014  0.0321
 5252SOL    HW227216   0.799   1.273   1.630  1.8195  0.6809  1.3776
 5253SOL     OW27217   0.084   3.075   8.358  0.1919  0.4841  1.1321
 5253SOL    HW127218   0.071   3.012   8.429 -1.7501 -0.5200 -0.1122
 5253SOL    HW227219   0.086   3.157   8.407  0.8227  1.2178 -0.1275
 5254SOL     OW27220   0.966   1.227   6.934 -0.7418 -0.0102  0.7685
 5254SOL    HW127221   0.890   1.251   6.987 -0.1026  0.9491  1.2580
 5254SOL    HW227222   1.019   1.201   7.010  0.4463  0.4523  0.0974
 5255SOL     OW27223   2.142   3.398   3.579  0.5203 -0.5522 -0.1837
 5255SOL    HW127224   2.217   3.345   3.553  0.8822  0.4677 -1.2252
 5255SOL    HW227225   2.171   3.480   3.538  2.3200 -0.0648  2.0481
 5256SOL     OW27226   2.238   1.709  17.092  0.3975 -0.1935 -0.1396
 5256SOL    HW127227   2.254   1.773  17.162  0.8769  0.5231 -0.9037
 5256SOL    HW227228   2.296   1.735  17.020  3.7463  1.1984  3.0467
 5257SOL     OW27229   3.255   2.763  13.295 -0.6847 -0.5583  0.4128
 5257SOL    HW127230   3.233   2.855  13.310  0.3106 -0.4036  0.8925
 5257SOL    HW227231   3.265   2.762  13.200 -1.2025 -2.9747  0.3633
 5258SOL     OW27232   4.664   2.103  14.394 -0.4418 -0.2964  0.1637
 5258SOL    HW127233   4.695   2.086  14.483  0.4021  0.1756 -0.0416
 5258SOL    HW227234   0.008   2.048  14.351  0.7529  0.8333  0.4861
 5259SOL     OW27235   3.516   2.911   4.724 -0.1353 -0.3588  0.2208
 5259SOL    HW127236   3.526   2.941   4.634 -2.1128 -0.8598 -0.1612
 5259SOL    HW227237   3.607   2.892   4.747  0.0965  1.5625  0.8652
 5260SOL     OW27238   2.458   3.380  15.611 -0.5447  1.1110 -1.3619
 5260SOL    HW127239   2.480   3.470  15.636  3.2109 -0.6258  1.6664
 5260SOL    HW227240   2.483   3.403  15.522  1.3249 -0.2882 -1.2132
 5261SOL     OW27241   1.462   0.532   7.001  0.4300 -0.3015  0.4550
 5261SOL    HW127242   1.395   0.596   7.023 -0.2714 -0.7368 -0.4138
 5261SOL    HW227243   1.511   0.586   6.939 -0.5717 -1.0060 -0.9638
 5262SOL     OW27244   3.045   1.187   4.168  0.0469 -0.1597  1.2761
 5262SOL    HW127245   3.114   1.240   4.208 -0.8970  1.5973  0.5644
 5262SOL    HW227246   3.042   1.125   4.241 -1.9260  0.2325  1.5273
 5263SOL     OW27247   3.060   1.611   6.874  0.4019  0.5487 -0.1736
 5263SOL    HW127248   3.143   1.563   6.871 -0.4546 -0.9686  0.3981
 5263SOL    HW227249   3.026   1.590   6.787  2.3035 -1.2893 -0.4611
 5264SOL     OW27250   1.341   0.360   8.295  0.0450 -0.1685 -0.5134
 5264SOL    HW127251   1.317   0.409   8.373  2.1149  1.4312 -0.8746
 5264SOL    HW227252   1.256   0.351   8.252 -1.5310 -2.5153  3.1227
 5265SOL     OW27253   0.442   2.507   7.151 -0.1909  0.1659 -0.4133
 5265SOL    HW127254   0.441   2.475   7.061  0.0851  1.5589 -0.9104
 5265SOL    HW227255   0.441   2.425   7.201  1.0465  0.4788  0.1365
 5266SOL     OW27256   3.765   1.407   7.606  0.1285 -0.0757 -0.6166
 5266SOL    HW127257   3.834   1.431   7.543  2.2479 -0.7349  1.4436
 5266SOL    HW227258   3.820   1.394   7.683 -0.4742  0.2916 -0.1301
 5267SOL     OW27259   0.199   3.321   3.744 -0.4740 -0.0407  0.0017
 5267SOL    HW127260   0.109   3.317   3.777 -0.1338 -0.2699  0.9103
 5267SOL    HW227261   0.234   3.232   3.749  2.2213  1.1370  2.6066
 5268SOL     OW27262   4.478   4.288   8.491 -0.0954 -0.4282 -0.1796
 5268SOL    HW127263   4.547   4.236   8.534 -1.3540 -0.9815  1.1930
 5268SOL    HW227264   4.401   4.256   8.538  0.7946 -1.7523  0.3915
 5269SOL     OW27265   0.259   1.932   6.871 -0.0436  0.0241  0.5599
 5269SOL    HW127266   0.310   1.898   6.796  1.1301  1.2224  0.8240
 5269SOL    HW227267   0.249   2.026   6.855  1.0596 -0.2609 -1.9722
 5270SOL     OW27268   2.523   0.572  17.351 -0.7802 -0.1729  0.1171
 5270SOL    HW127269   2.436   0.592  17.388  1.3046  3.3227  3.1240
 5270SOL    HW227270   2.532   0.621  17.269 -3.5544 -0.8675 -0.6231
 5271SOL     OW27271   3.300   0.872  14.907  0.3706 -0.2701  0.0696
 5271SOL    HW127272   3.315   0.805  14.841  3.9341  1.0831 -0.5271
 5271SOL    HW227273   3.206   0.867  14.919  0.7119 -1.9845  2.0445
 5272SOL     OW27274   2.608   4.676  11.826  0.1868  0.3954  0.3579
 5272SOL    HW127275   2.641   0.031  11.777  1.0893 -1.0585 -1.2557
 5272SOL    HW227276   2.641   4.600  11.780  1.4988  0.9850  0.3220
 5273SOL     OW27277   4.402   3.905   5.644 -0.3515 -0.1426  1.0077
 5273SOL    HW127278   4.440   3.904   5.555  0.9543 -0.5474  1.5656
 5273SOL    HW227279   4.397   3.810   5.644 -0.4467 -0.1327  1.9235
 5274SOL     OW27280   3.769   1.728  15.283  0.1511  0.1732  0.0734
 5274SOL    HW127281   3.854   1.685  15.292 -0.5660 -0.3779  4.3981
 5274SOL    HW227282   3.704   1.658  15.291  1.1336 -0.8452 -0.9972
 5275SOL     OW27283   4.558   4.155   8.921  0.0797 -0.0640  0.4884
 5275SOL    HW127284   4.554   4.133   8.828 -3.1834  1.8547  0.1757
 5275SOL    HW227285   4.556   4.069   8.964  4.5062 -0.6718 -0.5862
 5276SOL     OW27286   3.830   4.158   7.797  0.6222  0.1858 -0.0265
 5276SOL    HW127287   3.922   4.182   7.801  0.0887  2.0254  1.1075
 5276SOL    HW227288   3.824   4.119   7.885  0.6435  1.9011  0.7272
 5277SOL     OW27289   3.587   0.465   5.934 -0.0744  0.0009  0.3559
 5277SOL    HW127290   3.499   0.464   5.895  0.4911  3.7007 -0.9717
 5277SOL    HW227291   3.588   0.544   5.987  0.0843  0.5689 -0.4971
 5278SOL     OW27292   0.106   2.838   3.718  0.1456  0.4143 -0.3400
 5278SOL    HW127293   0.166   2.806   3.785  0.2986  0.2049 -0.5775
 5278SOL    HW227294   0.041   2.880   3.774 -0.1863 -1.4271  0.6528
 5279SOL     OW27295   2.711   3.164   5.251  0.3093  0.0404 -0.3621
 5279SOL    HW127296   2.775   3.123   5.309 -1.6244 -1.8888  0.3826
 5279SOL    HW227297   2.746   3.251   5.233 -1.2658  1.4318  3.4933
 5280SOL     OW27298   4.106   4.426   7.189 -0.2132  0.0086  0.2017
 5280SOL    HW127299   4.195   4.430   7.154 -0.0069 -1.4967  0.5680
 5280SOL    HW227300   4.117   4.465   7.276  1.4641  0.0682 -0.0403
 5281SOL     OW27301   3.818   2.022   4.625  0.4333  0.2299 -0.0245
 5281SOL    HW127302   3.815   1.935   4.664 -0.5343  0.6519  0.8165
 5281SOL    HW227303   3.772   1.999   4.544 -1.0407 -0.1877  0.9353
 5282SOL     OW27304   0.874   2.131  12.117  0.2445 -0.2463 -0.1192
 5282SOL    HW127305   0.933   2.154  12.188 -0.9895  4.1212 -0.4805
 5282SOL    HW227306   0.930   2.153  12.043  1.1134 -1.8399  0.0745
 5283SOL     OW27307   2.719   0.168  10.336  0.1491  0.0111 -0.2745
 5283SOL    HW127308   2.721   0.091  10.279  0.9123 -0.2204  0.0632
 5283SOL    HW227309   2.723   0.135  10.426 -0.0327 -1.9643 -0.9995
 5284SOL     OW27310   2.132   4.216   2.570 -0.1458  0.6510 -0.6099
 5284SOL    HW127311   2.119   4.269   2.648  1.2122  1.5490 -0.9839
 5284SOL    HW227312   2.228   4.223   2.568 -0.0832 -0.4307 -1.3087
 5285SOL     OW27313   3.519   0.240  15.436 -0.1104  0.1861  0.3029
 5285SOL    HW127314   3.534   0.154  15.475 -2.7824  0.2583  1.4842
 5285SOL    HW227315   3.486   0.224  15.347 -0.9128 -3.3109  1.2505
 5286SOL     OW27316   2.724   2.180   6.835  0.4667  0.2896  0.1093
 5286SOL    HW127317   2.761   2.195   6.748  0.3842  0.9324  0.1882
 5286SOL    HW227318   2.690   2.091   6.841  1.2456 -0.1238 -1.5895
 5287SOL     OW27319   3.661   3.866  16.981 -0.0326  0.1297  0.1345
 5287SOL    HW127320   3.672   3.833  16.892  1.3407  1.9385 -0.3704
 5287SOL    HW227321   3.602   3.940  16.968 -0.6244 -0.6124 -1.3631
 5288SOL     OW27322   0.073   2.978  13.926  0.3013 -0.4406  0.2347
 5288SOL    HW127323   0.037   2.911  13.868 -0.0503 -0.2881  0.2774
 5288SOL    HW227324   0.081   2.930  14.009 -1.1724 -2.6518 -0.9207
 5289SOL     OW27325   4.307   4.438   4.771 -0.3470 -0.0182 -0.4676
 5289SOL    HW127326   4.343   4.350   4.779  1.4644  0.8198  0.6736
 5289SOL    HW227327   4.286   4.469   4.860  0.0903 -0.6936 -0.1344
 5290SOL     OW27328   3.192   1.302   1.953 -0.4229  0.7816  0.7579
 5290SOL    HW127329   3.189   1.371   2.020 -3.6066  1.1133  0.2599
 5290SOL    HW227330   3.099   1.282   1.952 -0.1701 -0.3548 -0.2845
 5291SOL     OW27331   2.270   0.744  12.725  0.1505 -0.0407  0.0783
 5291SOL    HW127332   2.176   0.747  12.746  0.1393 -0.5462  0.1080
 5291SOL    HW227333   2.303   0.750  12.814  0.0705  0.6443  0.0659
 5292SOL     OW27334   2.378   2.395   5.841  0.3258  0.3312  0.0100
 5292SOL    HW127335   2.292   2.401   5.882  0.7191  1.0860  0.7366
 5292SOL    HW227336   2.397   2.489   5.843 -0.0232  0.4021 -0.0134
 5293SOL     OW27337   3.618   4.428   5.517 -0.4221  0.4072 -0.2700
 5293SOL    HW127338   3.555   4.362   5.489  0.4502 -0.8515  0.7108
 5293SOL    HW227339   3.574   4.445   5.601  0.4787  1.0065  0.0715
 5294SOL     OW27340   2.453   0.483   2.811  0.3707 -0.0204  0.1055
 5294SOL    HW127341   2.408   0.403   2.836 -0.8995 -0.0095 -2.1072
 5294SOL    HW227342   2.486   0.456   2.725  0.6141 -0.9888  0.5087
 5295SOL     OW27343   3.503   2.368   0.115  0.6698  0.3280  0.8830
 5295SOL    HW127344   3.521   2.367   0.209  1.7148  0.2072  0.6864
 5295SOL    HW227345   3.409   2.377   0.125  0.5187 -1.3015  0.8970
 5296SOL     OW27346   1.488   2.325   7.296 -0.2859 -0.1576  0.3862
 5296SOL    HW127347   1.521   2.251   7.246 -0.9592 -0.4201  0.3381
 5296SOL    HW227348   1.559   2.384   7.270 -0.7339 -0.4631 -1.4939
 5297SOL     OW27349   0.897   3.922  12.734 -0.3540  0.1354 -0.2493
 5297SOL    HW127350   0.870   4.009  12.764 -2.1628 -1.0630  1.6150
 5297SOL    HW227351   0.945   3.935  12.652 -0.5217  1.0665 -0.2012
 5298SOL     OW27352   4.619   3.748   8.279  0.1278  0.0547  0.4093
 5298SOL    HW127353   4.711   3.739   8.304  0.2569  0.9975  0.2753
 5298SOL    HW227354   4.578   3.749   8.366 -2.0174 -1.2044 -0.5832
 5299SOL     OW27355   4.419   3.832   8.532  0.5213 -0.0213  0.5242
 5299SOL    HW127356   4.360   3.858   8.603  0.3054  1.9559 -0.3583
 5299SOL    HW227357   4.443   3.745   8.561 -0.7414 -0.2802  0.7930
 5300SOL     OW27358   0.483   0.161   5.235 -0.0816 -0.0794 -0.5287
 5300SOL    HW127359   0.484   0.227   5.166  1.2238  0.5539  0.0871
 5300SOL    HW227360   0.575   0.148   5.261 -0.4156 -3.1832 -0.8557
 5301SOL     OW27361   1.443   1.085   7.254  0.1897 -0.1979  0.6983
 5301SOL    HW127362   1.347   1.081   7.254  0.1826  0.0023  0.5062
 5301SOL    HW227363   1.458   1.006   7.306  1.2574 -0.0642  0.5873
 5302SOL     OW27364   3.900   3.479   6.270  0.2491 -0.7979 -0.1949
 5302SOL    HW127365   3.960   3.439   6.207  0.4146 -3.5795  1.7209
 5302SOL    HW227366   3.948   3.456   6.350  1.2343 -0.1873 -0.6052
 5303SOL     OW27367   2.878   3.740  11.575 -0.1647  0.2673  0.7614
 5303SOL    HW127368   2.845   3.781  11.495  3.2040  1.1958 -0.1364
 5303SOL    HW227369   2.971   3.743  11.554 -0.4928  0.3444 -0.6862
 5304SOL     OW27370   2.441   1.017   2.588 -0.4063 -0.0724  0.0017
 5304SOL    HW127371   2.452   1.112   2.577  0.6816 -0.0283  1.3804
 5304SOL    HW227372   2.420   0.990   2.499  0.7480  0.4973 -0.4380
 5305SOL     OW27373   2.571   1.599   8.554  0.3446 -0.0368  0.6038
 5305SOL    HW127374   2.495   1.569   8.506 -0.1950 -1.5828  2.4386
 5305SOL    HW227375   2.611   1.659   8.491 -0.5591  0.0336  0.1040
 5306SOL     OW27376   1.359   0.996   3.849 -0.0844  0.6589 -0.0762
 5306SOL    HW127377   1.341   0.903   3.843 -1.9677  1.0484 -0.5326
 5306SOL    HW227378   1.277   1.025   3.808 -0.4239 -0.9030 -0.5083
 5307SOL     OW27379   2.942   3.800   8.895 -0.2876 -0.2341  0.2166
 5307SOL    HW127380   2.996   3.739   8.945  0.0726 -0.2409 -0.1764
 5307SOL    HW227381   2.923   3.743   8.820  1.3277 -2.3657  1.4260
 5308SOL     OW27382   2.403   1.841   3.263  0.9391  0.6208  0.1702
 5308SOL    HW127383   2.393   1.934   3.283 -2.2623  0.8450 -2.3723
 5308SOL    HW227384   2.311   1.816   3.250  0.7938  2.5949 -2.7161
 5309SOL     OW27385   4.403   1.170   7.812  0.1984  0.3943  0.2338
 5309SOL    HW127386   4.493   1.202   7.824  0.9027 -0.8963 -1.6191
 5309SOL    HW227387   4.367   1.250   7.773 -1.3452 -0.6647 -0.5057
 5310SOL     OW27388   1.262   3.424   3.093 -0.3165  0.1970 -0.0987
 5310SOL    HW127389   1.227   3.393   3.177 -0.1960  2.1832  0.6910
 5310SOL    HW227390   1.336   3.479   3.118  0.8559 -1.0014 -0.9570
 5311SOL     OW27391   1.990   0.799  12.767  0.0431  0.0272  0.1899
 5311SOL    HW127392   1.898   0.816  12.747 -0.0141  1.5202  1.7467
 5311SOL    HW227393   2.024   0.885  12.792  0.7842 -0.0612 -0.5407
 5312SOL     OW27394   1.913   1.066   6.764  0.0116  0.4709 -0.1498
 5312SOL    HW127395   1.855   1.050   6.838  1.1217  2.3595  1.1500
 5312SOL    HW227396   2.002   1.066   6.799 -0.2489 -0.8650  0.5024
 5313SOL     OW27397   3.194   4.620   4.649  0.6395 -0.2339 -0.2928
 5313SOL    HW127398   3.112   4.660   4.678  0.7541 -0.6566  0.6255
 5313SOL    HW227399   3.255   4.689   4.623 -0.6445  0.5788 -1.1091
 5314SOL     OW27400   1.368   3.329   9.509  0.2711  0.0283 -0.6107
 5314SOL    HW127401   1.272   3.325   9.510  0.3330 -0.5995  3.0032
 5314SOL    HW227402   1.382   3.422   9.489 -0.0780 -0.3603 -2.6398
 5315SOL     OW27403   4.551   2.225  13.813 -0.2374  0.1954  0.2156
 5315SOL    HW127404   4.645   2.215  13.828 -0.4399 -0.3419  1.1354
 5315SOL    HW227405   4.514   2.140  13.836  0.3090  0.3623  1.7269
 5316SOL     OW27406   4.554   1.370   3.368 -0.0668  0.1658 -0.5301
 5316SOL    HW127407   4.525   1.279   3.378  0.9771 -0.1715 -0.5377
 5316SOL    HW227408   4.573   1.391   3.459  0.8986 -2.8360 -0.0187
 5317SOL     OW27409   1.250   2.903   8.941  0.1549 -0.5259 -0.1560
 5317SOL    HW127410   1.334   2.896   8.985 -0.5284 -2.2942  0.8420
 5317SOL    HW227411   1.189   2.854   8.996 -0.0834  0.8829  0.8286
 5318SOL     OW27412   1.866   2.747   8.513 -0.6291 -0.1836 -0.6710
 5318SOL    HW127413   1.913   2.751   8.596 -3.3581 -0.0624  0.8968
 5318SOL    HW227414   1.922   2.695   8.456 -0.9324  0.3283 -1.4427
 5319SOL     OW27415   3.892   3.282   7.470 -0.0965  1.2315  0.4532
 5319SOL    HW127416   3.854   3.221   7.406  1.9646 -0.0321  0.4398
 5319SOL    HW227417   3.946   3.224   7.524  1.4694  0.9572 -1.3941
 5320SOL     OW27418   3.435   3.838   9.610  0.0050  0.2737 -0.8113
 5320SOL    HW127419   3.347   3.861   9.579 -0.2336  0.6158  0.1475
 5320SOL    HW227420   3.435   3.744   9.589 -1.0274  0.5672 -2.1311
 5321SOL     OW27421   1.931   0.384   9.039  0.1767 -0.3602  0.3803
 5321SOL    HW127422   2.005   0.361   9.096 -0.3219  1.5372  1.7494
 5321SOL    HW227423   1.910   0.294   9.013 -1.4253 -0.0840  0.7655
 5322SOL     OW27424   2.041   0.569   9.444 -0.4533  0.4481 -0.0504
 5322SOL    HW127425   2.099   0.493   9.446 -1.2365 -0.1221  1.5345
 5322SOL    HW227426   1.959   0.541   9.485 -0.0191  2.4293  2.1599
 5323SOL     OW27427   0.407   3.993   6.236 -0.7753  0.4002 -0.4483
 5323SOL    HW127428   0.415   3.898   6.222  0.0225  0.6321 -1.5885
 5323SOL    HW227429   0.483   4.014   6.290 -0.6997  1.4916 -0.9863
 5324SOL     OW27430   2.321   1.797   5.218 -0.1531 -0.1550 -0.9280
 5324SOL    HW127431   2.255   1.740   5.178 -0.6448 -1.3500  1.5383
 5324SOL    HW227432   2.295   1.885   5.191  1.9007  0.8254  0.3040
 5325SOL     OW27433   0.700   0.275  14.135 -0.3862 -0.0405  0.4139
 5325SOL    HW127434   0.694   0.331  14.212  0.9345 -4.3456  3.6920
 5325SOL    HW227435   0.700   0.188  14.176  2.6770  0.1432  0.7371
 5326SOL     OW27436   4.548   1.659   5.080 -0.1932 -0.2747  0.0914
 5326SOL    HW127437   4.556   1.736   5.137  0.5256 -2.7523  3.3338
 5326SOL    HW227438   4.456   1.631   5.083 -0.3096  0.0102 -0.8386
 5327SOL     OW27439   3.906   3.191   8.383  0.6056  0.0488 -0.1973
 5327SOL    HW127440   3.909   3.187   8.479  1.7064 -1.2736 -0.2938
 5327SOL    HW227441   3.896   3.286   8.374  0.2494  0.0741  0.4465
 5328SOL     OW27442   4.606   1.777   8.126 -0.4486 -0.1364  0.7081
 5328SOL    HW127443   4.627   1.859   8.171 -0.2540 -0.6244  1.5072
 5328SOL    HW227444   4.628   1.801   8.036 -3.2030  1.2571  0.4246
 5329SOL     OW27445   1.219   2.268   4.823 -0.6380 -0.1333 -0.0115
 5329SOL    HW127446   1.176   2.311   4.749 -1.6143 -1.3534 -0.1355
 5329SOL    HW227447   1.239   2.179   4.795  0.5820 -0.0070  0.4356
 5330SOL     OW27448   2.941   0.151   2.234  0.1543 -0.3666 -0.2304
 5330SOL    HW127449   2.939   0.112   2.321 -1.7182  2.6925  1.0917
 5330SOL    HW227450   3.033   0.177   2.221 -0.3034  1.7900  0.8204
 5331SOL     OW27451   4.193   1.005   5.387 -0.0736 -0.3851 -0.3448
 5331SOL    HW127452   4.265   1.037   5.441  0.2339  0.2232 -1.1238
 5331SOL    HW227453   4.211   1.040   5.300  0.4852  2.4202  0.9091
 5332SOL     OW27454   1.774   0.059   0.565 -0.1750 -0.1308  0.1825
 5332SOL    HW127455   1.744   0.116   0.493  1.9805  0.5082 -0.2068
 5332SOL    HW227456   1.860   0.029   0.536 -1.7880 -2.6622 -2.0598
 5333SOL     OW27457   1.312   1.870  15.836  0.2115 -0.2337 -0.6417
 5333SOL    HW127458   1.380   1.858  15.770  1.3340  2.6264  0.0085
 5333SOL    HW227459   1.316   1.965  15.848  1.0864 -0.5850  1.7799
 5334SOL     OW27460   4.658   1.421  12.030 -0.4616 -0.0378  0.6207
 5334SOL    HW127461   4.693   1.511  12.031  1.5254 -0.7986 -0.4293
 5334SOL    HW227462   4.646   1.420  11.935 -0.9924  0.8135  0.6724
 5335SOL     OW27463   2.425   4.584   0.476 -0.1841 -0.0600  0.0923
 5335SOL    HW127464   2.416   4.671   0.437  3.8165  1.1955  2.0429
 5335SOL    HW227465   2.414   4.604   0.568  0.9578 -2.9489  0.8637
 5336SOL     OW27466   0.837   3.522   5.239 -0.1012  0.3077 -0.5695
 5336SOL    HW127467   0.836   3.496   5.147  1.4514  3.2062 -1.3870
 5336SOL    HW227468   0.754   3.570   5.241  0.4444  1.2625 -1.2933
 5337SOL     OW27469   2.033   1.164   7.145 -0.1872  0.3732  0.1266
 5337SOL    HW127470   2.039   1.222   7.222  0.0482  1.4184 -0.6717
 5337SOL    HW227471   2.085   1.205   7.076  1.8931  0.5423  1.7736
 5338SOL     OW27472   1.542   2.724   4.687  0.3085 -0.1025  0.3207
 5338SOL    HW127473   1.491   2.757   4.761  0.3759 -2.0668  1.2448
 5338SOL    HW227474   1.527   2.630   4.697  2.7113 -0.5250 -0.0387
 5339SOL     OW27475   0.168   2.905  17.685  0.4518  0.5373  0.1031
 5339SOL    HW127476   0.111   2.855  17.627  1.9371  0.4942 -1.3180
 5339SOL    HW227477   0.115   2.982   0.021  1.1101  1.7679 -2.7391
 5340SOL     OW27478   1.054   2.870   5.047 -0.0943  0.3959  1.0781
 5340SOL    HW127479   0.982   2.823   5.090 -0.1612 -0.2545  0.2607
 5340SOL    HW227480   1.102   2.898   5.125 -0.6167 -0.6563  1.7724
 5341SOL     OW27481   2.475   3.369   4.287  0.5718 -0.0906  0.1158
 5341SOL    HW127482   2.543   3.333   4.344 -0.0293 -1.0646  0.2007
 5341SOL    HW227483   2.485   3.464   4.297 -0.8556  0.0924 -0.1289
 5342SOL     OW27484   0.284   3.476  13.888 -0.2905  0.3887  0.3495
 5342SOL    HW127485   0.286   3.479  13.984 -2.2008 -1.5888  0.4569
 5342SOL    HW227486   0.201   3.516  13.865  0.7141  1.5014 -1.3223
 5343SOL     OW27487   0.668   1.301  10.430 -0.7980  0.2673 -0.0073
 5343SOL    HW127488   0.720   1.229  10.465  0.1660  0.0899 -1.7614
 5343SOL    HW227489   0.608   1.310  10.504  1.0073 -1.1416  1.6141
 5344SOL     OW27490   3.670   2.524   4.873 -0.0668  0.3281 -0.0233
 5344SOL    HW127491   3.727   2.463   4.826 -2.5020 -1.9202 -0.0402
 5344SOL    HW227492   3.603   2.460   4.898  1.6777 -1.0351  1.1501
 5345SOL     OW27493   3.828   2.133  17.164  0.3725  0.4288 -0.1286
 5345SOL    HW127494   3.734   2.114  17.169  0.2789  1.0604  0.5547
 5345SOL    HW227495   3.849   2.093  17.248 -0.7104 -0.0854 -0.1022
 5346SOL     OW27496   4.717   2.536   0.901 -0.5192 -0.2545 -0.0263
 5346SOL    HW127497   4.635   2.547   0.949  0.7604  3.7069  1.2522
 5346SOL    HW227498   0.047   2.480   0.960 -0.9398 -0.6972 -0.0800
 5347SOL     OW27499   1.554   2.134  11.153 -0.0751 -0.1234  0.1169
 5347SOL    HW127500   1.582   2.200  11.088  0.9460  0.3073  0.9961
 5347SOL    HW227501   1.537   2.061  11.094  1.2302 -1.2855  1.2015
 5348SOL     OW27502   2.843   4.007  10.468  0.4851 -0.0731 -0.2960
 5348SOL    HW127503   2.854   3.982  10.560  1.1160  0.7363 -0.1492
 5348SOL    HW227504   2.934   4.001  10.439  0.1898  1.7244 -1.5709
 5349SOL     OW27505   3.043   4.549   1.279 -0.2404 -0.1872  0.1326
 5349SOL    HW127506   3.013   4.615   1.341 -1.6274  0.6279 -1.3932
 5349SOL    HW227507   3.132   4.576   1.258 -0.2696 -0.3493 -0.1989
 5350SOL     OW27508   2.861   3.796   6.614  0.0072  0.0721  0.6537
 5350SOL    HW127509   2.931   3.770   6.674 -0.6002 -0.3062  1.1968
 5350SOL    HW227510   2.906   3.832   6.538  0.8561 -2.2895  0.0280
 5351SOL     OW27511   1.622   1.658  13.341  0.4861  0.3520 -0.3354
 5351SOL    HW127512   1.636   1.639  13.248  0.2349 -0.9588 -0.1077
 5351SOL    HW227513   1.712   1.674  13.367  0.7681 -2.2735  0.3265
 5352SOL     OW27514   3.803   3.646   2.653 -0.1812 -0.2884  0.0557
 5352SOL    HW127515   3.754   3.568   2.627 -1.1447  0.5254 -0.5551
 5352SOL    HW227516   3.843   3.671   2.570 -1.5991 -0.0968 -0.5594
 5353SOL     OW27517   2.830   2.064   5.079  0.0587  0.2145 -0.7626
 5353SOL    HW127518   2.845   1.970   5.093  0.8582  0.2334 -1.4375
 5353SOL    HW227519   2.803   2.059   4.987 -1.8808  3.2929 -0.3307
 5354SOL     OW27520   1.921   2.675   3.140 -0.1427  0.0526 -0.4010
 5354SOL    HW127521   2.015   2.675   3.161 -0.9052  2.0194  2.8469
 5354SOL    HW227522   1.923   2.630   3.055  0.5902 -1.6369  0.5263
 5355SOL     OW27523   0.361   1.265   8.785 -0.3532  0.3268  0.1090
 5355SOL    HW127524   0.322   1.336   8.734  2.1908  0.0865 -2.1462
 5355SOL    HW227525   0.311   1.189   8.754 -2.2672  0.2790  3.3555
 5356SOL     OW27526   2.879   4.179   8.323  0.8332 -0.1629  0.9009
 5356SOL    HW127527   2.803   4.224   8.359 -0.3919 -1.1109 -0.5296
 5356SOL    HW227528   2.841   4.104   8.277 -0.5584  0.2894  1.3138
 5357SOL     OW27529   2.182   2.264   9.280  0.2568  0.3085  0.5694
 5357SOL    HW127530   2.113   2.253   9.346  1.0143  1.6433  1.5815
 5357SOL    HW227531   2.127   2.311   9.217  0.2230 -2.0865 -1.1928
 5358SOL     OW27532   1.324   4.164   2.570 -0.0040  0.1928  0.8968
 5358SOL    HW127533   1.327   4.130   2.659  0.6647  0.5330  0.9961
 5358SOL    HW227534   1.305   4.084   2.520 -3.8568  2.0864 -0.6947
 5359SOL     OW27535   3.021   0.115   6.984  0.2296 -0.2341  0.1578
 5359SOL    HW127536   2.976   0.193   7.014  0.7616  0.4781 -0.9057
 5359SOL    HW227537   3.000   0.105   6.891 -1.8459 -1.8777  0.8009
 5360SOL     OW27538   3.721   2.120   8.962 -0.3134  0.0383 -0.0674
 5360SOL    HW127539   3.749   2.161   8.880  1.0905 -1.2564 -0.2353
 5360SOL    HW227540   3.676   2.191   9.008 -2.4419 -0.9172 -0.6434
 5361SOL     OW27541   4.547   0.536   4.317 -0.2722  0.2448  0.3719
 5361SOL    HW127542   4.506   0.595   4.254  0.3530  0.0404 -0.2214
 5361SOL    HW227543   4.629   0.509   4.275  0.6945 -0.4973  2.7198
 5362SOL     OW27544   0.752   0.008   6.833  0.2608  0.5406  0.1370
 5362SOL    HW127545   0.788   0.014   6.921  1.4501 -1.8401 -0.1761
 5362SOL    HW227546   0.696   4.658   6.864  2.4036 -1.3941 -0.3921
 5363SOL     OW27547   1.270   1.027  14.358 -0.1474  0.1289  0.6599
 5363SOL    HW127548   1.197   0.987  14.312  0.1337  1.8195 -1.2765
 5363SOL    HW227549   1.295   0.954  14.415 -3.0277 -0.2504  1.4102
 5364SOL     OW27550   2.082   2.146   3.937  0.2336  0.5050  0.2345
 5364SOL    HW127551   2.143   2.154   3.864  0.3046 -2.0441  0.0163
 5364SOL    HW227552   2.084   2.237   3.967  0.3765 -0.4259  3.0805
 5365SOL     OW27553   1.857   1.276  15.795 -0.5132 -0.0581  0.2970
 5365SOL    HW127554   1.821   1.298  15.710 -1.4978 -1.2901  0.3914
 5365SOL    HW227555   1.941   1.242  15.763 -1.3918 -2.2151  0.2814
 5366SOL     OW27556   1.743   3.977   3.351 -0.0459 -0.4252  0.0866
 5366SOL    HW127557   1.679   4.034   3.307  0.0826 -1.2823 -1.2104
 5366SOL    HW227558   1.773   3.925   3.277  1.2220  1.7821 -0.9470
 5367SOL     OW27559   3.158   3.393  11.313 -0.0951  0.3395 -0.0733
 5367SOL    HW127560   3.094   3.387  11.242 -0.5854  0.6152  0.3451
 5367SOL    HW227561   3.111   3.443  11.381  1.2715  0.3095  0.8903
 5368SOL     OW27562   1.898   2.951   8.188  0.2932  0.3146  0.3916
 5368SOL    HW127563   1.850   3.025   8.224 -0.0393 -0.1943  1.0090
 5368SOL    HW227564   1.973   2.959   8.248  0.6707 -0.7362  0.0757
 5369SOL     OW27565   4.163   3.894   4.128 -0.5576  0.1016 -0.2116
 5369SOL    HW127566   4.189   3.836   4.199  0.4196  0.4043 -0.3246
 5369SOL    HW227567   4.247   3.939   4.131  0.0835 -1.1561  0.8244
 5370SOL     OW27568   4.299   0.670  14.365  0.2573  0.1073 -0.3530
 5370SOL    HW127569   4.236   0.742  14.369  0.0412  0.0174 -2.2284
 5370SOL    HW227570   4.378   0.720  14.386 -0.2907  0.2661  1.3429
 5371SOL     OW27571   1.169   1.671   3.435  0.1110 -0.0736 -0.3230
 5371SOL    HW127572   1.263   1.667   3.455  0.2587  2.6348 -0.3866
 5371SOL    HW227573   1.163   1.751   3.382 -1.5353 -1.3441 -2.0543
 5372SOL     OW27574   1.707   3.776   4.356 -0.2281 -0.4961 -0.1410
 5372SOL    HW127575   1.695   3.808   4.267  1.7127  2.7165  0.7416
 5372SOL    HW227576   1.790   3.730   4.353  0.2497  0.3123  0.3972
 5373SOL     OW27577   4.412   0.888  15.221 -0.8007 -0.0468 -0.2406
 5373SOL    HW127578   4.340   0.906  15.281 -3.4899 -3.1202 -2.4694
 5373SOL    HW227579   4.369   0.818  15.171  0.1832  0.6114 -2.0221
 5374SOL     OW27580   0.520   4.593   5.689  0.1978  0.4375  0.2022
 5374SOL    HW127581   0.487   4.682   5.673  3.5145  1.5390 -0.5092
 5374SOL    HW227582   0.552   4.605   5.779 -0.5329  0.3605  0.4760
 5375SOL     OW27583   2.232   0.165   4.120  0.4055 -0.1458 -0.0135
 5375SOL    HW127584   2.154   0.214   4.146  0.0611 -0.9163  0.4176
 5375SOL    HW227585   2.291   0.236   4.094  4.2564 -3.1552  0.4443
 5376SOL     OW27586   2.167   1.929  15.903  0.2523  0.1270 -0.1510
 5376SOL    HW127587   2.109   1.993  15.946  2.3607  1.1327  1.2027
 5376SOL    HW227588   2.250   1.967  15.934  0.7646 -2.2712  1.3730
 5377SOL     OW27589   0.765   2.507   6.371 -0.2593 -0.2092  0.6083
 5377SOL    HW127590   0.807   2.563   6.306 -0.6681  0.4694  0.9366
 5377SOL    HW227591   0.838   2.451   6.399 -1.0700 -1.3136  0.5176
 5378SOL     OW27592   0.292   2.336   2.313 -0.0756  0.0768  0.4457
 5378SOL    HW127593   0.302   2.304   2.403 -2.0966  0.2064  0.7117
 5378SOL    HW227594   0.198   2.352   2.309 -0.0207  0.5184  0.9219
 5379SOL     OW27595   1.104   3.117  16.100  0.2658 -0.2200  0.1830
 5379SOL    HW127596   1.116   3.105  16.006  2.4712 -0.3831  0.4762
 5379SOL    HW227597   1.036   3.052  16.117 -0.2781  0.3731  0.2611
 5380SOL     OW27598   0.815   0.186   7.885 -0.7398 -0.3514  0.4095
 5380SOL    HW127599   0.800   0.280   7.886  0.0620 -0.2110 -0.2103
 5380SOL    HW227600   0.901   0.171   7.845 -0.9850 -0.6069 -0.0235
 5381SOL     OW27601   4.586   0.031   4.316  0.0530 -0.1742  0.1603
 5381SOL    HW127602   4.665   4.714   4.278  0.5969 -0.1177  1.2263
 5381SOL    HW227603   4.553   4.683   4.375 -1.4155  0.5559  0.1972
 5382SOL     OW27604   0.568   1.834   6.228 -0.1424 -0.1028  0.3423
 5382SOL    HW127605   0.653   1.814   6.188  0.0241  0.3640  0.4704
 5382SOL    HW227606   0.555   1.747   6.267 -0.5657  0.2006  0.8590
 5383SOL     OW27607   2.357   3.842   3.100 -0.2533  0.6050 -0.0288
 5383SOL    HW127608   2.379   3.867   3.010 -2.8186 -0.8974 -1.0615
 5383SOL    HW227609   2.301   3.912   3.134  0.1251  1.0461 -0.3171
 5384SOL     OW27610   1.651   4.523  11.134  0.4212 -0.4945  0.1949
 5384SOL    HW127611   1.650   4.521  11.229 -0.5787  1.7815  0.2364
 5384SOL    HW227612   1.564   4.558  11.116  0.2378  0.1317  2.3646
 5385SOL     OW27613   4.189   0.111   7.291  0.0199 -0.1068 -0.3634
 5385SOL    HW127614   4.119   0.056   7.326 -1.7542  1.0625 -2.1019
 5385SOL    HW227615   4.199   0.082   7.201  1.8634 -2.3094  0.5512
 5386SOL     OW27616   3.501   2.363   3.251 -0.5181 -0.3724  0.6099
 5386SOL    HW127617   3.426   2.337   3.197  0.4598 -0.6293 -0.6178
 5386SOL    HW227618   3.563   2.294   3.227 -0.9556 -0.0400 -1.5339
 5387SOL     OW27619   3.982   2.705   3.531  0.3048 -0.3312  0.6229
 5387SOL    HW127620   3.909   2.725   3.589 -0.4769  1.4103 -0.9415
 5387SOL    HW227621   4.050   2.764   3.563 -0.6729  0.7848  0.6520
 5388SOL     OW27622   0.768   2.196  11.095 -0.3945  0.4822  0.3734
 5388SOL    HW127623   0.863   2.205  11.109 -0.3331  1.2077 -0.4850
 5388SOL    HW227624   0.740   2.283  11.065  0.4917  1.2927  1.8603
 5389SOL     OW27625   2.907   3.871   1.089 -0.3494  0.3354  0.0505
 5389SOL    HW127626   2.860   3.790   1.109  1.4227 -0.3613  1.3860
 5389SOL    HW227627   2.999   3.850   1.104 -0.4119  0.6604  0.8400
 5390SOL     OW27628   0.882   0.356  10.656 -0.3319 -0.1054  0.1562
 5390SOL    HW127629   0.974   0.383  10.660 -0.0800 -0.7021 -1.5891
 5390SOL    HW227630   0.838   0.434  10.623 -0.4758 -0.7477 -1.1730
 5391SOL     OW27631   3.485   3.753   4.251  0.5715  0.3079  0.0260
 5391SOL    HW127632   3.498   3.840   4.289  0.8833 -0.3674  1.4733
 5391SOL    HW227633   3.562   3.752   4.194 -0.3555  3.5559 -1.2607
 5392SOL     OW27634   4.274   1.342  17.173 -0.1467 -0.1755  0.2669
 5392SOL    HW127635   4.363   1.319  17.198 -1.0001 -1.1099  2.4593
 5392SOL    HW227636   4.264   1.430  17.208 -0.9394 -0.4773  0.8085
 5393SOL     OW27637   2.961   0.021  10.131 -0.0683 -0.1976  0.0226
 5393SOL    HW127638   2.969   0.114  10.152  0.2588 -0.2659  0.1975
 5393SOL    HW227639   2.933   4.702  10.214 -0.9706  0.2327 -0.0667
 5394SOL     OW27640   3.502   1.171  14.388  0.0643  0.0875 -0.1576
 5394SOL    HW127641   3.548   1.104  14.339 -1.9127 -1.3628 -0.0371
 5394SOL    HW227642   3.451   1.117  14.449 -0.1191 -1.0658 -1.3424
 5395SOL     OW27643   4.456   0.946   3.054 -0.0104 -0.0131 -0.3053
 5395SOL    HW127644   4.510   1.025   3.051  1.0764 -0.7999 -1.6451
 5395SOL    HW227645   4.521   0.881   3.081  0.1839  0.6539  0.8233
 5396SOL     OW27646   1.248   3.689   2.461 -0.4537  0.2546 -0.2531
 5396SOL    HW127647   1.153   3.688   2.470 -0.2210 -0.3231  2.2853
 5396SOL    HW227648   1.257   3.642   2.378  0.8609 -1.7819  1.0501
 5397SOL     OW27649   3.385   3.178   0.574  0.7732  0.3977 -0.7475
 5397SOL    HW127650   3.478   3.200   0.580  0.8351 -0.0022 -0.2697
 5397SOL    HW227651   3.350   3.268   0.567  2.5226  1.1807  0.7671
 5398SOL     OW27652   3.106   3.326   7.516  0.0577  0.3765  0.2909
 5398SOL    HW127653   3.120   3.305   7.608 -0.0953 -0.6135  0.0910
 5398SOL    HW227654   3.010   3.327   7.514  0.0502 -0.7053 -0.2435
 5399SOL     OW27655   4.208   3.281  11.886  0.0733  0.2416 -0.2537
 5399SOL    HW127656   4.195   3.285  11.791  0.2310 -0.6245 -0.3097
 5399SOL    HW227657   4.232   3.190  11.902  1.2777  0.7607  0.8869
 5400SOL     OW27658   3.228   2.691   6.720 -0.6664  0.3934 -0.4858
 5400SOL    HW127659   3.210   2.762   6.782 -1.1610  1.7170 -2.1423
 5400SOL    HW227660   3.291   2.635   6.765 -0.1936  1.2169 -0.1196
 5401SOL     OW27661   1.735   3.788   3.544 -0.0601  0.4360  0.0829
 5401SOL    HW127662   1.730   3.855   3.613 -1.1762 -1.3283  1.7186
 5401SOL    HW227663   1.750   3.827   3.458 -0.5208  0.7307  0.1408
 5402SOL     OW27664   4.436   3.824  15.417  0.0155  0.0138  0.0821
 5402SOL    HW127665   4.374   3.751  15.410 -2.6427  2.3470 -0.8102
 5402SOL    HW227666   4.471   3.796  15.502 -0.5010 -0.0865  0.2663
 5403SOL     OW27667   1.847   1.599  14.589  0.0454  0.4527  0.1457
 5403SOL    HW127668   1.860   1.616  14.496  0.4328 -0.5694  0.0065
 5403SOL    HW227669   1.939   1.588  14.615 -1.1048 -5.5560  1.8344
 5404SOL     OW27670   2.859   4.313   2.952  0.8526  0.0307  0.3783
 5404SOL    HW127671   2.847   4.334   3.045  0.8394  0.3828  0.2967
 5404SOL    HW227672   2.921   4.243   2.971  0.4146 -0.9444 -1.8780
 5405SOL     OW27673   3.927   0.576   7.810 -0.1802 -0.2836  0.0010
 5405SOL    HW127674   3.985   0.587   7.885  1.0203 -0.5525 -0.8808
 5405SOL    HW227675   3.913   0.668   7.788  2.3194  0.3861  1.2030
 5406SOL     OW27676   4.694   3.275   8.526  0.2043 -0.1988  0.2735
 5406SOL    HW127677   4.662   3.233   8.605  1.7895  0.9827  1.5426
 5406SOL    HW227678   0.052   3.319   8.558 -0.1186  0.4868  0.1061
 5407SOL     OW27679   3.898   1.008  10.420 -0.1200  0.3434  0.4593
 5407SOL    HW127680   3.873   0.915  10.415  2.1166 -0.2925  1.4156
 5407SOL    HW227681   3.832   1.036  10.484 -0.2361 -0.9747  0.9221
 5408SOL     OW27682   0.859   0.809  12.319 -0.0934 -0.3150 -0.0181
 5408SOL    HW127683   0.897   0.897  12.325 -0.6741 -0.0288 -0.5330
 5408SOL    HW227684   0.874   0.782  12.410  2.3411  0.3172 -0.2322
 5409SOL     OW27685   4.554   1.275   8.093  0.0013 -0.1818 -0.5878
 5409SOL    HW127686   4.577   1.350   8.148 -0.5895 -0.1231 -0.4181
 5409SOL    HW227687   4.605   1.297   8.015 -0.3940 -0.7672 -1.0074
 5410SOL     OW27688   1.158   4.395   0.354  0.0320  0.5719  0.5943
 5410SOL    HW127689   1.241   4.436   0.379  2.3071 -3.4706 -0.2079
 5410SOL    HW227690   1.145   4.348   0.436  0.0602 -0.9905 -0.2977
 5411SOL     OW27691   0.816   1.370   7.390 -0.4045 -0.0838 -0.2433
 5411SOL    HW127692   0.856   1.307   7.449 -0.1756  0.2219 -0.0735
 5411SOL    HW227693   0.883   1.438   7.396 -1.5202  1.1895 -2.3222
 5412SOL     OW27694   3.101   0.062   7.332 -0.1651 -0.1463  0.0988
 5412SOL    HW127695   3.194   0.068   7.350 -0.2070  2.0732 -0.4193
 5412SOL    HW227696   3.116   4.715   7.266 -0.8250 -0.6636  0.4748
 5413SOL     OW27697   4.674   3.405   0.082 -0.1360  0.5682 -0.1064
 5413SOL    HW127698   4.632   3.375   0.002 -0.2494  1.2166 -0.2951
 5413SOL    HW227699   4.604   3.380   0.143 -1.8998  0.5973 -2.1454
 5414SOL     OW27700   3.962   2.222   6.442 -0.1929 -0.9969  0.2048
 5414SOL    HW127701   3.873   2.190   6.430 -0.8341  0.2499  1.6233
 5414SOL    HW227702   3.953   2.272   6.523 -1.5681 -0.0540 -0.5334
 5415SOL     OW27703   3.359   2.536  11.405  0.3999 -0.1103  0.1530
 5415SOL    HW127704   3.349   2.631  11.400  2.9932  0.1551 -0.1653
 5415SOL    HW227705   3.452   2.528  11.385  0.4338  1.6265 -0.4061
 5416SOL     OW27706   3.920   2.524   7.494  0.2313  0.3367 -0.0230
 5416SOL    HW127707   4.016   2.519   7.490  0.1056 -0.7446 -1.4759
 5416SOL    HW227708   3.903   2.435   7.525 -0.2130  0.5012  0.2022
 5417SOL     OW27709   3.650   2.386  15.563 -0.1458  0.2832  0.0130
 5417SOL    HW127710   3.561   2.352  15.565 -0.6626  1.5620 -1.0752
 5417SOL    HW227711   3.674   2.385  15.655 -0.2739  0.7132  0.0512
 5418SOL     OW27712   1.439   1.699  10.914 -0.0001 -1.0255 -0.3711
 5418SOL    HW127713   1.408   1.620  10.959  1.3011  0.2046  2.6794
 5418SOL    HW227714   1.456   1.763  10.983 -2.7275 -1.3569  0.6046
 5419SOL     OW27715   2.378   2.121   5.689 -0.3335  0.6118 -0.0745
 5419SOL    HW127716   2.430   2.155   5.762  1.7599 -1.6367 -0.5183
 5419SOL    HW227717   2.316   2.192   5.672 -0.1731  0.6676 -0.4229
 5420SOL     OW27718   1.197   4.046   1.696  0.3221 -0.4922  0.1032
 5420SOL    HW127719   1.291   4.047   1.713  0.2656  1.3122  0.2925
 5420SOL    HW227720   1.192   4.075   1.605  0.0726 -0.5295  0.1057
 5421SOL     OW27721   0.942   1.996   5.704 -0.5662  0.3986  0.4651
 5421SOL    HW127722   0.928   2.084   5.671  1.1917 -0.4875 -2.5884
 5421SOL    HW227723   0.887   1.938   5.652  0.2141  0.5000 -0.4695
 5422SOL     OW27724   2.240   0.602   4.508 -0.0121 -0.3362  0.2703
 5422SOL    HW127725   2.321   0.602   4.456 -0.8652  1.9139 -1.0736
 5422SOL    HW227726   2.235   0.685   4.555 -0.3922 -1.0469  1.4678
 5423SOL     OW27727   3.314   4.030   0.667 -0.0112  0.6808  0.2195
 5423SOL    HW127728   3.353   4.080   0.738  1.7726  0.4602 -0.5969
 5423SOL    HW227729   3.221   4.025   0.689 -0.5405  0.3094 -2.0425
 5424SOL     OW27730   3.022   4.116   3.009  0.8143 -0.4852 -0.2304
 5424SOL    HW127731   3.091   4.163   3.057  1.0863 -2.9281  1.7390
 5424SOL    HW227732   3.063   4.037   2.975  2.2808  0.1546  0.0647
 5425SOL     OW27733   2.820   0.287  10.658  0.5755 -0.4129 -0.3173
 5425SOL    HW127734   2.768   0.208  10.650  0.5402 -0.3871 -0.3427
 5425SOL    HW227735   2.913   0.265  10.653  0.4630 -0.9668  0.0702
 5426SOL     OW27736   1.820   1.210   2.965 -0.3250  1.0476  0.1628
 5426SOL    HW127737   1.726   1.214   2.982 -0.0263  1.6824  1.6353
 5426SOL    HW227738   1.823   1.206   2.869 -1.7560  2.2065  0.0594
 5427SOL     OW27739   1.297   4.077  12.110 -0.1219  0.4876 -0.0297
 5427SOL    HW127740   1.350   4.154  12.130  0.6473 -0.0959  0.1435
 5427SOL    HW227741   1.238   4.116  12.045  0.2091 -0.1221 -0.6965
 5428SOL     OW27742   3.023   2.267   3.967 -0.5761 -0.1272  0.0058
 5428SOL    HW127743   2.943   2.252   4.017 -0.4670 -0.9377 -0.0650
 5428SOL    HW227744   3.080   2.315   4.027 -1.9757  2.8074 -1.0206
 5429SOL     OW27745   3.783   4.351  15.051 -0.3682 -0.0608  0.4286
 5429SOL    HW127746   3.790   4.436  15.006 -0.1015  0.1041  0.7802
 5429SOL    HW227747   3.814   4.295  14.979 -0.1365 -0.7300  1.0552
 5430SOL     OW27748   0.271   1.625   7.763  0.3965  0.3984  0.4522
 5430SOL    HW127749   0.193   1.591   7.806  1.0068  1.4598  2.4025
 5430SOL    HW227750   0.337   1.602   7.828  0.6913  2.6638  0.9762
 5431SOL     OW27751   0.437   4.562  11.714  0.1848 -0.2556 -0.0737
 5431SOL    HW127752   0.471   4.651  11.722 -0.7198  0.1113 -0.2386
 5431SOL    HW227753   0.342   4.563  11.724 -0.0576 -1.3683 -2.2232
 5432SOL     OW27754   1.052   3.774   3.070 -0.1650 -0.6061  0.0533
 5432SOL    HW127755   1.030   3.729   3.152 -0.8211 -1.3504 -0.5260
 5432SOL    HW227756   1.087   3.702   3.019 -1.7641 -0.1552 -1.6851
 5433SOL     OW27757   0.856   3.865  15.405  0.2281  0.0309  0.7115
 5433SOL    HW127758   0.908   3.803  15.353  1.3240  0.1688  1.6543
 5433SOL    HW227759   0.910   3.906  15.473  0.8532  0.3922 -0.0007
 5434SOL     OW27760   2.180   3.430  16.460  0.2089  0.9617 -0.5740
 5434SOL    HW127761   2.212   3.480  16.535 -1.5067  0.1172  0.7092
 5434SOL    HW227762   2.094   3.406  16.494  1.8244 -0.6164  2.3743
 5435SOL     OW27763   2.076   1.295   9.899 -0.3025  0.3388  0.0539
 5435SOL    HW127764   1.996   1.347   9.889 -1.5133 -1.1850  1.8847
 5435SOL    HW227765   2.133   1.372   9.890  0.0141  0.2018  0.8911
 5436SOL     OW27766   4.230   0.900  10.838  0.1283 -0.6594 -0.7368
 5436SOL    HW127767   4.282   0.837  10.788  2.7011  0.9293 -0.0239
 5436SOL    HW227768   4.140   0.904  10.805 -0.2662 -1.5937  0.1995
 5437SOL     OW27769   0.623   4.148  17.193 -0.6526 -0.4573 -0.1914
 5437SOL    HW127770   0.632   4.060  17.155  1.6164 -1.1269  1.9457
 5437SOL    HW227771   0.610   4.124  17.285 -2.0569  0.3619 -0.1830
 5438SOL     OW27772   1.552   3.826   0.633 -0.0309 -0.2192  0.3553
 5438SOL    HW127773   1.487   3.756   0.647  0.1394 -0.0757  1.8078
 5438SOL    HW227774   1.617   3.795   0.570  1.2203  3.1792  0.0103
 5439SOL     OW27775   1.731   1.697  13.653  0.0299  0.2712 -0.1191
 5439SOL    HW127776   1.643   1.735  13.654 -0.1262 -0.0867 -0.7922
 5439SOL    HW227777   1.758   1.734  13.569 -1.0192 -0.4660 -0.7766
 5440SOL     OW27778   2.200   1.439   7.954  0.1228  0.3787 -0.8981
 5440SOL    HW127779   2.266   1.408   8.016 -1.3793  0.6580  0.8571
 5440SOL    HW227780   2.136   1.368   7.943  1.8248 -1.0700 -1.4098
 5441SOL     OW27781   1.189   4.543   2.712 -0.1873  0.1708 -0.1343
 5441SOL    HW127782   1.170   4.620   2.659  1.4425  1.1041  0.6333
 5441SOL    HW227783   1.167   4.470   2.654  0.3441 -0.7901  0.8870
 5442SOL     OW27784   0.013   1.614   2.547  0.0199  0.2053 -0.0531
 5442SOL    HW127785   0.006   1.559   2.469  1.9078 -0.3186  0.1487
 5442SOL    HW227786   0.061   1.688   2.508  0.8840 -0.1210  0.3909
 5443SOL     OW27787   0.734   4.315  14.999 -0.4392 -0.2511  0.3758
 5443SOL    HW127788   0.806   4.291  15.056 -0.5288  0.3033  0.7232
 5443SOL    HW227789   0.682   4.355  15.068 -0.9820 -0.6800  0.2162
 5444SOL     OW27790   1.625   1.343   9.904 -0.2705  0.7200  0.5761
 5444SOL    HW127791   1.708   1.383   9.879 -0.2821  0.7620  0.6042
 5444SOL    HW227792   1.588   1.335   9.816 -0.2460  2.2983  0.4266
 5445SOL     OW27793   2.827   3.026   4.843 -0.0819 -0.5661  0.1645
 5445SOL    HW127794   2.894   2.986   4.787  1.0794 -0.3292  1.3917
 5445SOL    HW227795   2.849   3.119   4.847 -1.6015 -0.2401  1.0455
 5446SOL     OW27796   1.909   4.034  15.016 -0.2438  0.0120 -0.6073
 5446SOL    HW127797   1.990   4.085  15.015 -0.1034 -0.2071 -0.3182
 5446SOL    HW227798   1.883   4.050  15.106 -3.7055 -1.1162 -1.3834
 5447SOL     OW27799   1.742   0.446   4.037  0.2084 -0.1075  0.0803
 5447SOL    HW127800   1.677   0.404   4.094  1.2231  0.5249  1.6914
 5447SOL    HW227801   1.686   0.506   3.987  0.6245 -0.1554 -0.4349
 5448SOL     OW27802   2.269   1.882  11.364 -0.1206 -0.0973  0.4792
 5448SOL    HW127803   2.265   1.973  11.334 -3.3925 -0.2999  0.3181
 5448SOL    HW227804   2.351   1.854  11.323  0.2228 -0.5888  1.4942
 5449SOL     OW27805   4.192   1.583   9.782 -0.0751 -0.0275  0.3243
 5449SOL    HW127806   4.167   1.494   9.807  2.4279 -0.9538 -0.4859
 5449SOL    HW227807   4.104   1.620   9.782  1.2195  3.0138  1.4736
 5450SOL     OW27808   4.341   4.668   8.907  0.1852 -0.3264  0.4708
 5450SOL    HW127809   4.398   4.591   8.894  1.0422  0.7366 -1.9193
 5450SOL    HW227810   4.394   0.011   8.859 -0.2079 -0.7035 -0.4474
 5451SOL     OW27811   4.183   3.872   1.556 -0.4106 -0.0803 -0.0058
 5451SOL    HW127812   4.168   3.837   1.643  2.5565 -1.1391  0.0890
 5451SOL    HW227813   4.167   3.966   1.559 -0.6116 -0.1122 -0.0893
 5452SOL     OW27814   1.456   2.428   3.800  0.1074 -0.6360  0.1356
 5452SOL    HW127815   1.364   2.412   3.822 -0.4266  1.3494 -0.6629
 5452SOL    HW227816   1.487   2.338   3.785  0.0130 -1.1575  3.1287
 5453SOL     OW27817   2.226   3.412   6.809 -0.1682  0.1530  0.1215
 5453SOL    HW127818   2.281   3.379   6.739  1.3631  2.8681  0.0426
 5453SOL    HW227819   2.255   3.503   6.816 -1.2075  0.4553  0.5263
 5454SOL     OW27820   0.873   0.022  14.182  0.0036 -0.2332 -0.6333
 5454SOL    HW127821   0.956   0.042  14.225 -0.8967  0.5830  0.7549
 5454SOL    HW227822   0.862   4.649  14.193  0.0760 -0.4002 -2.0266
 5455SOL     OW27823   0.676   4.338  15.893 -0.1958  0.2277  0.3316
 5455SOL    HW127824   0.584   4.343  15.917 -0.0856 -2.4338  1.2744
 5455SOL    HW227825   0.716   4.406  15.947 -0.8607  0.8939 -0.0117
 5456SOL     OW27826   2.289   2.412  13.117 -0.1583 -0.9174 -0.0380
 5456SOL    HW127827   2.308   2.330  13.162 -3.5159 -1.9551 -0.5269
 5456SOL    HW227828   2.369   2.457  13.145 -1.4453  0.8151  0.8706
 5457SOL     OW27829   3.866   4.339   7.228 -0.3704  0.1252  0.2618
 5457SOL    HW127830   3.954   4.374   7.245  0.4753 -1.6069 -0.4847
 5457SOL    HW227831   3.812   4.365   7.302  0.6834  1.0337  0.7210
 5458SOL     OW27832   2.044   1.380   4.694  0.0371  0.3828 -0.2602
 5458SOL    HW127833   2.004   1.435   4.626 -0.1783 -0.5255 -0.8829
 5458SOL    HW227834   2.048   1.436   4.771 -0.6828 -0.9926  0.7779
 5459SOL     OW27835   0.911   0.990  11.986  0.2282  0.2630 -0.4653
 5459SOL    HW127836   0.942   0.932  12.056  2.3440  3.0607  0.9344
 5459SOL    HW227837   0.964   1.068  12.002 -0.4926  0.4059  1.2648
 5460SOL     OW27838   4.521   2.506  17.561 -0.5655 -0.1447  0.1093
 5460SOL    HW127839   4.614   2.520  17.547 -0.7933  1.1975 -0.0683
 5460SOL    HW227840   4.536   2.414  17.584 -0.7606 -0.0858  0.4725
 5461SOL     OW27841   1.599   4.537   0.865  0.1535  0.3647  0.3195
 5461SOL    HW127842   1.555   4.533   0.950  0.4257 -2.3137  0.3334
 5461SOL    HW227843   1.664   4.602   0.893  0.9554 -0.6202  0.7823
 5462SOL     OW27844   1.209   0.216   4.575  0.2568 -0.3454  0.8309
 5462SOL    HW127845   1.200   0.192   4.667 -0.6235  2.3038  1.4216
 5462SOL    HW227846   1.117   0.211   4.546  0.4257 -1.5866  0.4879
 5463SOL     OW27847   1.118   1.862  12.820  0.0218 -0.3271  0.2320
 5463SOL    HW127848   1.061   1.802  12.867 -0.0369 -0.6588 -0.2642
 5463SOL    HW227849   1.179   1.890  12.889  0.8834 -3.9702  0.9608
 5464SOL     OW27850   1.027   1.792   2.518 -0.1912  0.1320  1.1112
 5464SOL    HW127851   1.112   1.749   2.509 -0.0825  0.4042  0.8254
 5464SOL    HW227852   1.062   1.878   2.495  1.5063 -0.4915  1.3427
 5465SOL     OW27853   3.789   0.314   5.582  0.1254 -0.4302 -0.0944
 5465SOL    HW127854   3.701   0.334   5.613  0.1829 -0.8248  0.3247
 5465SOL    HW227855   3.799   0.223   5.612  2.3286 -0.7431 -1.7328
 5466SOL     OW27856   3.843   2.576   8.820  0.0577  0.4760  0.0617
 5466SOL    HW127857   3.899   2.502   8.797 -1.1999 -0.3426 -0.3785
 5466SOL    HW227858   3.872   2.592   8.910  1.6431 -0.2672 -0.3156
 5467SOL     OW27859   1.102   3.855  13.304 -0.3523  0.0260  0.1381
 5467SOL    HW127860   1.043   3.787  13.271 -1.4194  0.7774  0.5027
 5467SOL    HW227861   1.150   3.808  13.372  1.2584  0.7595 -0.4870
 5468SOL     OW27862   3.398   2.556   3.939  0.1381  0.8075 -0.0719
 5468SOL    HW127863   3.426   2.465   3.927 -0.6750  0.6328 -0.5927
 5468SOL    HW227864   3.481   2.594   3.967 -1.4173  3.1592  1.2828
 5469SOL     OW27865   1.870   2.770   6.494 -0.0846  0.1642  0.7510
 5469SOL    HW127866   1.846   2.862   6.481 -2.4113 -0.6665 -0.9047
 5469SOL    HW227867   1.962   2.782   6.470  0.0159 -0.8158  0.6379
 5470SOL     OW27868   1.504   1.980   3.268  0.5388  0.0907 -0.2708
 5470SOL    HW127869   1.563   1.905   3.279  0.0164  0.1175  2.7540
 5470SOL    HW227870   1.565   2.052   3.286 -1.0254  1.5696 -0.9346
 5471SOL     OW27871   0.228   4.241   3.136 -0.3137 -0.2944 -0.4642
 5471SOL    HW127872   0.133   4.230   3.135 -0.1374 -1.8042  0.2661
 5471SOL    HW227873   0.237   4.325   3.089  0.2404  0.2572  0.6313
 5472SOL     OW27874   1.614   2.061   4.482 -0.0433 -0.3269 -0.1334
 5472SOL    HW127875   1.612   2.154   4.505 -0.2433 -0.0465 -1.2946
 5472SOL    HW227876   1.523   2.034   4.493 -0.1640 -0.0194 -0.3729
 5473SOL     OW27877   1.825   3.541   7.109 -0.3745 -0.1427 -0.0918
 5473SOL    HW127878   1.830   3.445   7.114 -2.1658 -0.2231  0.0857
 5473SOL    HW227879   1.734   3.556   7.135 -0.5719  0.8499 -1.3799
 5474SOL     OW27880   1.639   3.775   4.601  0.4522  0.3372  0.5063
 5474SOL    HW127881   1.659   3.683   4.617  0.4954  0.7790  3.0305
 5474SOL    HW227882   1.668   3.783   4.510 -1.3378  1.8349  0.0750
 5475SOL     OW27883   2.547   1.648   5.378 -0.8188  0.3144 -0.3595
 5475SOL    HW127884   2.475   1.683   5.326 -1.9988 -2.1794 -0.3622
 5475SOL    HW227885   2.580   1.727   5.421  3.0254 -0.7819 -1.2679
 5476SOL     OW27886   2.503   0.442   5.269  0.7295 -0.2759  0.8335
 5476SOL    HW127887   2.475   0.385   5.197  0.7457  0.6932  0.0444
 5476SOL    HW227888   2.592   0.443   5.234  0.1951  1.2904 -0.5298
 5477SOL     OW27889   0.122   0.324   2.071 -0.2155 -0.0074 -0.5763
 5477SOL    HW127890   0.066   0.375   2.013 -1.4009 -1.9137 -1.1197
 5477SOL    HW227891   0.048   0.284   2.116  0.4976 -2.7103 -1.8037
 5478SOL     OW27892   0.393   1.702   4.088  1.0847  0.1674 -0.2139
 5478SOL    HW127893   0.482   1.725   4.115  0.3063  2.6116  0.2727
 5478SOL    HW227894   0.389   1.730   3.996  0.3562 -0.7653 -0.4647
 5479SOL     OW27895   1.535   1.244   4.058 -0.2938 -0.3176  0.0902
 5479SOL    HW127896   1.604   1.185   4.086  0.5835  0.8733  0.4516
 5479SOL    HW227897   1.595   1.301   4.010  0.6668  0.4549  2.1959
 5480SOL     OW27898   0.615   3.775   3.648  0.1878 -0.5669  0.1062
 5480SOL    HW127899   0.572   3.854   3.682 -2.0271 -0.4282 -3.0668
 5480SOL    HW227900   0.584   3.777   3.558  3.3679 -0.1176 -0.9694
 5481SOL     OW27901   3.581   0.610   1.598 -0.2822 -0.4099  0.4085
 5481SOL    HW127902   3.502   0.652   1.564  0.7853  0.1053 -1.4320
 5481SOL    HW227903   3.630   0.589   1.518 -1.7437 -1.4533 -0.2227
 5482SOL     OW27904   1.563   3.951   2.858 -0.3677  0.0353 -0.4073
 5482SOL    HW127905   1.638   4.003   2.830  0.9230 -2.4384 -1.4292
 5482SOL    HW227906   1.512   3.935   2.779 -0.2128  0.3831 -0.5773
 5483SOL     OW27907   4.026   2.141   3.071 -0.6081 -0.3197  0.4402
 5483SOL    HW127908   4.094   2.087   3.031 -0.6977 -0.1762  0.0963
 5483SOL    HW227909   3.958   2.080   3.101 -1.2612 -0.9241 -2.2751
 5484SOL     OW27910   1.791   0.378   8.433  0.2841 -0.6554  0.4795
 5484SOL    HW127911   1.874   0.350   8.473  1.7502  0.7096 -1.6154
 5484SOL    HW227912   1.739   0.386   8.513  0.6049 -0.9234  0.7218
 5485SOL     OW27913   1.021   3.948  15.600 -0.2835 -0.0670  0.0240
 5485SOL    HW127914   1.039   3.942  15.694  1.6297  1.2085 -0.2579
 5485SOL    HW227915   1.031   4.042  15.584  0.8135 -0.1828 -0.0032
 5486SOL     OW27916   1.445   0.868   6.265 -0.0600 -0.6793 -0.0306
 5486SOL    HW127917   1.465   0.867   6.359 -1.7512 -1.2248  0.3227
 5486SOL    HW227918   1.439   0.960   6.240 -0.6318 -0.7438 -0.1236
 5487SOL     OW27919   3.702   2.386  15.841  0.3308 -0.0599 -0.4312
 5487SOL    HW127920   3.614   2.349  15.838  0.9124 -1.5200  0.5704
 5487SOL    HW227921   3.694   2.441  15.920 -2.1978 -0.5746 -0.3303
 5488SOL     OW27922   0.226   2.861   4.886  0.3352  0.5225  0.0752
 5488SOL    HW127923   0.174   2.838   4.963  0.2469 -0.2404 -0.2143
 5488SOL    HW227924   0.166   2.830   4.819  3.8270 -3.4173 -1.1963
 5489SOL     OW27925   2.583   4.534   6.840  0.6015  0.3221 -0.2748
 5489SOL    HW127926   2.557   4.557   6.750  1.6504 -0.2702 -0.7248
 5489SOL    HW227927   2.553   4.445   6.854 -0.0251  0.6953  0.7867
 5490SOL     OW27928   3.760   2.118  14.763  0.0430 -0.0854 -0.5968
 5490SOL    HW127929   3.803   2.091  14.844 -0.1921 -3.5981 -1.6152
 5490SOL    HW227930   3.817   2.081  14.697  0.0705  0.2368 -0.7507
 5491SOL     OW27931   4.159   3.870   2.069  0.3915 -0.4998  0.5354
 5491SOL    HW127932   4.068   3.886   2.043  0.3499 -1.9533 -0.2107
 5491SOL    HW227933   4.153   3.806   2.140  2.4556 -1.5604 -0.2386
 5492SOL     OW27934   1.191   4.427  13.475  0.2302 -0.0244  0.4938
 5492SOL    HW127935   1.177   4.406  13.568  0.4701  1.7842  0.9374
 5492SOL    HW227936   1.228   4.515  13.470 -1.9181  0.9842  2.3767
 5493SOL     OW27937   2.516   0.372   4.251  0.1528  0.2209 -0.5479
 5493SOL    HW127938   2.529   0.287   4.292  2.7543  1.4133  1.0634
 5493SOL    HW227939   2.472   0.350   4.169 -2.1092 -0.1435  0.7519
 5494SOL     OW27940   3.582   2.381   7.036 -0.5353  0.2418  0.5950
 5494SOL    HW127941   3.631   2.328   7.098  0.4296  3.2495  2.4043
 5494SOL    HW227942   3.515   2.322   7.002  1.2725 -1.4762  0.0223
 5495SOL     OW27943   0.353   0.510  15.164 -0.0525  0.4253 -0.0265
 5495SOL    HW127944   0.286   0.547  15.221  0.0652  0.1486  0.2933
 5495SOL    HW227945   0.432   0.562  15.178 -0.7897  1.7866 -0.9511
 5496SOL     OW27946   2.334   3.358   8.262  0.2163 -0.1811 -0.1801
 5496SOL    HW127947   2.327   3.450   8.236 -1.0874 -0.0733  0.5725
 5496SOL    HW227948   2.356   3.368   8.354 -2.5667  1.4969  0.3120
 5497SOL     OW27949   0.671   1.456  13.532  0.0048  0.6214  0.2482
 5497SOL    HW127950   0.707   1.421  13.451 -0.4842  2.5522 -0.7861
 5497SOL    HW227951   0.609   1.521  13.501 -2.2028 -1.3245  0.5954
 5498SOL     OW27952   3.390   4.412   3.484 -0.2849 -0.2285  0.8016
 5498SOL    HW127953   3.330   4.347   3.447 -1.9005  2.4837 -1.3736
 5498SOL    HW227954   3.425   4.461   3.409 -1.4420  0.8457  0.9609
 5499SOL     OW27955   0.149   3.521  16.755  0.6814  0.6578 -0.2985
 5499SOL    HW127956   0.170   3.465  16.829 -2.5823  0.6638  0.6609
 5499SOL    HW227957   0.222   3.493  16.700 -1.2370 -1.4106 -1.8095
 5500SOL     OW27958   2.937   4.576   5.152 -1.0395 -0.0858  0.5799
 5500SOL    HW127959   3.002   4.620   5.097 -0.4645 -1.3338  0.2533
 5500SOL    HW227960   2.981   4.492   5.166 -1.6733 -0.5503 -0.2264
 5501SOL     OW27961   2.023   0.955   3.709  0.0844  0.1642  0.1055
 5501SOL    HW127962   2.022   0.863   3.735  3.1083 -0.3858 -1.6983
 5501SOL    HW227963   1.952   0.993   3.762 -1.0916  2.1523 -2.8935
 5502SOL     OW27964   2.114   0.858   8.132 -0.0911 -0.1172 -0.0475
 5502SOL    HW127965   2.022   0.858   8.158 -0.2771 -1.0100 -0.6827
 5502SOL    HW227966   2.142   0.774   8.169  1.2875  1.3218  2.1601
 5503SOL     OW27967   1.151   3.261  10.165  0.0941  0.0288 -0.0567
 5503SOL    HW127968   1.155   3.229  10.075 -1.2796  0.2395 -0.1870
 5503SOL    HW227969   1.241   3.274  10.197  1.4540  0.2568 -3.9376
 5504SOL     OW27970   1.828   3.501   8.879 -0.2674  0.0706  0.2556
 5504SOL    HW127971   1.910   3.510   8.830 -0.0761  2.4532  1.0117
 5504SOL    HW227972   1.789   3.588   8.881  0.4080  0.3677  0.3018
 5505SOL     OW27973   2.875   3.467  13.698 -0.3795 -0.3426 -0.3940
 5505SOL    HW127974   2.945   3.413  13.734 -1.3320 -0.6089  1.0761
 5505SOL    HW227975   2.895   3.547  13.747 -0.1160 -1.8661  1.9816
 5506SOL     OW27976   1.917   1.338   3.669 -0.0305  0.0400 -0.3009
 5506SOL    HW127977   1.882   1.261   3.713 -0.4363 -1.1835 -2.8184
 5506SOL    HW227978   2.011   1.326   3.657  0.0794  0.3108  0.2557
 5507SOL     OW27979   2.658   1.774   9.213 -0.3213  0.6637 -0.7551
 5507SOL    HW127980   2.704   1.718   9.275  1.9874  2.6169 -0.7360
 5507SOL    HW227981   2.595   1.711   9.177 -0.0157 -0.4771  0.7072
 5508SOL     OW27982   1.847   4.607   8.593 -0.2416 -0.1745 -0.2046
 5508SOL    HW127983   1.778   4.667   8.567 -1.0665 -0.7266  0.7217
 5508SOL    HW227984   1.794   4.531   8.615  0.4546 -0.3089  0.9827
 5509SOL     OW27985   1.007   4.412   1.341 -0.4618  0.2933  0.0972
 5509SOL    HW127986   0.916   4.437   1.355 -1.1704 -1.9698 -0.4770
 5509SOL    HW227987   0.997   4.392   1.248  3.2518 -0.9052 -0.0758
 5510SOL     OW27988   4.674   3.184  11.884  0.4378  0.4419  0.2676
 5510SOL    HW127989   4.620   3.253  11.845 -0.0972  1.9891  3.7419
 5510SOL    HW227990   4.608   3.115  11.887  0.2690  0.6111  0.5252
 5511SOL     OW27991   1.452   4.030   4.995  0.0523  0.1279  0.2735
 5511SOL    HW127992   1.401   3.999   4.920  0.5039  3.3436 -1.3482
 5511SOL    HW227993   1.387   4.008   5.062 -1.1090 -1.7693 -1.4597
 5512SOL     OW27994   0.407   3.161   1.739 -0.2811  0.2024 -0.3211
 5512SOL    HW127995   0.424   3.218   1.814 -0.6248  0.7826 -0.6813
 5512SOL    HW227996   0.477   3.165   1.674  1.0289  0.1913  1.0804
 5513SOL     OW27997   3.784   1.819  14.167  0.0858 -0.2996  0.1921
 5513SOL    HW127998   3.737   1.829  14.250 -1.6777 -0.3004 -0.8040
 5513SOL    HW227999   3.792   1.911  14.140  0.5605 -0.6066 -0.6793
 5514SOL     OW28000   0.599   1.557   1.391  0.2743 -0.1866  0.2860
 5514SOL    HW128001   0.623   1.539   1.300  1.7407  1.0674  0.4363
 5514SOL    HW228002   0.549   1.477   1.408  0.3457 -0.1292  0.7622
 5515SOL     OW28003   0.580   0.406   4.678 -0.4206  0.1176 -0.2292
 5515SOL    HW128004   0.509   0.454   4.721  0.1280  1.4323 -0.8043
 5515SOL    HW228005   0.611   0.343   4.744 -0.6505  0.0899 -0.1450
 5516SOL     OW28006   0.133   0.613   6.174  0.4911  0.1422  0.6079
 5516SOL    HW128007   0.180   0.679   6.123  0.5563 -1.7933 -1.8020
 5516SOL    HW228008   0.123   0.553   6.101 -0.2286  1.4291 -0.3588
 5517SOL     OW28009   2.060   3.659   7.187  0.7080  0.0303  0.1545
 5517SOL    HW128010   2.056   3.720   7.114 -0.5234 -1.2191 -0.8180
 5517SOL    HW228011   1.972   3.621   7.182  0.2097  1.5030 -2.0457
 5518SOL     OW28012   3.998   3.786   9.408  0.6180 -0.1280 -0.3684
 5518SOL    HW128013   3.920   3.743   9.446  0.6008  1.2853  1.1928
 5518SOL    HW228014   4.034   3.825   9.488  0.4243  2.0254 -1.3527
 5519SOL     OW28015   1.839   1.699   4.968  0.2550 -0.4810 -0.3391
 5519SOL    HW128016   1.754   1.704   4.924  0.8041 -0.1436 -1.3481
 5519SOL    HW228017   1.856   1.792   4.980 -0.2009 -0.4277 -0.0883
 5520SOL     OW28018   1.855   1.972   4.991  0.4376 -0.3316 -0.1439
 5520SOL    HW128019   1.914   2.044   4.967 -2.1331  1.4772 -1.0482
 5520SOL    HW228020   1.807   2.009   5.065  1.2685 -0.3930  0.4283
 5521SOL     OW28021   4.141   4.552   6.662 -0.1589 -0.4911  0.3725
 5521SOL    HW128022   4.107   4.640   6.646  1.0865 -0.3392 -1.4327
 5521SOL    HW228023   4.061   4.500   6.669  0.0603 -0.9353 -0.4954
 5522SOL     OW28024   3.263   0.777   6.939 -0.5861  0.0458 -0.0134
 5522SOL    HW128025   3.195   0.716   6.969 -0.2325  0.2478  1.1872
 5522SOL    HW228026   3.246   0.839   7.010 -0.2373 -1.0764  1.0479
 5523SOL     OW28027   4.715   0.671  17.111  0.8824 -0.1773  0.0817
 5523SOL    HW128028   0.036   0.755  17.131  0.6031 -0.1613  0.5962
 5523SOL    HW228029   0.029   0.617  17.183  0.1788 -0.5984  0.1096
 5524SOL     OW28030   4.545   3.475   6.536 -0.4162  0.4192 -0.3015
 5524SOL    HW128031   4.569   3.455   6.445  0.8680  1.3161 -0.1719
 5524SOL    HW228032   4.580   3.563   6.550  3.8165 -1.0145 -1.7815
 5525SOL     OW28033   1.418   0.205   3.877 -0.2842 -0.4148 -0.5974
 5525SOL    HW128034   1.487   0.163   3.929 -0.7583 -1.2836 -0.6864
 5525SOL    HW228035   1.440   0.298   3.869 -2.6348  0.2556  0.8314
 5526SOL     OW28036   1.186   4.313   4.363  0.0743 -0.4402 -0.1440
 5526SOL    HW128037   1.184   4.394   4.312  1.0631  0.7965  1.7907
 5526SOL    HW228038   1.152   4.237   4.315  1.2967 -0.7945 -0.4427
 5527SOL     OW28039   0.346   2.977   2.529  0.3219 -0.0962 -0.2692
 5527SOL    HW128040   0.431   2.951   2.494 -1.1482 -2.6304 -1.9851
 5527SOL    HW228041   0.307   3.026   2.456 -0.1202  1.2511  0.8667
 5528SOL     OW28042   4.431   2.490   4.648 -0.1140  0.4198 -0.3859
 5528SOL    HW128043   4.446   2.552   4.719  1.1129 -0.4661  0.1346
 5528SOL    HW228044   4.428   2.539   4.566  0.1273 -0.0750 -0.6927
 5529SOL     OW28045   3.616   1.057   9.271 -0.1749  0.0541 -0.3795
 5529SOL    HW128046   3.607   0.968   9.307  0.2503  0.3323  0.4254
 5529SOL    HW228047   3.710   1.066   9.257 -0.1056 -3.2744 -2.2543
 5530SOL     OW28048   4.097   0.496  15.090 -0.6184  0.5995  0.0100
 5530SOL    HW128049   4.049   0.560  15.144 -0.4064  1.4463 -0.8036
 5530SOL    HW228050   4.063   0.413  15.124  0.2039  1.2728  2.4839
 5531SOL     OW28051   4.050   3.922   3.391  0.3101  0.7128  0.5013
 5531SOL    HW128052   3.986   3.931   3.461 -2.4299  0.6804 -1.9943
 5531SOL    HW228053   4.132   3.928   3.440  1.1181  1.2510 -0.9278
 5532SOL     OW28054   4.420   2.756   7.519  0.2408 -0.1216 -0.5712
 5532SOL    HW128055   4.377   2.765   7.605  0.3101 -0.7532 -0.4673
 5532SOL    HW228056   4.420   2.849   7.497 -1.0419 -0.2380 -1.0667
 5533SOL     OW28057   2.124   1.935   2.422  0.1866 -0.1592 -0.1244
 5533SOL    HW128058   2.104   2.028   2.412  1.8531  0.1479 -0.6458
 5533SOL    HW228059   2.219   1.932   2.431  0.5559 -1.0612 -4.0725
 5534SOL     OW28060   3.101   0.409  11.609 -0.4092  0.4631  0.5312
 5534SOL    HW128061   3.062   0.374  11.529  0.1295 -0.3039  0.6024
 5534SOL    HW228062   3.041   0.479  11.634  1.3367  2.0743  0.1835
 5535SOL     OW28063   3.418   4.354   9.216  0.3675  0.3398 -0.1161
 5535SOL    HW128064   3.397   4.296   9.289  2.0246 -0.1979 -0.0512
 5535SOL    HW228065   3.463   4.286   9.165  1.0759 -0.7919  2.0273
 5536SOL     OW28066   1.155   1.376   5.696  0.0512  0.3899  0.4057
 5536SOL    HW128067   1.237   1.401   5.738  1.4619  0.0068 -2.1201
 5536SOL    HW228068   1.156   1.281   5.688  0.8510  0.4867 -0.5897
 5537SOL     OW28069   3.531   1.626   3.263 -0.0812 -0.5049  0.3842
 5537SOL    HW128070   3.447   1.613   3.307 -0.1172  0.7838  0.7243
 5537SOL    HW228071   3.498   1.655   3.177 -0.4174 -2.2971 -0.0932
 5538SOL     OW28072   0.511   4.566   9.223  0.0354 -0.2855 -0.5661
 5538SOL    HW128073   0.561   4.506   9.167  1.5021 -2.0317  2.6464
 5538SOL    HW228074   0.473   4.503   9.284  0.4219  1.2600  1.2565
 5539SOL     OW28075   2.465   0.911  10.890  0.4200  0.7239  0.5034
 5539SOL    HW128076   2.464   0.844  10.822  0.8800  1.0159  0.2113
 5539SOL    HW228077   2.522   0.858  10.945 -1.8130 -0.3273  1.8181
 5540SOL     OW28078   1.613   4.348   8.276  0.5350 -0.2796 -0.2499
 5540SOL    HW128079   1.655   4.262   8.273 -0.8845 -0.9446 -0.7728
 5540SOL    HW228080   1.562   4.358   8.356  1.7975 -1.6677  0.7397
 5541SOL     OW28081   4.463   2.775  17.633  0.1243 -0.3307  0.3350
 5541SOL    HW128082   4.491   2.687  17.606  0.7080  0.0845 -0.4013
 5541SOL    HW228083   4.528   2.819  17.579 -1.3608 -1.0054 -2.0026
 5542SOL     OW28084   0.923   4.081  14.973  0.8786  0.2691 -0.4311
 5542SOL    HW128085   1.005   4.104  14.930  1.2893  3.3036  2.0498
 5542SOL    HW228086   0.924   4.125  15.058 -1.0500 -1.4036  0.4665
 5543SOL     OW28087   2.251   1.860   8.972 -0.1567  0.0898 -0.0615
 5543SOL    HW128088   2.272   1.898   9.057 -0.0153  2.2302 -1.0530
 5543SOL    HW228089   2.201   1.929   8.929  0.7335  1.4410  1.0705
 5544SOL     OW28090   0.632   4.709   0.742  0.2041 -0.2031  0.4701
 5544SOL    HW128091   0.674   0.056   0.795  2.0126 -0.9577 -0.0183
 5544SOL    HW228092   0.671   4.709   0.655  0.9042  1.9732  0.7811
 5545SOL     OW28093   2.170   1.859   3.894 -0.9528  0.1038  1.0281
 5545SOL    HW128094   2.147   1.917   3.822  1.0962 -1.4071 -0.8257
 5545SOL    HW228095   2.266   1.865   3.897 -0.8933  0.6582 -2.4722
 5546SOL     OW28096   4.017   2.555   1.520  0.0683 -0.3641  0.5430
 5546SOL    HW128097   3.980   2.478   1.563  0.2076 -0.2448  0.8773
 5546SOL    HW228098   4.108   2.528   1.507 -0.6750 -1.8980 -1.4812
 5547SOL     OW28099   3.961   3.638  13.441 -0.6093 -0.0843 -0.0398
 5547SOL    HW128100   4.011   3.678  13.513  1.2940 -1.8150 -0.4161
 5547SOL    HW228101   4.007   3.672  13.364  0.9620 -0.5803  0.6729
 5548SOL     OW28102   1.618   0.639  11.325  0.4059 -0.3642 -0.1313
 5548SOL    HW128103   1.605   0.670  11.236 -3.1017 -1.7915 -0.1374
 5548SOL    HW228104   1.616   0.544  11.314  3.5330 -0.4722  0.1903
 5549SOL     OW28105   2.951   2.652   9.281 -0.4022  0.2072  0.0505
 5549SOL    HW128106   2.912   2.697   9.206 -0.7842 -2.7276 -1.4994
 5549SOL    HW228107   2.888   2.581   9.291  0.9202 -1.0693 -0.7423
 5550SOL     OW28108   0.143   4.327   1.440  0.6625 -0.4962  0.2458
 5550SOL    HW128109   0.063   4.371   1.410  0.9245 -0.2845 -0.1371
 5550SOL    HW228110   0.121   4.326   1.533  0.5252 -0.5137  0.2138
 5551SOL     OW28111   3.078   2.882  15.412 -0.0844 -0.1240  0.4452
 5551SOL    HW128112   3.149   2.944  15.426 -0.3145  0.2229  0.0725
 5551SOL    HW228113   3.100   2.802  15.459 -2.7538 -0.2936  1.3950
 5552SOL     OW28114   0.570   4.655  10.057  0.0954 -0.1284 -0.1841
 5552SOL    HW128115   0.588   4.667  10.150 -1.2280 -1.9489  0.3277
 5552SOL    HW228116   0.506   0.002  10.035 -2.4790 -1.5775  2.6785
 5553SOL     OW28117   4.683   0.902   6.856 -0.0503 -0.1136  0.3081
 5553SOL    HW128118   0.049   0.942   6.857  0.2480 -0.7737  0.7287
 5553SOL    HW228119   4.691   0.834   6.790 -3.2223 -1.7711  1.6454
 5554SOL     OW28120   2.977   1.230   9.131  0.3742  0.0940 -0.1104
 5554SOL    HW128121   3.066   1.207   9.107  0.1344 -1.3429  0.4051
 5554SOL    HW228122   2.960   1.184   9.213  1.4086 -1.1734 -0.6056
 5555SOL     OW28123   2.356   3.041  12.344 -0.0020  0.3510  0.3981
 5555SOL    HW128124   2.411   3.068  12.418  1.3271 -0.3693 -0.3156
 5555SOL    HW228125   2.314   2.963  12.380 -2.5243  0.9648 -1.2040
 5556SOL     OW28126   3.599   0.323   0.090 -0.3042  0.2887  0.0415
 5556SOL    HW128127   3.508   0.296   0.086 -0.4600  0.9051 -0.6386
 5556SOL    HW228128   3.602   0.404   0.038  0.8959  0.8536  0.9676
 5557SOL     OW28129   1.798   2.535   3.641  0.2217 -0.3572  0.2238
 5557SOL    HW128130   1.806   2.586   3.561 -0.1985 -2.5241 -1.2034
 5557SOL    HW228131   1.776   2.595   3.713  0.7182  1.3863 -1.0797
 5558SOL     OW28132   4.128   0.086  14.228 -0.0831 -0.2018  0.6026
 5558SOL    HW128133   4.048   0.124  14.192 -0.1745  1.4329  2.5551
 5558SOL    HW228134   4.181   0.153  14.184  0.0656 -0.5796  0.2014
 5559SOL     OW28135   0.937   4.603  13.942 -0.0926  0.1215  0.4725
 5559SOL    HW128136   1.010   4.642  13.895  1.9606 -3.7455  0.4537
 5559SOL    HW228137   0.924   4.675  14.003 -0.6497 -1.2766  2.0124
 5560SOL     OW28138   1.711   1.780   3.569 -0.1007 -0.6629 -0.2328
 5560SOL    HW128139   1.769   1.729   3.625 -0.5472  0.1765  1.0019
 5560SOL    HW228140   1.768   1.836   3.516  0.0183 -1.3622 -0.8299
 5561SOL     OW28141   3.830   2.874   7.822 -0.4247  0.2709 -0.2625
 5561SOL    HW128142   3.807   2.965   7.803  1.6513  1.2814  2.1765
 5561SOL    HW228143   3.853   2.848   7.733 -0.0776  0.9764 -0.3740
 5562SOL     OW28144   0.627   2.706   9.225  0.4658  0.1198  0.0020
 5562SOL    HW128145   0.599   2.790   9.189  1.1849  0.3274 -0.0784
 5562SOL    HW228146   0.641   2.655   9.145  0.6154  0.9798 -0.5189
 5563SOL     OW28147   3.028   2.091   4.307 -0.3656 -0.4720  0.1896
 5563SOL    HW128148   3.018   2.022   4.372  2.1381 -0.8535  0.1632
 5563SOL    HW228149   3.073   2.159   4.357 -2.3624 -0.8334  2.4843
 5564SOL     OW28150   2.220   3.721  12.154  0.0498  0.2434  0.1057
 5564SOL    HW128151   2.306   3.724  12.112 -0.3618  3.2843 -0.5115
 5564SOL    HW228152   2.173   3.793  12.113  1.5056  1.1482  0.0139
 5565SOL     OW28153   0.388   0.442   8.970 -0.5645  0.2027 -0.4249
 5565SOL    HW128154   0.391   0.388   9.048  1.9229 -0.4874 -0.9967
 5565SOL    HW228155   0.301   0.481   8.984 -0.1910  0.7115  0.4164
 5566SOL     OW28156   0.640   1.321   4.990  0.4960 -0.5487 -0.0354
 5566SOL    HW128157   0.590   1.311   5.071 -1.7634  1.0810 -1.1965
 5566SOL    HW228158   0.596   1.259   4.932  0.2514 -0.2004 -0.2230
 5567SOL     OW28159   3.269   0.214  12.902  0.7027  0.2171 -0.1464
 5567SOL    HW128160   3.293   0.156  12.830 -0.3092 -0.4739  0.0682
 5567SOL    HW228161   3.349   0.228  12.952 -0.4859  0.8472  1.5794
 5568SOL     OW28162   2.069   2.648  13.034  0.2191 -0.1342  0.3518
 5568SOL    HW128163   2.011   2.723  13.019  0.4475 -0.1608 -0.6821
 5568SOL    HW228164   2.042   2.619  13.121  0.8231 -0.4534  0.4367
 5569SOL     OW28165   0.600   3.920  13.076  0.5158  0.1377  0.1325
 5569SOL    HW128166   0.545   3.996  13.094 -0.4512 -0.5812  0.2195
 5569SOL    HW228167   0.600   3.905  12.981  0.4676  2.5999 -0.2558
 5570SOL     OW28168   3.574   3.931  16.119 -0.3049 -0.4829 -0.2545
 5570SOL    HW128169   3.515   4.005  16.101  0.6265  0.3632  0.1826
 5570SOL    HW228170   3.651   3.976  16.153 -1.0548  0.7848 -0.2318
 5571SOL     OW28171   0.525   3.527  15.545 -0.2878 -0.9957 -0.4120
 5571SOL    HW128172   0.606   3.495  15.505 -0.1992 -1.3201  0.0310
 5571SOL    HW228173   0.514   3.473  15.623 -1.2291  1.3748  1.0852
 5572SOL     OW28174   1.360   3.734   7.033  0.8546 -0.1701 -0.0723
 5572SOL    HW128175   1.407   3.816   7.021  1.5227 -0.5092  0.2313
 5572SOL    HW228176   1.288   3.767   7.088  0.7447  0.9079 -0.8740
 5573SOL     OW28177   0.243   1.762   4.531  0.0730 -0.3505  0.3534
 5573SOL    HW128178   0.170   1.703   4.512 -0.7281  0.8270 -0.2510
 5573SOL    HW228179   0.313   1.705   4.500  0.2584 -0.1388  0.3858
 5574SOL     OW28180   0.993   4.279  10.074 -0.4287 -0.0903  0.0514
 5574SOL    HW128181   0.916   4.319  10.033 -0.2840  1.4952  1.3017
 5574SOL    HW228182   0.995   4.190  10.040  1.8190 -0.7748  1.9259
 5575SOL     OW28183   2.757   2.044   8.825 -0.1079 -0.5282 -0.4535
 5575SOL    HW128184   2.665   2.047   8.852 -0.0971  0.8798 -0.5769
 5575SOL    HW228185   2.802   2.080   8.901  0.9649  0.7142 -1.6656
 5576SOL     OW28186   1.993   1.318   8.230  0.1115  0.1216 -0.4546
 5576SOL    HW128187   1.951   1.399   8.257  0.3653  1.2831 -3.5158
 5576SOL    HW228188   2.002   1.276   8.316 -1.2021 -0.1435 -0.4404
 5577SOL     OW28189   4.027   3.659   8.665  0.5762 -0.1762  0.1536
 5577SOL    HW128190   3.958   3.601   8.632  1.5259 -1.4553  0.4147
 5577SOL    HW228191   4.091   3.591   8.686  0.3713  0.1741  1.9106
 5578SOL     OW28192   1.134   1.353  10.930  0.3521 -0.3805 -0.2806
 5578SOL    HW128193   1.102   1.287  10.991 -1.3628  1.2111  0.5409
 5578SOL    HW228194   1.202   1.394  10.984 -1.2606  0.0047  1.4458
 5579SOL     OW28195   0.959   0.263  13.949 -0.3104  0.2191  0.1980
 5579SOL    HW128196   1.006   0.337  13.987  0.2321  0.1717 -0.3794
 5579SOL    HW228197   0.957   0.212  14.030 -2.7900 -2.2738 -1.4317
 5580SOL     OW28198   1.634   1.928   2.905 -0.1527  0.0151 -0.0498
 5580SOL    HW128199   1.681   1.916   2.988  0.1226 -1.0550 -0.3697
 5580SOL    HW228200   1.698   1.950   2.837 -1.1000 -2.8947 -1.8615
 5581SOL     OW28201   0.015   1.967  13.996 -0.1787  0.1774  0.5861
 5581SOL    HW128202   4.659   1.920  13.964 -0.0195 -0.8640  1.7359
 5581SOL    HW228203   0.018   2.044  13.939  1.4646 -0.4992 -0.2099
 5582SOL     OW28204   0.125   2.642   9.019 -0.5495 -0.3114 -0.2938
 5582SOL    HW128205   0.081   2.667   9.100  0.5109  2.3937 -0.5431
 5582SOL    HW228206   0.133   2.549   9.037  1.5284  0.1574  1.3256
 5583SOL     OW28207   3.237   1.847   4.238 -0.3480 -0.0988  0.2677
 5583SOL    HW128208   3.277   1.925   4.199  2.4651 -1.3638  0.6541
 5583SOL    HW228209   3.225   1.867   4.331 -0.4161  2.5927 -0.3017
 5584SOL     OW28210   2.505   3.954   3.843 -0.2185  0.5473  0.2535
 5584SOL    HW128211   2.537   4.034   3.884  0.9762  1.6287 -2.7836
 5584SOL    HW228212   2.587   3.909   3.823 -1.5697 -2.4597  1.4288
 5585SOL     OW28213   4.121   2.361   8.282 -0.5094  0.0279 -0.2720
 5585SOL    HW128214   4.194   2.308   8.251 -0.5150 -0.8072  1.1355
 5585SOL    HW228215   4.149   2.449   8.258  0.2573  0.0866  0.8650
 5586SOL     OW28216   3.568   3.876   7.968  0.6014  0.0854  0.3223
 5586SOL    HW128217   3.603   3.960   7.997 -1.0192  0.5848  0.8108
 5586SOL    HW228218   3.483   3.901   7.931  0.4901  0.4532  0.8411
 5587SOL     OW28219   2.863   1.164   0.431 -0.2838  0.2291 -0.0490
 5587SOL    HW128220   2.821   1.182   0.347 -0.9227  2.0722  0.6760
 5587SOL    HW228221   2.788   1.126   0.477  1.2686 -1.9678  0.7161
 5588SOL     OW28222   0.885   1.698  16.662  0.5863  0.4601 -0.0174
 5588SOL    HW128223   0.922   1.786  16.667  0.3082  0.5473  0.6092
 5588SOL    HW228224   0.904   1.670  16.573  1.4058  0.7759  0.0587
 5589SOL     OW28225   0.163   3.029   2.345  0.2573 -0.0788  0.1338
 5589SOL    HW128226   0.094   2.964   2.352 -0.4484  0.6513 -0.1099
 5589SOL    HW228227   0.171   3.043   2.250 -1.7006 -3.2226 -0.4733
 5590SOL     OW28228   3.652   3.156   2.579  0.1572 -0.5357 -0.4139
 5590SOL    HW128229   3.565   3.125   2.554 -1.2678  3.3572 -0.2879
 5590SOL    HW228230   3.702   3.130   2.502 -2.6019 -2.6024 -1.4920
 5591SOL     OW28231   4.256   4.118  13.719  0.1179 -0.1113 -1.0646
 5591SOL    HW128232   4.279   4.057  13.649  2.3694  0.8921 -1.2095
 5591SOL    HW228233   4.271   4.059  13.792 -1.5133 -1.5287 -1.8677
 5592SOL     OW28234   3.508   0.678   6.889 -0.2136 -0.2891  0.1303
 5592SOL    HW128235   3.505   0.593   6.845 -1.1789  0.6707 -1.6394
 5592SOL    HW228236   3.413   0.686   6.902  0.1594  1.2172  1.8893
 5593SOL     OW28237   0.028   0.238   7.220 -0.1169  0.0290  0.5205
 5593SOL    HW128238   0.121   0.220   7.206 -0.2813 -0.7943  0.5030
 5593SOL    HW228239   0.013   0.312   7.161  1.3021  0.6561  0.9343
 5594SOL     OW28240   1.974   1.007   3.438  0.0112  0.0794 -0.4363
 5594SOL    HW128241   1.970   0.970   3.526  1.5637 -2.1046 -1.2549
 5594SOL    HW228242   2.036   0.953   3.387  0.5759 -0.1415  0.4892
 5595SOL     OW28243   2.986   0.389   8.653 -0.2415  0.3961 -0.1147
 5595SOL    HW128244   2.989   0.483   8.669 -0.4729  0.1446  1.4860
 5595SOL    HW228245   2.906   0.356   8.695 -1.4100  0.2801 -2.4262
 5596SOL     OW28246   0.100   0.973   5.188  0.1111 -0.0539 -0.5646
 5596SOL    HW128247   0.009   0.944   5.188 -0.1132  0.6404 -2.3800
 5596SOL    HW228248   0.155   0.895   5.186  1.0801  0.6317 -0.3617
 5597SOL     OW28249   3.272   3.954   5.259 -0.4256 -0.2214 -0.5366
 5597SOL    HW128250   3.230   3.978   5.341 -1.0587  1.5562 -1.3853
 5597SOL    HW228251   3.332   3.885   5.288  0.4518  0.4482 -0.7571
 5598SOL     OW28252   3.130   0.125  10.415 -0.2156 -0.1903 -0.0420
 5598SOL    HW128253   3.218   0.092  10.395  0.7020  2.0365  0.4126
 5598SOL    HW228254   3.116   0.072  10.494 -1.4376 -0.4957 -0.4592
 5599SOL     OW28255   2.701   0.074  12.073  0.3407  0.4350 -0.6033
 5599SOL    HW128256   2.673   0.014  12.003 -0.1776 -0.0191 -0.0070
 5599SOL    HW228257   2.625   0.082  12.130 -0.9487 -1.6120 -2.0077
 5600SOL     OW28258   2.363   3.480   4.693  0.0832 -0.0827 -0.2197
 5600SOL    HW128259   2.433   3.476   4.627  0.1262 -0.6419 -0.1398
 5600SOL    HW228260   2.353   3.575   4.701  1.7458  0.0594  0.3179
 5601SOL     OW28261   0.077   3.750   4.697  0.0438 -0.6899 -0.3599
 5601SOL    HW128262   0.147   3.714   4.642 -0.7993  1.3682 -2.7761
 5601SOL    HW228263   0.127   3.736   4.777 -1.4429 -0.3761  0.6150
 5602SOL     OW28264   2.629   2.717  11.730 -0.5063 -0.3177  0.3864
 5602SOL    HW128265   2.652   2.627  11.707  0.0388 -0.5942  1.9748
 5602SOL    HW228266   2.640   2.754  11.643  3.4636 -2.0118  0.1296
 5603SOL     OW28267   0.012   3.104   0.048 -0.1069 -0.5695  0.0392
 5603SOL    HW128268   4.656   3.110   0.106  1.4253 -2.6609  2.3156
 5603SOL    HW228269   4.690   3.104  17.648 -0.2436 -3.1450  0.1085
 5604SOL     OW28270   3.493   0.150   8.431  0.3632 -0.0224 -0.1766
 5604SOL    HW128271   3.478   0.061   8.463 -0.1440  0.8305  1.9929
 5604SOL    HW228272   3.407   0.178   8.401  0.0815 -0.8761 -0.1435
 5605SOL     OW28273   2.178   2.733   6.706  0.3498  0.3608 -0.5977
 5605SOL    HW128274   2.248   2.776   6.658 -1.1013  2.4624 -0.8278
 5605SOL    HW228275   2.128   2.808   6.738  2.2943  0.2145  2.8275
 5606SOL     OW28276   2.872   0.137  12.282 -0.5745 -0.1835  0.6813
 5606SOL    HW128277   2.860   0.226  12.314 -0.8408 -0.6055  1.7738
 5606SOL    HW228278   2.796   0.116  12.228  0.0669  2.6937 -1.3014
 5607SOL     OW28279   1.532   2.992   0.215  0.4264 -0.0061 -0.1071
 5607SOL    HW128280   1.607   2.954   0.261  0.7422 -1.3400 -1.7038
 5607SOL    HW228281   1.554   3.077   0.177 -1.6829  0.7569  0.3677
 5608SOL     OW28282   0.798   3.809   6.296  0.1462  0.5664  0.4684
 5608SOL    HW128283   0.749   3.814   6.214  1.6897  0.9264 -0.4309
 5608SOL    HW228284   0.873   3.768   6.254 -1.9293 -2.4033 -0.3810
 5609SOL     OW28285   1.958   1.700   7.613 -0.2198  0.4242  0.0001
 5609SOL    HW128286   1.873   1.655   7.605 -1.9266  2.8477  4.4401
 5609SOL    HW228287   2.019   1.627   7.603 -0.5946 -0.0618  1.2445
 5610SOL     OW28288   1.947   1.884   3.455 -0.0832  0.1831 -0.3434
 5610SOL    HW128289   1.976   1.946   3.522  0.2926  0.9186 -1.1866
 5610SOL    HW228290   1.983   1.935   3.382  0.2661 -3.9746 -3.0863
 5611SOL     OW28291   3.748   0.131  14.686  1.0847 -0.3018 -0.0430
 5611SOL    HW128292   3.678   0.092  14.738 -0.5126  1.7064 -0.6717
 5611SOL    HW228293   3.824   0.095  14.731  0.7595  0.2297  0.9384
 5612SOL     OW28294   3.123   0.471  12.384  0.4050  0.2922  0.1746
 5612SOL    HW128295   3.193   0.432  12.331  0.7746  0.1532  0.7675
 5612SOL    HW228296   3.156   0.435  12.466  1.1376 -0.5319 -0.4801
 5613SOL     OW28297   3.354   2.597  16.953  0.3135 -0.1994 -0.9426
 5613SOL    HW128298   3.270   2.596  16.997  0.6606  2.6319 -0.2252
 5613SOL    HW228299   3.335   2.667  16.890  0.1115  0.0027 -0.6537
 5614SOL     OW28300   4.611   2.386  15.675 -0.5149 -0.2083 -0.0471
 5614SOL    HW128301   4.525   2.404  15.637 -0.5211 -0.4226 -0.1318
 5614SOL    HW228302   4.584   2.307  15.723 -0.0728 -0.3758 -0.0772
 5615SOL     OW28303   2.640   2.488  13.496  0.2052  0.0671 -0.1877
 5615SOL    HW128304   2.567   2.547  13.477 -0.7659 -1.2114 -0.4349
 5615SOL    HW228305   2.679   2.495  13.409 -0.4069  1.8669 -0.3283
 5616SOL     OW28306   3.855   1.104   5.864  0.2412 -0.0881  0.7375
 5616SOL    HW128307   3.815   1.122   5.949 -3.4707  1.1469 -1.2318
 5616SOL    HW228308   3.863   1.010   5.873  1.2136  0.1131  1.9149
 5617SOL     OW28309   3.341   3.439   4.003 -0.1014  0.4150  0.1451
 5617SOL    HW128310   3.325   3.348   3.977 -1.2685  0.2655  1.4246
 5617SOL    HW228311   3.350   3.472   3.913  2.8356  1.4118  0.7964
 5618SOL     OW28312   1.696   4.529   2.798 -0.0763 -0.2641 -0.1079
 5618SOL    HW128313   1.610   4.572   2.807 -0.6753 -1.6063  0.6760
 5618SOL    HW228314   1.745   4.610   2.814 -2.6203  1.1581  0.6881
 5619SOL     OW28315   4.215   3.918   0.890 -0.3922 -0.4410  0.1463
 5619SOL    HW128316   4.302   3.927   0.851 -0.6341 -2.0346 -0.7377
 5619SOL    HW228317   4.197   3.829   0.859 -0.0970 -0.4829  0.0916
 5620SOL     OW28318   0.845   0.580  13.368  0.2881  0.0960 -0.4152
 5620SOL    HW128319   0.892   0.509  13.410 -1.6622 -1.1418 -0.3224
 5620SOL    HW228320   0.818   0.623  13.450  1.0557 -1.2864  0.5583
 5621SOL     OW28321   2.711   4.484  10.477  0.0304 -0.3022  0.2377
 5621SOL    HW128322   2.701   4.403  10.527 -0.1682 -0.3035  0.1962
 5621SOL    HW228323   2.619   4.511  10.480  0.3487  0.8585 -0.1165
 5622SOL     OW28324   1.185   1.308   8.631  0.5839 -0.1259 -0.2582
 5622SOL    HW128325   1.162   1.239   8.693  2.4964 -0.2457  0.3232
 5622SOL    HW228326   1.111   1.318   8.571  0.1677 -0.0474  0.2723
 5623SOL     OW28327   1.869   2.953  13.991 -0.4770  0.6370 -0.1691
 5623SOL    HW128328   1.837   2.967  13.901 -0.8656 -1.8591 -0.4289
 5623SOL    HW228329   1.794   2.979  14.044  0.2589  0.8729  0.7560
 5624SOL     OW28330   0.870   4.515   4.370 -0.2744 -0.1002 -0.4083
 5624SOL    HW128331   0.810   4.446   4.342  0.1313 -0.4827 -0.3266
 5624SOL    HW228332   0.926   4.472   4.435 -3.0441 -1.9632  0.7897
 5625SOL     OW28333   0.102   4.125   7.601  0.3062 -0.2986  0.7258
 5625SOL    HW128334   0.044   4.105   7.528  1.2572 -0.3816 -0.0126
 5625SOL    HW228335   0.118   4.049   7.657  0.1469 -1.5371 -0.9217
 5626SOL     OW28336   3.035   0.850  14.875  0.2758  0.1271 -0.9006
 5626SOL    HW128337   3.011   0.886  14.790  0.9498  1.1837 -0.6416
 5626SOL    HW228338   3.022   0.755  14.874  2.3838 -0.1938  3.4374
 5627SOL     OW28339   2.191   1.046   1.590  0.3874  0.1617 -0.5865
 5627SOL    HW128340   2.161   1.057   1.500 -1.0064  2.6747  0.1996
 5627SOL    HW228341   2.130   0.984   1.629 -0.2707  0.5708 -0.9723
 5628SOL     OW28342   1.349   0.407   1.896  0.8037  0.7387 -0.0641
 5628SOL    HW128343   1.306   0.339   1.844  0.9599  1.2843 -0.9035
 5628SOL    HW228344   1.442   0.384   1.901  0.5142 -0.6824 -1.2416
 5629SOL     OW28345   2.222   2.775  13.239 -0.2127 -0.7277  0.1467
 5629SOL    HW128346   2.222   2.730  13.155 -0.3282 -0.2108 -0.1339
 5629SOL    HW228347   2.316   2.783  13.257 -0.1280 -0.7315 -0.2914
 5630SOL     OW28348   0.372   0.782  12.951  0.2294  0.5378 -0.0540
 5630SOL    HW128349   0.363   0.863  13.000 -0.7144  0.5782 -0.2974
 5630SOL    HW228350   0.348   0.803  12.861 -0.3358  2.0940  0.4637
 5631SOL     OW28351   0.110   3.771   9.317  0.1175 -0.9701 -0.1654
 5631SOL    HW128352   0.201   3.801   9.304 -0.7248  2.2718  1.3636
 5631SOL    HW228353   0.123   3.720   9.396  1.6215 -0.5970 -0.1669
 5632SOL     OW28354   3.815   2.378   5.209  0.0068 -0.0029 -0.3118
 5632SOL    HW128355   3.861   2.298   5.183 -0.1543  0.1236 -0.9720
 5632SOL    HW228356   3.837   2.443   5.142 -0.7575  0.9999  0.3994
 5633SOL     OW28357   1.746   4.674  13.003  0.5071  0.2282 -0.3453
 5633SOL    HW128358   1.685   4.644  13.070  0.3772  0.1925 -0.4801
 5633SOL    HW228359   1.798   4.596  12.985  1.5045  0.6316  0.8218
 5634SOL     OW28360   4.685   0.028  10.223 -0.4689 -0.3494 -0.4852
 5634SOL    HW128361   4.712   0.074  10.144  0.1626 -0.1775 -0.1708
 5634SOL    HW228362   0.041   4.692  10.225  0.0542  0.2959 -3.0757
 5635SOL     OW28363   2.182   1.879   6.117  0.1505  0.4687 -0.3151
 5635SOL    HW128364   2.091   1.871   6.090  0.1955 -1.7470  0.1985
 5635SOL    HW228365   2.208   1.971   6.109  2.7903 -0.1679  0.7116
 5636SOL     OW28366   0.573   2.480   5.487  0.2204 -0.4727  0.3224
 5636SOL    HW128367   0.551   2.387   5.490  0.2396 -0.4357  1.5750
 5636SOL    HW228368   0.522   2.506   5.411  0.9155 -1.2918 -0.4354
 5637SOL     OW28369   4.230   4.504   2.766 -0.1555  0.5574 -0.2651
 5637SOL    HW128370   4.276   4.533   2.845 -0.1964  0.5527 -0.2393
 5637SOL    HW228371   4.169   4.435   2.794  0.4224 -0.2084 -0.8803
 5638SOL     OW28372   0.589   2.659   7.475 -0.2313 -0.2255  0.6698
 5638SOL    HW128373   0.583   2.638   7.382  0.9140  0.4381  0.4462
 5638SOL    HW228374   0.650   2.732   7.477  0.6489 -0.9681  0.6163
 5639SOL     OW28375   1.839   2.472   7.885  0.6635 -0.7412  0.2643
 5639SOL    HW128376   1.755   2.430   7.903  0.3987 -0.8696 -1.2710
 5639SOL    HW228377   1.853   2.442   7.795 -1.3425  1.8866 -0.9046
 5640SOL     OW28378   2.651   3.145  11.433 -0.3049 -0.2574 -0.0512
 5640SOL    HW128379   2.559   3.145  11.407 -0.4877  3.4337  0.6151
 5640SOL    HW228380   2.696   3.183  11.357  0.7826 -0.6638  0.3799
 5641SOL     OW28381   1.925   2.417   5.633  0.2092 -0.1305 -0.1433
 5641SOL    HW128382   1.861   2.345   5.631  1.4711 -1.3545  4.0142
 5641SOL    HW228383   1.865   2.490   5.650 -0.2417 -0.5318  0.0067
 5642SOL     OW28384   3.294   0.686   3.250 -0.0088 -0.2918 -0.3294
 5642SOL    HW128385   3.332   0.742   3.182 -3.0792 -2.1186 -3.5248
 5642SOL    HW228386   3.305   0.597   3.217  1.6163 -0.1763 -0.1224
 5643SOL     OW28387   3.224   0.555   1.902 -0.2183  0.1620  0.0175
 5643SOL    HW128388   3.174   0.531   1.980  0.7723 -2.0537 -0.0368
 5643SOL    HW228389   3.157   0.588   1.842 -1.8719 -0.0191  1.7810
 5644SOL     OW28390   2.364   1.540   4.960  0.1010  0.0117  0.0736
 5644SOL    HW128391   2.328   1.552   5.048  0.8877 -1.1486  0.5466
 5644SOL    HW228392   2.283   1.548   4.908 -0.0288  0.4958  0.3416
 5645SOL     OW28393   2.244   1.134   4.096  0.0301  0.5001 -0.2204
 5645SOL    HW128394   2.305   1.183   4.152  1.1855  0.4005 -1.3893
 5645SOL    HW228395   2.298   1.057   4.077 -0.8311 -0.5124  1.4775
 5646SOL     OW28396   0.367   2.988   2.820  0.0774  0.1878 -0.1400
 5646SOL    HW128397   0.448   3.038   2.822 -0.2529  0.6625  1.9030
 5646SOL    HW228398   0.373   2.958   2.729 -0.9384 -1.1408  0.2249
 5647SOL     OW28399   3.165   1.211  12.823  0.4767  0.2184  0.5849
 5647SOL    HW128400   3.229   1.242  12.887  0.9692  0.6453 -0.1033
 5647SOL    HW228401   3.220   1.155  12.769  0.7549  1.3240 -0.2898
 5648SOL     OW28402   0.675   3.882  17.095  0.4520 -0.0143  0.0938
 5648SOL    HW128403   0.642   3.798  17.128 -1.0197  0.9675  1.1784
 5648SOL    HW228404   0.727   3.850  17.022  1.1526  0.0759  0.5524
 5649SOL     OW28405   2.368   3.041   5.785  0.1431 -0.1462 -0.6671
 5649SOL    HW128406   2.311   3.066   5.857  1.0357 -1.5993  0.5361
 5649SOL    HW228407   2.302   3.033   5.716  0.3215 -1.4699 -0.6828
 5650SOL     OW28408   3.502   2.938   2.142  0.6811  0.1170 -0.1928
 5650SOL    HW128409   3.486   3.009   2.204 -0.2411 -0.1363 -0.1364
 5650SOL    HW228410   3.518   2.983   2.059  0.3123  1.5924  0.5386
 5651SOL     OW28411   0.540   2.511   9.937  0.4372  0.6508 -0.1595
 5651SOL    HW128412   0.474   2.574   9.907 -0.1039 -0.4535 -1.3053
 5651SOL    HW228413   0.504   2.477  10.019  0.1054 -0.4524 -0.7561
 5652SOL     OW28414   0.347   0.692   5.874 -0.2935  0.0153  0.1185
 5652SOL    HW128415   0.336   0.723   5.964 -1.2495 -2.2528  0.8113
 5652SOL    HW228416   0.366   0.772   5.826 -0.1303 -0.6417 -0.9120
 5653SOL     OW28417   0.155   2.488   7.642 -0.3929  0.0340 -0.1403
 5653SOL    HW128418   0.069   2.490   7.684  0.5357 -0.1441  1.7523
 5653SOL    HW228419   0.188   2.422   7.703  0.3870  1.8329  1.3857
 5654SOL     OW28420   1.173   0.474  15.131  0.0097  0.2935  0.3473
 5654SOL    HW128421   1.126   0.547  15.092  2.4836  1.4640 -0.4230
 5654SOL    HW228422   1.108   0.403  15.137  3.3508 -2.7667  0.2892
 5655SOL     OW28423   4.199   4.073  14.105 -0.0204  0.1740 -0.1688
 5655SOL    HW128424   4.247   4.037  14.030 -3.0945 -0.4793 -1.8208
 5655SOL    HW228425   4.114   4.030  14.104  0.3060 -0.4335 -2.2805
 5656SOL     OW28426   0.902   2.499  17.035 -0.2160  0.3563 -0.1719
 5656SOL    HW128427   0.851   2.461  16.964  1.2380 -0.2424 -0.8988
 5656SOL    HW228428   0.845   2.488  17.111  1.4696  1.3940  1.2458
 5657SOL     OW28429   1.764   2.639  11.540  0.5582 -0.2654 -0.6414
 5657SOL    HW128430   1.713   2.656  11.619 -0.2966 -2.3068 -0.7488
 5657SOL    HW228431   1.782   2.729  11.513  1.5210 -0.3235 -0.1669
 5658SOL     OW28432   3.197   4.230   9.004 -0.5535  0.0784  0.2137
 5658SOL    HW128433   3.204   4.323   9.029  0.0211  0.3721 -1.0429
 5658SOL    HW228434   3.251   4.226   8.925 -0.5613  1.7630  0.1180
 5659SOL     OW28435   0.684   3.840   5.991 -0.3139 -0.0838 -0.3566
 5659SOL    HW128436   0.676   3.935   5.987 -2.5336 -0.2533  0.6221
 5659SOL    HW228437   0.615   3.808   5.933 -0.8270  3.1401 -1.5354
 5660SOL     OW28438   3.681   0.703   9.735  0.5557 -0.2909 -0.4799
 5660SOL    HW128439   3.768   0.680   9.702  0.2288  0.5780 -1.9307
 5660SOL    HW228440   3.629   0.631   9.700 -1.8033  1.6453 -0.9027
 5661SOL     OW28441   1.134   4.481  12.021 -0.3057 -0.7605  0.1387
 5661SOL    HW128442   1.161   4.395  11.990  2.1078  0.2375 -0.5498
 5661SOL    HW228443   1.175   4.477  12.107  1.1493 -1.0225 -0.5678
 5662SOL     OW28444   0.626   0.253  15.139  0.6114 -0.0397 -0.7759
 5662SOL    HW128445   0.671   0.304  15.207 -0.1545  0.3753 -0.5846
 5662SOL    HW228446   0.682   0.175  15.133  0.5764 -0.0661 -0.7537
 5663SOL     OW28447   4.411   3.485   0.660  0.2801 -0.0913 -0.1001
 5663SOL    HW128448   4.415   3.526   0.573 -0.4590  0.1829 -0.0056
 5663SOL    HW228449   4.418   3.393   0.635  1.5779 -0.4494  1.5043
 5664SOL     OW28450   0.576   2.748   1.988  1.2120  0.3141  0.1538
 5664SOL    HW128451   0.580   2.722   2.080  0.3478  0.7601  0.3150
 5664SOL    HW228452   0.539   2.667   1.952  0.2126  0.4262  0.9177
 5665SOL     OW28453   1.334   2.977   6.940 -0.2664  0.6608  0.3328
 5665SOL    HW128454   1.406   3.029   6.976  0.7762 -1.4544  1.3267
 5665SOL    HW228455   1.270   3.037   6.902  0.1546 -1.0734 -3.1445
 5666SOL     OW28456   3.860   1.993   3.703  0.1309  0.2916  0.5365
 5666SOL    HW128457   3.803   1.916   3.696  1.5458 -0.5541 -1.8991
 5666SOL    HW228458   3.790   2.050   3.671 -0.7503 -0.6794  0.7246
 5667SOL     OW28459   4.276   0.414   6.922 -0.8564  0.3579 -0.0770
 5667SOL    HW128460   4.347   0.351   6.905 -1.2655 -0.3813  0.9428
 5667SOL    HW228461   4.297   0.484   6.861 -0.2778  0.6753  0.4827
 5668SOL     OW28462   0.379   2.905   0.244  0.2930  0.6898  0.3895
 5668SOL    HW128463   0.379   2.975   0.180  2.5488  0.4716  0.1644
 5668SOL    HW228464   0.439   2.944   0.307  0.4245 -0.3237  0.9042
 5669SOL     OW28465   0.713   1.483  13.809  0.4810  0.4362  0.2038
 5669SOL    HW128466   0.751   1.568  13.832 -0.2875  1.2690 -1.6824
 5669SOL    HW228467   0.714   1.497  13.715  2.2431 -1.2475 -0.0286
 5670SOL     OW28468   1.659   3.633  12.245  0.3473  0.0541 -0.4681
 5670SOL    HW128469   1.568   3.614  12.266  0.3785  0.0746 -0.3138
 5670SOL    HW228470   1.707   3.565  12.291 -4.1299 -2.8783 -0.1247
 5671SOL     OW28471   4.230   3.050   6.327  0.4655 -0.0377  0.0479
 5671SOL    HW128472   4.276   3.130   6.351 -0.8353  1.2673 -1.7788
 5671SOL    HW228473   4.240   2.995   6.404 -0.2062  0.2719  0.3523
 5672SOL     OW28474   4.454   3.939   0.762 -0.8678  0.0576 -0.5611
 5672SOL    HW128475   4.452   3.955   0.667  0.0475 -0.0084 -0.5876
 5672SOL    HW228476   4.456   4.032   0.787 -0.4135 -0.4503  1.2616
 5673SOL     OW28477   1.790   2.986   7.928 -0.2011 -0.2453 -0.7518
 5673SOL    HW128478   1.806   2.959   8.018  1.5210  1.3554 -0.5943
 5673SOL    HW228479   1.797   3.081   7.937  0.7903 -0.3437 -0.5754
 5674SOL     OW28480   2.525   0.348   2.051  0.7520 -0.2582  0.5422
 5674SOL    HW128481   2.605   0.366   2.000  0.0094 -0.0248 -0.5341
 5674SOL    HW228482   2.549   0.271   2.101 -2.1907 -0.5956  1.4175
 5675SOL     OW28483   3.769   0.481   6.406  0.5501 -0.0347  0.1126
 5675SOL    HW128484   3.686   0.504   6.447  0.3208  0.9846 -0.9167
 5675SOL    HW228485   3.731   0.427   6.337 -0.5012 -2.7917  2.8416
 5676SOL     OW28486   4.630   2.321   0.058 -0.3260 -0.3354 -0.6139
 5676SOL    HW128487   4.648   2.413   0.078  0.2089 -0.4190 -0.7092
 5676SOL    HW228488   4.618   2.285   0.146  1.4395 -1.8114 -0.9728
 5677SOL     OW28489   0.977   2.826   4.110  0.3553  0.1753 -0.1621
 5677SOL    HW128490   0.948   2.788   4.027  0.5001  0.9121 -0.5555
 5677SOL    HW228491   1.069   2.843   4.089  0.6307 -0.9533  0.1495
 5678SOL     OW28492   0.126   4.014   1.157  0.0005 -0.5758 -0.8007
 5678SOL    HW128493   0.061   4.017   1.226  1.3703  0.1627  0.4615
 5678SOL    HW228494   0.148   3.921   1.157 -1.4388 -0.9090  1.6985
 5679SOL     OW28495   2.541   1.614   3.452 -0.2471 -0.8717  0.3656
 5679SOL    HW128496   2.558   1.690   3.397 -1.6426 -0.4080  0.5997
 5679SOL    HW228497   2.469   1.642   3.507 -2.8453 -0.7921 -3.0804
 5680SOL     OW28498   3.626   2.936   7.513 -0.2841 -0.2504  0.1012
 5680SOL    HW128499   3.562   2.885   7.564  0.7975  0.6539  2.3664
 5680SOL    HW228500   3.596   2.927   7.423  0.3880  0.0363 -0.1488
 5681SOL     OW28501   2.262   0.081  11.615 -0.2203 -0.4272  0.2777
 5681SOL    HW128502   2.313   0.161  11.629  0.5191 -0.8354 -0.0986
 5681SOL    HW228503   2.277   0.043  11.701  0.2163 -0.3197  0.2478
 5682SOL     OW28504   1.489   4.255  14.111  0.0255  0.1282 -0.3042
 5682SOL    HW128505   1.566   4.310  14.126 -1.3081  1.2503  2.3411
 5682SOL    HW228506   1.471   4.288  14.023  0.4847  0.3917 -0.2981
 5683SOL     OW28507   3.021   3.111   7.883 -0.5273  0.0834 -0.3022
 5683SOL    HW128508   2.949   3.062   7.923 -0.1775  0.4451  0.7899
 5683SOL    HW228509   2.985   3.199   7.873 -2.6767 -1.0654 -2.6921
 5684SOL     OW28510   2.533   0.524  16.656 -0.3907  0.4934 -0.0201
 5684SOL    HW128511   2.604   0.469  16.621 -1.5551 -1.8099  1.2188
 5684SOL    HW228512   2.499   0.563  16.576  1.7637  0.7383 -0.8136
 5685SOL     OW28513   3.561   0.204   1.331  0.4638  0.3495  0.1605
 5685SOL    HW128514   3.537   0.274   1.270 -0.7332  0.2519  0.5138
 5685SOL    HW228515   3.603   0.137   1.277 -0.3244 -1.2203  1.4933
 5686SOL     OW28516   3.164   3.290  12.462  0.0753 -0.3645 -0.5417
 5686SOL    HW128517   3.085   3.343  12.474  0.7003  0.6211 -0.7764
 5686SOL    HW228518   3.224   3.345  12.512  0.1076  0.4292 -1.4446
 5687SOL     OW28519   0.088   2.024   5.006  0.3055  0.0415  0.2307
 5687SOL    HW128520   0.111   2.063   5.090 -1.2713 -0.5647  0.9505
 5687SOL    HW228521   0.025   1.953   5.019  1.6195 -1.0522  0.6629
 5688SOL     OW28522   0.620   4.097  16.753 -0.2596 -1.1490 -0.3024
 5688SOL    HW128523   0.677   4.056  16.688 -2.5773 -4.0249 -0.5426
 5688SOL    HW228524   0.546   4.037  16.746 -2.3242  1.4353 -0.7108
 5689SOL     OW28525   3.383   2.132   6.162 -0.3268 -0.1600 -0.4869
 5689SOL    HW128526   3.297   2.133   6.121 -0.8488  0.2013  0.6148
 5689SOL    HW228527   3.363   2.141   6.256 -0.7481 -1.8714 -0.4232
 5690SOL     OW28528   3.974   1.779   4.917 -0.2834 -0.7677 -0.6290
 5690SOL    HW128529   4.025   1.851   4.880 -2.1875  0.5404 -0.6827
 5690SOL    HW228530   3.898   1.782   4.859 -0.8039  0.7596  0.1421
 5691SOL     OW28531   4.266   3.052  16.408  0.1346  0.5554  0.2183
 5691SOL    HW128532   4.295   3.103  16.483  0.6962  2.1869 -1.1193
 5691SOL    HW228533   4.258   2.969  16.456  0.0889  0.8447  0.7102
 5692SOL     OW28534   3.012   2.485  17.657 -0.2303 -0.3154  0.0512
 5692SOL    HW128535   3.057   2.570  17.655  1.8618 -1.3964  0.9117
 5692SOL    HW228536   2.927   2.527  17.673  1.3045  1.8634  2.4389
 5693SOL     OW28537   2.595   0.335  15.914  0.2301 -0.1961 -0.6177
 5693SOL    HW128538   2.645   0.283  15.977  0.0022  0.9409  0.5079
 5693SOL    HW228539   2.522   0.362  15.969  2.9821  0.0695  2.9326
 5694SOL     OW28540   3.570   0.012   3.931  0.2820 -0.0571  0.1405
 5694SOL    HW128541   3.539   0.005   4.021  0.9161  0.1803  0.3787
 5694SOL    HW228542   3.494   0.026   3.876  0.0418 -2.5604 -0.1646
 5695SOL     OW28543   0.694   3.903   0.085 -0.6405  0.1312 -0.2933
 5695SOL    HW128544   0.677   3.870   0.173 -1.1233  0.1553 -0.3765
 5695SOL    HW228545   0.655   3.990   0.095  1.6964  1.4177 -2.1097
 5696SOL     OW28546   4.171   4.529   8.029 -0.0439  0.3099 -0.1356
 5696SOL    HW128547   4.244   4.559   7.974 -0.8596 -0.6807 -1.7512
 5696SOL    HW228548   4.206   4.559   8.113  0.1575 -2.1105  0.6541
 5697SOL     OW28549   0.975   3.627   7.701 -0.4311 -0.0279  0.1606
 5697SOL    HW128550   0.982   3.658   7.611  1.5287  0.6773  0.5470
 5697SOL    HW228551   1.065   3.636   7.732 -0.8316 -0.9418  1.5969
 5698SOL     OW28552   2.293   3.354   2.154 -0.4636  0.4063 -0.6566
 5698SOL    HW128553   2.231   3.313   2.093 -2.1479  3.8799 -1.2841
 5698SOL    HW228554   2.320   3.283   2.212 -0.9148  2.5813  2.2353
 5699SOL     OW28555   4.530   1.030   7.483 -0.6901  0.0456 -0.0143
 5699SOL    HW128556   4.439   1.027   7.453 -0.1000  0.1882 -1.8201
 5699SOL    HW228557   4.554   0.937   7.480 -0.4661  0.1688 -2.0087
 5700SOL     OW28558   1.129   2.970   1.117 -0.1677  0.1495 -0.4563
 5700SOL    HW128559   1.088   3.033   1.058  0.4702  1.2650  0.2814
 5700SOL    HW228560   1.186   2.918   1.060 -0.3085  0.8715 -1.2536
 5701SOL     OW28561   3.249   2.098  12.711 -0.2291 -0.1900  1.0001
 5701SOL    HW128562   3.248   2.056  12.625 -0.6640  1.9386 -0.0315
 5701SOL    HW228563   3.171   2.153  12.704  0.8410  1.0394 -1.2076
 5702SOL     OW28564   1.263   1.354   4.309 -0.7219 -0.0667 -0.4403
 5702SOL    HW128565   1.292   1.445   4.318  2.3154 -1.2323  1.2649
 5702SOL    HW228566   1.270   1.350   4.214  3.8965  0.3756 -0.1292
 5703SOL     OW28567   0.912   1.266  15.191 -0.4646 -0.4847 -0.3510
 5703SOL    HW128568   0.910   1.237  15.100 -4.8608 -0.7832 -0.1579
 5703SOL    HW228569   0.895   1.189  15.246  0.8008 -0.8370 -0.4696
 5704SOL     OW28570   3.206   1.376   0.165  0.5040  0.0873  0.0800
 5704SOL    HW128571   3.216   1.454   0.219 -0.6973  1.4212 -1.6312
 5704SOL    HW228572   3.263   1.389   0.089  0.0299  2.8346  0.2016
 5705SOL     OW28573   2.187   0.328   3.162 -0.4990 -0.5497  0.0286
 5705SOL    HW128574   2.241   0.398   3.199 -1.5196 -0.8733  2.0826
 5705SOL    HW228575   2.238   0.311   3.082 -0.4141 -0.8548  0.1453
 5706SOL     OW28576   3.382   4.488   7.648 -0.0988  0.4800 -0.4767
 5706SOL    HW128577   3.450   4.509   7.713  1.4474 -0.2851 -1.8606
 5706SOL    HW228578   3.323   4.563   7.656 -3.3579 -1.9456 -1.9449
 5707SOL     OW28579   4.362   3.933   6.335 -0.2160 -0.4370 -0.3296
 5707SOL    HW128580   4.336   3.976   6.416  1.9353 -2.7035  1.5689
 5707SOL    HW228581   4.288   3.964   6.284 -0.9094  0.9138  1.5300
 5708SOL     OW28582   0.447   1.262  11.853  0.3626 -0.2878 -0.5563
 5708SOL    HW128583   0.530   1.216  11.846 -1.0481 -2.7754 -0.9430
 5708SOL    HW228584   0.391   1.186  11.870 -0.2052  0.6610  1.7389
 5709SOL     OW28585   1.756   4.354  17.262 -0.0971  0.3819  0.0927
 5709SOL    HW128586   1.826   4.380  17.202 -1.9906  2.3318 -1.2810
 5709SOL    HW228587   1.676   4.392  17.224 -1.4068 -2.4851  0.0168
 5710SOL     OW28588   1.701   4.098   8.465  0.0143  0.0354 -0.0312
 5710SOL    HW128589   1.611   4.105   8.434  0.2572  0.7947 -0.5652
 5710SOL    HW228590   1.702   4.043   8.543  2.1622 -2.1425 -1.5699
 5711SOL     OW28591   2.136   2.448   7.375  0.4591  0.4218  0.2983
 5711SOL    HW128592   2.190   2.443   7.454  1.9960  0.4730 -0.7572
 5711SOL    HW228593   2.054   2.412   7.409  0.7100 -1.2639 -0.8879
 5712SOL     OW28594   4.444   2.937  11.855 -0.1349  0.5193 -0.0296
 5712SOL    HW128595   4.423   2.958  11.946 -2.4751  2.3681 -1.0083
 5712SOL    HW228596   4.356   2.927  11.821  0.7929 -1.7720 -1.7686
 5713SOL     OW28597   0.810   2.837   7.398 -0.3251 -0.0548 -0.0704
 5713SOL    HW128598   0.816   2.863   7.490  2.6059 -4.0307  0.8411
 5713SOL    HW228599   0.901   2.824   7.372 -0.4094  1.3732 -1.0575
 5714SOL     OW28600   2.860   0.893   3.733  0.4205 -0.0369  0.3449
 5714SOL    HW128601   2.952   0.869   3.726 -0.1296 -2.1508  0.2831
 5714SOL    HW228602   2.864   0.988   3.722 -1.2889 -0.2854 -2.4937
 5715SOL     OW28603   3.064   1.656  11.806 -0.6385 -0.1325  0.4752
 5715SOL    HW128604   3.153   1.637  11.837 -1.7264 -1.3780  2.8624
 5715SOL    HW228605   3.062   1.608  11.724 -0.3491  0.0882  0.3358
 5716SOL     OW28606   3.333   4.207   6.528  0.3912  0.3286  0.2784
 5716SOL    HW128607   3.414   4.165   6.497  0.3669  0.9798 -0.6696
 5716SOL    HW228608   3.362   4.196   6.618  1.5683  1.8713  0.0935
 5717SOL     OW28609   3.961   3.027   6.299  0.9972  0.1349 -0.5173
 5717SOL    HW128610   3.926   3.082   6.369  1.4011 -0.2765  0.0112
 5717SOL    HW228611   4.053   3.051   6.298  0.5849  1.7790  2.8428
 5718SOL     OW28612   1.262   3.025   4.347 -0.2339  0.0932  0.0651
 5718SOL    HW128613   1.344   2.993   4.384  0.0800  0.0897 -0.6214
 5718SOL    HW228614   1.238   2.953   4.289 -0.2225  1.2111 -1.3450
 5719SOL     OW28615   4.374   3.782   3.223 -0.3671 -0.4826  0.1118
 5719SOL    HW128616   4.453   3.729   3.219  0.1938  0.6009 -2.8525
 5719SOL    HW228617   4.307   3.713   3.225 -0.4297 -0.5084 -2.8578
 5720SOL     OW28618   0.454   3.141  13.503 -0.2713  0.3640  0.4457
 5720SOL    HW128619   0.471   3.079  13.432 -0.1763  0.6021  0.2630
 5720SOL    HW228620   0.359   3.153  13.496  0.0472  2.5840  0.2041
 5721SOL     OW28621   4.389   1.426  12.301 -0.5047  0.0349  0.1580
 5721SOL    HW128622   4.397   1.344  12.253 -1.1379 -0.1330  0.3329
 5721SOL    HW228623   4.472   1.434  12.347 -0.8646  0.6144  0.7050
 5722SOL     OW28624   0.928   4.560   5.166  0.1457  0.2683  0.2236
 5722SOL    HW128625   0.875   4.484   5.141  0.6303 -0.2220  0.7126
 5722SOL    HW228626   0.892   4.565   5.255 -1.4992 -0.5943 -0.3934
 5723SOL     OW28627   1.979   0.577   3.170 -0.0731  0.1649  0.4913
 5723SOL    HW128628   1.912   0.558   3.236 -0.6192 -0.9830 -0.4067
 5723SOL    HW228629   1.925   0.644   3.128  1.3043 -0.1876 -1.8125
 5724SOL     OW28630   4.425   2.740  11.447  0.2174 -0.1413  0.0888
 5724SOL    HW128631   4.374   2.810  11.488 -0.7957 -0.2719 -0.9730
 5724SOL    HW228632   4.445   2.691  11.527 -0.6340  0.7417  0.8365
 5725SOL     OW28633   1.604   0.381  11.358 -0.0831  0.1907  0.0166
 5725SOL    HW128634   1.694   0.370  11.389 -0.8200 -0.8670  1.7375
 5725SOL    HW228635   1.553   0.367  11.437 -2.3372  0.0681 -1.4623
 5726SOL     OW28636   0.114   0.388  16.991  0.0887  0.0802 -0.0591
 5726SOL    HW128637   0.161   0.317  16.947  0.2310  1.8239 -2.6795
 5726SOL    HW228638   0.169   0.461  16.963  0.0006 -0.7978 -2.5221
 5727SOL     OW28639   2.801   2.788   2.255 -0.0744 -0.0199  0.1716
 5727SOL    HW128640   2.722   2.780   2.308 -1.8739  2.3134 -2.1923
 5727SOL    HW228641   2.766   2.780   2.166  1.4741 -1.8500 -0.2860
 5728SOL     OW28642   1.425   1.658   6.735 -0.0490  0.0013 -0.3600
 5728SOL    HW128643   1.451   1.748   6.714  2.0164 -0.1803  1.3481
 5728SOL    HW228644   1.481   1.595   6.690 -0.6672 -1.1768  0.5355
 5729SOL     OW28645   0.284   2.835  13.201 -0.4704  0.1710 -0.2809
 5729SOL    HW128646   0.285   2.921  13.158  0.2191 -0.0242 -0.6581
 5729SOL    HW228647   0.204   2.800  13.164  0.6617 -2.3136 -0.3345
 5730SOL     OW28648   2.145   0.252   2.370  0.5083 -0.9116  0.6360
 5730SOL    HW128649   2.148   0.245   2.275 -1.7050  0.5105  0.4803
 5730SOL    HW228650   2.235   0.231   2.397  0.1209 -0.5102  2.2666
 5731SOL     OW28651   1.354   2.345   4.432 -0.1331 -0.1626  0.6565
 5731SOL    HW128652   1.427   2.357   4.492  0.5858 -0.3492 -0.1757
 5731SOL    HW228653   1.375   2.262   4.389 -0.8043 -0.4074  0.8039
 5732SOL     OW28654   4.595   2.060   2.928 -0.3470  0.1293 -0.1009
 5732SOL    HW128655   4.583   2.003   3.004  1.7783 -1.9791 -1.3620
 5732SOL    HW228656   4.618   2.144   2.966  0.4359 -0.6102  1.0690
 5733SOL     OW28657   4.415   1.517   3.167  0.2892 -0.2509  0.0454
 5733SOL    HW128658   4.451   1.476   3.245 -0.2176  0.2230  0.5299
 5733SOL    HW228659   4.457   1.476   3.091 -0.2838 -1.0999  0.1902
 5734SOL     OW28660   2.497   1.314  12.996  0.2075  0.1470 -0.0952
 5734SOL    HW128661   2.440   1.310  12.919  0.4638  0.0522 -0.2814
 5734SOL    HW228662   2.495   1.225  13.031  0.5605 -0.6856 -2.1959
 5735SOL     OW28663   4.457   1.659   6.355  0.2334 -0.0676  0.2138
 5735SOL    HW128664   4.412   1.635   6.437 -0.5947  2.6451  0.5427
 5735SOL    HW228665   4.499   1.740   6.382  3.0765 -0.6001 -2.6856
 5736SOL     OW28666   4.197   4.300   6.857 -0.0294  0.4147  0.2536
 5736SOL    HW128667   4.125   4.354   6.891  0.4353  1.4484 -0.4047
 5736SOL    HW228668   4.159   4.212   6.854 -0.0747  0.4964 -1.2512
 5737SOL     OW28669   2.976   1.930   7.913 -0.4391  0.0749 -0.0614
 5737SOL    HW128670   2.908   1.939   7.980  1.0076  1.3878  1.2167
 5737SOL    HW228671   2.935   1.870   7.851 -0.9526 -0.1781  0.5205
 5738SOL     OW28672   3.597   2.458   3.487  0.2397  0.4648  0.0249
 5738SOL    HW128673   3.563   2.536   3.532 -2.8181 -0.3527 -0.9163
 5738SOL    HW228674   3.537   2.437   3.416  1.5313 -1.3582 -0.5379
 5739SOL     OW28675   2.004   1.485  11.624  0.3492 -0.4483  0.0102
 5739SOL    HW128676   2.010   1.568  11.578  0.6374 -0.9369 -0.8479
 5739SOL    HW228677   2.086   1.494  11.673  1.5294 -1.9061 -1.6745
 5740SOL     OW28678   3.798   2.084  14.140  0.1520  0.1716 -0.2628
 5740SOL    HW128679   3.837   2.144  14.077 -4.0983  1.7692 -1.4146
 5740SOL    HW228680   3.753   2.150  14.193 -0.6816 -0.1608 -0.5415
 5741SOL     OW28681   4.130   2.645  16.448  0.0513  0.5931 -0.2972
 5741SOL    HW128682   4.127   2.559  16.489 -1.1739  0.6788 -0.2150
 5741SOL    HW228683   4.124   2.627  16.354 -2.4442 -1.3207  0.2506
 5742SOL     OW28684   3.091   2.168   7.754  0.1597  0.6357 -0.0666
 5742SOL    HW128685   3.038   2.135   7.681 -0.3154  1.6349 -0.1745
 5742SOL    HW228686   3.038   2.130   7.825 -0.8428 -0.6044 -1.4735
 5743SOL     OW28687   3.509   2.842   6.386 -0.4074 -0.4829 -0.2786
 5743SOL    HW128688   3.595   2.799   6.388 -0.4989 -0.6522  0.0221
 5743SOL    HW228689   3.468   2.803   6.309 -0.2351  0.4479 -0.8339
 5744SOL     OW28690   2.492   1.007   5.936 -0.2027 -0.3548 -0.0890
 5744SOL    HW128691   2.571   1.056   5.957 -0.2260 -0.2469 -0.2522
 5744SOL    HW228692   2.519   0.916   5.952  0.5560 -0.3322 -1.2359
 5745SOL     OW28693   3.292   3.187  11.178 -0.0161 -0.0359 -0.1891
 5745SOL    HW128694   3.220   3.248  11.193  0.8126  1.0806 -0.7477
 5745SOL    HW228695   3.322   3.213  11.091  0.0434 -1.6190 -0.6502
 5746SOL     OW28696   3.276   3.341   9.095 -0.7319  0.4101 -0.2949
 5746SOL    HW128697   3.349   3.339   9.032  0.6214 -0.6752  1.2886
 5746SOL    HW228698   3.297   3.411   9.157 -1.6910  1.0878 -0.7424
 5747SOL     OW28699   2.862   2.675   0.339 -0.0242 -0.5552 -0.2302
 5747SOL    HW128700   2.856   2.649   0.247  0.6598 -1.5206 -0.0103
 5747SOL    HW228701   2.784   2.730   0.338 -0.5130 -1.2394  0.3299
 5748SOL     OW28702   1.839   3.229   8.901 -0.3177 -0.2026 -0.6474
 5748SOL    HW128703   1.865   3.268   8.985  0.9056 -1.5782 -0.3835
 5748SOL    HW228704   1.793   3.307   8.872  1.5369  1.2346  0.2372
 5749SOL     OW28705   3.907   2.356   2.916  0.1935 -0.2363 -0.6537
 5749SOL    HW128706   3.957   2.428   2.954  0.5320 -0.7671 -0.0785
 5749SOL    HW228707   3.944   2.286   2.971 -0.4084 -1.8602 -2.3072
 5750SOL     OW28708   1.758   3.952   6.457 -0.4128  0.0173  0.1518
 5750SOL    HW128709   1.768   3.999   6.540 -1.8496  1.5862 -0.5562
 5750SOL    HW228710   1.708   3.876   6.486  0.8520 -0.9497 -0.2165
 5751SOL     OW28711   2.668   4.301  17.571 -0.7637 -0.4106  0.0998
 5751SOL    HW128712   2.754   4.327  17.604 -0.9678 -1.4883  1.4931
 5751SOL    HW228713   2.611   4.285  17.646 -0.8013  2.6528  0.7265
 5752SOL     OW28714   4.177   3.832   4.739  0.1192 -0.0585  0.2163
 5752SOL    HW128715   4.171   3.927   4.731  2.9059  0.1215  0.1563
 5752SOL    HW228716   4.123   3.812   4.815 -1.7705  0.9859 -0.8514
 5753SOL     OW28717   3.248   3.594   4.227  0.2206 -0.3402  0.1202
 5753SOL    HW128718   3.260   3.540   4.149  2.0086 -0.2515  0.3333
 5753SOL    HW228719   3.318   3.659   4.234  0.5428 -0.8231  1.3420
 5754SOL     OW28720   1.939   1.790   8.498  0.0251 -0.0549 -0.3664
 5754SOL    HW128721   1.913   1.879   8.522 -0.1878 -0.3896  0.6399
 5754SOL    HW228722   1.904   1.730   8.564 -0.1530  2.1077  1.5065
 5755SOL     OW28723   2.724   3.851  11.991 -0.0591  0.5199 -0.4117
 5755SOL    HW128724   2.748   3.903  12.067 -2.0041 -0.2975  0.7637
 5755SOL    HW228725   2.753   3.762  12.014 -1.5409 -0.0244 -0.6676
 5756SOL     OW28726   2.006   4.170   7.799 -0.8956  0.0662  0.3268
 5756SOL    HW128727   1.982   4.095   7.853 -1.3591 -1.4817 -2.0219
 5756SOL    HW228728   1.997   4.245   7.858 -3.1070 -0.1094  0.2337
 5757SOL     OW28729   4.127   4.508  13.008 -0.3521 -0.7735 -0.3498
 5757SOL    HW128730   4.143   4.429  13.058  0.0695  0.3053  1.2294
 5757SOL    HW228731   4.187   4.570  13.050 -1.0554 -0.2753 -0.0793
 5758SOL     OW28732   3.051   0.227  17.644  0.2817  0.8253  0.1577
 5758SOL    HW128733   2.977   0.283  17.622  0.1749  0.6952  0.1858
 5758SOL    HW228734   3.033   0.203   0.050 -3.1341  0.4503 -0.6132
 5759SOL     OW28735   4.239   2.986  14.634 -0.2486  0.4056  0.1368
 5759SOL    HW128736   4.210   3.068  14.595 -1.8823  0.2295  0.9698
 5759SOL    HW228737   4.163   2.930  14.648 -2.2014  3.1938  0.5326
 5760SOL     OW28738   0.680   3.898  14.893 -0.5521 -0.1373 -0.2508
 5760SOL    HW128739   0.609   3.963  14.894 -1.2574 -0.9075  1.1892
 5760SOL    HW228740   0.753   3.956  14.915  0.8247 -1.1278 -2.2166
 5761SOL     OW28741   1.461   2.454  10.690  0.1628  0.3800  0.2800
 5761SOL    HW128742   1.434   2.363  10.674 -2.8169  1.6124 -1.5846
 5761SOL    HW228743   1.374   2.493  10.696  0.4792  1.4781 -2.4708
 5762SOL     OW28744   4.273   4.529   1.308  0.0180  0.7827 -0.6544
 5762SOL    HW128745   4.230   4.503   1.227 -0.5555 -1.6255  0.4140
 5762SOL    HW228746   4.206   4.595   1.324 -2.1539 -1.5275 -0.2895
 5763SOL     OW28747   2.787   3.025   9.145  0.9543  0.3845 -0.1848
 5763SOL    HW128748   2.837   3.097   9.107  0.2836  0.1260 -1.5416
 5763SOL    HW228749   2.764   3.068   9.228 -2.0517  0.1780 -0.9088
 5764SOL     OW28750   3.604   3.651  11.302 -0.0337  0.0527  0.2089
 5764SOL    HW128751   3.622   3.571  11.352  1.7620 -0.4289 -1.1921
 5764SOL    HW228752   3.509   3.655  11.309  0.0125  0.3925  0.6434
 5765SOL     OW28753   3.223   4.673   5.604 -0.1791 -0.6290  0.1362
 5765SOL    HW128754   3.300   4.649   5.656 -0.6761 -0.5628  0.8872
 5765SOL    HW228755   3.144   4.668   5.657 -0.8352  2.1806 -0.5571
 5766SOL     OW28756   0.635   3.992   1.348  0.3979 -1.0285  0.2896
 5766SOL    HW128757   0.639   4.010   1.254  3.4685  0.7846  0.7589
 5766SOL    HW228758   0.552   4.024   1.383  1.8340  1.1179  1.7556
 5767SOL     OW28759   1.063   0.253   6.584 -0.2214  0.0472 -0.3404
 5767SOL    HW128760   1.113   0.175   6.557 -2.0672 -1.4835  0.6225
 5767SOL    HW228761   0.978   0.210   6.573  1.1865 -2.5718 -1.0254
 5768SOL     OW28762   4.703   0.025   3.434 -0.4314 -0.0587 -0.6625
 5768SOL    HW128763   0.056   4.686   3.439 -1.9156 -1.7358  1.3162
 5768SOL    HW228764   4.687   0.028   3.528 -1.8459 -0.2921 -0.8933
 5769SOL     OW28765   0.478   4.359   1.117  0.2076 -0.3317 -0.1789
 5769SOL    HW128766   0.485   4.418   1.042 -1.5272  0.2120  0.0830
 5769SOL    HW228767   0.546   4.302   1.083  0.1779 -0.2103 -0.4380
 5770SOL     OW28768   3.505   1.158   1.762 -0.7088 -0.5635  0.4332
 5770SOL    HW128769   3.445   1.230   1.781 -1.0900 -0.9065  0.5123
 5770SOL    HW228770   3.587   1.206   1.754 -1.3316  0.6475  1.3671
 5771SOL     OW28771   3.457   0.549   5.606  0.2584 -0.0261 -0.4331
 5771SOL    HW128772   3.427   0.458   5.611 -1.4192  0.6106  1.2680
 5771SOL    HW228773   3.381   0.592   5.645 -0.3060 -1.2611 -0.1668
 5772SOL     OW28774   0.677   0.986  17.539 -0.1540 -0.1890 -0.3375
 5772SOL    HW128775   0.726   0.960  17.617 -0.0733  0.2443 -0.2416
 5772SOL    HW228776   0.611   1.042  17.579 -0.2605  1.2911 -2.5395
 5773SOL     OW28777   0.327   3.887  14.675 -0.0153  0.1304  0.0144
 5773SOL    HW128778   0.233   3.881  14.661 -0.1548  1.1395  0.5539
 5773SOL    HW228779   0.356   3.806  14.718 -1.0976 -0.5365 -0.5116
 5774SOL     OW28780   3.699   2.856   5.278  1.0179  0.0688 -0.3908
 5774SOL    HW128781   3.739   2.936   5.311  0.2073 -0.0526  0.8937
 5774SOL    HW228782   3.630   2.833   5.342  1.7981 -0.0288  0.4187
 5775SOL     OW28783   3.926   2.375  12.810 -0.3587 -0.2612 -0.9016
 5775SOL    HW128784   4.003   2.350  12.861 -0.7329  2.1210  0.8238
 5775SOL    HW228785   3.896   2.286  12.791  0.8963 -0.1234 -3.5755
 5776SOL     OW28786   0.468   4.594   4.294 -0.2621  0.4381 -0.2908
 5776SOL    HW128787   0.386   4.552   4.267  0.3484 -1.7534  1.2865
 5776SOL    HW228788   0.450   4.621   4.384  0.9195 -0.1177  0.1031
 5777SOL     OW28789   1.114   1.023   8.727  0.4908  0.1666 -0.0918
 5777SOL    HW128790   1.151   1.065   8.804  1.0150 -0.4409 -0.0106
 5777SOL    HW228791   1.180   0.955   8.713  0.1636 -0.2183  0.2281
 5778SOL     OW28792   2.089   0.696   7.421 -0.3564  0.2560  0.5588
 5778SOL    HW128793   2.025   0.739   7.479 -1.1902 -0.6013  0.2758
 5778SOL    HW228794   2.103   0.759   7.351 -0.7952  0.9374  1.0856
 5779SOL     OW28795   3.545   2.887   7.259 -0.0335  0.1322  0.0621
 5779SOL    HW128796   3.489   2.809   7.260 -0.4790  0.4463 -0.4236
 5779SOL    HW228797   3.585   2.879   7.172  0.9415 -1.3349  0.6421
 5780SOL     OW28798   3.318   4.229   2.786 -0.1798  0.4495 -0.0234
 5780SOL    HW128799   3.388   4.236   2.721  0.4886 -0.9178  0.5524
 5780SOL    HW228800   3.242   4.259   2.737  0.4379  2.8376  0.4584
 5781SOL     OW28801   0.996   3.756  15.152 -0.3399  0.7355  0.3749
 5781SOL    HW128802   1.050   3.679  15.137  1.0659  1.5325  1.4134
 5781SOL    HW228803   1.050   3.831  15.128  0.1674  0.4877  0.7383
 5782SOL     OW28804   0.871   0.046   6.575  0.0633 -0.3803 -0.3034
 5782SOL    HW128805   0.916   4.683   6.561 -0.4016 -0.2038 -2.8368
 5782SOL    HW228806   0.803   0.021   6.637 -0.0497 -2.0717 -1.0913
 5783SOL     OW28807   3.604   2.260  14.592  0.1300 -0.0253  0.4819
 5783SOL    HW128808   3.663   2.214  14.651  0.0964  1.2739  1.5263
 5783SOL    HW228809   3.541   2.296  14.654 -1.9150  1.9819 -2.7292
 5784SOL     OW28810   0.806   2.625   3.908  0.1685 -0.3977 -1.1902
 5784SOL    HW128811   0.877   2.682   3.879  0.4896  0.5293  1.4357
 5784SOL    HW228812   0.735   2.636   3.843 -0.9803  0.1128  0.1544
 5785SOL     OW28813   4.370   4.426   3.782 -0.2470 -0.0220 -0.4603
 5785SOL    HW128814   4.418   4.476   3.717 -0.9854  0.9857 -0.2288
 5785SOL    HW228815   4.387   4.483   3.857 -0.2621  2.6317 -2.4960
 5786SOL     OW28816   0.800   1.181   9.924  0.3198  0.1260  0.1228
 5786SOL    HW128817   0.788   1.158   9.831  0.6622 -0.0059  0.1084
 5786SOL    HW228818   0.866   1.250   9.917  0.6181 -0.4061 -2.4440
 5787SOL     OW28819   3.471   2.147   5.662  0.3958 -0.5322  0.2583
 5787SOL    HW128820   3.383   2.135   5.627 -0.1269  3.4325  0.2501
 5787SOL    HW228821   3.511   2.214   5.607 -0.5798  0.3056  0.5806
 5788SOL     OW28822   0.550   2.716   4.504 -0.0877 -0.1324  0.1320
 5788SOL    HW128823   0.594   2.713   4.419 -0.1951  0.2405  0.0652
 5788SOL    HW228824   0.594   2.644   4.549  1.6903  1.3279  0.6976
 5789SOL     OW28825   1.878   2.332   7.352 -0.4004 -0.2106 -0.1167
 5789SOL    HW128826   1.910   2.275   7.282 -0.2717 -0.1791 -0.0832
 5789SOL    HW228827   1.815   2.390   7.307 -0.0387 -1.1927 -1.8975
 5790SOL     OW28828   3.943   4.512  10.608  0.6951  0.0258  0.5222
 5790SOL    HW128829   3.869   4.565  10.637  0.3042 -1.0583  1.5009
 5790SOL    HW228830   4.015   4.559  10.649  2.2790 -0.6957 -1.4606
 5791SOL     OW28831   3.706   1.221  12.025 -0.1092  0.8173 -0.1126
 5791SOL    HW128832   3.800   1.235  12.026  0.2487 -1.6681  0.8724
 5791SOL    HW228833   3.702   1.150  11.961 -0.4015  0.1347  0.6728
 5792SOL     OW28834   1.765   2.471   7.611  0.1727  0.0030  0.4307
 5792SOL    HW128835   1.680   2.439   7.639 -0.4608  0.4873 -0.9612
 5792SOL    HW228836   1.783   2.424   7.530  1.0016 -1.4012  1.4178
 5793SOL     OW28837   4.622   2.029   6.934 -0.1210 -0.2130  0.9115
 5793SOL    HW128838   4.618   2.077   6.852 -0.1880 -0.8370  0.5501
 5793SOL    HW228839   4.575   1.949   6.909 -1.1271  0.1195  1.7651
 5794SOL     OW28840   1.878   4.242  11.321 -0.3504  0.4374 -0.5890
 5794SOL    HW128841   1.941   4.261  11.252  1.8214 -1.3167  0.8950
 5794SOL    HW228842   1.837   4.326  11.339 -0.5938  0.5527 -1.7369
 5795SOL     OW28843   1.003   0.760  12.116 -0.2523 -0.1176 -0.2454
 5795SOL    HW128844   1.090   0.777  12.152 -0.7807  0.3434  0.8180
 5795SOL    HW228845   0.955   0.759  12.199 -0.2745 -1.9396 -0.2795
 5796SOL     OW28846   3.232   4.660   6.462 -0.0072 -0.5358  0.0997
 5796SOL    HW128847   3.159   4.624   6.513 -0.1008  0.1060  0.4178
 5796SOL    HW228848   3.219   0.033   6.473  1.6205 -0.4153  0.9512
 5797SOL     OW28849   1.246   0.739   6.533  0.0293 -0.3531 -0.7309
 5797SOL    HW128850   1.338   0.717   6.542  0.1689  1.0111  1.3569
 5797SOL    HW228851   1.201   0.655   6.542  1.7116 -1.0399  1.2795
 5798SOL     OW28852   0.359   3.914  17.112  0.5383  0.3950  0.3289
 5798SOL    HW128853   0.362   3.984  17.047 -1.3439  0.5878  0.4455
 5798SOL    HW228854   0.310   3.849  17.062 -1.0802  1.9656 -0.1492
 5799SOL     OW28855   2.793   2.959   6.841 -0.3976  0.1650 -0.0245
 5799SOL    HW128856   2.768   3.047   6.870 -2.8579 -0.2371 -0.9554
 5799SOL    HW228857   2.785   2.906   6.921  0.2209 -1.5552 -1.1250
 5800SOL     OW28858   3.613   3.911   1.677  0.0749  0.0128  0.0220
 5800SOL    HW128859   3.706   3.888   1.690  0.5973  0.6688 -2.5770
 5800SOL    HW228860   3.605   3.884   1.585 -3.0147 -0.7874  0.5333
 5801SOL     OW28861   0.412   3.717   6.203 -0.0535 -0.2321  0.1439
 5801SOL    HW128862   0.361   3.713   6.284 -0.8889  0.5658 -0.3355
 5801SOL    HW228863   0.469   3.641   6.201 -0.8635 -0.7968 -1.4578
 5802SOL     OW28864   3.647   4.524   8.324  0.5303 -0.0584  0.3990
 5802SOL    HW128865   3.619   4.555   8.238  1.1753  0.1390  0.2569
 5802SOL    HW228866   3.689   4.444   8.295  0.5013  0.3915 -0.8718
 5803SOL     OW28867   3.646   2.070   1.974 -0.0557 -0.8530  0.7056
 5803SOL    HW128868   3.574   2.119   1.934  1.4388  0.7949  0.0304
 5803SOL    HW228869   3.639   1.991   1.920 -0.3648  0.6733 -1.4957
 5804SOL     OW28870   4.288   2.581  11.865  0.2026  0.3498 -0.7340
 5804SOL    HW128871   4.208   2.631  11.878  0.6125  1.0215 -0.8348
 5804SOL    HW228872   4.361   2.637  11.889  1.6106 -0.4445 -3.1645
 5805SOL     OW28873   0.728   1.199   6.683  0.2975 -0.2150 -0.2640
 5805SOL    HW128874   0.766   1.195   6.595  0.1182 -1.6007 -0.2775
 5805SOL    HW228875   0.783   1.269   6.720  1.7228 -0.7250 -1.4081
 5806SOL     OW28876   4.297   3.632   3.973 -0.1441  0.0630 -0.3698
 5806SOL    HW128877   4.272   3.603   4.060 -2.7066 -1.6284 -1.6644
 5806SOL    HW228878   4.229   3.692   3.942 -0.4410 -0.2724 -0.3594
 5807SOL     OW28879   2.292   2.146   1.461  0.1296 -0.3471 -0.4102
 5807SOL    HW128880   2.355   2.203   1.505  0.8355 -1.1524 -0.3858
 5807SOL    HW228881   2.230   2.123   1.531  0.3436  0.3697  0.0177
 5808SOL     OW28882   4.069   3.069   1.994 -0.2136 -0.3531 -0.7759
 5808SOL    HW128883   4.053   3.085   2.087 -3.4398  0.9649 -1.5573
 5808SOL    HW228884   4.001   3.005   1.973 -0.4392 -0.9712  1.8730
 5809SOL     OW28885   1.754   1.307   8.534  0.6927  0.5484  0.2643
 5809SOL    HW128886   1.737   1.242   8.603  0.2832  1.0075  0.5951
 5809SOL    HW228887   1.848   1.291   8.529  0.6514  0.4386 -0.1587
 5810SOL     OW28888   4.405   3.248   7.204  0.2152  0.1223 -0.3581
 5810SOL    HW128889   4.497   3.249   7.228  0.3476 -0.2299 -0.8558
 5810SOL    HW228890   4.374   3.333   7.235 -1.0448  0.6303 -3.0376
 5811SOL     OW28891   3.235   0.292   2.525 -0.4288 -0.3916  0.3272
 5811SOL    HW128892   3.238   0.362   2.591 -1.4415  0.0871 -0.1515
 5811SOL    HW228893   3.329   0.273   2.531 -0.1535  0.3769 -1.6647
 5812SOL     OW28894   4.640   0.773   0.148  0.2768  0.6740 -0.5279
 5812SOL    HW128895   4.698   0.727   0.209 -1.8958  1.5334  2.1908
 5812SOL    HW228896   4.558   0.787   0.196 -0.2893 -3.0303 -0.4663
 5813SOL     OW28897   2.174   1.527   5.473  0.0974  0.6214  0.6365
 5813SOL    HW128898   2.176   1.574   5.557 -1.9040 -0.7895  1.4770
 5813SOL    HW228899   2.127   1.450   5.506 -0.7587  1.1634  0.7044
 5814SOL     OW28900   0.135   0.327  12.209 -0.8972 -0.3497 -0.1294
 5814SOL    HW128901   0.128   0.411  12.253  0.9506 -1.0032  1.4181
 5814SOL    HW228902   0.200   0.289  12.269  0.4012 -1.3312 -2.1528
 5815SOL     OW28903   3.196   3.161  17.583 -0.3195  0.2086  0.5660
 5815SOL    HW128904   3.259   3.129  17.518 -2.3613 -0.7826 -0.9498
 5815SOL    HW228905   3.131   3.202  17.525 -1.2550 -0.3555  1.2014
 5816SOL     OW28906   3.232   1.848   6.936 -0.1041  0.7391 -0.3338
 5816SOL    HW128907   3.145   1.862   6.900 -0.3736  1.0327  0.4292
 5816SOL    HW228908   3.241   1.757   6.906 -2.3992  0.2890  0.3787
 5817SOL     OW28909   4.220   3.646   0.787 -0.0323  0.2653  0.7150
 5817SOL    HW128910   4.192   3.610   0.871 -0.2351 -1.4017 -0.0630
 5817SOL    HW228911   4.269   3.571   0.752 -1.4466 -1.1913  1.8330
 5818SOL     OW28912   0.865   2.079  13.039  0.2112 -0.3901  0.0012
 5818SOL    HW128913   0.843   2.171  13.051  0.6429 -0.0520 -1.7611
 5818SOL    HW228914   0.921   2.078  12.961 -0.4686  1.0105 -0.5069
 5819SOL     OW28915   3.747   0.072  13.670 -0.4180  0.2666  0.1178
 5819SOL    HW128916   3.674   0.013  13.686  2.7388 -3.7982 -0.4875
 5819SOL    HW228917   3.817   0.008  13.680  0.3345  0.9985 -0.4572
 5820SOL     OW28918   1.142   1.798   4.294  0.2419 -0.0718 -0.6680
 5820SOL    HW128919   1.103   1.747   4.366  0.7428  0.2703 -0.1548
 5820SOL    HW228920   1.127   1.884   4.334 -2.1081 -0.4302 -0.7556
 5821SOL     OW28921   0.044   0.020   4.087  0.0264 -0.3530  0.1023
 5821SOL    HW128922   0.123   4.704   4.047 -0.2407 -1.5180  0.6290
 5821SOL    HW228923   4.691   0.006   4.027 -0.2271  0.1694  0.2984
 5822SOL     OW28924   3.370   2.859   8.414 -0.3621 -0.1874 -0.0678
 5822SOL    HW128925   3.430   2.822   8.479  0.0427 -2.1489 -1.5512
 5822SOL    HW228926   3.400   2.950   8.408  1.9684 -1.0748 -1.6317
 5823SOL     OW28927   3.179   4.633   6.787  0.4348 -0.1864  0.9293
 5823SOL    HW128928   3.156   4.541   6.795  0.6902 -0.4707 -1.4087
 5823SOL    HW228929   3.096   4.675   6.809  0.4610  1.3379 -1.8615
 5824SOL     OW28930   2.222   3.384   7.958  0.1447 -0.2903  0.3068
 5824SOL    HW128931   2.263   3.418   8.037  0.7330 -5.0462  2.0868
 5824SOL    HW228932   2.240   3.450   7.892 -0.0668  1.2790  1.8316
 5825SOL     OW28933   3.959   2.853   6.696  0.4884 -0.6086  0.5700
 5825SOL    HW128934   3.887   2.895   6.743 -0.5797  0.4307 -1.9918
 5825SOL    HW228935   3.968   2.771   6.744 -0.3521 -1.5009 -0.7709
 5826SOL     OW28936   1.397   2.635   2.170 -0.1812 -0.7665  0.6533
 5826SOL    HW128937   1.389   2.645   2.265 -0.0479 -0.6538  0.6543
 5826SOL    HW228938   1.307   2.618   2.143  0.2094  0.8917 -1.7115
 5827SOL     OW28939   4.289   1.113   9.288 -0.2636 -0.3923  0.3870
 5827SOL    HW128940   4.344   1.169   9.343  0.0558  0.2812 -0.6095
 5827SOL    HW228941   4.208   1.113   9.339 -0.9735  1.5080 -0.7147
 5828SOL     OW28942   0.455   2.533   1.893 -0.6376 -0.0474  0.3213
 5828SOL    HW128943   0.369   2.526   1.851  0.2436 -2.2502 -1.1591
 5828SOL    HW228944   0.439   2.506   1.983 -1.3291 -0.6916  0.0071
 5829SOL     OW28945   3.449   4.486  17.527 -0.4268 -0.2592  0.2930
 5829SOL    HW128946   3.380   4.493  17.593 -0.5624  0.0961  0.1092
 5829SOL    HW228947   3.477   4.573  17.500 -2.3181  0.3569  0.3882
 5830SOL     OW28948   3.681   1.158  12.275  0.0042 -0.4103  0.2154
 5830SOL    HW128949   3.697   1.176  12.183 -0.7149 -0.4085  0.0885
 5830SOL    HW228950   3.661   1.244  12.313  2.4649  0.5644 -0.6884
 5831SOL     OW28951   1.168   0.729   6.243 -0.1546 -0.5948 -0.9775
 5831SOL    HW128952   1.158   0.692   6.331  0.5950  0.2161 -0.5528
 5831SOL    HW228953   1.261   0.747   6.239 -0.5341  1.9825  1.8414
 5832SOL     OW28954   3.831   3.654   5.308 -0.0413 -0.5481  0.3357
 5832SOL    HW128955   3.914   3.673   5.351  0.0194 -0.5924  0.2386
 5832SOL    HW228956   3.786   3.729   5.347  0.5327 -0.4171  0.7403
 5833SOL     OW28957   1.907   2.400  15.709 -0.3043 -0.1319  0.6529
 5833SOL    HW128958   1.859   2.332  15.757  1.0353  0.0885  2.3018
 5833SOL    HW228959   1.988   2.350  15.704 -0.3852 -0.1153 -0.7695
 5834SOL     OW28960   3.019   2.924   2.961 -0.1625 -0.2037  0.5603
 5834SOL    HW128961   2.944   2.941   3.018 -0.2968  0.1075  0.2944
 5834SOL    HW228962   2.968   2.916   2.880 -1.1037  0.2814  1.0962
 5835SOL     OW28963   2.494   1.982   8.866 -0.2007 -0.0331 -0.4821
 5835SOL    HW128964   2.489   1.886   8.863  0.6141 -0.0656 -0.8699
 5835SOL    HW228965   2.493   1.991   8.961  0.9177 -3.6758 -0.1031
 5836SOL     OW28966   2.867   0.696   7.740  0.4113  0.4699  0.1605
 5836SOL    HW128967   2.883   0.602   7.734  2.1678  0.7595  0.2733
 5836SOL    HW228968   2.852   0.720   7.649 -1.5552  2.7515  1.0931
 5837SOL     OW28969   2.579   3.426  10.659  0.0723 -0.0534 -0.4859
 5837SOL    HW128970   2.563   3.358  10.724  1.8675 -0.8807 -0.8908
 5837SOL    HW228971   2.675   3.429  10.659 -0.0025  2.3006  1.3487
 5838SOL     OW28972   3.901   2.091  14.540  0.3618  0.2135  0.2298
 5838SOL    HW128973   3.861   2.150  14.477 -0.4904  0.1967  0.7401
 5838SOL    HW228974   3.860   2.011  14.507 -0.2376  0.6095  0.0125
 5839SOL     OW28975   3.534   2.307  10.861  0.1109  0.3761  0.1733
 5839SOL    HW128976   3.515   2.215  10.877 -0.5872  0.5384  0.2830
 5839SOL    HW228977   3.484   2.361  10.923 -0.3337 -0.6801  0.7235
 5840SOL     OW28978   0.741   3.756   1.459 -0.3035  0.2961 -0.2841
 5840SOL    HW128979   0.814   3.741   1.399 -0.6892 -1.8935 -0.1953
 5840SOL    HW228980   0.719   3.846   1.432 -1.3584 -0.3828 -1.7191
 5841SOL     OW28981   1.652   4.553  16.917  0.0153 -0.1055 -0.0273
 5841SOL    HW128982   1.588   4.622  16.897 -2.1268 -2.1410 -0.2590
 5841SOL    HW228983   1.624   4.522  17.003  0.0783 -0.4655 -0.1370
 5842SOL     OW28984   4.044   4.318  14.019 -0.3572 -0.7913 -0.6107
 5842SOL    HW128985   4.091   4.245  14.059  0.3010 -0.2974 -0.4775
 5842SOL    HW228986   4.022   4.285  13.932  0.7321 -3.8410  0.2787
 5843SOL     OW28987   1.498   2.228   8.817 -0.3945 -0.2108 -0.6261
 5843SOL    HW128988   1.481   2.258   8.906  0.5069  0.5414 -0.7095
 5843SOL    HW228989   1.423   2.255   8.763  2.0860 -1.7277 -4.8456
 5844SOL     OW28990   4.324   4.274   5.780  0.1549 -0.4476  0.8852
 5844SOL    HW128991   4.242   4.245   5.740  1.4050 -0.1155 -1.9042
 5844SOL    HW228992   4.294   4.365   5.791 -0.2552 -0.7338  2.1122
 5845SOL     OW28993   2.362   3.769   2.738  0.4978  0.2615 -0.3029
 5845SOL    HW128994   2.415   3.695   2.708  0.7409  0.6429 -0.8116
 5845SOL    HW228995   2.285   3.740   2.786 -0.7988  0.9762 -1.9679
 5846SOL     OW28996   3.986   3.829   2.884  0.1766  0.1106  0.2342
 5846SOL    HW128997   3.897   3.863   2.875 -0.8250 -2.9712 -1.4599
 5846SOL    HW228998   4.009   3.828   2.790 -0.9942  0.1804 -0.0495
 5847SOL     OW28999   1.094   3.456  15.992 -0.3958 -0.0662 -0.3741
 5847SOL    HW129000   1.007   3.418  15.993 -1.0341  1.4035 -0.6890
 5847SOL    HW229001   1.147   3.382  16.021 -0.5930 -0.0477  0.0320
 5848SOL     OW29002   1.501   1.493  10.113 -0.3830  0.5378 -0.0732
 5848SOL    HW129003   1.565   1.445  10.060  1.0089  0.5633  1.6024
 5848SOL    HW229004   1.426   1.472  10.057 -1.4228 -2.0830  2.2936
 5849SOL     OW29005   2.063   3.312  15.922  0.2972  0.0674  0.2348
 5849SOL    HW129006   2.074   3.293  15.829  0.5642  2.7599 -0.3003
 5849SOL    HW229007   1.970   3.317  15.946 -0.1935  1.9685 -2.0759
 5850SOL     OW29008   1.679   3.734   2.329 -0.2629 -0.1013  0.6942
 5850SOL    HW129009   1.619   3.660   2.342  2.5196 -2.2291  1.4988
 5850SOL    HW229010   1.709   3.728   2.238 -0.2249 -0.7688  0.7486
 5851SOL     OW29011   2.011   3.299   0.900  0.1660  0.0425  0.1128
 5851SOL    HW129012   2.063   3.313   0.821  3.2313  0.2616  2.1755
 5851SOL    HW229013   1.923   3.317   0.867  0.8583  2.6099 -0.3628
 5852SOL     OW29014   4.339   3.622   4.932 -0.3395  0.2747 -0.2330
 5852SOL    HW129015   4.257   3.604   4.977  1.7241 -2.5346  2.4412
 5852SOL    HW229016   4.316   3.653   4.844 -1.2434 -1.3534 -0.5592
 5853SOL     OW29017   0.957   3.141   6.109 -0.2137  0.0448  0.7228
 5853SOL    HW129018   1.018   3.214   6.120  0.0043 -0.0088 -0.1411
 5853SOL    HW229019   0.929   3.149   6.018  1.2688 -1.4714  0.1483
 5854SOL     OW29020   3.798   3.636   6.836 -0.3105 -0.0522  0.4526
 5854SOL    HW129021   3.840   3.700   6.778  0.4004  0.1337  1.1760
 5854SOL    HW229022   3.716   3.683   6.849  1.0054  2.1283  0.8336
 5855SOL     OW29023   2.687   4.458   4.225 -0.3250 -0.4050  0.0567
 5855SOL    HW129024   2.690   4.546   4.187  2.0834 -1.0996 -1.3445
 5855SOL    HW229025   2.747   4.478   4.296  0.2420 -1.4290 -0.1430
 5856SOL     OW29026   4.610   4.406   4.056  0.2327 -0.5765  0.5921
 5856SOL    HW129027   4.651   4.470   3.998  0.0071 -2.0914 -1.2345
 5856SOL    HW229028   4.682   4.367   4.106 -2.1526 -0.5677  4.0716
 5857SOL     OW29029   1.897   1.608   3.007 -0.4841 -0.2214 -0.5267
 5857SOL    HW129030   1.938   1.528   3.040 -0.7454  0.0852  0.5677
 5857SOL    HW229031   1.854   1.576   2.928 -2.3001 -2.1922  1.2628
 5858SOL     OW29032   1.677   0.392   7.893  0.1238  0.2996 -0.1505
 5858SOL    HW129033   1.646   0.302   7.885 -0.9116  0.7617 -1.3959
 5858SOL    HW229034   1.772   0.386   7.900 -0.0561 -0.5467  1.3942
 5859SOL     OW29035   2.402   3.498  14.811 -0.1061 -0.0952 -0.3007
 5859SOL    HW129036   2.325   3.474  14.760  1.1805 -1.5807 -1.5256
 5859SOL    HW229037   2.442   3.412  14.820  1.2557  0.5671  0.0063
 5860SOL     OW29038   4.002   1.699  16.139 -0.1684 -0.1440 -0.8217
 5860SOL    HW129039   3.964   1.694  16.227  0.8681 -1.1836 -0.4362
 5860SOL    HW229040   3.949   1.769  16.101  0.4899  1.3300  0.9387
 5861SOL     OW29041   1.288   4.459  16.932  0.3603  0.8232 -0.4092
 5861SOL    HW129042   1.247   4.399  16.994 -1.5937  1.0524 -1.4906
 5861SOL    HW229043   1.248   4.421  16.854 -4.2746  0.1388  2.3151
 5862SOL     OW29044   1.236   1.823  10.758 -0.4143 -0.3571 -0.0823
 5862SOL    HW129045   1.166   1.777  10.805 -0.5541  1.0452  1.0870
 5862SOL    HW229046   1.308   1.795  10.814  0.2238 -1.0880 -1.2707
 5863SOL     OW29047   0.558   0.555  12.980  0.3982 -0.7578 -0.0278
 5863SOL    HW129048   0.532   0.647  12.971 -2.5451 -1.7448 -1.5198
 5863SOL    HW229049   0.620   0.559  13.052  0.2168 -1.5860  0.1714
 5864SOL     OW29050   1.223   3.818   2.140  0.0121 -0.3943 -0.4529
 5864SOL    HW129051   1.202   3.826   2.047  1.8176 -1.2153 -0.9364
 5864SOL    HW229052   1.221   3.722   2.145 -1.8189 -0.5205 -3.2381
 5865SOL     OW29053   4.395   4.332   6.060  0.1848  0.0420 -0.0770
 5865SOL    HW129054   4.474   4.284   6.082  1.5480  1.4787 -1.8580
 5865SOL    HW229055   4.385   4.302   5.969  0.7168 -0.3634  0.0015
 5866SOL     OW29056   0.799   3.819   8.303 -0.2722  0.8301 -0.2814
 5866SOL    HW129057   0.888   3.834   8.336 -0.3477  0.0867  0.2491
 5866SOL    HW229058   0.819   3.730   8.275  0.7719  0.8367  0.4457
 5867SOL     OW29059   0.461   0.240   6.053  0.1668  0.3344 -0.0751
 5867SOL    HW129060   0.445   0.334   6.050  0.1997  0.3392 -0.1030
 5867SOL    HW229061   0.522   0.223   5.981 -0.5079 -0.6383 -0.4224
 5868SOL     OW29062   2.400   3.386  15.193  0.0551  0.3173  0.2941
 5868SOL    HW129063   2.358   3.331  15.127  4.1998  0.0740 -2.1743
 5868SOL    HW229064   2.363   3.474  15.179 -0.2551  0.3747  1.4756
 5869SOL     OW29065   2.791   1.757   5.878 -0.7810 -0.4008  0.1757
 5869SOL    HW129066   2.776   1.752   5.973 -0.1296 -2.1814  0.1799
 5869SOL    HW229067   2.802   1.666   5.853  0.4197 -0.2657  0.2057
 5870SOL     OW29068   4.051   3.882   5.187  0.3938 -1.0990  0.2740
 5870SOL    HW129069   4.063   3.880   5.282 -0.7503  2.6421  0.4894
 5870SOL    HW229070   3.962   3.916   5.182  0.6374 -0.5606 -0.3314
 5871SOL     OW29071   3.197   0.325   7.058  0.2093  0.6879  0.2717
 5871SOL    HW129072   3.292   0.324   7.055  0.1368 -0.5001 -1.9872
 5871SOL    HW229073   3.170   0.248   7.009  0.6445 -0.5416  1.9682
 5872SOL     OW29074   4.387   3.648   5.579  0.6192  0.0368 -0.2204
 5872SOL    HW129075   4.443   3.657   5.502 -0.5130 -1.0911 -1.1700
 5872SOL    HW229076   4.439   3.584   5.628  2.3603  0.3905 -1.6146
 5873SOL     OW29077   3.906   4.099   0.186 -0.1033 -0.1133 -0.1032
 5873SOL    HW129078   3.912   4.049   0.267  0.8641 -1.0436 -0.7611
 5873SOL    HW229079   3.994   4.095   0.151  0.0687 -2.3943  0.5821
 5874SOL     OW29080   0.793   1.611   8.524 -0.3627  0.0278 -0.4229
 5874SOL    HW129081   0.804   1.705   8.513  0.1815 -0.1160 -1.1380
 5874SOL    HW229082   0.702   1.606   8.495 -0.2983 -1.9466 -0.2945
 5875SOL     OW29083   2.460   3.259   8.842  0.5889  0.0486  0.0107
 5875SOL    HW129084   2.437   3.308   8.921 -0.7558 -0.0885 -0.2962
 5875SOL    HW229085   2.481   3.329   8.781 -0.0832  0.2318 -0.0071
 5876SOL     OW29086   4.332   2.866   6.514  0.0092 -0.5940 -0.0428
 5876SOL    HW129087   4.337   2.887   6.607  0.9617 -3.3130  0.5245
 5876SOL    HW229088   4.289   2.780   6.518 -2.6397  0.6931 -0.6855
 5877SOL     OW29089   1.515   1.047  14.868  0.0246  0.5446  0.6240
 5877SOL    HW129090   1.447   1.040  14.802  1.0861 -0.8764 -0.3294
 5877SOL    HW229091   1.509   0.958  14.905 -0.3247 -1.4523 -4.2137
 5878SOL     OW29092   1.220   4.038  14.657 -0.4252 -0.4473 -0.5491
 5878SOL    HW129093   1.232   3.978  14.732  0.4160  0.9802  0.4618
 5878SOL    HW229094   1.208   3.981  14.582 -0.8749  2.5243 -2.7055
 5879SOL     OW29095   1.711   4.597   6.197  0.5384  1.0151 -0.0047
 5879SOL    HW129096   1.701   4.633   6.109 -3.9474 -0.9888 -0.3289
 5879SOL    HW229097   1.782   4.647   6.239  0.6139  0.7250  0.2161
 5880SOL     OW29098   2.725   0.037  10.616  0.1985 -0.0397  0.0974
 5880SOL    HW129099   2.722   4.662  10.616  1.6734 -0.0883  0.0301
 5880SOL    HW229100   2.654   0.052  10.679 -1.4063  0.7790 -1.9006
 5881SOL     OW29101   3.793   1.414   3.452  0.1424 -0.2195  0.0861
 5881SOL    HW129102   3.833   1.332   3.481  1.3692  0.6703  0.8973
 5881SOL    HW229103   3.705   1.378   3.441 -0.3998  0.7927  1.0948
 5882SOL     OW29104   4.703   0.152   2.732 -0.0119  0.1576  0.1052
 5882SOL    HW129105   0.060   0.166   2.678  0.2949 -1.1772  0.1968
 5882SOL    HW229106   4.711   0.056   2.735  0.1480  0.1263 -1.2614
 5883SOL     OW29107   3.520   3.548   7.659 -0.0595 -0.5196 -0.4129
 5883SOL    HW129108   3.477   3.597   7.589 -2.0582  0.1979  1.3139
 5883SOL    HW229109   3.601   3.523   7.614  0.8981  0.3405  0.7993
 5884SOL     OW29110   4.602   0.244   4.136 -0.0201 -0.3424 -0.1317
 5884SOL    HW129111   4.564   0.200   4.212 -0.7096  0.1981 -0.1656
 5884SOL    HW229112   4.671   0.178   4.138 -0.5268 -0.8327  1.3866
 5885SOL     OW29113   2.060   1.256   2.776  0.0068  0.1415  0.0525
 5885SOL    HW129114   1.976   1.256   2.730  0.4835  0.3926 -0.8026
 5885SOL    HW229115   2.109   1.319   2.724  0.6310 -0.9827 -0.7049
 5886SOL     OW29116   0.703   3.534   6.859 -0.5180 -0.1954  0.2736
 5886SOL    HW129117   0.758   3.565   6.931 -1.6410  2.6474 -0.1112
 5886SOL    HW229118   0.714   3.442   6.882  0.2489  0.2838  1.7984
 5887SOL     OW29119   3.290   4.510   4.411  0.4067  0.0116 -0.4651
 5887SOL    HW129120   3.272   4.586   4.466 -1.6331 -0.7152 -0.1310
 5887SOL    HW229121   3.199   4.493   4.388 -0.6960  5.1480  0.1026
 5888SOL     OW29122   4.307   3.557   8.556  0.2497  0.5702  0.6211
 5888SOL    HW129123   4.285   3.464   8.554  0.9555  0.3932  1.4102
 5888SOL    HW229124   4.220   3.596   8.545 -0.1844 -0.8719 -0.9855
 5889SOL     OW29125   3.109   1.374   1.221  0.3779 -0.1814  0.5953
 5889SOL    HW129126   3.167   1.450   1.212  1.5089 -1.0087  0.9480
 5889SOL    HW229127   3.166   1.307   1.259 -2.5256 -0.9755  3.4982
 5890SOL     OW29128   1.722   2.871   3.111 -0.7644 -0.4337  0.5690
 5890SOL    HW129129   1.764   2.802   3.163 -0.4342 -0.2488  0.5460
 5890SOL    HW229130   1.803   2.915   3.085  0.3321 -1.7113  1.7340
 5891SOL     OW29131   1.216   2.794   0.941  0.1836 -0.4374 -0.0714
 5891SOL    HW129132   1.289   2.781   1.001  0.7313  0.6489 -0.4985
 5891SOL    HW229133   1.192   2.707   0.910  1.5027 -0.7893 -0.0985
 5892SOL     OW29134   0.346   4.466   1.775  0.0902 -0.6961  0.0769
 5892SOL    HW129135   0.375   4.386   1.731 -1.3066 -1.9347  1.4142
 5892SOL    HW229136   0.366   4.539   1.716  2.9151 -1.5312 -0.0172
 5893SOL     OW29137   3.465   1.019   8.058  0.0720 -0.0471  0.7992
 5893SOL    HW129138   3.481   0.944   8.115 -1.0183 -0.2363  0.8644
 5893SOL    HW229139   3.551   1.057   8.046 -0.6257  1.4340  0.4930
 5894SOL     OW29140   0.249   0.192  13.842  0.7837 -0.0030  0.0637
 5894SOL    HW129141   0.180   0.251  13.811 -1.4386 -3.1426 -1.0356
 5894SOL    HW229142   0.266   0.135  13.767  1.3486  0.8536 -0.4519
 5895SOL     OW29143   0.917   0.966   3.786 -0.6004  0.5014 -0.5416
 5895SOL    HW129144   0.982   0.923   3.730  0.6306  2.4061 -0.5983
 5895SOL    HW229145   0.957   1.053   3.782  0.8120 -0.1118  0.1103
 5896SOL     OW29146   1.125   0.060   1.790 -0.1203  0.4038 -0.7500
 5896SOL    HW129147   1.047   0.017   1.756  0.5668 -1.8166  0.5009
 5896SOL    HW229148   1.098   0.062   1.882  0.1763 -0.9842 -0.6264
 5897SOL     OW29149   1.196   4.189  13.324  0.8876  0.1454  0.4188
 5897SOL    HW129150   1.194   4.253  13.253  1.0418  1.6236  1.7335
 5897SOL    HW229151   1.182   4.254  13.393 -0.6794  0.7348 -0.4667
 5898SOL     OW29152   3.138   2.879   6.913 -0.1564 -0.1565 -0.2299
 5898SOL    HW129153   3.139   2.949   6.849  2.4641 -0.2114 -0.2332
 5898SOL    HW229154   3.123   2.927   6.994 -0.8463 -1.6425  0.5256
 5899SOL     OW29155   3.459   3.094   8.198  0.3583  0.6863 -0.7316
 5899SOL    HW129156   3.378   3.117   8.153 -0.4295  1.3329  1.0207
 5899SOL    HW229157   3.449   3.111   8.292  0.4765  0.8730 -0.7512
 5900SOL     OW29158   2.839   1.327   2.242 -0.0440 -0.2330 -0.1369
 5900SOL    HW129159   2.763   1.362   2.289 -0.7206  0.1787 -1.5065
 5900SOL    HW229160   2.890   1.404   2.266  0.5348  0.6293 -4.0505
 5901SOL     OW29161   3.463   4.657   0.656  0.6170  0.1931  0.2130
 5901SOL    HW129162   3.519   4.657   0.733 -0.5262 -0.2804  1.0584
 5901SOL    HW229163   3.504   4.590   0.602  1.1706  1.9003 -1.5263
 5902SOL     OW29164   0.275   1.758   6.186 -0.2438  0.1907 -0.2217
 5902SOL    HW129165   0.329   1.772   6.264  1.4454  2.1506 -1.7310
 5902SOL    HW229166   0.326   1.702   6.128 -0.1257 -1.8072  1.7926
 5903SOL     OW29167   1.832   3.565  16.109 -0.1988  0.2238 -0.0111
 5903SOL    HW129168   1.817   3.573  16.014 -0.1741 -0.6616 -0.0864
 5903SOL    HW229169   1.886   3.643  16.121 -0.4401  0.4933 -0.6748
 5904SOL     OW29170   2.704   3.379   2.158 -0.0724  0.1945  0.1968
 5904SOL    HW129171   2.779   3.325   2.181  2.1206  2.9921 -0.3113
 5904SOL    HW229172   2.752   3.460   2.138  0.3165  0.0527  0.5581
 5905SOL     OW29173   1.612   2.740  15.793  0.3496 -0.6623  0.2212
 5905SOL    HW129174   1.526   2.782  15.795 -1.0015 -3.3183 -1.3798
 5905SOL    HW229175   1.631   2.749  15.699  2.0738  0.5134  0.6841
 5906SOL     OW29176   4.633   0.447   6.765  0.0467 -0.5898  0.2823
 5906SOL    HW129177   4.590   0.517   6.715  1.9025  0.2118 -0.2019
 5906SOL    HW229178   4.580   0.369   6.751 -0.7892  0.1528 -0.6916
 5907SOL     OW29179   4.486   1.304  13.974  0.0124  0.1564 -0.1071
 5907SOL    HW129180   4.475   1.390  14.015 -0.8946  2.0334 -4.2218
 5907SOL    HW229181   4.575   1.288  14.005 -0.4127  2.3130  2.2413
 5908SOL     OW29182   3.442   2.371   2.284 -0.3198 -0.2774 -0.2183
 5908SOL    HW129183   3.366   2.415   2.320  1.0849 -1.2939  3.9669
 5908SOL    HW229184   3.506   2.389   2.353 -0.1203  0.1907 -0.5249
 5909SOL     OW29185   3.490   0.253   2.580 -0.4120 -0.0462  0.1053
 5909SOL    HW129186   3.551   0.323   2.604 -4.4494  2.7756  2.1635
 5909SOL    HW229187   3.512   0.194   2.653 -2.2092  0.3710  0.9812
 5910SOL     OW29188   1.043   0.347  13.411 -0.0140  0.0705 -0.3089
 5910SOL    HW129189   0.953   0.317  13.399 -0.2888  1.2940 -1.3284
 5910SOL    HW229190   1.065   0.312  13.497 -2.4852 -1.4734 -0.3000
 5911SOL     OW29191   2.530   2.135   5.457 -0.0756  0.1315 -0.0410
 5911SOL    HW129192   2.478   2.116   5.534  0.8721  0.6054  0.7184
 5911SOL    HW229193   2.457   2.162   5.402  0.9536 -1.7286 -2.3235
 5912SOL     OW29194   2.033   1.216   1.088  0.0846  0.2345  0.1267
 5912SOL    HW129195   1.948   1.177   1.068  0.7182 -0.9007 -0.3309
 5912SOL    HW229196   2.018   1.265   1.169 -0.1744 -0.1854  0.3326
 5913SOL     OW29197   0.642   2.438  15.914 -0.2325  0.1589  0.6345
 5913SOL    HW129198   0.637   2.358  15.966  0.5508 -0.9433 -0.9784
 5913SOL    HW229199   0.580   2.424  15.842  2.4841  1.0813 -1.8728
 5914SOL     OW29200   3.494   1.299  14.864 -0.0973  0.1442  0.1763
 5914SOL    HW129201   3.510   1.205  14.848  0.4390 -0.4657  4.3645
 5914SOL    HW229202   3.468   1.341  14.782 -0.9312 -0.2138  0.2605
 5915SOL     OW29203   3.768   3.766   4.521 -0.2800 -0.0759 -0.4516
 5915SOL    HW129204   3.735   3.838   4.468  2.8752  1.7535  0.1188
 5915SOL    HW229205   3.694   3.705   4.520 -0.6252  0.3501 -0.8452
 5916SOL     OW29206   1.770   3.084   8.678 -0.1751 -0.1127  0.0161
 5916SOL    HW129207   1.772   3.143   8.754  1.1386 -2.7218  2.0232
 5916SOL    HW229208   1.865   3.074   8.668 -0.3561 -0.7341 -1.0125
 5917SOL     OW29209   1.729   4.307  15.366 -0.4763  0.3231  0.3191
 5917SOL    HW129210   1.759   4.374  15.427 -0.2938  0.5142  0.0196
 5917SOL    HW229211   1.675   4.367  15.314  2.2541  1.2728 -1.3935
 5918SOL     OW29212   3.918   2.810   1.925 -0.5696 -0.2010  0.0690
 5918SOL    HW129213   3.990   2.785   1.868  0.7646  0.0985  1.6297
 5918SOL    HW229214   3.842   2.759   1.898 -1.2221  1.7152 -1.7505
 5919SOL     OW29215   3.421   2.342  13.931  0.1581  0.0218  0.0323
 5919SOL    HW129216   3.516   2.354  13.919  0.6326 -2.3818  1.4850
 5919SOL    HW229217   3.420   2.304  14.019 -0.4289 -2.5880 -1.1226
 5920SOL     OW29218   0.237   3.465   3.485 -0.1330 -0.5165  0.1932
 5920SOL    HW129219   0.283   3.539   3.525  1.7772 -0.6590 -1.7560
 5920SOL    HW229220   0.195   3.424   3.560  1.6616  0.6782  1.8372
 5921SOL     OW29221   1.036   2.114   5.966 -0.3175  0.2103  0.5018
 5921SOL    HW129222   1.028   2.054   5.893  0.2610  0.3257  0.3423
 5921SOL    HW229223   1.078   2.049   6.022  0.3549  1.2407  1.2044
 5922SOL     OW29224   3.691   3.852   0.014  0.2333  0.3818 -0.1749
 5922SOL    HW129225   3.633   3.832   0.087 -1.4397  0.7314 -1.3982
 5922SOL    HW229226   3.695   3.948   0.011 -1.4483  0.5443  2.6526
 5923SOL     OW29227   3.391   2.372   5.859 -0.1052 -0.0548  0.2973
 5923SOL    HW129228   3.416   2.304   5.796  1.1770 -0.1857  0.9468
 5923SOL    HW229229   3.298   2.350   5.867  0.1500 -0.3869  2.3068
 5924SOL     OW29230   3.436   1.850   7.127  0.1894  0.3620  0.2314
 5924SOL    HW129231   3.496   1.839   7.054 -1.2720 -1.1079 -0.7582
 5924SOL    HW229232   3.356   1.852   7.073  1.9503 -2.1859 -2.4918
 5925SOL     OW29233   2.557   1.022   8.907  0.2197 -0.4842  0.1013
 5925SOL    HW129234   2.596   0.938   8.931  1.9118 -0.5162 -2.8017
 5925SOL    HW229235   2.519   1.034   8.994  0.4007  1.2471 -0.0644
 5926SOL     OW29236   3.366   2.289   7.941 -0.1896 -0.3328  0.3299
 5926SOL    HW129237   3.420   2.238   8.001  1.1717  1.7312  0.8506
 5926SOL    HW229238   3.389   2.249   7.857 -2.0235  0.5925 -0.6049
 5927SOL     OW29239   4.706   3.002   4.132 -0.4365 -0.1023 -0.0081
 5927SOL    HW129240   4.633   2.941   4.126 -0.2925 -0.1840 -0.8402
 5927SOL    HW229241   4.674   3.054   4.206  0.1008  1.3984 -0.8098
 5928SOL     OW29242   1.287   3.081   3.883  0.3074 -0.0186  0.8713
 5928SOL    HW129243   1.331   2.996   3.881 -2.2635 -1.3711  1.3762
 5928SOL    HW229244   1.320   3.118   3.965 -1.6889  1.9129  0.8050
 5929SOL     OW29245   0.610   4.206  14.608 -0.0835 -0.0697 -0.8821
 5929SOL    HW129246   0.666   4.129  14.613 -0.4531 -0.3568 -1.2706
 5929SOL    HW229247   0.550   4.183  14.679 -1.5520  1.5358 -1.6114
 5930SOL     OW29248   1.722   0.586   7.604 -0.1608 -0.2138 -0.0039
 5930SOL    HW129249   1.665   0.538   7.544  1.5944 -3.1888  0.7154
 5930SOL    HW229250   1.761   0.640   7.535 -1.7503  0.7044 -0.1908
 5931SOL     OW29251   0.204   2.304  16.996  0.1470 -0.4352 -0.3131
 5931SOL    HW129252   0.238   2.249  16.924 -0.5570  0.7098 -1.5040
 5931SOL    HW229253   0.138   2.243  17.027 -1.5465  0.5443 -2.0498
 5932SOL     OW29254   4.370   3.132   6.929 -0.1979  0.9095 -0.4481
 5932SOL    HW129255   4.457   3.166   6.908 -0.6235  1.3456 -1.4981
 5932SOL    HW229256   4.362   3.172   7.016  2.2329 -0.0251  0.2072
 5933SOL     OW29257   3.583   4.033  12.997  0.2471  0.3926  0.1648
 5933SOL    HW129258   3.562   4.126  13.005  0.7054  0.4276  0.9989
 5933SOL    HW229259   3.678   4.022  13.005  0.2193 -0.6526 -0.9224
 5934SOL     OW29260   1.866   0.518   2.569 -0.0926  1.0491  0.0349
 5934SOL    HW129261   1.862   0.558   2.656  1.6466  0.1011  0.5529
 5934SOL    HW229262   1.899   0.585   2.508 -0.4503 -0.7851 -2.1532
 5935SOL     OW29263   0.666   3.434  11.783  0.0965 -0.0870 -0.0990
 5935SOL    HW129264   0.633   3.522  11.802 -2.9541 -0.6866 -2.5013
 5935SOL    HW229265   0.614   3.413  11.706  1.9157 -2.7597 -0.5640
 5936SOL     OW29266   3.691   2.265  14.329  0.1497  0.2205 -0.5668
 5936SOL    HW129267   3.644   2.251  14.412  1.2191 -0.6018 -0.1050
 5936SOL    HW229268   3.621   2.298  14.273 -1.7286  0.2091  1.7721
 5937SOL     OW29269   0.111   2.224  11.600  0.3098  0.2915  0.0424
 5937SOL    HW129270   0.120   2.265  11.514 -0.3850  1.0698  0.3465
 5937SOL    HW229271   0.121   2.302  11.653  0.4460  2.1708 -2.7431
 5938SOL     OW29272   3.231   1.659   4.528 -0.0351  0.0076  0.7994
 5938SOL    HW129273   3.170   1.648   4.601 -1.0786  3.5088  0.4256
 5938SOL    HW229274   3.296   1.594   4.557 -0.3722 -1.2622 -1.3024
 5939SOL     OW29275   1.187   2.625   6.046  0.3354 -0.3893  0.4518
 5939SOL    HW129276   1.178   2.719   6.028  1.6323 -0.3931 -0.1853
 5939SOL    HW229277   1.134   2.622   6.125  0.7381  2.0741  0.8122
 5940SOL     OW29278   3.726   2.878   4.998 -0.2355 -0.2064 -0.5564
 5940SOL    HW129279   3.813   2.911   4.975 -0.2272  0.6255  0.6465
 5940SOL    HW229280   3.729   2.852   5.090 -0.8802 -1.3727 -0.8711
 5941SOL     OW29281   2.567   2.312   3.546  0.5388  0.2479  0.4573
 5941SOL    HW129282   2.618   2.386   3.514 -0.2598  0.8924  0.6661
 5941SOL    HW229283   2.474   2.330   3.528 -0.0406 -2.8558  0.3179
 5942SOL     OW29284   2.470   3.276   5.282  0.5957  0.0783 -0.8722
 5942SOL    HW129285   2.551   3.228   5.266  1.9085  1.7476  0.6763
 5942SOL    HW229286   2.501   3.337   5.349  1.6449  0.8920 -2.1015
 5943SOL     OW29287   0.274   0.115  10.264 -0.5269  0.5283 -0.3447
 5943SOL    HW129288   0.341   0.110  10.196  0.2122 -1.0722  0.5050
 5943SOL    HW229289   0.251   0.207  10.249  0.0661  0.3414 -2.3761
 5944SOL     OW29290   0.512   4.118   6.937 -0.5521  0.1149 -0.7273
 5944SOL    HW129291   0.570   4.075   6.875  0.9647  0.0361  0.7527
 5944SOL    HW229292   0.580   4.150   6.996 -0.2040 -2.7156  0.4180
 5945SOL     OW29293   0.708   4.072  15.932 -0.3424  0.0227 -0.0691
 5945SOL    HW129294   0.677   4.053  15.844  0.7390 -0.5468 -0.3348
 5945SOL    HW229295   0.714   4.167  15.923 -0.8915 -0.3134 -3.9279
 5946SOL     OW29296   2.030   3.772   1.415 -0.3749  0.2193  0.3133
 5946SOL    HW129297   2.023   3.693   1.468 -1.8835  1.6375  2.2566
 5946SOL    HW229298   2.124   3.770   1.403 -0.2167  2.2405  1.2374
 5947SOL     OW29299   2.365   3.954   8.120 -0.1986  0.3844 -0.1775
 5947SOL    HW129300   2.369   3.883   8.056 -1.1196  0.0535  0.1362
 5947SOL    HW229301   2.284   3.925   8.162 -0.4690 -1.1066 -1.7257
 5948SOL     OW29302   3.080   1.153   2.225  0.6643  1.0275 -0.3905
 5948SOL    HW129303   2.999   1.197   2.249 -0.9438 -2.3677  0.3768
 5948SOL    HW229304   3.124   1.238   2.227 -0.3064  1.5559 -1.5717
 5949SOL     OW29305   1.057   3.926   7.717  0.1062  0.0436  0.0042
 5949SOL    HW129306   1.087   3.872   7.644  0.2064  1.3791 -0.9378
 5949SOL    HW229307   0.984   3.874   7.749  0.2650 -1.0918 -1.4732
 5950SOL     OW29308   2.934   3.057  16.658  0.2921  0.0563  0.9106
 5950SOL    HW129309   2.912   3.044  16.566 -2.5469 -0.9659  1.7399
 5950SOL    HW229310   2.999   3.127  16.649  1.0722 -0.3345  3.4738
 5951SOL     OW29311   0.582   4.083   2.191 -0.7718 -0.1134  0.1869
 5951SOL    HW129312   0.522   4.142   2.147 -0.6779 -0.4491 -0.3899
 5951SOL    HW229313   0.532   4.056   2.268 -0.4674  0.2499  0.5130
 5952SOL     OW29314   1.140   0.196   5.847  0.2734  0.6275 -0.1497
 5952SOL    HW129315   1.131   0.283   5.887 -2.4676  1.2087 -1.9952
 5952SOL    HW229316   1.231   0.204   5.819  0.4235 -0.5377  0.0058
 5953SOL     OW29317   3.456   2.625  13.015 -0.3346  0.1373  0.6488
 5953SOL    HW129318   3.521   2.612  12.945 -0.1613 -0.2350  0.8785
 5953SOL    HW229319   3.492   2.704  13.055 -0.1285  0.1265  0.4883
 5954SOL     OW29320   4.221   2.200   4.100  0.3125 -0.3559 -0.5427
 5954SOL    HW129321   4.147   2.146   4.073  0.4360 -0.0111 -1.5501
 5954SOL    HW229322   4.221   2.187   4.195 -0.9473  0.3107 -0.4607
 5955SOL     OW29323   2.649   1.495   7.216  0.0206  0.8708 -0.0379
 5955SOL    HW129324   2.633   1.518   7.307  0.3157  0.6323  0.0759
 5955SOL    HW229325   2.568   1.451   7.191 -0.3874  0.6545  1.6664
 5956SOL     OW29326   1.870   0.511  14.126  0.2912 -0.3253  0.2108
 5956SOL    HW129327   1.941   0.507  14.062 -0.5230 -1.4676 -0.6313
 5956SOL    HW229328   1.914   0.553  14.200 -0.7465 -0.5696  0.9718
 5957SOL     OW29329   4.347   3.571   1.093  0.3156  0.2336 -0.5562
 5957SOL    HW129330   4.258   3.536   1.084  0.4560  0.1456 -1.6050
 5957SOL    HW229331   4.402   3.522   1.032  2.2065 -0.4363  1.6973
 5958SOL     OW29332   0.221   2.004   4.387 -0.3666 -0.1962  0.0629
 5958SOL    HW129333   0.210   1.921   4.433  0.0317 -0.0350  0.4514
 5958SOL    HW229334   0.263   2.056   4.456 -1.7473  2.5616 -1.1615
 5959SOL     OW29335   3.437   1.608   1.354 -0.2175 -0.1630  0.0444
 5959SOL    HW129336   3.433   1.521   1.313 -2.0936  0.1794 -0.4683
 5959SOL    HW229337   3.367   1.597   1.418  0.9893  0.4458  1.4733
 5960SOL     OW29338   0.403   0.511  10.729 -0.4192  0.4517  0.4431
 5960SOL    HW129339   0.442   0.494  10.815 -1.0710 -0.8543  0.4791
 5960SOL    HW229340   0.451   0.444  10.681 -2.1895  0.4869 -1.3557
 5961SOL     OW29341   1.001   2.108   9.756  0.0448 -0.4210  0.4508
 5961SOL    HW129342   0.939   2.182   9.758  1.2440  0.5912  0.0471
 5961SOL    HW229343   1.085   2.145   9.785  1.1339 -0.9082 -2.1224
 5962SOL     OW29344   3.882   2.498   3.822 -0.2898 -0.2432  0.3754
 5962SOL    HW129345   3.866   2.475   3.730  0.8684  0.5111 -0.0106
 5962SOL    HW229346   3.930   2.579   3.807 -1.9874  0.7761  0.4334
 5963SOL     OW29347   0.639   0.784  13.284  0.0903  0.5246  0.0010
 5963SOL    HW129348   0.716   0.732  13.307  0.3787  0.6689 -0.6450
 5963SOL    HW229349   0.655   0.865  13.334 -1.0377  0.4129  0.5546
 5964SOL     OW29350   2.972   1.432   6.026  0.2451 -0.4008  0.1587
 5964SOL    HW129351   3.024   1.495   6.076  2.3925 -1.9720 -0.1337
 5964SOL    HW229352   2.945   1.378   6.100  3.2274 -1.5817  0.3598
 5965SOL     OW29353   2.268   4.539   7.814 -0.4446 -0.0977 -0.2013
 5965SOL    HW129354   2.349   4.576   7.777  0.1942 -1.6030 -0.3484
 5965SOL    HW229355   2.229   4.617   7.851  0.7002  0.2789  0.2235
 5966SOL     OW29356   0.601   4.417   8.753  0.3472 -0.2273 -0.9987
 5966SOL    HW129357   0.530   4.364   8.716 -1.1090 -0.0192  1.5420
 5966SOL    HW229358   0.667   4.418   8.683  0.9377  0.4887 -0.4273
 5967SOL     OW29359   0.156   0.718  11.732  0.5221 -0.1531  0.3862
 5967SOL    HW129360   0.109   0.659  11.791  0.6827  1.2509  1.9188
 5967SOL    HW229361   0.234   0.662  11.731  0.9706  0.5504 -3.9047
 5968SOL     OW29362   4.675   2.824   3.496  0.1459  0.3349  0.4136
 5968SOL    HW129363   0.014   2.876   3.441  0.9799  1.2991  2.2268
 5968SOL    HW229364   4.720   2.836   3.580 -1.2101  0.6571  1.0835
 5969SOL     OW29365   1.246   2.511   7.572  0.1320 -0.7888 -0.0961
 5969SOL    HW129366   1.175   2.574   7.560  0.4614 -0.0742  1.6398
 5969SOL    HW229367   1.202   2.438   7.616 -0.5892  1.3215  2.6608
 5970SOL     OW29368   3.830   2.900  10.796 -0.6067 -0.2681 -0.3418
 5970SOL    HW129369   3.885   2.921  10.872 -1.4961 -0.2921  0.3128
 5970SOL    HW229370   3.897   2.884  10.729  0.4762  1.6529  0.2618
 5971SOL     OW29371   3.701   1.184   6.460  0.4363  0.7134  0.0805
 5971SOL    HW129372   3.776   1.234   6.428  0.8124  1.2251  1.7431
 5971SOL    HW229373   3.621   1.228   6.432 -0.4216 -0.1710  1.1244
 5972SOL     OW29374   4.423   4.516  14.630  0.5440  0.1722 -0.2163
 5972SOL    HW129375   4.349   4.554  14.582 -0.5731 -0.0519  1.3378
 5972SOL    HW229376   4.498   4.549  14.581  0.5309  2.4885  1.3433
 5973SOL     OW29377   0.701   3.286   5.737 -0.6710 -0.2207 -0.2643
 5973SOL    HW129378   0.628   3.346   5.752 -0.8286 -0.6698  0.7863
 5973SOL    HW229379   0.665   3.202   5.765 -0.5803  0.6394  2.3700
 5974SOL     OW29380   2.069   2.217   2.474 -0.2714  0.1171 -0.0464
 5974SOL    HW129381   2.101   2.278   2.541  0.4740 -0.3142 -0.0064
 5974SOL    HW229382   2.028   2.273   2.409  2.3644  1.4643 -0.5474
 5975SOL     OW29383   3.596   0.841   4.091 -0.4839  0.3457  0.0208
 5975SOL    HW129384   3.639   0.818   4.174 -1.2989  1.1702  0.6623
 5975SOL    HW229385   3.552   0.924   4.108  1.2051  1.4638 -1.0662
 5976SOL     OW29386   2.476   3.611   5.145 -0.5710  1.0078  0.1673
 5976SOL    HW129387   2.466   3.692   5.095 -3.6180  1.5359  1.5739
 5976SOL    HW229388   2.547   3.559   5.108  0.1555  1.9094  0.2980
 5977SOL     OW29389   4.282   2.355   6.975  0.6262 -0.3506 -0.1574
 5977SOL    HW129390   4.313   2.279   7.025  1.3867  1.0882  1.5807
 5977SOL    HW229391   4.215   2.391   7.034 -0.9669 -3.0664 -0.3434
 5978SOL     OW29392   0.357   2.688   2.633 -0.4874  0.3558 -0.3208
 5978SOL    HW129393   0.452   2.677   2.633 -0.4215  0.9398 -1.5153
 5978SOL    HW229394   0.344   2.671   2.540 -0.8517  0.4650 -0.2909
 5979SOL     OW29395   2.607   3.951   6.705 -1.0851  0.2980 -0.0689
 5979SOL    HW129396   2.571   3.867   6.677 -0.1744 -0.5030  1.1789
 5979SOL    HW229397   2.695   3.931   6.674 -1.1170 -0.5430  0.3677
 5980SOL     OW29398   1.527   3.695   5.981 -0.0704  0.4195  0.4242
 5980SOL    HW129399   1.589   3.668   6.048 -2.1072 -1.2587  1.5856
 5980SOL    HW229400   1.543   3.789   5.969 -2.5913  0.9470  1.2124
 5981SOL     OW29401   2.922   4.696   6.744 -0.0021  0.0034 -0.0199
 5981SOL    HW129402   2.827   4.694   6.755 -0.1168 -1.0464 -1.2109
 5981SOL    HW229403   2.934   4.637   6.670  0.7194  0.8513 -0.5847
 5982SOL     OW29404   3.173   3.481  17.539 -0.0417 -0.6974  0.1924
 5982SOL    HW129405   3.133   3.428  17.471 -1.4395 -1.3409  1.5087
 5982SOL    HW229406   3.255   3.437  17.564  1.3773  1.7988 -0.1627
 5983SOL     OW29407   0.539   3.229  10.673 -0.5811  0.5643 -0.6594
 5983SOL    HW129408   0.569   3.207  10.761 -4.3143  1.4037  0.8458
 5983SOL    HW229409   0.547   3.324  10.673  1.6269  0.3767 -1.6870
 5984SOL     OW29410   0.397   3.402   5.517 -0.1207 -0.1352 -0.2633
 5984SOL    HW129411   0.344   3.343   5.571 -0.9831  1.2168  0.3773
 5984SOL    HW229412   0.477   3.403   5.569  0.3773  0.5416 -1.0564
 5985SOL     OW29413   4.606   2.279  11.032 -0.3580 -0.1139 -0.1880
 5985SOL    HW129414   4.543   2.351  11.040 -0.5511 -0.5399  1.9561
 5985SOL    HW229415   4.689   2.325  11.017 -1.4770  2.2943  1.0438
 5986SOL     OW29416   1.239   4.583   8.881 -0.4719  0.7195  0.4568
 5986SOL    HW129417   1.285   4.508   8.919  1.5822  2.3019  1.0779
 5986SOL    HW229418   1.152   4.546   8.865 -0.7961  1.3239  0.8472
 5987SOL     OW29419   2.677   4.715   9.623 -0.1330 -0.3532  0.5639
 5987SOL    HW129420   2.652   4.713   9.531  0.5900 -0.2474  0.3705
 5987SOL    HW229421   2.743   0.063   9.629  0.1406 -0.6291  0.7128
 5988SOL     OW29422   2.921   4.259   6.886  0.3211  0.7398 -0.0156
 5988SOL    HW129423   2.905   4.208   6.806 -1.9481  0.9331  0.3074
 5988SOL    HW229424   2.891   4.203   6.958  0.0055  0.5995 -0.2544
 5989SOL     OW29425   1.809   0.101   5.711  0.0669 -0.0120 -0.2893
 5989SOL    HW129426   1.901   0.113   5.688  0.7755 -3.0249  1.0372
 5989SOL    HW229427   1.763   0.126   5.630  0.9554  0.7920 -0.5509
 5990SOL     OW29428   2.352   3.649  15.066  0.7360  0.0304 -0.0106
 5990SOL    HW129429   2.358   3.607  14.981  3.0093 -0.7389  0.5184
 5990SOL    HW229430   2.297   3.723  15.043  2.1673  0.1110 -3.0823
 5991SOL     OW29431   0.962   2.161   4.668 -0.0246  0.3035  0.2274
 5991SOL    HW129432   0.894   2.154   4.600  0.6272 -2.2496 -0.1725
 5991SOL    HW229433   1.027   2.220   4.629  0.3134  0.1730  0.5956
 5992SOL     OW29434   2.679   2.278   5.076 -0.6720 -0.1427 -0.3145
 5992SOL    HW129435   2.755   2.227   5.104 -0.7306 -0.4472 -0.7137
 5992SOL    HW229436   2.714   2.314   4.995 -1.6187  1.6725  0.0800
 5993SOL     OW29437   4.323   2.622   3.761  0.5834  0.2122 -0.0436
 5993SOL    HW129438   4.414   2.642   3.783  0.3819  0.0114  0.9823
 5993SOL    HW229439   4.323   2.584   3.673 -2.1842 -1.2914  0.6108
 5994SOL     OW29440   3.994   4.335   5.998 -0.7448  0.0001  0.0134
 5994SOL    HW129441   4.013   4.400   6.066  0.9485 -1.0262  0.5241
 5994SOL    HW229442   4.051   4.369   5.929 -1.4551  1.5691  0.1849
 5995SOL     OW29443   3.279   1.697   3.814 -0.4421  0.1494 -0.4024
 5995SOL    HW129444   3.348   1.631   3.821  1.3541  2.2587  1.8114
 5995SOL    HW229445   3.340   1.768   3.836 -0.7508  0.1292  0.5063
 5996SOL     OW29446   0.318   0.433   9.426 -0.2789  0.1471 -0.1830
 5996SOL    HW129447   0.357   0.398   9.346  1.6332  1.4259  0.1970
 5996SOL    HW229448   0.301   0.349   9.468 -0.6192 -0.2629 -1.1307
 5997SOL     OW29449   4.424   3.914   7.488 -0.4675 -0.5713  0.1188
 5997SOL    HW129450   4.348   3.902   7.545  0.4968  1.1550  1.7829
 5997SOL    HW229451   4.440   4.007   7.475 -1.5020 -0.1261  2.0390
 5998SOL     OW29452   2.345   0.941   3.011 -0.4112 -0.4890 -0.6099
 5998SOL    HW129453   2.300   0.915   2.930 -1.4471 -0.0228 -0.1858
 5998SOL    HW229454   2.436   0.922   2.987 -0.4411  0.7628 -1.7231
 5999SOL     OW29455   4.606   4.447   0.837  0.3933  0.0651 -0.0144
 5999SOL    HW129456   4.697   4.469   0.818  0.6408 -0.0809  0.9904
 5999SOL    HW229457   4.594   4.523   0.895 -2.3338 -0.4473  0.1168
 6000SOL     OW29458   1.825   2.065   3.920  0.1710 -0.5057 -0.5489
 6000SOL    HW129459   1.915   2.085   3.943 -0.1653  3.0671 -2.1982
 6000SOL    HW229460   1.807   2.152   3.883  0.1432 -0.0682  0.4962
 6001SOL     OW29461   1.838   3.588   9.219  0.3525  0.3150 -0.8197
 6001SOL    HW129462   1.909   3.576   9.281  0.2889 -0.6694 -0.9336
 6001SOL    HW229463   1.821   3.681   9.209 -1.3958 -0.0398 -1.0863
 6002SOL     OW29464   4.593   1.826   4.515 -0.1444  0.2721 -0.5640
 6002SOL    HW129465   4.623   1.858   4.430  0.0163  1.1984 -0.1634
 6002SOL    HW229466   4.641   1.743   4.511 -1.1575 -0.3323 -0.2819
 6003SOL     OW29467   2.637   2.658   6.879  0.0829 -0.6566  0.3064
 6003SOL    HW129468   2.603   2.574   6.910 -1.0613 -1.0439 -1.9715
 6003SOL    HW229469   2.686   2.627   6.802  0.5389  0.3702  0.1898
 6004SOL     OW29470   1.532   2.104   6.864  0.3361  0.2636  0.5488
 6004SOL    HW129471   1.561   2.194   6.852  0.3719  0.3198  1.0769
 6004SOL    HW229472   1.466   2.120   6.931 -2.9234  1.6144 -2.9741
 6005SOL     OW29473   2.038   3.280  12.382  0.8341 -0.7019 -0.0792
 6005SOL    HW129474   1.954   3.313  12.350  1.3177  0.1871 -0.4416
 6005SOL    HW229475   2.080   3.258  12.299  0.4125 -2.3433  0.1446
 6006SOL     OW29476   1.180   1.562   8.447 -0.0398  0.3881 -0.0497
 6006SOL    HW129477   1.262   1.568   8.496 -0.4405 -0.5731  0.7347
 6006SOL    HW229478   1.169   1.467   8.441 -2.6650  0.5761  1.6588
 6007SOL     OW29479   4.233   1.536  15.787 -0.0940 -0.0764  0.6225
 6007SOL    HW129480   4.283   1.464  15.824 -1.9011 -0.2279  2.7717
 6007SOL    HW229481   4.259   1.547  15.696 -2.2005 -0.0280  0.0155
 6008SOL     OW29482   3.369   1.598   2.191 -0.4695 -0.7010  0.4356
 6008SOL    HW129483   3.328   1.680   2.221 -0.8676 -0.4673 -0.7670
 6008SOL    HW229484   3.455   1.636   2.175 -1.5598  1.4788 -0.1967
 6009SOL     OW29485   0.829   0.804   2.970  0.5996 -0.2882 -0.1558
 6009SOL    HW129486   0.766   0.732   2.973 -2.6272  2.5863  0.6159
 6009SOL    HW229487   0.915   0.763   2.981  0.9365  0.5023  0.2178
 6010SOL     OW29488   1.175   3.619   1.350  0.1578 -0.6977  0.1065
 6010SOL    HW129489   1.269   3.639   1.344 -0.1379  0.2317 -1.3273
 6010SOL    HW229490   1.176   3.525   1.336  1.1658 -1.0744  2.6888
 6011SOL     OW29491   1.659   0.116   5.465 -0.0193 -0.4404  0.0758
 6011SOL    HW129492   1.567   0.121   5.440  0.0139 -0.3337 -0.0287
 6011SOL    HW229493   1.690   0.159   5.385 -0.4663  2.9180  1.7220
 6012SOL     OW29494   3.990   3.911   9.166 -0.1094  0.4250  0.2078
 6012SOL    HW129495   4.010   3.883   9.256  1.1009  1.2486  0.1952
 6012SOL    HW229496   3.894   3.908   9.166 -0.1044  0.6546 -1.1245
 6013SOL     OW29497   3.585   4.542   4.503 -0.2647 -0.4456  0.2759
 6013SOL    HW129498   3.494   4.549   4.473  0.0808 -3.1740 -1.3404
 6013SOL    HW229499   3.618   4.483   4.435  0.7876 -1.2223  1.4678
 6014SOL     OW29500   4.678   4.590   2.691 -0.1139  0.0297  0.2374
 6014SOL    HW129501   4.616   4.517   2.689 -0.5794  0.5666 -4.2647
 6014SOL    HW229502   0.030   4.548   2.738 -0.4172  0.7502  1.3442
 6015SOL     OW29503   0.637   2.302   2.519 -0.0269  0.9313 -0.4122
 6015SOL    HW129504   0.681   2.307   2.604  0.5540 -0.8195 -0.6134
 6015SOL    HW229505   0.577   2.228   2.526  2.1814 -0.7488  0.5097
 6016SOL     OW29506   3.223   2.778   3.048  0.0447 -0.1970 -1.0093
 6016SOL    HW129507   3.159   2.836   3.006  2.0224  2.4980 -0.3083
 6016SOL    HW229508   3.172   2.698   3.060 -0.1895 -0.1487 -1.7029
 6017SOL     OW29509   3.725   0.923   1.296 -0.2590 -0.4767 -0.0401
 6017SOL    HW129510   3.792   0.918   1.364 -0.7223 -0.7216  0.4101
 6017SOL    HW229511   3.756   0.990   1.236  2.4919 -0.0874  1.8356
 6018SOL     OW29512   1.348   2.268  13.570  0.0964  0.1407  0.3693
 6018SOL    HW129513   1.254   2.286  13.579  0.4699  0.5011  3.4080
 6018SOL    HW229514   1.357   2.179  13.603  1.4446  0.8767  1.9524
 6019SOL     OW29515   3.679   0.516   5.413 -0.3795 -0.3447  0.0533
 6019SOL    HW129516   3.643   0.534   5.326  0.2609 -1.4367 -0.4248
 6019SOL    HW229517   3.603   0.545   5.465 -0.4647  2.5862 -1.6807
 6020SOL     OW29518   2.609   3.968   7.414  0.9373 -0.0066 -0.3455
 6020SOL    HW129519   2.649   3.900   7.361 -0.3361 -0.2052 -1.0634
 6020SOL    HW229520   2.676   3.998   7.476  2.0062 -1.6373 -0.7219
 6021SOL     OW29521   4.492   2.045   3.278 -0.1119  0.0087 -0.3038
 6021SOL    HW129522   4.435   1.969   3.267 -0.8923  0.3190  1.5591
 6021SOL    HW229523   4.450   2.099   3.211  0.4759  0.6272 -0.1687
 6022SOL     OW29524   1.082   3.661   8.546 -0.5596  0.4596 -0.6365
 6022SOL    HW129525   1.043   3.574   8.550  0.7519 -0.0722  0.3807
 6022SOL    HW229526   1.057   3.691   8.458  1.7174  1.2670 -0.9954
 6023SOL     OW29527   4.495   4.415   5.115  0.4207  0.0675  0.1274
 6023SOL    HW129528   4.438   4.490   5.098  3.7900  2.7408  0.5720
 6023SOL    HW229529   4.585   4.448   5.113  0.5875 -0.1878  2.6148
 6024SOL     OW29530   0.185   3.563  14.374  0.1754  0.0233  0.3534
 6024SOL    HW129531   0.268   3.590  14.335  0.8851 -1.6355  0.6838
 6024SOL    HW229532   0.162   3.640  14.427  0.2661 -0.1373  0.6299
 6025SOL     OW29533   2.392   0.594   6.149 -0.2430  0.2528 -0.1325
 6025SOL    HW129534   2.376   0.601   6.243 -1.3491 -2.8445 -0.0911
 6025SOL    HW229535   2.311   0.628   6.109 -0.9433 -0.8157  0.3866
 6026SOL     OW29536   0.816   0.020   5.017  0.0259  0.3239 -0.4307
 6026SOL    HW129537   0.857   4.677   5.075 -3.1873 -1.8835 -0.5694
 6026SOL    HW229538   0.809   0.098   5.072  1.7858  1.7467 -2.2184
 6027SOL     OW29539   2.400   1.436   7.386 -0.5029 -0.0983  0.2394
 6027SOL    HW129540   2.395   1.343   7.360  0.8869  0.2273 -1.2001
 6027SOL    HW229541   2.315   1.466   7.355  0.0722  0.6410 -0.6316
 6028SOL     OW29542   1.299   3.821   5.693  0.5159  0.2305  0.3727
 6028SOL    HW129543   1.234   3.801   5.761  2.2980  0.0143  1.9897
 6028SOL    HW229544   1.351   3.890   5.732  2.4658 -1.2893  0.4710
 6029SOL     OW29545   3.933   0.253   9.996 -0.0312 -0.4121  0.0613
 6029SOL    HW129546   3.950   0.239   9.903  0.9921 -0.8977  0.3222
 6029SOL    HW229547   3.891   0.169  10.016  1.2706 -1.3684 -1.1832
 6030SOL     OW29548   2.590   0.887   7.153 -0.1492  0.5732 -0.5846
 6030SOL    HW129549   2.684   0.873   7.137 -0.1990  0.1387 -0.4930
 6030SOL    HW229550   2.591   0.982   7.160  0.0104  0.5486 -0.2433
 6031SOL     OW29551   2.321   3.875  10.011 -0.1425  0.3603 -0.2990
 6031SOL    HW129552   2.232   3.893   9.981 -0.7171 -2.1286 -0.0893
 6031SOL    HW229553   2.333   3.941  10.079  0.4375 -0.8803  0.8154
 6032SOL     OW29554   0.897   0.933   6.483 -0.1677  0.3151  0.4645
 6032SOL    HW129555   0.943   0.855   6.451 -0.8184  0.1524 -0.0630
 6032SOL    HW229556   0.832   0.950   6.415 -1.8966 -0.4931  1.9147
 6033SOL     OW29557   3.732   4.335  17.115 -0.3481  0.8343  0.5247
 6033SOL    HW129558   3.653   4.310  17.068  0.6672 -1.1698 -0.1384
 6033SOL    HW229559   3.703   4.342  17.206 -1.6844 -0.6104  0.2078
 6034SOL     OW29560   0.102   4.713  11.545 -0.6770 -0.0467 -0.1120
 6034SOL    HW129561   0.056   0.065  11.586 -2.0595 -1.4549  0.8443
 6034SOL    HW229562   0.070   0.010  11.457  1.7463  1.8147 -0.6269
 6035SOL     OW29563   0.869   2.080   8.802  0.1477 -0.0293 -0.6399
 6035SOL    HW129564   0.836   2.146   8.741 -0.0712  2.6078  2.3681
 6035SOL    HW229565   0.902   2.017   8.737  1.3417 -0.0536 -0.0195
 6036SOL     OW29566   3.201   0.040  17.532  0.0436 -0.6600 -0.1412
 6036SOL    HW129567   3.144   0.114  17.556 -0.7352 -1.2771 -0.0880
 6036SOL    HW229568   3.230   4.720  17.613 -0.5430 -0.5322  0.1328
 6037SOL     OW29569   0.586   0.090   2.003 -0.0999  0.0985  0.0045
 6037SOL    HW129570   0.528   0.164   1.983  1.3693  1.7047  1.7115
 6037SOL    HW229571   0.604   0.056   1.915 -1.1678  1.2229 -0.6555
 6038SOL     OW29572   2.562   0.146  10.774  0.1245  0.0023  0.3167
 6038SOL    HW129573   2.516   0.201  10.837 -0.9808 -0.7977  0.1923
 6038SOL    HW229574   2.527   0.188  10.695 -0.6390  0.4072  0.8763
 6039SOL     OW29575   1.262   0.362   7.368 -0.3512  0.6758  0.5252
 6039SOL    HW129576   1.301   0.346   7.454  1.3919  1.6629 -0.0915
 6039SOL    HW229577   1.183   0.415   7.382  0.4473  1.5521  1.7125
 6040SOL     OW29578   3.453   4.366  15.809  0.3546 -0.0794 -0.0630
 6040SOL    HW129579   3.451   4.458  15.782 -1.0636 -0.3396 -0.8519
 6040SOL    HW229580   3.519   4.336  15.747 -0.7433 -0.0203 -1.2629
 6041SOL     OW29581   4.567   1.691   2.948 -0.1632 -0.1439  0.1638
 6041SOL    HW129582   4.643   1.649   2.908  0.4356  1.5748 -0.4986
 6041SOL    HW229583   4.504   1.621   2.965  0.4818 -0.9663 -0.8035
 6042SOL     OW29584   4.288   0.721  15.052 -0.1222  0.2301  0.2921
 6042SOL    HW129585   4.356   0.654  15.038  1.2268  1.9092 -1.2014
 6042SOL    HW229586   4.212   0.664  15.064 -1.7838  2.2672 -0.6416
 6043SOL     OW29587   2.642   2.719   3.516  0.3000 -0.6180 -0.4482
 6043SOL    HW129588   2.548   2.732   3.499  0.5140  2.5517  0.7973
 6043SOL    HW229589   2.671   2.632   3.488  0.7027 -1.2174  1.8278
 6044SOL     OW29590   0.448   1.772   9.597 -0.2337 -0.0411  0.4530
 6044SOL    HW129591   0.494   1.692   9.625 -1.1797 -0.3374  1.1517
 6044SOL    HW229592   0.361   1.731   9.594 -0.2493 -0.0399  0.9123
 6045SOL     OW29593   4.022   2.462  14.168 -0.4622 -0.0120  0.2856
 6045SOL    HW129594   3.980   2.419  14.093 -1.1568 -0.4124  0.9063
 6045SOL    HW229595   3.978   2.546  14.159 -0.1391  0.1600  0.3334
 6046SOL     OW29596   4.597   0.029   4.892  0.6380  0.4593  0.0209
 6046SOL    HW129597   4.593   4.660   4.860  0.8146  0.8989 -1.2328
 6046SOL    HW229598   4.554   0.093   4.836 -0.2126 -2.3628 -2.5078
 6047SOL     OW29599   2.331   1.236   5.647 -0.0882  0.2570 -0.6272
 6047SOL    HW129600   2.377   1.233   5.563 -0.8878 -0.4554 -1.0509
 6047SOL    HW229601   2.356   1.324   5.672 -2.9618  1.8049 -3.0992
 6048SOL     OW29602   2.048   2.765   9.639 -0.8053 -0.0007 -0.7001
 6048SOL    HW129603   2.142   2.783   9.647 -0.9349  0.4272 -0.0981
 6048SOL    HW229604   2.028   2.797   9.551  0.1767  0.8315 -0.6277
 6049SOL     OW29605   4.686   3.012   6.417 -0.0126 -0.2283  0.3475
 6049SOL    HW129606   0.015   3.001   6.498 -0.2114 -2.6737  0.1380
 6049SOL    HW229607   4.660   2.925   6.386 -1.4016  0.2030  0.2959
 6050SOL     OW29608   1.666   0.374   3.122 -0.6005 -0.5372 -0.0627
 6050SOL    HW129609   1.709   0.423   3.191  0.3010  1.0333 -1.7257
 6050SOL    HW229610   1.604   0.441   3.092 -0.3851 -0.2430  0.1567
 6051SOL     OW29611   2.308   3.276   5.976  1.2627  0.2198  0.3310
 6051SOL    HW129612   2.375   3.252   5.912  1.3463 -1.3677  1.0147
 6051SOL    HW229613   2.274   3.188   5.994  0.7615  0.3473  0.0061
 6052SOL     OW29614   2.132   1.497   7.683  0.1371 -0.3796 -0.3333
 6052SOL    HW129615   2.049   1.455   7.706  1.3217 -0.3922  3.8189
 6052SOL    HW229616   2.167   1.506   7.771 -1.0112  0.3942  0.0496
 6053SOL     OW29617   1.930   3.952   2.091 -0.6015  0.3887 -0.3414
 6053SOL    HW129618   1.977   3.873   2.064  0.5686  0.5816  1.1142
 6053SOL    HW229619   1.866   3.965   2.021  0.4619  0.8809 -1.2090
 6054SOL     OW29620   3.824   3.206   7.839  0.2851 -0.8860  0.3559
 6054SOL    HW129621   3.807   3.298   7.859 -1.4469 -1.0462 -0.3648
 6054SOL    HW229622   3.890   3.213   7.769  2.3505 -1.3564  2.2600
 6055SOL     OW29623   3.589   3.772   6.929  0.2570  0.3037  0.4182
 6055SOL    HW129624   3.650   3.833   6.971  2.4474 -1.7830  0.3202
 6055SOL    HW229625   3.541   3.728   6.999 -1.5297 -0.1984 -1.1204
 6056SOL     OW29626   0.804   0.483   5.093 -0.0348  0.2347  0.1576
 6056SOL    HW129627   0.817   0.526   5.177  1.5511  0.5709 -0.2641
 6056SOL    HW229628   0.713   0.500   5.067  0.3604  1.2352 -0.5785
 6057SOL     OW29629   0.296   0.615  16.939 -0.4796  0.5617 -1.1693
 6057SOL    HW129630   0.385   0.634  16.907  0.0713  0.7968  0.5329
 6057SOL    HW229631   0.281   0.690  16.995 -3.4559  0.3200 -1.6477
 6058SOL     OW29632   0.758   3.466   4.167 -0.2613  0.6432  0.6100
 6058SOL    HW129633   0.675   3.458   4.214 -0.1396 -3.1280  0.1562
 6058SOL    HW229634   0.781   3.553   4.200  1.2153  0.8156 -0.8966
 6059SOL     OW29635   1.525   1.668   8.825  0.1188  0.0414  0.1005
 6059SOL    HW129636   1.562   1.755   8.810  1.8937 -0.4642  1.4183
 6059SOL    HW229637   1.475   1.692   8.904  1.3355  1.9763  0.2976
 6060SOL     OW29638   2.110   3.586  15.742  0.4320 -0.1633 -0.4659
 6060SOL    HW129639   2.091   3.499  15.706  1.4878 -2.1633  3.9235
 6060SOL    HW229640   2.024   3.620  15.768  0.1938 -0.1804 -1.2241
 6061SOL     OW29641   1.146   3.715   4.273 -0.4755  0.2523  0.3656
 6061SOL    HW129642   1.203   3.638   4.275 -0.3458  0.3508  0.4306
 6061SOL    HW229643   1.205   3.789   4.259 -1.9961  1.4743  0.5079
 6062SOL     OW29644   0.036   3.623   6.259  0.4474  0.1404 -0.1896
 6062SOL    HW129645   4.720   3.596   6.175 -2.5791 -0.8317  1.4523
 6062SOL    HW229646   0.104   3.557   6.275 -0.9404 -1.0807  0.6340
 6063SOL     OW29647   3.748   4.670   6.772  0.2103 -0.3783 -0.2477
 6063SOL    HW129648   3.792   4.586   6.763  3.3566  1.2829 -0.4094
 6063SOL    HW229649   3.679   4.646   6.834  0.8907 -1.0524  0.2518
 6064SOL     OW29650   1.650   1.909   7.890 -0.4887 -0.1973  0.1235
 6064SOL    HW129651   1.745   1.922   7.896 -0.4113 -1.1559  0.9633
 6064SOL    HW229652   1.630   1.985   7.835  0.6052  1.0180  1.3860
 6065SOL     OW29653   1.039   2.424   9.866 -0.0854 -0.0014 -0.6425
 6065SOL    HW129654   1.095   2.502   9.861 -0.8821  0.4184 -2.8733
 6065SOL    HW229655   0.952   2.461   9.851 -0.7676 -0.7249  1.6045
 6066SOL     OW29656   2.089   1.714   1.268 -0.8516 -0.4561  0.5018
 6066SOL    HW129657   2.162   1.653   1.258  1.4632  2.5870 -1.0759
 6066SOL    HW229658   2.028   1.700   1.196 -0.2033  0.0435 -0.1488
 6067SOL     OW29659   1.620   4.216   7.718  0.6375 -0.1671 -0.0341
 6067SOL    HW129660   1.581   4.233   7.632  0.0864 -0.5693  0.1368
 6067SOL    HW229661   1.544   4.227   7.775  0.6048  1.8243 -0.4526
 6068SOL     OW29662   3.781   4.167   4.204 -0.0275  0.3299 -0.4870
 6068SOL    HW129663   3.817   4.215   4.130  0.8661 -0.3401 -0.4806
 6068SOL    HW229664   3.860   4.166   4.257 -1.0266  1.6998  1.0160
 6069SOL     OW29665   0.234   4.570   3.981 -0.5311  0.1607  0.4012
 6069SOL    HW129666   0.317   4.531   3.953 -1.3001 -2.1544  1.3473
 6069SOL    HW229667   0.165   4.508   3.956  0.8188 -1.6860  1.2925
 6070SOL     OW29668   3.498   2.950   5.694 -0.3087  1.1576  0.3722
 6070SOL    HW129669   3.404   2.962   5.705 -0.7669 -1.2734 -0.8239
 6070SOL    HW229670   3.526   2.958   5.785 -1.6502 -1.5729  1.0506
 6071SOL     OW29671   1.107   4.094   0.453  0.1361 -0.0922  0.1697
 6071SOL    HW129672   1.080   4.035   0.523 -2.3253  1.6692  0.7248
 6071SOL    HW229673   1.191   4.054   0.432  0.0659 -1.3432  2.3252
 6072SOL     OW29674   4.539   3.446   5.734  0.1538  1.1287 -0.4137
 6072SOL    HW129675   4.566   3.360   5.768 -3.8783  0.5750  1.3532
 6072SOL    HW229676   4.520   3.490   5.817 -1.1188 -0.2907  0.0524
 6073SOL     OW29677   1.652   2.620   5.121  0.1455 -0.7196  0.3633
 6073SOL    HW129678   1.693   2.637   5.206 -2.1616  0.8387  1.1529
 6073SOL    HW229679   1.669   2.706   5.082  2.1043 -2.0896 -1.8763
 6074SOL     OW29680   0.276   1.420  16.220 -0.8276  0.1468 -0.0074
 6074SOL    HW129681   0.353   1.412  16.276 -0.3942  1.9539 -0.3527
 6074SOL    HW229682   0.239   1.505  16.245 -2.2599 -0.1068 -1.2398
 6075SOL     OW29683   1.667   2.199   6.309 -0.2742 -0.0428  0.3671
 6075SOL    HW129684   1.602   2.206   6.239 -0.8439  0.2039  0.9112
 6075SOL    HW229685   1.727   2.262   6.271  1.4231 -1.0214  1.4226
 6076SOL     OW29686   3.367   2.582   9.645 -0.0847  0.6926  0.1338
 6076SOL    HW129687   3.395   2.594   9.735 -0.2286  0.4530  0.2087
 6076SOL    HW229688   3.273   2.582   9.657 -0.1598  1.3281 -0.4436
 6077SOL     OW29689   3.103   1.373   7.738  0.6974 -0.3069  0.2357
 6077SOL    HW129690   3.137   1.462   7.740 -0.9612  0.2790  1.4461
 6077SOL    HW229691   3.182   1.325   7.764 -0.6730 -1.9883  1.3040
 6078SOL     OW29692   3.493   1.253   5.528 -0.2100  0.1430 -0.7924
 6078SOL    HW129693   3.499   1.336   5.481  0.3154  1.4559  1.5838
 6078SOL    HW229694   3.512   1.195   5.455  0.7973 -0.7157  0.1338
 6079SOL     OW29695   0.380   2.950   5.687  0.0651  0.3990  0.4307
 6079SOL    HW129696   0.465   2.994   5.686  0.0685  0.4655  2.2099
 6079SOL    HW229697   0.404   2.858   5.674  0.2182  0.4652  0.2385
 6080SOL     OW29698   0.407   1.359  13.363 -0.0193 -0.3387 -0.3827
 6080SOL    HW129699   0.366   1.327  13.443 -1.4202 -0.1558 -1.0247
 6080SOL    HW229700   0.363   1.443  13.350  0.7736  0.0995 -0.2344
 6081SOL     OW29701   0.526   1.180   7.495  0.2358 -0.0514  0.4965
 6081SOL    HW129702   0.530   1.151   7.404 -0.1747 -1.4271  0.9262
 6081SOL    HW229703   0.617   1.174   7.526  1.2697  1.1700 -2.2893
 6082SOL     OW29704   2.836   3.791   8.006  0.3239 -0.1235  0.2571
 6082SOL    HW129705   2.756   3.836   8.034  1.0116 -0.4632  2.6826
 6082SOL    HW229706   2.874   3.771   8.091  1.2857 -1.3412 -0.4589
 6083SOL     OW29707   1.075   3.906   6.206  0.1789  0.1436 -0.2008
 6083SOL    HW129708   1.128   3.917   6.284 -1.1972  1.1324  0.5851
 6083SOL    HW229709   0.999   3.959   6.229 -0.4129 -0.1034 -1.5478
 6084SOL     OW29710   2.968   1.043   6.450 -0.3520 -0.4248 -0.2990
 6084SOL    HW129711   3.023   1.057   6.527  1.4458 -0.7562 -1.5218
 6084SOL    HW229712   2.944   0.952   6.465 -0.4893 -0.4750 -0.8252
 6085SOL     OW29713   4.068   2.115  13.860  0.2274  0.0365  0.5094
 6085SOL    HW129714   4.145   2.091  13.911  1.5306  0.6394 -1.2092
 6085SOL    HW229715   4.010   2.038  13.859  1.3085 -0.7739  0.0983
 6086SOL     OW29716   3.710   1.607   8.527 -0.1019  0.1912  1.1268
 6086SOL    HW129717   3.657   1.529   8.538 -1.3789  0.8615 -0.2873
 6086SOL    HW229718   3.651   1.667   8.481  1.0423 -0.8059 -1.6379
 6087SOL     OW29719   3.616   0.499   9.938  0.5359  0.3677  0.3862
 6087SOL    HW129720   3.656   0.541   9.862 -1.5981  1.7886  0.0535
 6087SOL    HW229721   3.557   0.561   9.980  1.7163  2.0100 -0.4215
 6088SOL     OW29722   0.392   0.693   8.290 -0.0077  0.4457  0.0739
 6088SOL    HW129723   0.451   0.618   8.282 -0.2044  0.1580  1.2655
 6088SOL    HW229724   0.321   0.673   8.230 -0.6422 -2.1916  1.7081
 6089SOL     OW29725   1.949   3.435   5.704  0.3913  0.3573 -0.1206
 6089SOL    HW129726   1.858   3.453   5.727  1.2027  3.0636  0.9956
 6089SOL    HW229727   1.992   3.423   5.789  0.4710  0.5712 -0.1298
 6090SOL     OW29728   3.845   0.215   2.595 -0.0764 -0.2369  0.0606
 6090SOL    HW129729   3.849   0.133   2.645 -0.4417  0.3558  1.0753
 6090SOL    HW229730   3.753   0.238   2.611 -0.2823 -1.1168  0.1506
 6091SOL     OW29731   2.942   2.280  11.734  0.1076 -0.9617  0.9803
 6091SOL    HW129732   2.919   2.291  11.827 -0.3340  0.0045  0.7579
 6091SOL    HW229733   3.013   2.344  11.730  0.7970 -1.6858  1.7073
 6092SOL     OW29734   3.472   3.025   6.688 -0.0206 -0.3513  0.5339
 6092SOL    HW129735   3.492   2.950   6.631 -0.3642 -0.5619  0.6918
 6092SOL    HW229736   3.394   3.062   6.647  0.5656  0.4869  0.1823
 6093SOL     OW29737   3.440   0.356   1.152 -0.3159  0.0628  0.2420
 6093SOL    HW129738   3.346   0.364   1.168 -0.5349 -0.7581 -0.6154
 6093SOL    HW229739   3.438   0.332   1.059 -1.4812  0.7198  0.1001
 6094SOL     OW29740   1.032   3.751   4.872 -0.5102  0.1190  0.0912
 6094SOL    HW129741   0.945   3.750   4.832 -0.1056 -0.2027 -0.7907
 6094SOL    HW229742   1.072   3.686   4.813 -2.8750 -0.8467 -0.4428
 6095SOL     OW29743   4.701   2.919   1.521 -0.1319  0.1592  0.0091
 6095SOL    HW129744   4.653   2.975   1.582 -0.4810  1.7729 -1.7696
 6095SOL    HW229745   0.065   2.963   1.521 -0.2803  0.4298 -2.1936
 6096SOL     OW29746   4.518   0.271   4.781  0.1693 -0.0607  0.2831
 6096SOL    HW129747   4.611   0.264   4.759 -0.0534 -0.4136 -0.5712
 6096SOL    HW229748   4.524   0.339   4.847 -0.0576 -0.3382  0.5863
 6097SOL     OW29749   2.961   1.851  17.532 -0.6131  0.4306 -0.2952
 6097SOL    HW129750   2.929   1.771  17.574  2.2162 -0.6920 -0.2704
 6097SOL    HW229751   2.912   1.849  17.450 -1.2921 -1.2249  0.1561
 6098SOL     OW29752   2.230   0.465  14.547  0.0330  0.1333 -0.5067
 6098SOL    HW129753   2.245   0.527  14.476 -1.1432  0.6759 -0.2880
 6098SOL    HW229754   2.316   0.467  14.590 -0.6039 -0.5271  0.8019
 6099SOL     OW29755   3.273   2.305  11.301 -0.3212  0.3309 -0.1558
 6099SOL    HW129756   3.295   2.386  11.347  0.6677 -0.9383  1.5979
 6099SOL    HW229757   3.347   2.250  11.326 -1.2328 -1.0405 -0.4954
 6100SOL     OW29758   1.442   1.426   8.099 -0.5457 -0.0810  0.1302
 6100SOL    HW129759   1.392   1.507   8.107 -0.6622 -0.0363 -1.0297
 6100SOL    HW229760   1.511   1.440   8.163  1.2128 -0.2525 -1.7066
 6101SOL     OW29761   3.019   0.514   4.447 -0.3380 -0.2870 -0.3734
 6101SOL    HW129762   2.924   0.511   4.444 -0.4684  2.0923  1.7834
 6101SOL    HW229763   3.039   0.442   4.386 -1.1850 -2.3229  1.7525
 6102SOL     OW29764   4.574   0.394   6.157  0.5451  0.2397 -0.0946
 6102SOL    HW129765   4.562   0.476   6.108 -1.9512 -0.1728 -0.1401
 6102SOL    HW229766   4.507   0.350   6.104  0.5117 -0.8546  0.8638
 6103SOL     OW29767   3.575   0.573   1.318  0.2056  0.3422  0.2856
 6103SOL    HW129768   3.590   0.636   1.247 -1.0783  1.8674  1.3659
 6103SOL    HW229769   3.515   0.510   1.278 -0.3251  2.3505 -2.1132
 6104SOL     OW29770   0.928   3.772  14.884 -0.2973 -0.4223  0.7056
 6104SOL    HW129771   0.836   3.787  14.862  0.2996  1.2951 -0.5927
 6104SOL    HW229772   0.920   3.756  14.978  0.7878 -0.3418  0.8097
 6105SOL     OW29773   1.263   2.031   8.698 -0.7629  0.0978 -0.1538
 6105SOL    HW129774   1.295   1.941   8.704  1.5058  1.0833  2.9599
 6105SOL    HW229775   1.240   2.049   8.789 -2.4448  1.2345 -0.8140
 6106SOL     OW29776   2.870   1.072   2.734 -0.2607  0.2073 -0.1462
 6106SOL    HW129777   2.788   1.079   2.782 -1.0431  1.8100 -1.7173
 6106SOL    HW229778   2.876   1.164   2.710  0.3942  0.4736  1.0307
 6107SOL     OW29779   2.344   3.869   3.629  0.1377  0.0085 -0.1329
 6107SOL    HW129780   2.413   3.894   3.690  0.5323  0.1305 -0.6287
 6107SOL    HW229781   2.308   3.950   3.593 -1.8823 -0.5485  0.6248
 6108SOL     OW29782   0.068   2.242  14.718 -0.2765  0.1971  0.2474
 6108SOL    HW129783   4.698   2.258  14.695  0.2086  2.3921 -0.1002
 6108SOL    HW229784   0.121   2.296  14.658  0.1878  1.7356  2.0356
 6109SOL     OW29785   2.262   1.526   5.201 -0.0058  0.1847 -0.1512
 6109SOL    HW129786   2.203   1.451   5.199  0.6913 -0.3022 -1.6928
 6109SOL    HW229787   2.241   1.560   5.288 -0.5247 -1.7704  0.4879
 6110SOL     OW29788   2.067   2.819   3.831  0.4573  0.7904  0.5462
 6110SOL    HW129789   2.110   2.761   3.893 -0.8304  1.1256  1.7528
 6110SOL    HW229790   2.133   2.888   3.820 -1.4347  2.3373 -1.3050
 6111SOL     OW29791   0.756   4.285   5.836  0.1659  0.0819  0.3099
 6111SOL    HW129792   0.831   4.260   5.890  0.2543  2.0567  1.1073
 6111SOL    HW229793   0.692   4.214   5.840  1.1234 -0.7480  0.8991
 6112SOL     OW29794   2.878   2.866   1.005 -0.0465 -0.2334  0.2259
 6112SOL    HW129795   2.812   2.856   0.935  0.1531  1.7355 -0.2268
 6112SOL    HW229796   2.829   2.920   1.067 -0.4698  1.5333 -1.6284
 6113SOL     OW29797   1.115   4.351   9.145  0.1601 -0.0406 -0.1018
 6113SOL    HW129798   1.068   4.403   9.080  0.4928 -1.1493 -1.2324
 6113SOL    HW229799   1.204   4.365   9.112  0.8944 -1.3771  1.3445
 6114SOL     OW29800   2.269   3.789   2.429  0.4724 -1.1518  0.3766
 6114SOL    HW129801   2.189   3.798   2.480 -0.1282 -0.7093 -0.6500
 6114SOL    HW229802   2.241   3.739   2.352 -0.3887 -0.4092  0.2100
 6115SOL     OW29803   1.993   2.218   1.215 -0.0824 -0.6537  0.4625
 6115SOL    HW129804   2.012   2.264   1.296  0.6959  1.2979 -0.8157
 6115SOL    HW229805   1.998   2.290   1.153  0.0384 -1.0943 -0.0409
 6116SOL     OW29806   4.013   0.716   7.188 -0.4864  0.1416 -0.3913
 6116SOL    HW129807   3.969   0.710   7.103 -0.7010 -2.0087 -0.1038
 6116SOL    HW229808   4.038   0.625   7.200  2.6908  0.5177 -4.0813
 6117SOL     OW29809   0.794   2.264   9.817  0.4892 -0.0331 -0.4095
 6117SOL    HW129810   0.810   2.344   9.867 -0.0622 -1.5710  2.2303
 6117SOL    HW229811   0.738   2.300   9.748 -0.5206 -0.8255 -0.0023
 6118SOL     OW29812   1.229   1.127   8.960 -0.5169 -0.0378 -0.3914
 6118SOL    HW129813   1.295   1.059   8.964  2.4952  2.9128  0.3277
 6118SOL    HW229814   1.252   1.178   9.039 -1.4855  1.3290 -0.9782
 6119SOL     OW29815   1.236   2.303  10.890  0.0803 -0.0860 -0.4474
 6119SOL    HW129816   1.327   2.274  10.880  0.3283  0.0553  1.2554
 6119SOL    HW229817   1.195   2.219  10.872 -0.0202  0.1868 -1.5026
 6120SOL     OW29818   0.366   4.231  15.736 -0.1656 -0.2767 -0.1419
 6120SOL    HW129819   0.392   4.291  15.806 -1.2125 -0.5425  0.4786
 6120SOL    HW229820   0.326   4.156  15.781  2.0056 -1.3081  0.0696
 6121SOL     OW29821   3.385   1.319   1.266  0.6225  0.1786  0.4184
 6121SOL    HW129822   3.391   1.296   1.174 -0.7786 -1.1098  0.6546
 6121SOL    HW229823   3.463   1.274   1.301  0.0075 -0.8475  0.4644
 6122SOL     OW29824   1.303   2.671  15.269  0.2976  0.6372 -0.0970
 6122SOL    HW129825   1.370   2.685  15.203  1.4673 -1.4285  0.6528
 6122SOL    HW229826   1.252   2.607  15.219  0.3561  0.7996 -0.3652
 6123SOL     OW29827   1.840   0.262   6.238 -0.2229 -0.4353  0.0411
 6123SOL    HW129828   1.859   0.168   6.244  1.0809 -0.1553  0.3849
 6123SOL    HW229829   1.748   0.260   6.211 -0.4459  0.5216  0.7073
 6124SOL     OW29830   3.570   0.809   7.645 -0.0516  0.2024 -0.0844
 6124SOL    HW129831   3.666   0.817   7.643  0.0476 -1.4442 -1.5332
 6124SOL    HW229832   3.561   0.744   7.576  0.4767 -0.4037  0.4085
 6125SOL     OW29833   3.971   2.267   6.921  0.3000 -0.5179  0.0881
 6125SOL    HW129834   3.894   2.212   6.909  0.1132  0.0108 -1.0425
 6125SOL    HW229835   3.989   2.234   7.009 -0.7978 -0.3428  0.3787
 6126SOL     OW29836   0.092   3.467   5.930  0.2257 -0.1407  1.0116
 6126SOL    HW129837   0.078   3.475   5.836  0.6753  0.4242  0.9943
 6126SOL    HW229838   0.186   3.485   5.937 -0.0384  1.2604  0.9582
 6127SOL     OW29839   0.302   0.025   1.951  0.0858  0.2142  0.0879
 6127SOL    HW129840   0.337   0.112   1.926  1.0267  0.3320  1.8461
 6127SOL    HW229841   0.368   4.683   1.921  1.2765  1.0858  0.8799
 6128SOL     OW29842   1.499   3.112   5.088 -0.4807 -0.3002 -0.8525
 6128SOL    HW129843   1.434   3.047   5.116 -1.6031  1.7528  1.3230
 6128SOL    HW229844   1.533   3.149   5.170  1.2186  0.0483 -1.7271
 6129SOL     OW29845   0.133   0.945   4.480  0.5318 -0.4418  0.0811
 6129SOL    HW129846   0.147   0.993   4.399 -1.6891  0.1429  0.0411
 6129SOL    HW229847   0.087   0.866   4.451  0.7224  0.3778 -2.4629
 6130SOL     OW29848   1.013   0.203   3.688  0.8563  0.3553 -0.3306
 6130SOL    HW129849   0.978   0.123   3.726  1.3771 -0.2817 -1.1942
 6130SOL    HW229850   1.028   0.253   3.768 -0.5008 -1.6847  1.1767
 6131SOL     OW29851   0.857   1.802   3.488 -0.2412  0.2270  1.3201
 6131SOL    HW129852   0.950   1.819   3.471 -0.5709  0.2387 -0.4831
 6131SOL    HW229853   0.847   1.750   3.568 -0.7102 -1.0374  0.4478
 6132SOL     OW29854   0.724   4.412   1.354  0.4331  0.3038  0.8345
 6132SOL    HW129855   0.739   4.407   1.260  0.8794 -1.1814  0.9873
 6132SOL    HW229856   0.631   4.435   1.350  0.9222  2.3109  1.1003
 6133SOL     OW29857   4.580   2.749   3.802 -0.4009  0.1410  0.0257
 6133SOL    HW129858   4.579   2.734   3.897  0.1693 -0.3973 -0.0582
 6133SOL    HW229859   4.675   2.753   3.789 -0.6203  1.6773 -1.0508
 6134SOL     OW29860   4.378   1.999  13.753  0.1408 -0.4158 -0.2610
 6134SOL    HW129861   4.317   1.974  13.683 -1.7421  0.7196  0.9776
 6134SOL    HW229862   4.325   1.995  13.833  1.0950  0.9928  0.4268
 6135SOL     OW29863   2.423   4.546  13.931  0.2580  0.0684  0.1292
 6135SOL    HW129864   2.487   4.477  13.947  0.5418  1.0997  3.5148
 6135SOL    HW229865   2.460   4.600  14.001  0.1302  0.1975  0.0969
 6136SOL     OW29866   2.950   1.292   4.698  0.7837  0.4888 -0.1594
 6136SOL    HW129867   3.029   1.258   4.741  0.5562 -2.5215 -2.1088
 6136SOL    HW229868   2.966   1.386   4.707 -1.5476  1.0381 -1.8460
 6137SOL     OW29869   3.821   0.345   0.272  1.1187  0.0076 -0.2953
 6137SOL    HW129870   3.769   0.340   0.352  0.6637 -0.7571 -0.6302
 6137SOL    HW229871   3.752   0.331   0.207 -0.0133  2.2578  0.4221
 6138SOL     OW29872   0.003   4.390  10.970  0.3723  0.4961 -0.7230
 6138SOL    HW129873   4.696   4.479  10.989 -0.0874 -0.1165  1.4632
 6138SOL    HW229874   4.694   4.338  11.045  3.5738  0.6398  0.6680
 6139SOL     OW29875   1.158   2.516  15.111  0.0563  0.0688 -0.3786
 6139SOL    HW129876   1.081   2.565  15.082  0.0576  0.3075  0.0228
 6139SOL    HW229877   1.129   2.427  15.091  0.4980 -0.4462  1.2630
 6140SOL     OW29878   2.204   0.114   5.471  0.1424 -0.0535 -0.1149
 6140SOL    HW129879   2.155   0.134   5.391  0.0423  0.7361  0.1464
 6140SOL    HW229880   2.273   0.180   5.464 -0.0183  0.2521  1.1761
 6141SOL     OW29881   0.637   2.288   3.913 -1.0203 -0.2177  0.2192
 6141SOL    HW129882   0.606   2.373   3.882  0.1284  0.8253  1.9392
 6141SOL    HW229883   0.567   2.263   3.975 -0.6187 -1.3986  0.2039
 6142SOL     OW29884   1.316   1.432   8.982  0.1772  0.2262  0.5300
 6142SOL    HW129885   1.404   1.402   8.959 -1.2619 -1.8568 -2.2269
 6142SOL    HW229886   1.319   1.451   9.076 -2.6094 -0.9400  0.8603
 6143SOL     OW29887   2.657   1.555   1.176 -0.3163  0.5049  0.2069
 6143SOL    HW129888   2.631   1.475   1.132 -0.6539 -0.6601  2.5247
 6143SOL    HW229889   2.598   1.616   1.130 -0.5291 -0.3375 -0.6369
 6144SOL     OW29890   1.952   2.513  10.938  0.5160  0.2317  0.0239
 6144SOL    HW129891   1.955   2.453  11.013 -0.2406  0.8357  0.5373
 6144SOL    HW229892   1.865   2.513  10.899  0.4099  0.4899  0.2593
 6145SOL     OW29893   3.586   1.792   6.921  0.4562  0.0815  0.0868
 6145SOL    HW129894   3.601   1.698   6.924 -0.6876 -0.0288  2.4449
 6145SOL    HW229895   3.537   1.784   6.839 -0.9823  0.7054  0.8849
 6146SOL     OW29896   1.388   3.310   3.584  0.0504 -0.2557  0.3058
 6146SOL    HW129897   1.431   3.383   3.539  0.9456 -0.5374  0.7057
 6146SOL    HW229898   1.422   3.319   3.673  1.2247  0.4280 -0.2065
 6147SOL     OW29899   0.378   3.954  16.739 -0.0106 -0.5508  0.1331
 6147SOL    HW129900   0.385   3.912  16.654  0.5104 -3.1620  1.4629
 6147SOL    HW229901   0.365   3.878  16.797 -1.9760 -0.3562 -0.0435
 6148SOL     OW29902   0.221   1.153  10.683 -0.4659 -0.0951  0.7303
 6148SOL    HW129903   0.127   1.135  10.677 -0.6463  0.9275  0.3909
 6148SOL    HW229904   0.222   1.157  10.778 -0.5969 -0.2620  0.7388
 6149SOL     OW29905   3.033   4.050   2.364  0.2642 -0.0909 -0.1253
 6149SOL    HW129906   3.048   3.964   2.324  1.1925  0.8241 -1.7346
 6149SOL    HW229907   2.960   4.087   2.314 -0.5820  0.1544  1.2744
 6150SOL     OW29908   3.297   4.174   1.570  0.1274  0.0823  0.4034
 6150SOL    HW129909   3.378   4.200   1.614  0.7535  1.4713 -1.5633
 6150SOL    HW229910   3.247   4.152   1.648 -0.8979  1.1531  0.0522
 6151SOL     OW29911   2.298   2.500  17.554 -0.2128 -0.1211  0.5934
 6151SOL    HW129912   2.361   2.435  17.587 -0.4337 -0.7479 -0.2179
 6151SOL    HW229913   2.350   2.548  17.490  1.7463 -0.9970  1.5229
 6152SOL     OW29914   3.367   0.895   6.095  0.0987  0.0599 -0.2240
 6152SOL    HW129915   3.382   0.958   6.024 -1.9792  1.1163  0.2773
 6152SOL    HW229916   3.444   0.840   6.084 -1.2009 -1.6256 -0.8177
 6153SOL     OW29917   2.146   1.085   8.941 -0.2460  0.1707  0.2032
 6153SOL    HW129918   2.055   1.115   8.950 -0.5190 -1.0616  1.6652
 6153SOL    HW229919   2.185   1.125   9.018 -0.3157 -1.3146  1.0269
 6154SOL     OW29920   0.919   3.649   1.292 -0.4097 -0.3679  0.0695
 6154SOL    HW129921   0.903   3.564   1.333  0.3726 -0.8575 -0.6343
 6154SOL    HW229922   1.010   3.666   1.317  0.0660 -0.3809 -1.6384
 6155SOL     OW29923   4.667   2.321  12.684  0.3820  0.1206 -0.0180
 6155SOL    HW129924   0.036   2.333  12.653  1.0804 -2.2535  1.0898
 6155SOL    HW229925   4.644   2.402  12.731 -1.6352 -1.7345  2.1853
 6156SOL     OW29926   3.097   4.342   5.066  0.1641 -0.0597  0.1237
 6156SOL    HW129927   3.098   4.251   5.036 -2.1060  0.7116 -2.2929
 6156SOL    HW229928   3.064   4.385   4.987  0.5353 -0.1859 -0.1023
 6157SOL     OW29929   3.326   2.884   9.352 -0.3994 -0.3933 -0.1635
 6157SOL    HW129930   3.333   2.790   9.337 -1.2336 -0.4983  0.1043
 6157SOL    HW229931   3.246   2.884   9.405 -0.9549  0.4895 -1.0056
 6158SOL     OW29932   4.184   1.891   8.842 -0.2386 -0.3788  0.1728
 6158SOL    HW129933   4.176   1.811   8.790  2.0792  0.3790 -1.3386
 6158SOL    HW229934   4.148   1.868   8.927  0.8418  0.1944  0.7959
 6159SOL     OW29935   2.396   4.413   7.197 -0.9281 -0.4987 -0.2790
 6159SOL    HW129936   2.483   4.376   7.206 -0.9080 -0.1463  0.9864
 6159SOL    HW229937   2.366   4.390   7.285 -0.5032 -0.6982 -0.1857
 6160SOL     OW29938   3.587   1.768   1.562 -0.3434  0.8088  0.0830
 6160SOL    HW129939   3.517   1.762   1.496  1.7076  0.2244 -2.0250
 6160SOL    HW229940   3.599   1.676   1.588  1.2619  0.8953 -0.3730
 6161SOL     OW29941   3.686   0.318   7.063 -0.7034  0.1337 -0.0913
 6161SOL    HW129942   3.747   0.254   7.099  0.5041  1.8378  0.8491
 6161SOL    HW229943   3.686   0.294   6.970  3.1393  1.8949 -0.5130
 6162SOL     OW29944   0.803   3.893   7.777  0.0660 -0.5071 -0.2725
 6162SOL    HW129945   0.784   3.868   7.867  3.9643 -0.0132  0.7018
 6162SOL    HW229946   0.727   3.858   7.731  0.6299 -1.7951 -0.2220
 6163SOL     OW29947   0.976   1.914  10.519  0.3762  0.0663 -0.5501
 6163SOL    HW129948   1.007   1.824  10.512  1.3330  0.4445 -1.0593
 6163SOL    HW229949   0.896   1.904  10.467 -0.2430 -1.6488  0.7467
 6164SOL     OW29950   1.831   4.508   8.206 -0.1988 -0.3642  0.1058
 6164SOL    HW129951   1.742   4.474   8.194 -1.0454  2.0755 -0.7673
 6164SOL    HW229952   1.880   4.428   8.186 -0.0368 -0.2726  0.1343
 6165SOL     OW29953   1.655   3.559  17.268 -0.1155 -0.5803 -0.2328
 6165SOL    HW129954   1.713   3.512  17.207 -0.2541  0.0821 -0.8795
 6165SOL    HW229955   1.713   3.565  17.344  2.1958 -1.8785 -1.8870
 6166SOL     OW29956   3.888   0.663  16.452 -0.0438  0.5917  0.2747
 6166SOL    HW129957   3.935   0.746  16.451  0.8172  0.0602 -2.3812
 6166SOL    HW229958   3.940   0.607  16.510  1.8117  0.9429 -1.0622
 6167SOL     OW29959   0.655   0.616   4.529  0.4444 -0.2230 -0.3825
 6167SOL    HW129960   0.595   0.639   4.459  0.3609  0.1594 -0.1809
 6167SOL    HW229961   0.614   0.542   4.575  1.2112 -0.4925 -0.1342
 6168SOL     OW29962   3.233   2.581  16.663 -0.2271  0.0167  0.1893
 6168SOL    HW129963   3.212   2.666  16.701 -1.2424 -0.1250 -0.0690
 6168SOL    HW229964   3.323   2.570  16.695 -0.4912  1.0653  1.3074
 6169SOL     OW29965   2.292   4.296   2.186 -0.1632  0.2447 -0.4034
 6169SOL    HW129966   2.347   4.321   2.260 -0.8653 -2.2832  0.9303
 6169SOL    HW229967   2.296   4.201   2.191  0.3130  0.3160  0.5577
 6170SOL     OW29968   2.144   3.146   6.630 -0.0248  0.1460  0.2446
 6170SOL    HW129969   2.237   3.143   6.607 -0.7616  0.8925 -2.8929
 6170SOL    HW229970   2.095   3.170   6.551  2.6299 -0.6563 -1.6316
 6171SOL     OW29971   2.069   1.423   1.288 -0.2580 -0.8763 -0.1367
 6171SOL    HW129972   2.059   1.474   1.368  0.1921 -2.8641  1.1725
 6171SOL    HW229973   1.984   1.380   1.276 -0.4063  0.0326 -2.3425
 6172SOL     OW29974   3.126   0.194   2.939 -0.5422  0.5580  0.1673
 6172SOL    HW129975   3.218   0.185   2.915 -0.5804 -1.1273  0.6762
 6172SOL    HW229976   3.150   0.226   3.026  1.2956 -1.9831  0.5906
 6173SOL     OW29977   4.582   2.208   0.296  0.1373 -0.2363  0.3549
 6173SOL    HW129978   4.551   2.120   0.273 -2.4836 -0.0367  3.0135
 6173SOL    HW229979   4.625   2.188   0.379  1.1885  2.0297  0.3496
 6174SOL     OW29980   1.071   3.360   2.530  0.0710  0.0814  0.4266
 6174SOL    HW129981   1.046   3.387   2.442  3.6612 -0.9538 -0.9109
 6174SOL    HW229982   1.166   3.357   2.518  0.0774 -0.0768  0.5175
 6175SOL     OW29983   4.475   3.406  17.566 -0.0985 -0.4618 -0.1816
 6175SOL    HW129984   4.490   3.462  17.490 -0.6599 -0.7034 -0.4715
 6175SOL    HW229985   4.382   3.382  17.560 -0.5482  1.1870 -0.0592
 6176SOL     OW29986   2.817   2.832   3.311  0.1399  0.0127 -0.2376
 6176SOL    HW129987   2.797   2.773   3.383  0.0293 -1.7299 -1.6981
 6176SOL    HW229988   2.834   2.762   3.248 -2.6684 -0.6938 -0.2232
 6177SOL     OW29989   3.937   0.635   4.513 -0.2313  0.6157 -0.5239
 6177SOL    HW129990   3.969   0.546   4.523  0.4506  1.1694  2.1492
 6177SOL    HW229991   3.999   0.680   4.569 -0.1842  1.4826 -1.2714
 6178SOL     OW29992   0.654   0.011  11.948 -0.0787  0.6932 -0.2438
 6178SOL    HW129993   0.652   0.052  11.861  2.8547  0.2110 -0.5438
 6178SOL    HW229994   0.712   4.656  11.947 -1.1925 -0.1702 -0.0374
 6179SOL     OW29995   3.086   0.412   6.322  0.2842  0.1683 -0.0658
 6179SOL    HW129996   3.051   0.384   6.238  0.0612 -1.6642  0.6293
 6179SOL    HW229997   3.128   0.492   6.291 -1.3186  0.6884 -0.8699
 6180SOL     OW29998   1.061   1.407   4.903 -0.6008 -0.0680  0.3455
 6180SOL    HW129999   0.975   1.395   4.943 -0.5550 -2.6259 -0.3119
 6180SOL    HW230000   1.107   1.356   4.970 -1.6284 -2.8399 -1.0751
 6181SOL     OW30001   1.472   0.215  17.008 -0.0385 -0.3553  0.1446
 6181SOL    HW130002   1.483   0.161  16.929 -2.1586  2.8324 -2.3496
 6181SOL    HW230003   1.391   0.178  17.043 -0.5592 -0.0330 -0.7004
 6182SOL     OW30004   2.153   2.477   3.694  0.6406  0.0849  0.0123
 6182SOL    HW130005   2.239   2.514   3.714 -0.0260  0.7948  1.5648
 6182SOL    HW230006   2.107   2.557   3.670 -0.1046 -0.4368 -0.2924
 6183SOL     OW30007   2.508   2.326   2.346  0.6524 -0.3690 -0.1403
 6183SOL    HW130008   2.513   2.268   2.271 -3.3303  0.3770 -1.0197
 6183SOL    HW230009   2.535   2.267   2.416 -0.1721 -1.0806 -0.4168
 6184SOL     OW30010   3.651   1.766  11.800 -0.0513  0.1922  0.4378
 6184SOL    HW130011   3.582   1.818  11.760  1.0555 -0.0644 -1.7814
 6184SOL    HW230012   3.732   1.806  11.767  1.4281 -1.0066  2.6059
 6185SOL     OW30013   1.143   3.488   3.991 -0.0025  0.4059  0.3959
 6185SOL    HW130014   1.088   3.566   3.987 -1.8501 -0.9697 -0.9021
 6185SOL    HW230015   1.121   3.440   4.071 -1.0924  0.7260  0.2866
 6186SOL     OW30016   0.899   3.580   8.100  0.4883 -0.0091  0.1561
 6186SOL    HW130017   0.965   3.514   8.080 -1.0197 -1.2534 -0.7396
 6186SOL    HW230018   0.957   3.654   8.082  1.3830 -0.4692  1.1329
 6187SOL     OW30019   3.723   0.608  14.327  0.2686 -0.0894  0.9510
 6187SOL    HW130020   3.792   0.543  14.342  1.2977  0.5039 -1.1196
 6187SOL    HW230021   3.712   0.591  14.233 -1.0486 -3.8503  1.7849
 6188SOL     OW30022   2.314   1.509   3.106  0.6567  0.5117 -0.5628
 6188SOL    HW130023   2.277   1.597   3.105  0.8136  0.6090  1.3790
 6188SOL    HW230024   2.233   1.458   3.115  1.2647 -0.5852 -1.2379
 6189SOL     OW30025   4.669   4.056  17.606 -0.1011 -0.3065 -0.6133
 6189SOL    HW130026   4.618   4.053  17.525  2.2531 -1.0405 -2.0586
 6189SOL    HW230027   4.683   4.151  17.602  0.3205 -0.2432  2.2151
 6190SOL     OW30028   1.053   4.379   8.076  0.1516 -0.2748 -0.1338
 6190SOL    HW130029   1.123   4.347   8.134  1.4911  2.3818 -0.3142
 6190SOL    HW230030   1.048   4.310   8.009  2.3305  0.8159 -1.4193
 6191SOL     OW30031   3.971   3.516   8.152  0.1105 -0.1629  0.5753
 6191SOL    HW130032   3.985   3.591   8.211  1.5089  0.5495 -0.6696
 6191SOL    HW230033   3.912   3.462   8.204  0.1019  0.7541  1.5201
 6192SOL     OW30034   2.319   1.816   0.358  0.2497 -0.2842  0.1433
 6192SOL    HW130035   2.359   1.742   0.404  0.3450  1.2860  2.5174
 6192SOL    HW230036   2.389   1.864   0.314  0.3741  0.3339  1.0262
 6193SOL     OW30037   1.392   4.639   0.475  0.2992  0.1604 -0.3436
 6193SOL    HW130038   1.393   4.693   0.554  0.6273 -0.8129  0.3199
 6193SOL    HW230039   1.367   4.714   0.422  0.9693 -0.3438 -1.3759
 6194SOL     OW30040   2.231   0.057   0.116 -0.3172 -0.9011 -0.4339
 6194SOL    HW130041   2.143   0.068   0.080  0.4615 -0.8377 -2.3053
 6194SOL    HW230042   2.245   0.133   0.172 -2.4789 -2.6004  2.3981
 6195SOL     OW30043   1.353   2.981  10.309  0.3788  0.1239 -0.3854
 6195SOL    HW130044   1.442   2.947  10.298 -0.4287 -1.5738 -1.6862
 6195SOL    HW230045   1.308   2.908  10.266  0.7187 -0.9997  1.1804
 6196SOL     OW30046   2.158   0.484   6.722  0.8436  0.0401  0.2857
 6196SOL    HW130047   2.213   0.406   6.719 -0.0602 -0.6058  0.3643
 6196SOL    HW230048   2.156   0.506   6.816  0.7025 -3.3224  1.0646
 6197SOL     OW30049   4.150   4.633  12.114  0.1044  0.4764 -0.1255
 6197SOL    HW130050   4.213   4.580  12.162 -0.0777 -0.3938 -0.8228
 6197SOL    HW230051   4.200   4.641  12.032  0.6909  2.9308  0.4759
 6198SOL     OW30052   3.294   1.728  16.955  0.4012  0.0530  0.4170
 6198SOL    HW130053   3.366   1.755  17.012 -0.1403 -1.1022  1.6595
 6198SOL    HW230054   3.224   1.691  17.008 -1.2131  4.5364  1.4005
 6199SOL     OW30055   1.760   2.649  17.354  0.3589  0.7832 -0.1572
 6199SOL    HW130056   1.720   2.727  17.392 -0.8608  0.3918 -0.6627
 6199SOL    HW230057   1.706   2.642  17.275 -3.0970  0.5424  2.2239
 6200SOL     OW30058   3.217   1.408   4.742  0.1263 -0.3876  0.0322
 6200SOL    HW130059   3.167   1.490   4.751  0.9403  0.0414  0.6790
 6200SOL    HW230060   3.239   1.386   4.832 -2.5181 -1.5532  0.4021
 6201SOL     OW30061   1.254   4.269  14.217  0.4585 -0.4901  0.1933
 6201SOL    HW130062   1.262   4.259  14.312  3.6706  0.8932  0.0869
 6201SOL    HW230063   1.349   4.274  14.203  0.3342  3.3452  0.6661
 6202SOL     OW30064   1.227   3.172   4.761 -0.0982  0.3521 -0.4632
 6202SOL    HW130065   1.147   3.183   4.812 -0.9939 -0.5318 -1.7039
 6202SOL    HW230066   1.231   3.077   4.755  1.0589  0.6425 -3.9907
 6203SOL     OW30067   2.093   0.521   0.912 -0.2547  0.4013 -0.1224
 6203SOL    HW130068   2.020   0.464   0.889  1.2272 -1.3615 -0.4412
 6203SOL    HW230069   2.149   0.515   0.835  0.2599 -2.3102  0.4740
 6204SOL     OW30070   3.403   3.034  11.841  0.2680  0.2210  0.4454
 6204SOL    HW130071   3.382   3.115  11.795  0.5683  0.4011  0.6330
 6204SOL    HW230072   3.462   3.066  11.909  0.6480  1.3502 -0.4282
 6205SOL     OW30073   2.932   3.328   4.396 -0.3690 -0.1966 -0.3481
 6205SOL    HW130074   2.991   3.402   4.410 -0.6106 -0.4266  1.9974
 6205SOL    HW230075   2.989   3.263   4.437 -0.7182  0.3669  1.0211
 6206SOL     OW30076   1.603   3.813  15.119 -0.5385 -0.7309  0.4073
 6206SOL    HW130077   1.632   3.743  15.177  1.8070  0.1086  0.2890
 6206SOL    HW230078   1.592   3.879  15.188 -0.8277 -1.5479  1.1345
 6207SOL     OW30079   2.786   0.265  14.521 -0.5535 -0.1670  0.1166
 6207SOL    HW130080   2.865   0.292  14.474  0.1555  1.0149  1.9564
 6207SOL    HW230081   2.736   0.205  14.465  0.1549 -0.5461 -0.1083
 6208SOL     OW30082   0.103   4.520   7.578  0.8231 -0.2292 -0.5523
 6208SOL    HW130083   0.062   4.578   7.513 -0.3644  0.4406  0.7922
 6208SOL    HW230084   0.133   4.574   7.652 -2.6384  0.7614  0.1600
 6209SOL     OW30085   3.456   0.577   7.253 -0.1918 -0.1843  0.2902
 6209SOL    HW130086   3.385   0.627   7.213  0.4063  0.3086 -0.1443
 6209SOL    HW230087   3.533   0.623   7.221 -2.4693  2.4952 -1.3141
 6210SOL     OW30088   2.615   2.833   9.662  0.1865 -0.1194 -0.5858
 6210SOL    HW130089   2.581   2.898   9.723 -2.0739 -2.1656  0.3067
 6210SOL    HW230090   2.561   2.852   9.586  0.6787  0.0677 -0.8926
 6211SOL     OW30091   2.917   2.974  16.394 -0.1008 -0.0394 -0.0481
 6211SOL    HW130092   2.981   2.967  16.323 -0.6040  0.4994 -0.5662
 6211SOL    HW230093   2.839   2.986  16.340 -0.4656  0.5638  0.6044
 6212SOL     OW30094   1.851   2.409   5.121 -0.0592 -0.1056 -0.4065
 6212SOL    HW130095   1.803   2.327   5.123 -2.9546  1.6069 -0.1580
 6212SOL    HW230096   1.779   2.472   5.122  1.2483  1.3413  2.4187
 6213SOL     OW30097   2.694   4.415   2.759  0.0118 -0.3744 -0.1675
 6213SOL    HW130098   2.736   4.349   2.815  1.4914 -0.0364 -0.9096
 6213SOL    HW230099   2.639   4.460   2.823  0.8188 -0.3009  0.4748
 6214SOL     OW30100   3.104   3.538   4.435 -0.4058  0.3026 -0.3053
 6214SOL    HW130101   3.147   3.574   4.357 -0.4846  0.2791 -0.3600
 6214SOL    HW230102   3.128   3.603   4.501 -0.6896  0.4351 -0.3313
 6215SOL     OW30103   1.573   0.050   3.667  0.3325 -0.4564  0.4144
 6215SOL    HW130104   1.509   0.025   3.734  1.8701 -0.7768  1.7750
 6215SOL    HW230105   1.646   0.069   3.726  0.9018  0.4271 -0.5803
 6216SOL     OW30106   4.125   4.345   3.845  0.1731  0.0276  0.0895
 6216SOL    HW130107   4.196   4.389   3.799 -0.5294 -1.1170 -2.1362
 6216SOL    HW230108   4.097   4.285   3.775 -0.4747  1.2974 -0.7565
 6217SOL     OW30109   2.877   0.822  14.238 -0.0363  0.0930 -0.4335
 6217SOL    HW130110   2.966   0.825  14.273 -0.0791 -0.5208 -0.2701
 6217SOL    HW230111   2.844   0.742  14.279 -1.0406 -0.3917 -2.1832
 6218SOL     OW30112   3.014   1.986   5.788  0.5418 -0.4849  0.0268
 6218SOL    HW130113   3.021   1.895   5.817 -0.7780 -1.1117 -1.6316
 6218SOL    HW230114   2.998   1.979   5.694  0.7822  0.0218 -0.0522
 6219SOL     OW30115   1.398   3.025   3.583 -0.0835 -0.0479 -0.1988
 6219SOL    HW130116   1.320   2.979   3.615  1.6444 -1.5397  1.9097
 6219SOL    HW230117   1.376   3.112   3.617  0.0903  0.0183 -0.2554
 6220SOL     OW30118   1.806   4.250  11.878 -0.0778  0.2789  0.9337
 6220SOL    HW130119   1.750   4.266  11.954  1.6230  0.1923  2.2187
 6220SOL    HW230120   1.780   4.159  11.871  3.4550 -0.3868 -3.2135
 6221SOL     OW30121   2.869   1.851   8.690 -0.0940 -0.0619 -0.1383
 6221SOL    HW130122   2.820   1.914   8.743  0.0684 -1.5360  1.7634
 6221SOL    HW230123   2.807   1.841   8.618 -2.1227 -0.0135  1.5909
 6222SOL     OW30124   0.954   4.220  16.653 -0.0066  0.2547  0.1471
 6222SOL    HW130125   0.983   4.226  16.744 -0.2444  2.0477  0.0984
 6222SOL    HW230126   1.003   4.291  16.611  0.8357 -0.1331  0.4727
 6223SOL     OW30127   4.016   2.609  11.011  0.4146  0.1145 -0.1574
 6223SOL    HW130128   3.921   2.616  11.020  0.3657 -0.9151  0.1024
 6223SOL    HW230129   4.042   2.690  10.966  2.0760 -0.2191  0.2271
 6224SOL     OW30130   1.053   2.297   2.311 -0.1169 -0.6085 -0.2003
 6224SOL    HW130131   1.047   2.362   2.381 -3.1841  0.7240 -1.6367
 6224SOL    HW230132   0.961   2.277   2.290 -1.1727  0.1643  3.7569
 6225SOL     OW30133   2.413   1.311   4.191  0.3044 -0.6842 -0.3904
 6225SOL    HW130134   2.503   1.333   4.166  0.6221 -1.2944  0.1984
 6225SOL    HW230135   2.367   1.383   4.148  0.0989  1.0558  2.7616
 6226SOL     OW30136   3.878   4.632   1.314  0.3882 -0.2041  0.2270
 6226SOL    HW130137   3.871   4.538   1.330 -2.9280 -0.1231 -0.7192
 6226SOL    HW230138   3.973   4.646   1.315  0.5551 -1.1184 -2.1525
 6227SOL     OW30139   0.084   2.864   6.821 -0.0955 -0.1958 -0.7222
 6227SOL    HW130140   0.071   2.775   6.788 -0.0305 -0.9972  1.4478
 6227SOL    HW230141   0.006   2.911   6.793 -1.3447 -2.3699 -0.8892
 6228SOL     OW30142   1.775   3.450   4.466 -0.7387 -0.1628  0.3061
 6228SOL    HW130143   1.804   3.359   4.478  1.6783  0.4479 -0.9763
 6228SOL    HW230144   1.697   3.458   4.521 -0.5155 -1.4250  0.8112
 6229SOL     OW30145   1.309   2.898   0.353  0.5333 -0.4203 -0.3322
 6229SOL    HW130146   1.398   2.913   0.321 -0.5798  0.5228 -2.9722
 6229SOL    HW230147   1.251   2.944   0.292  2.4749  0.7051 -1.3143
 6230SOL     OW30148   0.836   0.430  16.910 -0.3772  0.4734  0.0286
 6230SOL    HW130149   0.868   0.519  16.893 -2.5792  1.4668  1.0490
 6230SOL    HW230150   0.911   0.385  16.871 -0.5234  1.8436 -1.8336
 6231SOL     OW30151   4.416   2.898   6.200 -0.0446 -0.2787  0.2427
 6231SOL    HW130152   4.364   2.967   6.241  2.8927  1.6037  0.7400
 6231SOL    HW230153   4.473   2.955   6.149 -1.2179  1.2933  0.6905
 6232SOL     OW30154   0.659   0.171   8.291  0.1154  0.3759  0.6368
 6232SOL    HW130155   0.569   0.174   8.324 -0.3912 -1.2809 -0.5821
 6232SOL    HW230156   0.700   0.117   8.359 -0.3592  0.4460  0.9845
 6233SOL     OW30157   0.076   3.323   0.874  0.0781 -0.2509  0.1971
 6233SOL    HW130158   0.156   3.274   0.857 -0.5626 -0.8980 -0.9222
 6233SOL    HW230159   0.026   3.313   0.793 -1.1688 -0.7533  1.0203
 6234SOL     OW30160   2.563   2.618  16.646 -0.1311 -0.1172  0.4158
 6234SOL    HW130161   2.490   2.675  16.621  1.5657  1.4154 -1.0678
 6234SOL    HW230162   2.516   2.544  16.684 -3.5378  0.6014 -2.4517
 6235SOL     OW30163   1.117   2.433   5.064  0.5168 -0.1374  0.1947
 6235SOL    HW130164   1.180   2.409   4.996 -1.1349  0.6682 -1.6194
 6235SOL    HW230165   1.164   2.492   5.123  0.1778 -0.3287  0.6471
 6236SOL     OW30166   4.522   1.097   1.575 -0.4171  0.3124 -0.1727
 6236SOL    HW130167   4.545   1.114   1.666  3.6867 -2.3463 -0.6923
 6236SOL    HW230168   4.584   1.028   1.552  0.2949  1.1036 -0.6126
 6237SOL     OW30169   2.560   0.060   2.938 -0.1615  0.1748  0.0716
 6237SOL    HW130170   2.581   4.688   2.947  0.6821  0.2569 -1.0714
 6237SOL    HW230171   2.635   0.097   2.984 -0.6944 -0.5252  1.5098
 6238SOL     OW30172   1.299   2.138   4.003  0.1275 -0.5013  0.2340
 6238SOL    HW130173   1.369   2.202   3.991 -0.7943  0.3915 -0.4084
 6238SOL    HW230174   1.243   2.153   3.927 -0.5175 -3.0153  0.2116
 6239SOL     OW30175   3.496   0.295  13.034  0.3436  0.0623  0.2857
 6239SOL    HW130176   3.568   0.233  13.041 -1.1750 -2.0111 -2.3748
 6239SOL    HW230177   3.534   0.377  13.067 -0.4167 -0.0445  1.4147
 6240SOL     OW30178   1.428   2.405  16.069 -0.0281 -0.0929 -0.2431
 6240SOL    HW130179   1.483   2.409  15.991 -0.5051 -1.4220 -0.6422
 6240SOL    HW230180   1.356   2.462  16.045  0.5421 -0.0097 -1.7568
 6241SOL     OW30181   2.772   0.562   6.716 -0.0107 -0.5341  0.0816
 6241SOL    HW130182   2.698   0.527   6.766 -1.1671 -0.2413 -1.4297
 6241SOL    HW230183   2.725   0.561   6.633  1.1565  3.2833 -0.6232
 6242SOL     OW30184   0.743   2.984  14.147  0.9521  0.0955  0.6167
 6242SOL    HW130185   0.797   2.945  14.077  0.3014 -0.6377  0.5092
 6242SOL    HW230186   0.803   3.052  14.175  0.4147  0.7440  0.1838
 6243SOL     OW30187   3.703   3.304   6.695  0.1559  0.5534  0.4161
 6243SOL    HW130188   3.617   3.299   6.737  0.9064  0.3027  1.9475
 6243SOL    HW230189   3.688   3.379   6.638 -2.1372 -0.1856  0.0464
 6244SOL     OW30190   4.676   3.706   0.018  0.1918  0.7440 -0.5173
 6244SOL    HW130191   4.676   3.610   0.023 -1.2606  0.9199  2.3611
 6244SOL    HW230192   4.632   3.730  17.621 -1.5583 -3.1891 -0.7214
 6245SOL     OW30193   1.891   1.914   9.220  0.0294  0.0634  0.1135
 6245SOL    HW130194   1.956   1.930   9.288  1.0227  0.5760 -0.9605
 6245SOL    HW230195   1.951   1.876   9.156  0.8949 -0.0024  0.9581
 6246SOL     OW30196   4.683   4.260   3.173  0.4148 -0.3143 -0.4418
 6246SOL    HW130197   4.591   4.238   3.189  0.2647  0.6297 -0.0132
 6246SOL    HW230198   4.677   4.293   3.084  0.8692  4.6348  1.3949
 6247SOL     OW30199   2.290   2.515   6.785 -0.0383  0.0176 -0.2706
 6247SOL    HW130200   2.253   2.601   6.769  0.4218 -0.0458 -1.6297
 6247SOL    HW230201   2.340   2.507   6.704  0.1942  0.4926 -0.1757
 6248SOL     OW30202   0.885   4.150   6.659  0.0127 -0.7435 -0.3268
 6248SOL    HW130203   0.798   4.114   6.678  0.3436 -1.8159 -0.8161
 6248SOL    HW230204   0.913   4.220   6.718  1.7692 -1.3698 -0.4114
 6249SOL     OW30205   2.094   1.911   6.911 -0.3456  0.7178  0.5526
 6249SOL    HW130206   2.148   1.990   6.911 -0.8144  1.0428 -0.9764
 6249SOL    HW230207   2.089   1.914   7.007 -2.5394 -0.1707  0.4848
 6250SOL     OW30208   2.433   1.927   4.804  0.4901 -0.5284 -0.4218
 6250SOL    HW130209   2.417   2.012   4.764  0.1425 -0.3191  0.1598
 6250SOL    HW230210   2.371   1.872   4.757 -0.7511 -0.4213  1.0593
 6251SOL     OW30211   2.763   0.182  16.061 -0.1600  0.2604  0.4594
 6251SOL    HW130212   2.785   0.100  16.015 -0.1699 -1.0098  2.7427
 6251SOL    HW230213   2.852   0.207  16.086 -0.1932 -1.4776  2.3685
 6252SOL     OW30214   2.875   2.009   7.590  0.1498  0.1841 -0.0307
 6252SOL    HW130215   2.818   2.084   7.570 -1.2253 -0.4093  1.6119
 6252SOL    HW230216   2.813   1.937   7.602 -0.1719  0.8470  2.4555
 6253SOL     OW30217   4.086   4.387   4.631  0.5701 -0.1885  0.0233
 6253SOL    HW130218   4.175   4.418   4.648  0.7230 -0.4783 -0.2435
 6253SOL    HW230219   4.094   4.295   4.658  2.7125  0.2221  0.7634
 6254SOL     OW30220   0.727   3.347  12.737  0.4963 -0.0024  0.0053
 6254SOL    HW130221   0.816   3.382  12.748  1.5619 -1.7826 -2.8909
 6254SOL    HW230222   0.683   3.428  12.764 -0.5231 -1.0967  1.6585
 6255SOL     OW30223   2.973   4.092   3.906 -0.2076  1.0095  0.0280
 6255SOL    HW130224   2.888   4.116   3.869 -1.2729  1.5624  2.8365
 6255SOL    HW230225   3.021   4.165   3.867  1.9571 -0.4174  0.0093
 6256SOL     OW30226   1.038   2.141   4.155 -0.0299 -0.2054  0.5489
 6256SOL    HW130227   0.946   2.116   4.149 -0.6021  2.0467 -0.2967
 6256SOL    HW230228   1.065   2.143   4.063  3.9046  1.1006  1.7377
 6257SOL     OW30229   1.681   4.178   3.194 -0.0238  0.3636 -0.5765
 6257SOL    HW130230   1.632   4.235   3.135 -1.2658  0.0929  0.1948
 6257SOL    HW230231   1.764   4.164   3.149  0.7525  0.9434  0.6615
 6258SOL     OW30232   3.919   1.922   7.327 -0.4498 -0.3957  0.1922
 6258SOL    HW130233   3.917   1.832   7.294 -0.9192 -0.7676  1.2690
 6258SOL    HW230234   3.972   1.909   7.405 -0.6233 -0.5735  0.2776
 6259SOL     OW30235   4.565   1.093   6.439  0.1545 -0.5709  0.2812
 6259SOL    HW130236   4.516   1.012   6.453  1.2842 -1.1986  0.5651
 6259SOL    HW230237   4.630   1.060   6.376  0.9685  1.6071 -0.0169
 6260SOL     OW30238   3.924   0.423  14.280 -0.6297 -0.1772  0.2107
 6260SOL    HW130239   3.932   0.342  14.229 -1.0727  0.3116 -0.6279
 6260SOL    HW230240   3.966   0.389  14.359  2.0611  1.4647 -0.5287
 6261SOL     OW30241   4.634   0.341  16.618 -0.5005  0.8951  0.4225
 6261SOL    HW130242   4.647   0.258  16.663 -0.2276  0.7046  0.0019
 6261SOL    HW230243   4.584   0.376  16.691  0.1491  1.1296  0.7568
 6262SOL     OW30244   1.339   2.568   0.418 -0.5110  0.2223  0.8549
 6262SOL    HW130245   1.364   2.544   0.507  1.5051  0.1611  0.2732
 6262SOL    HW230246   1.290   2.648   0.438 -0.5519  1.1644 -2.8929
 6263SOL     OW30247   4.273   3.929   3.516 -0.0886 -0.1482  0.8580
 6263SOL    HW130248   4.352   3.925   3.569 -0.2227  1.1721  1.1654
 6263SOL    HW230249   4.247   3.839   3.535 -0.7509 -0.4066 -1.3181
 6264SOL     OW30250   1.556   3.895  12.641 -0.0839 -0.0654 -0.3807
 6264SOL    HW130251   1.507   3.959  12.588  1.3367  0.9739 -0.4530
 6264SOL    HW230252   1.515   3.814  12.610 -0.3308  0.7109 -2.0943
 6265SOL     OW30253   4.682   0.785   3.117  0.1085 -0.0897  0.0789
 6265SOL    HW130254   4.643   0.700   3.137  3.1494 -0.9570  2.1588
 6265SOL    HW230255   0.035   0.791   3.177  1.0247  2.6418 -1.3091
 6266SOL     OW30256   0.244   4.424   4.727 -0.4534 -0.7117  0.2940
 6266SOL    HW130257   0.331   4.405   4.691  0.3483  2.1365  0.7599
 6266SOL    HW230258   0.262   4.387   4.813  0.2554 -0.1131  0.4021
 6267SOL     OW30259   2.400   3.005   0.335  0.3362 -0.1123 -1.0040
 6267SOL    HW130260   2.439   3.080   0.289  1.5364  0.0019  0.1837
 6267SOL    HW230261   2.354   2.954   0.269 -2.0031 -1.3865  1.5975
 6268SOL     OW30262   3.288   3.532   5.075  0.2785 -0.3074  0.0778
 6268SOL    HW130263   3.236   3.539   5.155 -2.0556 -0.1099 -1.4545
 6268SOL    HW230264   3.356   3.484   5.122  0.8157  0.3556 -0.0386
 6269SOL     OW30265   3.268   4.222   5.801  0.1256  0.0197 -0.3022
 6269SOL    HW130266   3.284   4.228   5.707 -1.4470 -3.6965 -0.7964
 6269SOL    HW230267   3.174   4.205   5.807 -0.0104  0.4218 -1.2810
 6270SOL     OW30268   3.809   0.308  16.279  0.3101  0.4900  0.1959
 6270SOL    HW130269   3.755   0.386  16.296  0.4478  0.5371  0.4131
 6270SOL    HW230270   3.884   0.315  16.338  1.7212 -0.1416 -1.5413
 6271SOL     OW30271   1.600   1.754   8.541  0.4762  0.2819  0.4134
 6271SOL    HW130272   1.618   1.838   8.585 -0.2285  1.1747 -1.0203
 6271SOL    HW230273   1.675   1.712   8.582  2.1288  0.3629 -2.6129
 6272SOL     OW30274   4.674   0.349   3.791 -0.6252 -0.3615  0.0501
 6272SOL    HW130275   4.652   0.427   3.740 -1.0449 -0.2438  0.4185
 6272SOL    HW230276   4.695   0.374   3.881  2.2862 -0.1685 -0.6889
 6273SOL     OW30277   1.478   4.230  17.482 -0.4745 -0.5845 -0.4678
 6273SOL    HW130278   1.506   4.214  17.572 -1.0820  1.1306  0.0290
 6273SOL    HW230279   1.495   4.324  17.471 -1.3437 -0.5371 -1.4025
 6274SOL     OW30280   2.865   0.243   3.568  0.3848  0.4432  0.2866
 6274SOL    HW130281   2.893   0.331   3.596 -0.0401  0.2835  1.1907
 6274SOL    HW230282   2.932   0.225   3.502  1.7537  0.4174  1.7024
 6275SOL     OW30283   4.281   2.583   8.918  0.2053  0.1816 -0.5290
 6275SOL    HW130284   4.294   2.537   8.835  0.6750 -0.4725 -0.0932
 6275SOL    HW230285   4.261   2.674   8.894  0.2317  0.0513 -1.0437
 6276SOL     OW30286   3.179   0.356   7.337  0.3237 -0.5751  0.7085
 6276SOL    HW130287   3.199   0.358   7.243  0.6570  0.6843  0.8067
 6276SOL    HW230288   3.179   0.263   7.359  1.4065 -0.4060  1.4131
 6277SOL     OW30289   3.052   3.484   7.294 -0.6891  0.1042  0.3213
 6277SOL    HW130290   3.005   3.537   7.358 -0.8970  3.0508 -2.2261
 6277SOL    HW230291   3.104   3.429   7.352  2.0273  2.1696 -0.1482
 6278SOL     OW30292   3.163   1.800   8.091  0.4557  0.5335 -0.0688
 6278SOL    HW130293   3.107   1.868   8.051  1.7769  1.0508 -1.0468
 6278SOL    HW230294   3.095   1.732   8.087  2.1690 -1.2242  1.3511
 6279SOL     OW30295   1.985   1.646   4.273 -0.5509 -0.2470 -1.1326
 6279SOL    HW130296   1.986   1.575   4.209 -0.6355 -1.0525 -0.2574
 6279SOL    HW230297   1.973   1.723   4.218 -0.0684 -0.2486 -1.2421
 6280SOL     OW30298   3.886   4.460   6.673  0.1325 -0.6785  0.1812
 6280SOL    HW130299   3.829   4.409   6.615  0.1395  0.6233 -0.9990
 6280SOL    HW230300   3.895   4.412   6.754 -3.1678 -0.6170  0.5740
 6281SOL     OW30301   2.444   1.548   5.903 -0.2070  0.3029 -0.2466
 6281SOL    HW130302   2.500   1.557   5.826 -0.7822  0.9411 -0.5925
 6281SOL    HW230303   2.465   1.470   5.954 -0.1906  0.4605 -0.0120
 6282SOL     OW30304   0.817   2.332  13.199 -0.2318 -0.3277  0.1953
 6282SOL    HW130305   0.861   2.360  13.118  1.3417 -1.0066  0.8081
 6282SOL    HW230306   0.822   2.413  13.250 -1.3159  0.7261 -1.3624
 6283SOL     OW30307   0.237   1.478  17.551 -0.9738 -0.1456  0.4233
 6283SOL    HW130308   0.303   1.470  17.619 -0.1432  1.3376 -0.2027
 6283SOL    HW230309   0.170   1.417  17.583 -2.0773  1.5578  1.3464
 6284SOL     OW30310   0.760   1.630   6.494 -0.6166 -0.1596 -0.4771
 6284SOL    HW130311   0.847   1.665   6.474 -0.5232  0.5232  1.1004
 6284SOL    HW230312   0.780   1.564   6.561  0.6232 -0.0647 -0.7573
 6285SOL     OW30313   2.084   1.476   8.804  0.8877  0.1949 -0.2576
 6285SOL    HW130314   2.084   1.478   8.899  0.8280 -0.4973 -0.2468
 6285SOL    HW230315   2.003   1.425   8.797 -0.0565  1.7329 -0.6365
 6286SOL     OW30316   0.644   0.723   5.669  0.1630  0.2243  0.0587
 6286SOL    HW130317   0.719   0.772   5.634  0.0697 -1.8275 -2.9655
 6286SOL    HW230318   0.568   0.763   5.626 -1.0850 -1.0295  1.1048
 6287SOL     OW30319   2.818   2.335   6.586 -0.2329  0.0598 -0.0545
 6287SOL    HW130320   2.913   2.331   6.597 -0.4234 -2.7912  0.6511
 6287SOL    HW230321   2.811   2.429   6.602 -0.1037  0.3863 -1.9134
 6288SOL     OW30322   0.006   3.809   4.246 -0.4465 -0.1086  0.1188
 6288SOL    HW130323   4.651   3.754   4.265 -1.2763  1.3836  1.1701
 6288SOL    HW230324   0.009   3.855   4.330 -4.0974  0.7967 -0.2546
 6289SOL     OW30325   0.742   1.116  12.182  0.2078  0.2867 -0.5366
 6289SOL    HW130326   0.774   1.070  12.105  1.3345 -1.0551  0.7180
 6289SOL    HW230327   0.704   1.191  12.137 -1.8172  2.2774  4.3965
 6290SOL     OW30328   4.552   0.684   6.660 -0.1623 -0.0266  0.7793
 6290SOL    HW130329   4.498   0.725   6.592 -0.0943 -0.9567  0.1631
 6290SOL    HW230330   4.639   0.714   6.633 -0.7956 -0.0694 -1.3771
 6291SOL     OW30331   0.897   2.145   0.993  0.1279  0.0883 -0.2559
 6291SOL    HW130332   0.965   2.207   1.019 -0.7346  1.6624 -1.7838
 6291SOL    HW230333   0.910   2.074   1.057  2.6508  1.3728  0.6361
 6292SOL     OW30334   2.668   3.754   5.711 -0.5805  0.1213  0.2428
 6292SOL    HW130335   2.604   3.812   5.669 -1.8804 -0.8561  0.8895
 6292SOL    HW230336   2.730   3.812   5.754 -0.1203  0.3208 -0.6812
 6293SOL     OW30337   2.171   1.808   4.949 -0.3665  0.1279  0.0003
 6293SOL    HW130338   2.227   1.885   4.959 -2.9945  1.9400  0.7513
 6293SOL    HW230339   2.090   1.852   4.926 -1.1099 -1.2162  0.0153
 6294SOL     OW30340   2.439   1.195   2.360 -0.5323 -0.1494 -0.3557
 6294SOL    HW130341   2.390   1.238   2.430 -1.0942 -1.1984 -0.0928
 6294SOL    HW230342   2.367   1.166   2.303  0.2193 -0.3173 -1.2107
 6295SOL     OW30343   0.114   2.788   0.910  0.5902 -0.0613 -0.2575
 6295SOL    HW130344   0.086   2.697   0.910  0.1309  0.0799 -1.6092
 6295SOL    HW230345   0.135   2.795   0.817  0.9826  0.6548 -0.1206
 6296SOL     OW30346   1.099   3.839  16.943 -0.5980  0.5994  0.7890
 6296SOL    HW130347   1.187   3.877  16.942 -0.4971  0.3296 -1.4343
 6296SOL    HW230348   1.115   3.766  17.004  0.7533 -0.8556 -1.3070
 6297SOL     OW30349   1.057   4.066  17.136  0.6091 -0.0608  0.1714
 6297SOL    HW130350   1.103   3.988  17.107 -2.1342 -0.9580 -1.7768
 6297SOL    HW230351   1.110   4.093  17.211  0.1024 -0.1861  0.5797
 6298SOL     OW30352   3.407   0.207   5.113  0.3034  0.2238 -0.1470
 6298SOL    HW130353   3.373   0.256   5.039 -2.4024 -1.0734  0.2511
 6298SOL    HW230354   3.500   0.199   5.088  1.0546  2.4043  1.9575
 6299SOL     OW30355   3.239   2.595   5.996  0.3284 -0.0210  0.1770
 6299SOL    HW130356   3.244   2.690   6.005 -1.1682  0.2768 -1.9049
 6299SOL    HW230357   3.320   2.576   5.948  0.8999 -0.4264  1.3161
 6300SOL     OW30358   0.440   2.441   9.246 -0.1720  0.2960 -0.4581
 6300SOL    HW130359   0.494   2.520   9.247 -1.7889  1.3868 -0.1976
 6300SOL    HW230360   0.377   2.463   9.315  0.2824 -2.3326  0.7978
 6301SOL     OW30361   0.543   0.254   8.750  0.3080 -0.2761 -0.6301
 6301SOL    HW130362   0.518   0.166   8.776 -0.3781  0.4970  1.3594
 6301SOL    HW230363   0.515   0.306   8.826  0.7924  0.8440 -1.2105
 6302SOL     OW30364   2.687   2.376   4.075 -0.0328 -0.3812 -0.3126
 6302SOL    HW130365   2.678   2.281   4.081 -1.4797 -0.1575  1.0225
 6302SOL    HW230366   2.764   2.396   4.127 -0.1250 -2.8052  0.7509
 6303SOL     OW30367   1.771   3.559   1.866 -0.3546 -0.1837  0.9227
 6303SOL    HW130368   1.857   3.531   1.897 -0.1590  0.7506  1.2248
 6303SOL    HW230369   1.733   3.474   1.844 -1.6340  0.5594  0.2209
 6304SOL     OW30370   2.725   1.890  13.907  0.5380  0.2961  0.4508
 6304SOL    HW130371   2.788   1.929  13.968 -0.3127  1.6499  0.4573
 6304SOL    HW230372   2.654   1.912  13.967  0.2556 -0.4220  0.3811
 6305SOL     OW30373   0.393   1.813   2.227  0.3733 -0.7272 -0.1674
 6305SOL    HW130374   0.414   1.904   2.208 -0.4236 -0.6185 -0.5215
 6305SOL    HW230375   0.390   1.782   2.137 -1.3581 -0.8759 -0.0707
 6306SOL     OW30376   2.162   0.184   2.738 -0.0455  0.1159  0.2116
 6306SOL    HW130377   2.142   0.092   2.752 -0.4005  0.0633 -0.6162
 6306SOL    HW230378   2.181   0.188   2.644 -1.5153 -1.0232 -0.1242
 6307SOL     OW30379   3.343   4.472   6.297 -0.0527 -0.0484  0.5505
 6307SOL    HW130380   3.309   4.530   6.365  2.0028  1.9213 -0.0874
 6307SOL    HW230381   3.374   4.394   6.344  1.0201  0.2555  0.3613
 6308SOL     OW30382   0.934   4.228  12.552  0.2193 -0.2444  0.2647
 6308SOL    HW130383   0.896   4.148  12.516 -1.4925  0.4271  0.5654
 6308SOL    HW230384   0.859   4.287  12.560  0.4168 -0.0285  0.4769
 6309SOL     OW30385   2.489   0.263   8.865 -0.8522  0.3812  0.0753
 6309SOL    HW130386   2.549   0.251   8.939 -0.5798  1.0754 -0.0320
 6309SOL    HW230387   2.410   0.222   8.900 -0.0110 -0.5993  0.8162
 6310SOL     OW30388   3.083   2.813   5.541 -0.0040  0.3136 -0.7338
 6310SOL    HW130389   3.010   2.754   5.558  0.7076 -1.4118 -3.5492
 6310SOL    HW230390   3.133   2.771   5.470  0.1175  0.6166 -0.8271
 6311SOL     OW30391   2.493   2.343   7.455 -0.3156  0.1764 -0.0808
 6311SOL    HW130392   2.449   2.414   7.501  1.2121  0.6482  0.6384
 6311SOL    HW230393   2.429   2.272   7.463 -0.4179  0.1566 -1.0213
 6312SOL     OW30394   3.864   0.477   5.871  0.1975 -0.2324  0.0624
 6312SOL    HW130395   3.788   0.452   5.922  0.3699 -0.7003  0.0867
 6312SOL    HW230396   3.820   0.494   5.788 -2.1924 -0.8274  1.2269
 6313SOL     OW30397   3.663   1.650   2.511  0.4678  0.1185 -0.2811
 6313SOL    HW130398   3.580   1.644   2.465 -0.4489 -0.2193  1.3971
 6313SOL    HW230399   3.725   1.613   2.448 -0.1064  0.4242 -1.0165
 6314SOL     OW30400   1.482   4.164   1.388 -0.6273 -0.2982 -0.2634
 6314SOL    HW130401   1.501   4.207   1.472  1.5561 -1.9771  0.1045
 6314SOL    HW230402   1.386   4.172   1.382 -0.5129  1.2097 -0.2623
 6315SOL     OW30403   4.573   1.753   2.278 -0.2185 -0.0817  0.2864
 6315SOL    HW130404   4.501   1.699   2.312 -1.1811 -0.3363 -2.1674
 6315SOL    HW230405   4.544   1.835   2.318 -2.5238 -1.1450  0.8128
 6316SOL     OW30406   4.584   4.311   2.703 -0.1435  0.6955 -0.4475
 6316SOL    HW130407   4.664   4.279   2.662  1.2682  0.4010  2.5369
 6316SOL    HW230408   4.528   4.233   2.705  2.2523 -1.0338 -1.3513
 6317SOL     OW30409   3.787   3.774  16.694  0.1430 -0.3633 -0.4026
 6317SOL    HW130410   3.750   3.860  16.673  0.6428  0.4223  2.0102
 6317SOL    HW230411   3.732   3.720  16.638  0.5790 -0.9789 -0.2253
 6318SOL     OW30412   2.342   3.175   1.327 -0.2766  0.0984  0.4049
 6318SOL    HW130413   2.323   3.184   1.234 -3.7214  0.4417  1.1520
 6318SOL    HW230414   2.421   3.229   1.338 -1.2060  1.7150 -1.0545
 6319SOL     OW30415   0.819   3.661   4.682  0.2931 -0.3572 -0.0025
 6319SOL    HW130416   0.843   3.725   4.615  1.0685  1.2627  1.7936
 6319SOL    HW230417   0.740   3.616   4.652  1.0695  1.0908 -4.2605
 6320SOL     OW30418   1.660   0.307   5.850  0.1513  0.3061  0.4965
 6320SOL    HW130419   1.720   0.239   5.820  0.9701  2.4939 -2.7754
 6320SOL    HW230420   1.717   0.384   5.844 -0.1093  0.5566  1.2128
 6321SOL     OW30421   4.020   0.508   5.149 -0.1501  0.0714 -0.6462
 6321SOL    HW130422   4.035   0.456   5.229  0.8589  1.4407  0.0649
 6321SOL    HW230423   3.947   0.458   5.114  0.8066 -0.5461 -1.7478
 6322SOL     OW30424   4.311   1.065   3.311 -0.1628 -0.1983 -0.0421
 6322SOL    HW130425   4.301   1.133   3.244 -0.5634  1.0814  1.2946
 6322SOL    HW230426   4.247   1.079   3.381  0.1245 -1.3617  0.4472
 6323SOL     OW30427   4.512   0.890   3.379 -0.0776 -0.5086 -0.5710
 6323SOL    HW130428   4.592   0.922   3.337 -0.1313  2.0289  1.2652
 6323SOL    HW230429   4.450   0.959   3.355 -0.2053 -0.7239 -0.8569
 6324SOL     OW30430   2.048   1.286   5.575  0.3943  0.1747  0.4552
 6324SOL    HW130431   1.973   1.229   5.593  1.0810 -0.2338  2.0410
 6324SOL    HW230432   2.123   1.237   5.606  1.7740  1.5653 -0.6777
 6325SOL     OW30433   2.011   4.097   5.886  1.0091  0.1896 -0.6872
 6325SOL    HW130434   2.045   4.072   5.801  0.0731  1.7878 -1.5347
 6325SOL    HW230435   2.050   4.023   5.932 -2.2586  0.3698  2.3779
 6326SOL     OW30436   3.157   3.002   1.308 -0.8233 -0.1519 -0.6826
 6326SOL    HW130437   3.241   3.048   1.308 -1.2705  0.7020  2.4745
 6326SOL    HW230438   3.106   3.075   1.342 -0.0442  0.6914 -1.3099
 6327SOL     OW30439   3.680   2.647  10.183 -0.1261 -0.6153 -0.0289
 6327SOL    HW130440   3.687   2.629  10.277 -0.0552 -1.8428 -0.2724
 6327SOL    HW230441   3.594   2.688  10.187  0.6370  1.2202 -2.2877
 6328SOL     OW30442   2.113   1.747  11.777  0.1112 -0.2255 -0.0133
 6328SOL    HW130443   2.038   1.727  11.833 -1.0378  0.7775 -1.2080
 6328SOL    HW230444   2.165   1.671  11.806  0.6857  0.4029  0.6094
 6329SOL     OW30445   2.675   2.863   5.878 -0.7740  0.2554 -0.9525
 6329SOL    HW130446   2.654   2.771   5.893  2.9539 -0.6174 -1.1372
 6329SOL    HW230447   2.653   2.880   5.786 -1.4609 -0.1688 -0.8650
 6330SOL     OW30448   0.136   0.190   8.118 -0.1664  0.6566  0.4063
 6330SOL    HW130449   0.185   0.113   8.090 -1.1397  0.4962 -0.8598
 6330SOL    HW230450   0.172   0.217   8.202  0.6076  0.3553  0.1708
 6331SOL     OW30451   2.849   3.376   5.222 -0.1586 -0.5930 -0.5161
 6331SOL    HW130452   2.887   3.359   5.309  0.0717  1.6630 -0.1649
 6331SOL    HW230453   2.926   3.425   5.192  1.0813 -1.6314  0.9635
 6332SOL     OW30454   2.244   3.873   5.354  0.0711  0.3825  0.4381
 6332SOL    HW130455   2.257   3.953   5.403  1.2184 -0.8027  2.0648
 6332SOL    HW230456   2.308   3.897   5.287 -0.1012  2.4804  1.0274
 6333SOL     OW30457   3.382   0.003   1.302 -0.0990 -0.3058  0.7807
 6333SOL    HW130458   3.380   4.647   1.359 -3.9947 -0.6397  0.2173
 6333SOL    HW230459   3.453   0.064   1.323 -2.4444  2.8709 -0.4886
 6334SOL     OW30460   4.167   2.544   5.801  0.0197 -0.1234  0.0824
 6334SOL    HW130461   4.145   2.605   5.730 -1.8559  0.1784  0.9095
 6334SOL    HW230462   4.204   2.606   5.864 -0.7730 -0.4835  0.9078
 6335SOL     OW30463   2.614   3.280   7.178  0.1240 -0.3063  0.0314
 6335SOL    HW130464   2.634   3.210   7.240 -0.4980 -0.9597 -0.5074
 6335SOL    HW230465   2.521   3.288   7.196 -0.2850 -0.7072 -1.9064
 6336SOL     OW30466   3.150   2.584   1.998  0.0166 -0.2958 -0.1138
 6336SOL    HW130467   3.205   2.658   2.026  2.7549 -1.3333 -2.7383
 6336SOL    HW230468   3.216   2.516   1.986  1.0964  0.4452  1.6629
 6337SOL     OW30469   4.234   2.273   4.381  0.2357 -0.5734 -0.2084
 6337SOL    HW130470   4.278   2.255   4.464  0.3907  2.9925  0.4971
 6337SOL    HW230471   4.143   2.246   4.389 -0.5854  2.4175  0.7907
 6338SOL     OW30472   0.844   1.809   3.864 -0.6489 -0.1223  0.6584
 6338SOL    HW130473   0.920   1.752   3.849 -0.6054 -0.0545  0.6207
 6338SOL    HW230474   0.889   1.876   3.915  3.6719 -1.4682 -1.3768
 6339SOL     OW30475   3.324   4.564   4.943  0.6689  0.6744 -0.0332
 6339SOL    HW130476   3.360   4.478   4.964 -0.3949 -0.1089 -1.3746
 6339SOL    HW230477   3.309   4.554   4.849 -1.6324  0.6507  0.3408
 6340SOL     OW30478   4.444   4.178   6.832 -1.0188  0.0039 -0.2760
 6340SOL    HW130479   4.359   4.220   6.818 -0.7389  0.6970  0.1252
 6340SOL    HW230480   4.497   4.256   6.849  0.0685 -0.2407 -2.5066
 6341SOL     OW30481   2.550   3.870  16.183  0.2590 -0.1624  0.6155
 6341SOL    HW130482   2.551   3.836  16.093  1.1000 -2.8725  1.6716
 6341SOL    HW230483   2.481   3.810  16.211  0.2578  0.4532  1.9137
 6342SOL     OW30484   4.455   1.720   0.654  0.0279 -0.0581  0.5220
 6342SOL    HW130485   4.454   1.722   0.750 -3.3086 -0.7346  0.5136
 6342SOL    HW230486   4.539   1.759   0.631 -1.6544  1.8445 -2.3998
 6343SOL     OW30487   2.440   4.292  10.597  0.1917 -0.3993 -0.1074
 6343SOL    HW130488   2.528   4.280  10.630  0.5821  0.3532 -0.8634
 6343SOL    HW230489   2.447   4.376  10.552  0.7434 -1.6967 -2.4534
 6344SOL     OW30490   2.498   2.619   5.050 -0.2027 -0.4602  0.3787
 6344SOL    HW130491   2.475   2.711   5.062 -1.1623 -0.6904  0.2885
 6344SOL    HW230492   2.511   2.618   4.955  1.5213 -0.4484  0.6086
 6345SOL     OW30493   0.112   4.340   3.825  0.3156  0.3108 -0.9383
 6345SOL    HW130494   0.141   4.269   3.768  0.5962  0.6996 -1.2798
 6345SOL    HW230495   0.108   4.298   3.911  4.3114 -1.0810 -1.4523
 6346SOL     OW30496   3.048   3.612  13.020  0.4522  0.0708 -0.2391
 6346SOL    HW130497   2.965   3.624  12.974  0.6766 -1.6651 -1.0809
 6346SOL    HW230498   3.101   3.625  12.941 -0.3364  0.3644 -0.7226
 6347SOL     OW30499   0.398   1.453   7.087 -0.1658  0.2703 -0.2059
 6347SOL    HW130500   0.436   1.432   7.172  1.9617  0.1058 -1.1959
 6347SOL    HW230501   0.317   1.497   7.114  1.9178  2.2715  2.6636
 6348SOL     OW30502   1.166   0.710   5.866 -0.5036  0.1080  0.6388
 6348SOL    HW130503   1.251   0.738   5.900  0.9885 -1.4015 -1.8450
 6348SOL    HW230504   1.183   0.703   5.772  0.0058  0.7876  0.6774
 6349SOL     OW30505   1.868   4.123   3.551 -0.2584  0.0194  0.7646
 6349SOL    HW130506   1.881   4.198   3.493  1.1153 -1.7237 -1.2246
 6349SOL    HW230507   1.829   4.069   3.481  0.4995  1.0312 -0.4312
 6350SOL     OW30508   3.811   3.385   4.005 -0.2597  0.5576 -0.0385
 6350SOL    HW130509   3.746   3.379   4.075 -2.3490  3.2187 -1.7689
 6350SOL    HW230510   3.773   3.461   3.961  0.0621  0.3003 -0.7547
 6351SOL     OW30511   2.382   2.149  13.186 -0.0228 -0.1752 -0.1275
 6351SOL    HW130512   2.468   2.160  13.227 -1.1200 -1.6817  2.5856
 6351SOL    HW230513   2.352   2.065  13.219 -0.9847 -0.0046 -0.5739
 6352SOL     OW30514   1.136   2.414   5.389 -0.0231 -0.7342 -0.2202
 6352SOL    HW130515   1.199   2.348   5.360  0.0980 -0.7028 -0.0287
 6352SOL    HW230516   1.116   2.375   5.474 -0.2743  0.8301  0.4431
 6353SOL     OW30517   2.779   2.226   8.104 -0.4208 -0.4518  0.2770
 6353SOL    HW130518   2.773   2.287   8.031  0.7515 -0.0552  0.5131
 6353SOL    HW230519   2.861   2.249   8.147 -0.3624  1.2772 -0.7681
 6354SOL     OW30520   2.247   1.766  12.525 -0.2126  0.1165  0.3419
 6354SOL    HW130521   2.310   1.734  12.590  1.2242  0.4210 -0.8939
 6354SOL    HW230522   2.237   1.689  12.469  2.5367 -0.3129  0.4205
 6355SOL     OW30523   2.098   1.567   7.253 -0.1677 -0.2088  0.2078
 6355SOL    HW130524   2.082   1.488   7.305  1.1208 -0.7228 -0.1684
 6355SOL    HW230525   2.013   1.611   7.254 -1.3520 -2.4639 -0.5863
 6356SOL     OW30526   4.118   4.111   4.670 -0.3841  0.3231  0.0779
 6356SOL    HW130527   4.104   4.050   4.597  1.3537  0.0175 -0.0002
 6356SOL    HW230528   4.034   4.112   4.715  0.9099  0.1878  2.4928
 6357SOL     OW30529   3.715   3.306   5.116 -0.1575  0.0329  0.1435
 6357SOL    HW130530   3.764   3.258   5.183  1.9197  0.1395 -1.2739
 6357SOL    HW230531   3.777   3.326   5.045  0.8419  0.9363  1.2693
 6358SOL     OW30532   4.464   0.356   4.485 -0.0390  0.2283 -0.0284
 6358SOL    HW130533   4.526   0.369   4.557 -0.5302 -0.6809  0.5446
 6358SOL    HW230534   4.502   0.409   4.414  0.8529 -1.4367 -0.7990
 6359SOL     OW30535   2.142   2.581   1.840 -0.5868 -0.3218  0.3423
 6359SOL    HW130536   2.205   2.653   1.832 -1.9517  0.8424  0.1882
 6359SOL    HW230537   2.184   2.518   1.782 -1.1694 -1.7556  1.4722
 6360SOL     OW30538   0.216   1.176  10.402  0.2920  0.3311 -0.3020
 6360SOL    HW130539   0.213   1.155  10.496 -2.6546  1.6575 -0.0750
 6360SOL    HW230540   0.286   1.129  10.357  0.3601  0.4291 -0.2992
 6361SOL     OW30541   4.092   2.434   9.101  0.3357 -0.0846  0.2115
 6361SOL    HW130542   4.064   2.524   9.116  0.5969 -0.0940  0.7877
 6361SOL    HW230543   4.177   2.464   9.068 -0.3158  1.2180 -0.2413
 6362SOL     OW30544   3.125   1.630   0.267  0.3519 -0.2920 -0.2225
 6362SOL    HW130545   3.142   1.683   0.345 -4.1086  1.7910 -0.6989
 6362SOL    HW230546   3.081   1.697   0.214 -0.2733  0.1299  0.8227
 6363SOL     OW30547   0.031   2.276   4.072 -0.4886  0.4353 -0.8067
 6363SOL    HW130548   0.049   2.231   4.154  0.4893  0.7778 -0.8307
 6363SOL    HW230549   0.054   2.209   4.008  1.1442  1.8328 -1.6906
 6364SOL     OW30550   4.514   1.421   2.909 -0.0252 -0.1346  0.3181
 6364SOL    HW130551   4.546   1.330   2.906 -0.7636 -0.4057  0.5445
 6364SOL    HW230552   4.489   1.424   2.816  2.2259  2.7881 -0.1728
 6365SOL     OW30553   3.368   0.066   4.503  0.1253  0.7510 -0.3943
 6365SOL    HW130554   3.371   0.102   4.414  2.6736  0.3146 -0.4997
 6365SOL    HW230555   3.455   0.090   4.535  0.3115  0.2378 -0.5097
 6366SOL     OW30556   3.114   3.790   8.219  0.0045  0.6604 -0.1795
 6366SOL    HW130557   3.152   3.742   8.293 -2.6511 -0.5617  0.3750
 6366SOL    HW230558   3.161   3.752   8.145 -0.6270  1.5670 -1.0462
 6367SOL     OW30559   4.330   0.001   7.929  0.1997  0.0486  0.4633
 6367SOL    HW130560   4.271   0.076   7.917 -0.0582 -0.2434 -0.0679
 6367SOL    HW230561   4.402   0.023   7.870 -0.7406 -1.8240 -1.3740
 6368SOL     OW30562   3.974   4.496   8.376 -0.6408 -0.0709 -0.3324
 6368SOL    HW130563   3.959   4.421   8.433  2.6647  0.6866  1.5465
 6368SOL    HW230564   3.911   4.556   8.415 -0.5429 -0.3746  0.2857
 6369SOL     OW30565   2.452   4.331   8.837 -0.1211  0.0875  0.6932
 6369SOL    HW130566   2.438   4.303   8.746 -2.9856  0.7726  0.9314
 6369SOL    HW230567   2.535   4.292   8.865 -0.5747 -1.0208  0.5325
 6370SOL     OW30568   4.569   1.680   2.015 -0.5639  0.1237  0.1329
 6370SOL    HW130569   4.476   1.660   2.007 -0.5466 -0.7133  1.9449
 6370SOL    HW230570   4.585   1.738   2.090  0.9941  0.8761 -0.7623
 6371SOL     OW30571   0.843   1.478   2.855 -0.3910 -0.5768  0.6876
 6371SOL    HW130572   0.905   1.412   2.823 -1.1828 -0.6118 -0.8111
 6371SOL    HW230573   0.774   1.437   2.907  1.5389 -0.7646  3.0999
 6372SOL     OW30574   2.305   3.109  15.634 -0.7143  0.1912  0.2916
 6372SOL    HW130575   2.375   3.067  15.585 -0.4203 -0.2030  1.0567
 6372SOL    HW230576   2.331   3.201  15.631 -0.9646  0.3570  3.3260
 6373SOL     OW30577   2.696   3.897   5.383  0.3525  0.0740 -0.0852
 6373SOL    HW130578   2.618   3.895   5.327  1.8209 -0.1622 -2.1193
 6373SOL    HW230579   2.699   3.805   5.410  0.4226  0.8115  2.3707
 6374SOL     OW30580   2.593   2.560   5.482 -0.1201  0.0605  0.1022
 6374SOL    HW130581   2.616   2.546   5.391  0.3394 -0.5427  0.3087
 6374SOL    HW230582   2.523   2.625   5.477 -0.9273 -0.6574  1.8504
 6375SOL     OW30583   1.667   0.968   3.449  0.5646 -1.0679  0.4840
 6375SOL    HW130584   1.608   1.005   3.514 -1.1219 -0.1368 -1.5655
 6375SOL    HW230585   1.747   1.015   3.472  0.5671 -1.5071  1.4093
 6376SOL     OW30586   1.187   2.972   0.130  0.3980 -0.6295 -0.3649
 6376SOL    HW130587   1.159   3.062   0.114 -1.9767 -1.2853  0.0424
 6376SOL    HW230588   1.098   2.936   0.137  0.8881 -1.5269  1.2359
 6377SOL     OW30589   2.492   1.760   6.678 -0.4031 -0.3765 -0.2032
 6377SOL    HW130590   2.433   1.815   6.626 -0.3164  1.0144  1.1800
 6377SOL    HW230591   2.442   1.735   6.756 -1.3333  0.6494 -0.4704
 6378SOL     OW30592   4.046   3.744   5.455  0.4030  0.1599 -0.6031
 6378SOL    HW130593   4.041   3.754   5.550  0.6486  0.7787 -0.6548
 6378SOL    HW230594   4.122   3.687   5.446 -1.2055 -2.3513  1.5685
 6379SOL     OW30595   2.141   3.330   0.617  0.2246 -0.1081  0.0514
 6379SOL    HW130596   2.137   3.256   0.556 -1.2575  1.4407 -1.7493
 6379SOL    HW230597   2.142   3.408   0.561 -0.5996 -0.7105 -0.8077
 6380SOL     OW30598   3.231   1.675  16.492 -0.2442  0.6431  0.1586
 6380SOL    HW130599   3.218   1.743  16.558 -2.3477  0.3227  0.0841
 6380SOL    HW230600   3.253   1.596  16.542  0.7320  0.1206 -1.0925
 6381SOL     OW30601   1.744   4.646   2.096 -0.0750 -0.1219 -0.5086
 6381SOL    HW130602   1.759   4.625   2.188 -2.7618 -0.0668 -0.0562
 6381SOL    HW230603   1.718   4.558   2.069  1.1287 -0.6580  0.1043
 6382SOL     OW30604   0.897   0.054   8.424  0.1813  0.5033 -0.1395
 6382SOL    HW130605   0.886   0.021   8.335 -1.1355  2.7715 -0.8099
 6382SOL    HW230606   0.924   0.144   8.407  0.3909  0.2337 -1.2350
 6383SOL     OW30607   0.062   3.013   9.131  0.2886 -0.1311 -0.7355
 6383SOL    HW130608   0.022   3.053   9.208  2.0028  0.8592 -0.3747
 6383SOL    HW230609   0.157   3.022   9.138  0.2514 -0.1969 -0.1641
 6384SOL     OW30610   4.245   3.419   4.519  0.6001 -0.6239 -0.2908
 6384SOL    HW130611   4.290   3.336   4.504 -1.2113 -1.4878 -1.0341
 6384SOL    HW230612   4.157   3.389   4.493  0.7841 -1.2039 -0.2406
 6385SOL     OW30613   0.333   3.646  15.159 -0.1006  0.0775 -0.1992
 6385SOL    HW130614   0.388   3.701  15.214  1.7459 -0.5514 -1.4370
 6385SOL    HW230615   0.384   3.565  15.153 -0.3237 -0.0908  0.1443
 6386SOL     OW30616   2.968   1.366   3.127 -0.6330 -0.0392  0.2430
 6386SOL    HW130617   2.985   1.417   3.206  1.8681  2.0231 -1.6103
 6386SOL    HW230618   3.060   1.340   3.119 -0.2019  0.7281  2.5764
 6387SOL     OW30619   2.591   2.260   9.065  0.5979  0.2845 -0.0475
 6387SOL    HW130620   2.576   2.165   9.071 -0.3466  0.4404 -0.0029
 6387SOL    HW230621   2.505   2.290   9.035  0.5333  0.7807  0.6334
 6388SOL     OW30622   1.891   0.323   0.721  0.3732  0.4975 -0.6497
 6388SOL    HW130623   1.832   0.289   0.654 -0.6844  0.0088  0.5522
 6388SOL    HW230624   1.848   0.292   0.800  0.0634  2.6591  0.0327
 6389SOL     OW30625   1.273   1.786   9.688 -0.1777  0.5487  0.1422
 6389SOL    HW130626   1.282   1.837   9.608  1.0052  1.2208  0.7085
 6389SOL    HW230627   1.178   1.774   9.694 -0.2466  1.3455  0.6523
 6390SOL     OW30628   4.148   3.186   8.219  0.2382 -1.1255  0.0165
 6390SOL    HW130629   4.112   3.191   8.130  0.7350  1.1878 -0.0758
 6390SOL    HW230630   4.070   3.168   8.271  0.5272 -0.6159  0.6335
 6391SOL     OW30631   3.089   2.108   5.183 -0.1227 -0.0568  0.4632
 6391SOL    HW130632   3.126   2.055   5.112 -0.2227  0.3903  0.0699
 6391SOL    HW230633   3.001   2.115   5.146  0.1350  1.9538  0.2341
 6392SOL     OW30634   1.731   1.658  15.607  0.5412 -0.2922  0.1428
 6392SOL    HW130635   1.793   1.717  15.564 -0.2543  1.3737  1.2518
 6392SOL    HW230636   1.657   1.648  15.548  0.6941  1.1772 -0.3174
 6393SOL     OW30637   2.635   2.904   4.665  0.2435 -0.0023  0.0743
 6393SOL    HW130638   2.568   2.971   4.654 -1.0501 -1.4121 -0.5487
 6393SOL    HW230639   2.691   2.947   4.730  1.7496 -2.1163  0.1924
 6394SOL     OW30640   3.928   1.687   9.846  0.1488  1.0616 -0.6884
 6394SOL    HW130641   3.859   1.724   9.791 -1.0565 -1.0075 -0.5389
 6394SOL    HW230642   3.898   1.714   9.933  0.8580  3.4035 -1.1696
 6395SOL     OW30643   4.518   0.670  15.449  0.3097 -0.3687  0.0175
 6395SOL    HW130644   4.515   0.732  15.376 -0.0425 -1.0693 -0.5655
 6395SOL    HW230645   4.613   0.660  15.445  0.6219  1.9826  1.3195
 6396SOL     OW30646   0.687   4.436  11.667 -0.9222 -0.2066  0.1534
 6396SOL    HW130647   0.712   4.497  11.598  0.8994  0.2264  1.1862
 6396SOL    HW230648   0.604   4.473  11.696 -0.0830 -1.1183  3.7994
 6397SOL     OW30649   0.601   3.086  14.644 -0.2044  0.6727 -0.1304
 6397SOL    HW130650   0.593   3.105  14.551 -1.1369  0.2153 -0.1399
 6397SOL    HW230651   0.636   2.997  14.645 -0.7128  0.4920  1.8876
 6398SOL     OW30652   1.813   0.675   2.789 -0.0521  0.4934  0.2077
 6398SOL    HW130653   1.808   0.689   2.884  0.9666 -0.6150  0.4207
 6398SOL    HW230654   1.817   0.764   2.755 -0.0601 -0.0030 -1.0733
 6399SOL     OW30655   4.559   2.238   8.785  0.0219  0.6085  0.6291
 6399SOL    HW130656   4.590   2.282   8.864  1.1288 -1.1894  1.2048
 6399SOL    HW230657   4.561   2.147   8.816  0.3451  0.0328 -1.0606
 6400SOL     OW30658   3.652   3.519   3.018 -0.1176 -0.5880  0.5018
 6400SOL    HW130659   3.680   3.605   3.049 -1.1790 -0.5027  1.2307
 6400SOL    HW230660   3.566   3.545   2.983  0.1359  0.7098  0.8335
 6401SOL     OW30661   0.050   3.060  15.689 -0.1771  0.5828  0.1003
 6401SOL    HW130662   0.141   3.032  15.700 -1.7475 -4.2761  0.7820
 6401SOL    HW230663   0.059   3.120  15.615  0.7662  0.9286  0.4946
 6402SOL     OW30664   2.469   0.284  10.560  0.1555 -0.5283 -0.4869
 6402SOL    HW130665   2.435   0.270  10.472 -0.2432 -0.5708 -0.3247
 6402SOL    HW230666   2.545   0.335  10.533 -0.8632  0.3745 -1.6500
 6403SOL     OW30667   4.074   2.077   0.930 -0.7622  0.1119 -0.1530
 6403SOL    HW130668   4.120   2.026   0.864  0.8776  2.0679 -0.5219
 6403SOL    HW230669   4.140   2.121   0.984 -1.5846 -1.0044  1.7755
 6404SOL     OW30670   3.313   0.587  15.653  0.0903 -0.0899 -0.5787
 6404SOL    HW130671   3.382   0.631  15.603 -0.0666 -1.1799 -1.7484
 6404SOL    HW230672   3.363   0.507  15.668  1.8838  1.4669  1.6816
 6405SOL     OW30673   2.714   0.790   9.187 -0.1825  0.8748  0.2173
 6405SOL    HW130674   2.696   0.877   9.223 -0.8227  0.9593 -0.3051
 6405SOL    HW230675   2.677   0.795   9.099  2.8135 -2.2063 -1.2015
 6406SOL     OW30676   4.058   0.388   4.576  0.2109 -0.1551 -0.7889
 6406SOL    HW130677   4.114   0.386   4.499  2.2737 -0.5496  0.7267
 6406SOL    HW230678   4.108   0.325   4.628 -0.8847 -1.3388 -1.1541
 6407SOL     OW30679   4.641   0.968  15.333  0.2533  0.2605 -0.2028
 6407SOL    HW130680   4.553   0.952  15.299  0.6178 -0.5264 -0.7529
 6407SOL    HW230681   4.700   0.912  15.283 -1.8365 -3.0206  1.0538
 6408SOL     OW30682   2.885   3.699   7.724  0.4659  0.1705 -0.2551
 6408SOL    HW130683   2.966   3.722   7.679  0.1371  0.9956 -0.4250
 6408SOL    HW230684   2.897   3.722   7.816 -0.7040  1.9404 -0.5546
 6409SOL     OW30685   0.297   0.757  16.365  0.0134 -0.1033  0.0239
 6409SOL    HW130686   0.360   0.820  16.330 -0.1922  0.4739  0.6822
 6409SOL    HW230687   0.292   0.791  16.454  0.0519 -0.3614  0.1237
 6410SOL     OW30688   3.416   3.116  13.178  0.5121 -0.4193  0.0380
 6410SOL    HW130689   3.425   3.209  13.201  1.5237 -0.4876 -0.0644
 6410SOL    HW230690   3.337   3.088  13.224  0.8661 -1.0359  0.2703
 6411SOL     OW30691   1.942   0.721  14.317  0.0049  0.0163  0.9557
 6411SOL    HW130692   2.010   0.759  14.262  0.6403 -1.1269  0.9579
 6411SOL    HW230693   1.896   0.804  14.330  2.5357  1.4931  0.4124
 6412SOL     OW30694   1.666   0.525   9.147  0.3104  0.3643 -0.2872
 6412SOL    HW130695   1.611   0.485   9.080  1.8453  0.1405 -1.4183
 6412SOL    HW230696   1.752   0.508   9.108  0.6716  0.1301  0.6004
 6413SOL     OW30697   0.434   1.061   1.185  0.0634  0.1713  0.0526
 6413SOL    HW130698   0.400   1.149   1.171  0.2697  0.4531  1.3009
 6413SOL    HW230699   0.375   1.011   1.129  0.0712  1.3150 -0.9823
 6414SOL     OW30700   1.066   4.470   3.245 -0.4956  0.0455 -0.1801
 6414SOL    HW130701   1.003   4.441   3.179 -1.4874  1.0584  0.3222
 6414SOL    HW230702   1.008   4.479   3.320 -2.3541 -1.2698 -1.4558
 6415SOL     OW30703   2.139   1.335   6.240  0.2986  0.1918  0.5772
 6415SOL    HW130704   2.083   1.284   6.182  2.1489  0.4504 -1.4213
 6415SOL    HW230705   2.147   1.420   6.196 -2.5070 -0.3449 -0.9966
 6416SOL     OW30706   4.121   3.027   5.225  0.1587 -0.7475  0.0246
 6416SOL    HW130707   4.185   3.086   5.184  1.6982 -2.5902 -0.2008
 6416SOL    HW230708   4.121   2.949   5.171 -2.6842 -0.2695 -0.6871
 6417SOL     OW30709   4.591   1.021   8.246 -0.4236 -0.5023  0.3852
 6417SOL    HW130710   4.585   1.103   8.197 -1.3554 -1.2176 -0.7126
 6417SOL    HW230711   4.602   0.956   8.176  0.1455  2.3817 -2.1946
 6418SOL     OW30712   1.580   1.648   2.855  0.3316  0.2061  0.4026
 6418SOL    HW130713   1.659   1.604   2.824 -0.6599 -0.8426 -0.6371
 6418SOL    HW230714   1.611   1.737   2.874  0.4020  0.8084 -2.5914
 6419SOL     OW30715   1.584   1.472   5.539 -0.5842  0.0286  0.0374
 6419SOL    HW130716   1.497   1.504   5.562 -0.2877 -0.0720  1.3214
 6419SOL    HW230717   1.559   1.392   5.492  2.2800 -0.2375 -1.0296
 6420SOL     OW30718   0.651   1.548   9.256 -0.1975 -0.1734  0.1874
 6420SOL    HW130719   0.691   1.514   9.175  1.9290 -1.7180  1.8733
 6420SOL    HW230720   0.705   1.518   9.329 -0.8163  0.4244  0.8787
 6421SOL     OW30721   0.913   3.318   6.670 -0.0618 -0.8402 -0.2941
 6421SOL    HW130722   0.902   3.313   6.574  3.3096 -1.7031 -0.6201
 6421SOL    HW230723   1.008   3.316   6.671  0.0260  1.7732 -2.4197
 6422SOL     OW30724   3.541   2.550   6.567  0.2581 -0.2431  0.0865
 6422SOL    HW130725   3.469   2.598   6.527  1.2982  1.6836  0.5014
 6422SOL    HW230726   3.485   2.498   6.624 -1.2528  0.3780 -0.8371
 6423SOL     OW30727   4.307   0.549   7.165  0.2382 -0.3966 -0.3366
 6423SOL    HW130728   4.373   0.618   7.155  1.4538 -1.3734  1.0974
 6423SOL    HW230729   4.311   0.508   7.079 -0.6938  0.3040 -0.7129
 6424SOL     OW30730   3.016   4.203   5.694  0.4942 -0.1800 -0.0668
 6424SOL    HW130731   2.981   4.288   5.666 -2.0839 -1.9553 -2.1564
 6424SOL    HW230732   2.939   4.149   5.712  1.6427 -1.6046  0.5988
 6425SOL     OW30733   1.790   4.704  12.682  0.1850  0.3599  0.3880
 6425SOL    HW130734   1.815   0.073  12.657 -0.5578  0.3882 -0.2671
 6425SOL    HW230735   1.760   4.711  12.772  1.7642  0.2925  0.9191
 6426SOL     OW30736   2.481   1.696   2.523  0.5056  0.3632 -0.0853
 6426SOL    HW130737   2.504   1.636   2.452 -2.0048 -0.7253  0.0054
 6426SOL    HW230738   2.506   1.647   2.602  2.6651  0.0099 -0.9872
 6427SOL     OW30739   2.788   2.642   3.083 -0.0010  0.5272  0.0855
 6427SOL    HW130740   2.695   2.662   3.089  0.3575  1.7092  1.8973
 6427SOL    HW230741   2.801   2.627   2.989  0.2972  0.3741  0.1513
 6428SOL     OW30742   4.702   2.180  17.072  0.3607  0.0082  0.4243
 6428SOL    HW130743   4.627   2.238  17.083  0.3237 -0.1669  1.1059
 6428SOL    HW230744   4.672   2.100  17.114 -1.6917  0.0334 -1.0055
 6429SOL     OW30745   1.517   2.404  15.090  0.1558 -0.0536 -0.4102
 6429SOL    HW130746   1.427   2.372  15.098  0.2439 -0.0703  0.5130
 6429SOL    HW230747   1.509   2.442  15.003  0.7965  3.5314  1.1066
 6430SOL     OW30748   3.472   0.885   1.276  0.1998 -0.2297  0.0435
 6430SOL    HW130749   3.453   0.935   1.355 -1.3770 -1.1526  0.2564
 6430SOL    HW230750   3.567   0.891   1.284  0.1824  0.8464 -0.5218
 6431SOL     OW30751   1.457   2.858   3.882 -0.4623  0.1966  0.1719
 6431SOL    HW130752   1.543   2.835   3.918 -1.6056 -2.2861  1.3243
 6431SOL    HW230753   1.464   2.811   3.798 -1.5129  2.1947 -1.0240
 6432SOL     OW30754   3.865   2.416   3.567 -0.3046 -0.5858 -0.0877
 6432SOL    HW130755   3.786   2.447   3.525  0.5883  0.2386 -1.1527
 6432SOL    HW230756   3.933   2.450   3.509  1.5720  2.3898  3.8335
 6433SOL     OW30757   2.680   3.037   4.210 -0.0895  0.2131  0.0605
 6433SOL    HW130758   2.760   3.042   4.157  1.2176 -0.5233  1.9510
 6433SOL    HW230759   2.666   3.125   4.246  1.8079  0.2167  0.7885
 6434SOL     OW30760   1.776   1.383  11.681 -0.5723  0.4454 -0.0265
 6434SOL    HW130761   1.803   1.298  11.716 -1.7871 -0.4417 -1.2178
 6434SOL    HW230762   1.864   1.415  11.661 -0.9799  1.7057  0.1775
 6435SOL     OW30763   2.317   0.054   3.173 -0.3756 -0.2607  0.0086
 6435SOL    HW130764   2.371   0.117   3.124 -1.5048  0.3665 -0.4227
 6435SOL    HW230765   2.237   0.103   3.190 -0.2736  1.6703 -4.9275
 6436SOL     OW30766   0.383   3.321  10.967 -0.4106  0.0805 -0.5221
 6436SOL    HW130767   0.460   3.271  10.941  0.5234  0.8337  0.7645
 6436SOL    HW230768   0.338   3.347  10.887  2.8579  1.2804 -1.9813
 6437SOL     OW30769   3.431   3.398   1.024 -0.0538  0.1231  0.3433
 6437SOL    HW130770   3.388   3.313   1.032 -1.8240  0.6650 -3.5625
 6437SOL    HW230771   3.352   3.451   1.011 -0.2592 -0.1409  0.5066
 6438SOL     OW30772   2.132   1.914   4.513  0.6100 -0.1439 -0.5596
 6438SOL    HW130773   2.111   1.955   4.429  2.2572  0.2389 -0.7791
 6438SOL    HW230774   2.044   1.884   4.537  1.2940 -0.5062  1.5428
 6439SOL     OW30775   4.304   2.662   3.445 -0.2282 -0.1186  0.5821
 6439SOL    HW130776   4.238   2.731   3.449 -1.3375 -1.1945  0.6968
 6439SOL    HW230777   4.247   2.591   3.417 -1.7212  1.8302 -1.3362
 6440SOL     OW30778   0.834   2.438   9.254  0.1403  0.2658  0.4680
 6440SOL    HW130779   0.788   2.504   9.203  0.1428 -2.6067 -3.2017
 6440SOL    HW230780   0.863   2.374   9.189 -0.2328 -0.5245  1.0763
 6441SOL     OW30781   1.225   2.354   2.935  0.0492 -0.6853 -0.0399
 6441SOL    HW130782   1.211   2.329   2.844 -1.3855  0.8962 -0.2580
 6441SOL    HW230783   1.319   2.371   2.942 -0.0585 -0.4152  0.6965
 6442SOL     OW30784   3.112   2.693  17.355 -0.0749  0.1003  0.7001
 6442SOL    HW130785   3.206   2.711  17.347 -0.2832  0.7235 -0.2857
 6442SOL    HW230786   3.112   2.720  17.448  3.0215 -0.3381  0.8256
 6443SOL     OW30787   0.673   1.132  11.827 -0.1649  0.6563 -0.2152
 6443SOL    HW130788   0.721   1.207  11.863 -0.9974  0.7407  0.7081
 6443SOL    HW230789   0.747   1.076  11.803  0.7461  1.2440  1.2077
 6444SOL     OW30790   0.492   1.595   6.375  0.0803 -0.1190 -0.7449
 6444SOL    HW130791   0.460   1.536   6.307  0.8773  0.5028 -1.6510
 6444SOL    HW230792   0.585   1.572   6.384  0.1265  0.5103  0.4017
 6445SOL     OW30793   0.829   0.512   3.767  0.2281  0.8074  0.2015
 6445SOL    HW130794   0.790   0.594   3.737  1.5769  1.3608 -0.0462
 6445SOL    HW230795   0.841   0.532   3.860  4.3188  1.2523 -0.4156
 6446SOL     OW30796   0.979   1.485   6.333 -0.5870  0.0433  0.3675
 6446SOL    HW130797   1.056   1.480   6.390 -0.3473 -2.2624 -0.1737
 6446SOL    HW230798   1.012   1.557   6.280  0.3083  0.3796  1.3884
 6447SOL     OW30799   0.545   1.426   7.313  0.2814  0.2294 -0.4552
 6447SOL    HW130800   0.592   1.402   7.393 -1.7382  0.3204  0.7560
 6447SOL    HW230801   0.604   1.486   7.267 -0.3619  0.4911 -0.9280
 6448SOL     OW30802   3.543   4.387  15.391  0.1489  0.0027 -0.2935
 6448SOL    HW130803   3.503   4.311  15.350 -2.2487  0.6001  0.9682
 6448SOL    HW230804   3.580   4.345  15.469 -2.3052 -1.0854  0.2645
 6449SOL     OW30805   3.725   0.666   2.057 -0.3512 -0.3285 -1.2989
 6449SOL    HW130806   3.681   0.666   1.972 -0.4197 -0.6000 -1.2615
 6449SOL    HW230807   3.817   0.650   2.035 -0.5436 -2.1019 -0.7626
 6450SOL     OW30808   1.314   3.957   4.172 -0.2970  0.3223  0.2466
 6450SOL    HW130809   1.345   4.003   4.094 -1.5240 -1.2214 -1.1514
 6450SOL    HW230810   1.344   4.012   4.245  2.1059  2.1566 -2.1302
 6451SOL     OW30811   2.955   0.139   9.278  0.5905 -0.0938 -0.4481
 6451SOL    HW130812   2.877   0.117   9.329  1.2907  1.5192  1.2907
 6451SOL    HW230813   2.954   0.063   9.219  1.7879 -0.7578  0.3969
 6452SOL     OW30814   4.055   1.714   7.160 -0.1917 -0.2404  0.5167
 6452SOL    HW130815   4.106   1.660   7.100  0.3220  0.5062  0.2836
 6452SOL    HW230816   4.115   1.786   7.178  0.0350  0.1116 -1.6517
 6453SOL     OW30817   3.560   0.880   9.044 -0.5360 -0.5307  0.6965
 6453SOL    HW130818   3.569   0.924   8.959  1.7681  0.0633  1.2541
 6453SOL    HW230819   3.567   0.952   9.107  0.3383  0.5714 -0.6553
 6454SOL     OW30820   0.753   0.272   0.625 -0.1279  0.1248 -1.0516
 6454SOL    HW130821   0.838   0.245   0.660 -0.8932  0.8536  1.3849
 6454SOL    HW230822   0.733   0.195   0.573  2.0150 -1.1870  0.0632
 6455SOL     OW30823   2.436   0.120   0.380  0.2059 -0.0213 -0.0800
 6455SOL    HW130824   2.353   0.162   0.359  0.6914  1.2419  0.5393
 6455SOL    HW230825   2.504   0.187   0.371 -0.2858  0.4493 -0.2438
 6456SOL     OW30826   3.188   3.856   1.134  0.5616  0.0048 -0.0011
 6456SOL    HW130827   3.213   3.765   1.118 -1.3443 -0.3459 -0.9864
 6456SOL    HW230828   3.239   3.874   1.213  3.6970 -1.2665 -1.7205
 6457SOL     OW30829   1.790   1.644  13.987  0.2626  0.4622  0.0833
 6457SOL    HW130830   1.755   1.600  14.065  0.7901  0.1479  0.1450
 6457SOL    HW230831   1.883   1.628  14.004  0.0003 -0.8285  0.3256
 6458SOL     OW30832   3.851   3.848  14.701  0.1625 -0.6235 -0.0164
 6458SOL    HW130833   3.773   3.798  14.676 -1.3536  1.5943  0.3247
 6458SOL    HW230834   3.814   3.925  14.744 -0.7576 -0.7615 -0.5613
 6459SOL     OW30835   2.298   1.117   6.543 -0.5490 -0.7645 -0.1648
 6459SOL    HW130836   2.209   1.094   6.516 -1.4836  1.1149  1.2909
 6459SOL    HW230837   2.319   1.045   6.602  2.3903  0.1356 -0.1191
 6460SOL     OW30838   0.260   3.663   4.270  0.1888  0.3426  0.4771
 6460SOL    HW130839   0.194   3.676   4.202  2.2066 -0.6085 -1.6391
 6460SOL    HW230840   0.211   3.653   4.352 -2.5149  1.1344 -1.0458
 6461SOL     OW30841   1.097   0.515   5.251  0.4864 -0.1282 -0.1281
 6461SOL    HW130842   1.174   0.468   5.220 -0.1576 -1.8451  0.8940
 6461SOL    HW230843   1.086   0.573   5.175  0.5416  1.8833  1.4106
 6462SOL     OW30844   0.604   2.130  12.276 -0.3177  0.0980  0.4644
 6462SOL    HW130845   0.560   2.060  12.227  0.8413 -1.3513  1.4821
 6462SOL    HW230846   0.682   2.144  12.222  0.0753  1.3940  1.3697
 6463SOL     OW30847   1.188   2.591  16.016  0.8177 -0.7518  0.1773
 6463SOL    HW130848   1.150   2.534  15.949 -0.5327  1.1982 -0.7195
 6463SOL    HW230849   1.126   2.567  16.084  0.8152 -3.0121 -0.6234
 6464SOL     OW30850   1.903   2.316  11.114 -0.0373 -0.1126  0.2640
 6464SOL    HW130851   1.940   2.230  11.137 -0.8652 -0.7950 -0.9487
 6464SOL    HW230852   1.885   2.346  11.203  4.0171 -0.9864  1.3896
 6465SOL     OW30853   1.940   0.218   6.530 -0.1015 -0.0557  0.0171
 6465SOL    HW130854   2.022   0.211   6.579  0.5169 -1.4159 -1.2347
 6465SOL    HW230855   1.963   0.157   6.460  0.2420 -0.7642  0.7373
 6466SOL     OW30856   3.140   1.797   3.271  0.1197 -0.5763 -0.3776
 6466SOL    HW130857   3.181   1.739   3.336  0.7357 -0.9343 -1.0842
 6466SOL    HW230858   3.178   1.768   3.188  0.2801  0.7864 -0.7759
 6467SOL     OW30859   4.538   0.784   2.219 -0.7585 -0.1931 -0.1299
 6467SOL    HW130860   4.467   0.733   2.258 -0.4301 -0.0680  0.6300
 6467SOL    HW230861   4.524   0.871   2.253  3.8134  1.1325 -1.5554
 6468SOL     OW30862   4.095   0.909   0.575 -0.7052  0.2750 -0.7220
 6468SOL    HW130863   4.152   0.982   0.601 -2.2228  0.9964  0.5675
 6468SOL    HW230864   4.148   0.836   0.607 -0.7499  0.2917 -0.6116
 6469SOL     OW30865   1.123   0.712  13.017 -0.2046 -0.6097 -0.2898
 6469SOL    HW130866   1.029   0.705  13.031  0.0968 -0.0556  2.0710
 6469SOL    HW230867   1.158   0.693  13.104 -0.9098  0.1737  0.1668
 6470SOL     OW30868   1.161   3.103   9.296  0.1615 -0.3474  0.2262
 6470SOL    HW130869   1.066   3.110   9.284  0.1572 -0.0079  0.4726
 6470SOL    HW230870   1.176   3.010   9.317  1.2854 -0.1405  0.3540
 6471SOL     OW30871   4.059   4.408   1.125  0.5063 -0.2647 -0.1163
 6471SOL    HW130872   4.095   4.321   1.110 -0.0325 -0.7201  1.2946
 6471SOL    HW230873   3.985   4.394   1.184  0.2504 -1.5969 -0.7595
 6472SOL     OW30874   4.213   3.445   6.976 -0.8211 -0.3181  0.1207
 6472SOL    HW130875   4.204   3.538   6.955 -0.9867  0.2042  2.4985
 6472SOL    HW230876   4.222   3.448   7.071  2.5987  0.3735 -0.2126
 6473SOL     OW30877   0.307   1.774   8.221 -0.5189 -0.1626  0.1111
 6473SOL    HW130878   0.239   1.707   8.216  1.2845 -2.0464  0.6398
 6473SOL    HW230879   0.275   1.840   8.282  1.0789 -0.1873  0.9830
 6474SOL     OW30880   2.385   3.792   6.573 -0.2290  0.2264  0.7369
 6474SOL    HW130881   2.438   3.818   6.498 -0.4443  1.1935  0.9178
 6474SOL    HW230882   2.303   3.840   6.558 -0.9594 -0.9296  1.0161
 6475SOL     OW30883   0.716   0.270   6.503 -0.3226  0.1089  0.3669
 6475SOL    HW130884   0.656   0.223   6.445  0.3304  0.0266 -0.2370
 6475SOL    HW230885   0.777   0.204   6.536 -0.0944  0.1779  0.0807
 6476SOL     OW30886   0.216   1.251   6.066 -0.4167  0.3821  0.2791
 6476SOL    HW130887   0.157   1.232   6.139 -1.2401 -0.5024 -0.6148
 6476SOL    HW230888   0.277   1.311   6.108 -0.2940 -1.3868  2.6097
 6477SOL     OW30889   4.006   2.865  14.670 -0.2758 -0.0511 -0.4195
 6477SOL    HW130890   3.975   2.838  14.756 -0.5972 -0.5113 -0.6793
 6477SOL    HW230891   3.949   2.821  14.607  0.1803 -2.1874  0.6470
 6478SOL     OW30892   0.001   2.361   2.655 -0.6504 -0.3088  0.5574
 6478SOL    HW130893   4.696   2.287   2.601  0.0266  0.9188 -1.4755
 6478SOL    HW230894   0.074   2.332   2.709 -1.4479 -1.7694  0.8446
 6479SOL     OW30895   1.022   2.729  17.008 -0.1461  0.5026 -0.1038
 6479SOL    HW130896   1.064   2.715  17.093 -0.0449  0.2245 -0.1995
 6479SOL    HW230897   0.964   2.653  16.998  0.6942 -0.0613 -0.6336
 6480SOL     OW30898   1.573   2.660  16.782  0.4544 -0.1340 -0.2669
 6480SOL    HW130899   1.602   2.685  16.694  1.2977 -2.5550 -0.6857
 6480SOL    HW230900   1.486   2.698  16.771  1.4933  2.5509  0.8091
 6481SOL     OW30901   3.650   1.517   1.645  0.0678  0.0605 -0.2075
 6481SOL    HW130902   3.698   1.522   1.728 -0.4174  1.1323  0.0072
 6481SOL    HW230903   3.568   1.477   1.673  0.9607 -1.2620  0.5269
 6482SOL     OW30904   1.456   3.861  10.614  0.3727  0.1035  0.4423
 6482SOL    HW130905   1.379   3.814  10.646  2.1496 -2.1961  1.3812
 6482SOL    HW230906   1.414   3.944  10.593  2.4228  0.9714 -0.1760
 6483SOL     OW30907   3.090   3.500   8.928 -0.3796 -0.0875  0.5073
 6483SOL    HW130908   3.004   3.459   8.938 -1.0213  1.3046  0.7082
 6483SOL    HW230909   3.154   3.442   8.969  0.7230 -0.5031 -1.7937
 6484SOL     OW30910   2.956   2.789  10.384 -0.2870 -0.3942  0.0473
 6484SOL    HW130911   2.903   2.770  10.462  0.3824 -2.6781 -0.0361
 6484SOL    HW230912   2.889   2.801  10.316 -0.8241 -2.3242  0.2289
 6485SOL     OW30913   3.797   3.173  15.215 -0.2295  0.3500  0.1289
 6485SOL    HW130914   3.719   3.118  15.212 -0.4406  0.5673  2.0274
 6485SOL    HW230915   3.856   3.119  15.162 -2.6110 -1.4001 -0.7334
 6486SOL     OW30916   3.484   2.965   9.570 -0.0052  0.0041  0.3987
 6486SOL    HW130917   3.513   3.056   9.568  3.0191 -0.9728 -0.0500
 6486SOL    HW230918   3.428   2.947   9.495  0.2458  0.7836  0.0251
 6487SOL     OW30919   3.822   2.417  17.176  0.2102 -0.0831  0.2016
 6487SOL    HW130920   3.893   2.462  17.130  0.9840  0.9971  2.4480
 6487SOL    HW230921   3.840   2.324  17.160  1.1836  0.1381 -0.0105
 6488SOL     OW30922   0.160   4.521  11.735 -0.1479  0.6575  0.0726
 6488SOL    HW130923   0.078   4.492  11.775 -0.3319  0.3826 -0.5070
 6488SOL    HW230924   0.141   4.578  11.660  3.2553 -0.4688 -1.6715
 6489SOL     OW30925   3.384   3.218   4.294 -0.3832 -0.6328 -0.0992
 6489SOL    HW130926   3.360   3.177   4.211 -2.3943  1.7836 -0.7280
 6489SOL    HW230927   3.304   3.265   4.319 -1.7813 -1.8786 -2.2312
 6490SOL     OW30928   3.037   0.818   2.459  0.2010  0.4959 -0.1284
 6490SOL    HW130929   3.039   0.816   2.554  0.2085 -0.1514 -0.1391
 6490SOL    HW230930   3.118   0.864   2.440 -0.1778  0.6952 -1.2946
 6491SOL     OW30931   0.460   2.848   5.312  0.0665  0.0019 -0.2438
 6491SOL    HW130932   0.373   2.888   5.311 -0.1549 -0.4925 -0.6545
 6491SOL    HW230933   0.435   2.763   5.349  1.2393 -0.3088 -0.1674
 6492SOL     OW30934   0.077   4.645   6.690  0.5294  0.2552  0.0911
 6492SOL    HW130935   0.138   4.666   6.619  1.3447  1.7302  1.2434
 6492SOL    HW230936   0.116   4.691   6.764  0.9422 -1.6809  1.0864
 6493SOL     OW30937   2.032   3.349  16.200  0.1824  0.2260 -0.1998
 6493SOL    HW130938   1.985   3.431  16.184  0.3808  0.7841  2.1429
 6493SOL    HW230939   2.053   3.328  16.109  1.8932  0.2022  0.2073
 6494SOL     OW30940   2.250   4.591   5.265 -0.8274 -0.1215  0.0716
 6494SOL    HW130941   2.205   4.675   5.257  0.5743  0.6985  0.9678
 6494SOL    HW230942   2.262   4.567   5.173 -0.1503 -0.3852  0.2362
 6495SOL     OW30943   0.489   1.814   4.758 -0.5742 -0.3649  0.5871
 6495SOL    HW130944   0.454   1.725   4.756  0.7597 -0.9294  2.3728
 6495SOL    HW230945   0.413   1.858   4.795  1.0943  2.3389  0.8071
 6496SOL     OW30946   2.985   0.281   1.215 -0.0918 -0.5215  0.0816
 6496SOL    HW130947   3.061   0.227   1.190  0.9420  0.5085  1.0124
 6496SOL    HW230948   3.023   0.366   1.236  1.5680 -0.9517 -1.1468
 6497SOL     OW30949   2.573   4.333  13.970 -0.3396 -0.3200 -0.5088
 6497SOL    HW130950   2.546   4.299  14.056 -2.0202  0.2148 -0.8161
 6497SOL    HW230951   2.656   4.287  13.958 -0.7636 -2.0948  3.1969
 6498SOL     OW30952   3.076   0.478   2.915  0.3564 -0.1353 -0.5607
 6498SOL    HW130953   3.147   0.413   2.921 -1.0032 -1.6372 -0.7113
 6498SOL    HW230954   2.997   0.429   2.893  0.2253 -1.5449  3.0133
 6499SOL     OW30955   3.451   0.153   3.718  0.3582 -0.3062 -0.1440
 6499SOL    HW130956   3.416   0.227   3.768 -1.3067 -0.6540 -0.8069
 6499SOL    HW230957   3.544   0.179   3.718 -0.0838  1.3193  2.5028
 6500SOL     OW30958   2.778   3.539   7.133  0.2985 -0.4524  0.2821
 6500SOL    HW130959   2.873   3.532   7.146  0.1516 -3.3954 -0.2602
 6500SOL    HW230960   2.760   3.445   7.134 -0.9983 -0.1952  0.8446
 6501SOL     OW30961   2.480   1.210   8.710 -0.2906  0.4512 -0.2117
 6501SOL    HW130962   2.473   1.144   8.778 -1.2062 -0.0183 -0.7537
 6501SOL    HW230963   2.571   1.237   8.722  0.1963 -0.8694 -0.9739
 6502SOL     OW30964   1.118   1.667   6.171 -0.2193 -0.2529 -0.0822
 6502SOL    HW130965   1.178   1.729   6.212 -2.8098  3.1918 -1.4668
 6502SOL    HW230966   1.167   1.649   6.091 -0.2594 -2.9787  0.5242
 6503SOL     OW30967   4.178   3.402   4.194 -0.3580 -0.4211 -0.1582
 6503SOL    HW130968   4.164   3.357   4.111  0.2580  0.3212 -0.6637
 6503SOL    HW230969   4.119   3.361   4.257 -0.3429  2.1029  1.4814
 6504SOL     OW30970   0.911   3.866   6.953 -0.5046  0.3934 -0.5491
 6504SOL    HW130971   0.932   3.796   6.891  0.6361  0.7646 -0.5835
 6504SOL    HW230972   0.998   3.905   6.963  0.0000 -0.8080 -0.1893
 6505SOL     OW30973   2.920   3.440   9.397  0.1717 -0.2155  0.1968
 6505SOL    HW130974   3.012   3.463   9.408  0.0715  0.5847 -0.5883
 6505SOL    HW230975   2.920   3.370   9.462  0.7448  0.0564  0.4924
 6506SOL     OW30976   4.109   1.161   4.778  0.3337 -0.3997  0.0833
 6506SOL    HW130977   4.041   1.169   4.711  1.5853 -0.5552 -1.2198
 6506SOL    HW230978   4.094   1.072   4.809 -0.1209 -0.7768 -1.2109
 6507SOL     OW30979   3.278   2.248   8.529  0.2979 -0.3405 -0.3543
 6507SOL    HW130980   3.306   2.224   8.441  1.8295  0.2706 -0.0284
 6507SOL    HW230981   3.343   2.316   8.548 -1.2211  1.9303 -3.2629
 6508SOL     OW30982   3.014   2.368   2.106 -0.0328  0.0505  0.2245
 6508SOL    HW130983   3.049   2.455   2.086  0.4523 -0.2090 -0.0402
 6508SOL    HW230984   3.047   2.361   2.195  3.6750  0.0408 -1.1351
 6509SOL     OW30985   0.339   0.507  14.828  0.0609 -0.6221 -0.4798
 6509SOL    HW130986   0.342   0.533  14.921 -1.3235  4.0586 -1.7271
 6509SOL    HW230987   0.418   0.453  14.826  0.6677  0.1540  2.3082
 6510SOL     OW30988   2.436   3.313   4.905 -0.1515 -0.0983 -0.5125
 6510SOL    HW130989   2.507   3.360   4.949 -0.2900  0.7922 -1.2533
 6510SOL    HW230990   2.412   3.366   4.830 -1.8158 -2.6398 -1.7741
 6511SOL     OW30991   1.603   2.128   7.700  0.0249 -0.0704 -0.4753
 6511SOL    HW130992   1.549   2.205   7.684  0.6345  0.8199  1.7270
 6511SOL    HW230993   1.658   2.125   7.621 -0.3206 -1.3055 -0.6670
 6512SOL     OW30994   4.112   2.625   4.867  1.2948 -0.7976  0.3137
 6512SOL    HW130995   4.101   2.569   4.790 -2.8988 -0.2666  0.5013
 6512SOL    HW230996   4.176   2.581   4.922  2.1559  1.1040  0.8422
 6513SOL     OW30997   1.353   2.500  15.482  0.2846 -0.6006  0.1221
 6513SOL    HW130998   1.408   2.443  15.429  0.9458  1.5129 -1.4607
 6513SOL    HW230999   1.310   2.554  15.416 -0.3704 -1.3677 -0.0737
 6514SOL     OW31000   3.450   0.072   4.822 -0.1702 -0.5116 -0.1193
 6514SOL    HW131001   3.432   4.707   4.860  0.1575 -1.0897 -1.2443
 6514SOL    HW231002   3.534   0.059   4.777  0.4632  1.3862  0.5406
 6515SOL     OW31003   0.364   1.449   5.033  0.4774  0.0129 -0.1536
 6515SOL    HW131004   0.428   1.467   5.102  0.9555  0.9608 -0.8331
 6515SOL    HW231005   0.314   1.375   5.066  0.5254  0.3927  0.7760
 6516SOL     OW31006   1.431   4.073   5.775  0.2634 -0.0521 -0.3996
 6516SOL    HW131007   1.493   4.048   5.843 -1.1040 -0.1492  0.8178
 6516SOL    HW231008   1.424   4.167   5.793 -0.7432  0.3057 -2.7127
 6517SOL     OW31009   0.058   2.287  17.395  0.3358  0.2494 -0.1459
 6517SOL    HW131010   0.083   2.271  17.486 -2.9481  1.7847  1.0119
 6517SOL    HW231011   0.118   2.236  17.341 -2.3505 -1.1798 -1.7963
 6518SOL     OW31012   4.275   3.572   1.670  0.0949  0.6247 -0.5133
 6518SOL    HW131013   4.319   3.554   1.752  1.4696 -1.7873 -1.7717
 6518SOL    HW231014   4.266   3.667   1.679  0.5605  0.7127 -0.9768
 6519SOL     OW31015   3.820   4.720   8.467  0.5022 -0.3659  0.2709
 6519SOL    HW131016   3.790   0.089   8.480 -2.4396 -1.2832 -0.3027
 6519SOL    HW231017   3.758   4.682   8.404 -0.6246 -1.1131  1.8391
 6520SOL     OW31018   0.387   3.434  13.611 -0.2459 -0.0368  0.2331
 6520SOL    HW131019   0.355   3.438  13.521  0.6999 -3.0731 -0.2482
 6520SOL    HW231020   0.359   3.522  13.636  0.4538  0.2623 -0.0552
 6521SOL     OW31021   3.479   0.185   2.250  0.4122  0.2516  0.1171
 6521SOL    HW131022   3.557   0.129   2.247 -0.1764 -0.4827 -1.1964
 6521SOL    HW231023   3.511   0.257   2.196  1.6066 -0.5695 -0.2870
 6522SOL     OW31024   0.982   1.969  17.055  0.1230 -0.1223 -0.0011
 6522SOL    HW131025   1.074   1.995  17.055  0.2749 -0.6803  1.5863
 6522SOL    HW231026   0.955   2.001  17.141 -0.7206 -1.1267  0.1044
 6523SOL     OW31027   2.286   1.520   3.997 -0.2477  0.2098 -0.1037
 6523SOL    HW131028   2.339   1.565   3.931  0.5224 -0.7624 -0.1550
 6523SOL    HW231029   2.232   1.469   3.937 -0.8693 -1.3208  1.7772
 6524SOL     OW31030   2.153   2.968   6.822  0.6205  0.9095  0.8829
 6524SOL    HW131031   2.206   3.019   6.883  0.7322  1.5610  0.2438
 6524SOL    HW231032   2.149   3.035   6.753 -1.2657  0.2320  0.3295
 6525SOL     OW31033   1.609   0.197  12.376  0.1226 -0.0356  0.1628
 6525SOL    HW131034   1.688   0.220  12.424  0.4623  0.1488 -0.4940
 6525SOL    HW231035   1.629   0.226  12.287 -3.9534  0.0091 -0.7403
 6526SOL     OW31036   3.744   1.214   9.032  0.7267 -0.0377  0.8776
 6526SOL    HW131037   3.782   1.196   9.118  1.6620 -0.9509  0.2661
 6526SOL    HW231038   3.671   1.275   9.046  1.2994  1.1415 -1.3338
 6527SOL     OW31039   0.286   2.212  11.836  0.0799  0.5353 -0.6177
 6527SOL    HW131040   0.309   2.197  11.745 -0.1798  2.5247 -1.0059
 6527SOL    HW231041   0.221   2.281  11.828  0.4878  0.7762 -1.8449
 6528SOL     OW31042   0.065   2.535   4.160 -0.3815 -0.4114  0.2321
 6528SOL    HW131043   0.048   2.450   4.120  0.7163 -0.6339  0.2399
 6528SOL    HW231044   0.117   2.508   4.235  0.6936  0.7408 -0.0998
 6529SOL     OW31045   1.550   0.760   8.531 -0.2676  0.8982 -0.6827
 6529SOL    HW131046   1.618   0.693   8.535  0.6599  1.7360 -3.1973
 6529SOL    HW231047   1.586   0.838   8.491 -0.8197  1.3726 -0.2657
 6530SOL     OW31048   4.132   0.580  14.128  0.2902 -0.4347 -0.0598
 6530SOL    HW131049   4.063   0.549  14.186  1.2835 -0.2969  1.2153
 6530SOL    HW231050   4.197   0.607  14.194  0.9197  1.0507 -1.2840
 6531SOL     OW31051   3.265   4.599   3.663 -0.6082  0.5388  0.5023
 6531SOL    HW131052   3.307   4.573   3.581  1.4037  0.6307  1.5194
 6531SOL    HW231053   3.259   4.517   3.712  1.4855  0.0420 -0.0701
 6532SOL     OW31054   3.482   0.948  12.052  0.3471  0.3704 -0.4845
 6532SOL    HW131055   3.490   0.871  12.107 -0.4419  1.1100  0.6687
 6532SOL    HW231056   3.471   1.013  12.121  1.4243  1.5742 -1.4284
 6533SOL     OW31057   0.625   1.325   2.518  0.0667  0.1349  0.6628
 6533SOL    HW131058   0.630   1.419   2.536 -1.0067  0.6389 -1.6823
 6533SOL    HW231059   0.714   1.296   2.537  0.0220 -1.2444 -1.1637
 6534SOL     OW31060   0.072   4.085  11.882  0.6772 -0.2186 -0.0807
 6534SOL    HW131061   0.104   3.997  11.902  0.6314 -1.2080 -4.4371
 6534SOL    HW231062   0.127   4.120  11.953  1.3315  0.5736 -0.9733
 6535SOL     OW31063   0.175   2.060   1.781  0.2073  0.2043  0.0380
 6535SOL    HW131064   0.225   2.007   1.843  0.7783  0.1782 -0.4349
 6535SOL    HW231065   0.089   2.023   1.798 -0.2994  0.9857 -0.7990
 6536SOL     OW31066   4.065   3.948   2.626 -0.2766 -0.0637 -0.2460
 6536SOL    HW131067   4.112   4.027   2.600 -0.1455 -0.2384 -0.5415
 6536SOL    HW231068   4.004   3.931   2.554  2.1896 -2.7458 -1.7037
 6537SOL     OW31069   1.051   1.409   9.271  0.2518  0.1092 -0.9694
 6537SOL    HW131070   0.994   1.392   9.345  0.8635 -0.4074 -0.6162
 6537SOL    HW231071   0.999   1.390   9.193  0.1114 -0.2958 -0.7777
 6538SOL     OW31072   2.376   2.934  14.568  0.3109 -0.2079 -0.0999
 6538SOL    HW131073   2.397   2.846  14.537  1.8621 -0.0046  0.3398
 6538SOL    HW231074   2.339   2.970  14.488  3.4219 -0.0111 -1.4612
 6539SOL     OW31075   4.623   1.365   6.081 -0.1912  0.2418  0.5008
 6539SOL    HW131076   4.601   1.345   6.172 -1.6256  0.0441  0.1248
 6539SOL    HW231077   4.558   1.311   6.035  1.5458 -0.4329 -1.1483
 6540SOL     OW31078   0.729   2.561   8.046  0.1244  0.3988  0.2759
 6540SOL    HW131079   0.637   2.536   8.041  0.3965 -1.3418  3.8984
 6540SOL    HW231080   0.778   2.482   8.025 -2.9060 -1.2157 -0.6616
 6541SOL     OW31081   0.386   3.170   7.215 -0.2287  0.1527 -0.4927
 6541SOL    HW131082   0.393   3.241   7.279  2.5471 -0.1038 -0.5166
 6541SOL    HW231083   0.469   3.126   7.235 -0.5818 -0.1323  0.3571
 6542SOL     OW31084   4.380   3.098  15.821 -0.4391  0.6862 -0.1683
 6542SOL    HW131085   4.361   3.059  15.736 -1.5646  0.7115  0.0745
 6542SOL    HW231086   4.470   3.066  15.822 -1.1772 -1.3479  0.6145
 6543SOL     OW31087   0.992   1.020   9.201  0.4653  0.0445  0.6425
 6543SOL    HW131088   1.021   0.937   9.163 -0.8562 -1.0635  2.0087
 6543SOL    HW231089   1.062   1.032   9.265  0.7031  2.0389  0.0052
 6544SOL     OW31090   2.101   2.359  15.412 -0.0877  0.1896 -0.6421
 6544SOL    HW131091   2.078   2.271  15.380 -2.3961  0.1799  1.0633
 6544SOL    HW231092   2.114   2.353  15.506 -1.6976  1.1625 -0.3588
 6545SOL     OW31093   2.990   4.268   4.211 -0.5596  0.2673 -0.2209
 6545SOL    HW131094   3.002   4.346   4.265 -1.4039  0.0718  0.2552
 6545SOL    HW231095   3.017   4.299   4.125  1.6597 -4.1519 -1.1276
 6546SOL     OW31096   0.233   0.294   6.644 -0.3455 -0.3303  0.2344
 6546SOL    HW131097   0.191   0.301   6.730 -0.8425 -1.1980  0.0633
 6546SOL    HW231098   0.161   0.264   6.590 -0.7497 -0.1715  0.6837
 6547SOL     OW31099   0.769   2.797   7.843 -0.2354  0.1226  0.3186
 6547SOL    HW131100   0.715   2.727   7.878 -0.4052 -0.1442 -0.4825
 6547SOL    HW231101   0.725   2.880   7.861  1.7544  1.4317 -0.8278
 6548SOL     OW31102   0.029   0.373   0.852 -0.7335 -0.3518  0.6851
 6548SOL    HW131103   4.657   0.361   0.871 -0.6096  1.6648  2.5335
 6548SOL    HW231104   0.065   0.285   0.854  2.0877  0.7263 -2.0118
 6549SOL     OW31105   1.134   4.037   6.939 -0.1435 -0.1964  0.2254
 6549SOL    HW131106   1.177   4.081   6.866 -0.0262  0.4696  0.7032
 6549SOL    HW231107   1.198   4.034   7.010 -1.0190 -0.0278  1.0188
 6550SOL     OW31108   4.667   0.550   5.314  0.1714 -0.3473 -0.3600
 6550SOL    HW131109   4.707   0.470   5.282  0.1852 -1.5019  2.5590
 6550SOL    HW231110   4.683   0.614   5.245 -0.9439  0.9378  0.5532
 6551SOL     OW31111   3.392   4.269   6.065 -0.1455 -0.1345 -0.5273
 6551SOL    HW131112   3.398   4.286   5.971 -0.9021 -1.0862 -0.7420
 6551SOL    HW231113   3.319   4.322   6.095  1.0520  0.6115  1.0686
 6552SOL     OW31114   4.484   0.761  16.253  0.2005  0.7961 -0.4702
 6552SOL    HW131115   4.436   0.684  16.221 -0.4145  0.6990  0.6800
 6552SOL    HW231116   4.571   0.729  16.275  0.2378 -1.5068 -3.8880
 6553SOL     OW31117   0.821   0.496   6.380 -0.1883 -0.1261  0.2309
 6553SOL    HW131118   0.745   0.554   6.391  0.6259  0.9495  0.0904
 6553SOL    HW231119   0.792   0.416   6.426 -0.2258  0.4556  1.2345
 6554SOL     OW31120   2.442   1.667   8.868  0.3010 -0.6272 -0.7796
 6554SOL    HW131121   2.355   1.707   8.870  0.3796 -0.4305 -1.3127
 6554SOL    HW231122   2.423   1.594   8.808 -0.5489  0.8846 -2.3315
 6555SOL     OW31123   0.835   0.851   8.803  0.4698  0.5766  0.3830
 6555SOL    HW131124   0.864   0.887   8.719 -0.2204  0.8961  0.2823
 6555SOL    HW231125   0.756   0.804   8.775  2.5831 -3.5160  1.3641
 6556SOL     OW31126   4.032   4.248   1.866 -0.1116 -0.2706  0.3261
 6556SOL    HW131127   4.102   4.221   1.925  2.1116  2.5943 -0.9808
 6556SOL    HW231128   4.057   4.215   1.780  1.3264  0.2924  0.5390
 6557SOL     OW31129   2.506   3.550   2.256  0.0704 -0.6495 -0.1558
 6557SOL    HW131130   2.581   3.521   2.204 -0.4203 -2.0420 -0.1075
 6557SOL    HW231131   2.432   3.502   2.217 -1.5126  1.0188  0.8039
 6558SOL     OW31132   2.612   1.306   7.848 -0.4501 -1.1182 -0.3026
 6558SOL    HW131133   2.543   1.336   7.789  0.3179  2.5008  0.6189
 6558SOL    HW231134   2.689   1.312   7.790 -0.3238 -0.6402 -0.0860
 6559SOL     OW31135   3.257   2.358  10.768 -0.4059 -0.1315  0.6059
 6559SOL    HW131136   3.272   2.382  10.859 -1.2418 -0.4427  0.8233
 6559SOL    HW231137   3.166   2.385  10.755 -0.0992  0.0230 -1.1837
 6560SOL     OW31138   4.553   3.129  16.688 -0.3257  0.1237 -0.0187
 6560SOL    HW131139   4.567   3.198  16.624  2.6941  0.1704  0.6770
 6560SOL    HW231140   4.583   3.050  16.642 -0.5173  0.8670 -1.4241
 6561SOL     OW31141   2.116   4.623  12.832 -0.0229 -0.4815  0.2074
 6561SOL    HW131142   2.206   4.653  12.849  0.6505 -2.4844  0.2122
 6561SOL    HW231143   2.136   4.532  12.810  0.9206 -0.3646  0.5743
 6562SOL     OW31144   0.436   3.624   8.549  0.3698  0.5247 -0.0478
 6562SOL    HW131145   0.388   3.682   8.607  2.1193 -1.0410  2.9813
 6562SOL    HW231146   0.459   3.691   8.484 -2.5420  0.1080 -1.4875
 6563SOL     OW31147   4.296   3.638   5.287  0.3712  0.4046  0.5310
 6563SOL    HW131148   4.292   3.713   5.228 -2.8621 -0.6591 -0.6136
 6563SOL    HW231149   4.378   3.656   5.333  1.8010  0.2612 -1.9489
 6564SOL     OW31150   3.784   3.628   9.586 -0.1585  0.0209  0.6349
 6564SOL    HW131151   3.761   3.690   9.656 -1.0667 -2.0334  2.1767
 6564SOL    HW231152   3.846   3.577   9.639 -1.2382  0.4434  2.3347
 6565SOL     OW31153   0.092   0.974   2.924 -0.1491  0.2064  0.3286
 6565SOL    HW131154   0.071   0.919   3.000 -0.5287  2.3298  1.7750
 6565SOL    HW231155   0.153   0.910   2.888 -0.6882 -0.5296  0.7516
 6566SOL     OW31156   4.696   1.446   6.557  0.0413 -0.0055 -0.7313
 6566SOL    HW131157   0.012   1.503   6.489 -2.7003 -0.8512 -2.9279
 6566SOL    HW231158   0.048   1.387   6.576  0.0859 -0.0281 -0.9663
 6567SOL     OW31159   2.806   1.425   8.529 -0.3406 -0.1805  0.0225
 6567SOL    HW131160   2.715   1.455   8.530 -0.3312 -0.1532  0.0721
 6567SOL    HW231161   2.801   1.346   8.584  1.1944  0.2130  0.7376
 6568SOL     OW31162   3.839   3.560  11.801  0.0633  0.2643 -0.5223
 6568SOL    HW131163   3.918   3.562  11.855 -1.0145 -1.2930  1.0778
 6568SOL    HW231164   3.797   3.490  11.850 -1.1496 -0.1227 -2.1109
 6569SOL     OW31165   3.828   2.967   6.067 -0.7453  0.4973  0.3123
 6569SOL    HW131166   3.850   3.017   6.146 -0.1430 -0.1395  0.5498
 6569SOL    HW231167   3.845   2.874   6.083 -1.0574  0.3533 -0.1941
 6570SOL     OW31168   1.460   0.963   4.240  0.0618  0.4272 -0.2030
 6570SOL    HW131169   1.433   1.031   4.178 -0.2450  2.1926  1.8765
 6570SOL    HW231170   1.373   0.936   4.267  0.3698  0.5774  0.9324
 6571SOL     OW31171   3.415   1.397   2.658 -0.2094  0.1081 -0.0022
 6571SOL    HW131172   3.499   1.361   2.632 -0.6202 -0.9629  0.1616
 6571SOL    HW231173   3.383   1.350   2.735 -0.9296  0.1594 -0.2711
 6572SOL     OW31174   2.678   0.153   7.853  0.2577 -0.0822 -0.7575
 6572SOL    HW131175   2.607   0.159   7.918 -1.3951  1.3699 -2.7049
 6572SOL    HW231176   2.744   0.210   7.893  1.1050 -0.1598 -2.0528
 6573SOL     OW31177   2.635   0.898   5.265  0.2100 -0.3666  0.9194
 6573SOL    HW131178   2.567   0.965   5.255  0.5853 -0.0363  0.5845
 6573SOL    HW231179   2.673   0.884   5.179 -0.0888 -2.0859  1.0766
 6574SOL     OW31180   0.716   3.805   0.336  0.0068  0.2648 -0.3806
 6574SOL    HW131181   0.721   3.870   0.406  1.1555  0.2609 -0.4656
 6574SOL    HW231182   0.763   3.734   0.379 -1.3985  0.3492  1.3251
 6575SOL     OW31183   0.163   2.033  11.976  0.2859  0.0156 -0.0301
 6575SOL    HW131184   0.080   2.074  11.952 -0.9089 -0.2664  3.5392
 6575SOL    HW231185   0.216   2.071  11.906  0.0358 -0.6183 -0.5601
 6576SOL     OW31186   0.525   4.074  10.954  0.2681  0.0868 -0.0836
 6576SOL    HW131187   0.518   4.015  11.029  1.3221 -0.4881 -0.4348
 6576SOL    HW231188   0.540   4.009  10.886 -0.2859 -1.3444  1.1562
 6577SOL     OW31189   4.147   4.003   0.066  0.4251 -0.1286  0.3942
 6577SOL    HW131190   4.214   3.994  17.683 -0.5240 -1.3763 -0.3706
 6577SOL    HW231191   4.173   4.088   0.101  1.7192 -0.0588 -0.7289
 6578SOL     OW31192   3.983   1.574  15.316  0.2257 -0.0068 -0.0649
 6578SOL    HW131193   4.069   1.615  15.325  0.4962 -1.5622  4.1594
 6578SOL    HW231194   3.967   1.550  15.407  0.4025  0.6619  0.1385
 6579SOL     OW31195   0.747   4.172  14.006  0.0546 -0.0287  0.3782
 6579SOL    HW131196   0.725   4.135  13.921 -3.1516  1.5074  0.5217
 6579SOL    HW231197   0.699   4.118  14.069 -0.7225  0.2954  0.0715
 6580SOL     OW31198   2.329   4.456  16.270  0.4343  0.2100  0.4622
 6580SOL    HW131199   2.262   4.467  16.337  0.3993 -2.3517  0.8685
 6580SOL    HW231200   2.277   4.435  16.192  3.0486 -0.4002 -1.1215
 6581SOL     OW31201   0.879   1.436   5.726 -0.3315  0.2351  0.3336
 6581SOL    HW131202   0.968   1.440   5.691 -1.4820 -0.3765 -2.6272
 6581SOL    HW231203   0.887   1.374   5.798 -1.0983  0.0114  0.2324
 6582SOL     OW31204   2.961   2.506   4.596  0.0948 -0.2615 -0.1593
 6582SOL    HW131205   2.992   2.556   4.520 -0.6632 -1.6811 -1.4020
 6582SOL    HW231206   2.866   2.516   4.597  0.1030 -0.2946  0.7925
 6583SOL     OW31207   0.641   2.805   5.894 -0.1167 -0.3991 -0.1434
 6583SOL    HW131208   0.730   2.837   5.878 -0.8120  1.6233  0.0057
 6583SOL    HW231209   0.649   2.715   5.862  1.4402  0.1916 -1.4144
 6584SOL     OW31210   0.767   3.629   2.622 -0.1128 -0.0648 -0.1076
 6584SOL    HW131211   0.795   3.564   2.686 -3.0654  1.6790  2.9608
 6584SOL    HW231212   0.770   3.567   2.549  1.0028  0.8279 -0.8118
 6585SOL     OW31213   2.324   4.515   2.741  0.0116 -0.2083 -0.0799
 6585SOL    HW131214   2.267   4.467   2.800  1.3191  0.1357  1.4767
 6585SOL    HW231215   2.358   4.436   2.699 -1.8768 -0.1845 -1.6163
 6586SOL     OW31216   0.762   0.911  16.944  0.6189 -0.0942  0.0432
 6586SOL    HW131217   0.816   0.837  16.917  0.3210  0.5817 -2.4645
 6586SOL    HW231218   0.829   0.969  16.981 -1.4068  1.7392  0.8778
 6587SOL     OW31219   0.547   3.263   3.979 -0.1512 -0.5765 -0.1816
 6587SOL    HW131220   0.592   3.343   4.006  2.6155 -2.3201  0.4123
 6587SOL    HW231221   0.527   3.295   3.891  3.5109  0.9439 -0.4473
 6588SOL     OW31222   4.552   2.264   3.502 -0.2136  0.1920 -0.1864
 6588SOL    HW131223   4.500   2.187   3.476  1.4347 -0.9041 -0.2174
 6588SOL    HW231224   4.563   2.251   3.596 -0.5454 -2.2267 -0.4711
 6589SOL     OW31225   2.257   4.177   8.347 -0.3524  0.0801 -0.3169
 6589SOL    HW131226   2.173   4.189   8.304  0.6046  1.9412 -1.6560
 6589SOL    HW231227   2.252   4.081   8.343  0.2555  0.1163 -2.0964
 6590SOL     OW31228   4.193   1.641   0.238 -0.0826  0.6612 -0.0717
 6590SOL    HW131229   4.257   1.694   0.190 -0.8915 -0.0707 -1.9524
 6590SOL    HW231230   4.202   1.667   0.330  2.5954  0.6751 -0.3198
 6591SOL     OW31231   4.095   2.078   1.738 -0.2050  0.5098  0.2964
 6591SOL    HW131232   4.044   2.014   1.688  2.4790 -1.6905  0.3663
 6591SOL    HW231233   4.116   2.020   1.811  1.9042  0.2683 -0.4947
 6592SOL     OW31234   4.037   3.794   1.288 -0.3664 -0.0316 -0.0219
 6592SOL    HW131235   4.069   3.869   1.238 -0.3840 -0.2531 -0.3649
 6592SOL    HW231236   4.104   3.776   1.354 -2.2381  1.6146  2.3736
 6593SOL     OW31237   2.421   0.196   5.142  0.0574  0.3441  0.1407
 6593SOL    HW131238   2.328   0.178   5.128 -0.2082  0.2744  2.0562
 6593SOL    HW231239   2.446   0.193   5.050  0.8335  1.1299  0.3345
 6594SOL     OW31240   3.345   0.258   7.844  0.8875 -0.0377 -0.7842
 6594SOL    HW131241   3.285   0.288   7.775 -0.4169 -0.1069  0.3279
 6594SOL    HW231242   3.290   0.268   7.922 -0.2738 -1.7681 -1.3679
 6595SOL     OW31243   0.519   4.178  12.746  0.6915  0.6337  0.6614
 6595SOL    HW131244   0.504   4.103  12.802  0.9855  1.2622  1.5842
 6595SOL    HW231245   0.432   4.214  12.763  0.2619 -0.8780  1.6443
 6596SOL     OW31246   0.697   3.770  15.126  0.6316  0.2685 -0.5226
 6596SOL    HW131247   0.670   3.805  15.041 -1.7587  0.2091  0.2121
 6596SOL    HW231248   0.792   3.782  15.135  0.3820  0.3939  1.8322
 6597SOL     OW31249   3.297   1.909   8.306 -0.6832 -0.4631 -0.8430
 6597SOL    HW131250   3.215   1.901   8.356  0.9079  0.2318  1.8601
 6597SOL    HW231251   3.262   1.874   8.223 -1.1823 -0.4540 -0.6391
 6598SOL     OW31252   1.303   1.330   7.761  0.2517 -0.1588  0.3305
 6598SOL    HW131253   1.208   1.339   7.750  0.4992  1.6031 -0.3545
 6598SOL    HW231254   1.313   1.236   7.778  0.8479 -0.2844 -0.7344
 6599SOL     OW31255   4.233   4.264   7.623  0.0873  0.7476 -1.2019
 6599SOL    HW131256   4.234   4.187   7.679 -2.2516 -0.3667 -2.6894
 6599SOL    HW231257   4.315   4.305   7.652  0.7850 -2.0656  0.7822
 6600SOL     OW31258   2.214   0.598   3.017  0.0850 -0.0236  0.7221
 6600SOL    HW131259   2.256   0.565   3.096  1.1190  0.1234  0.2356
 6600SOL    HW231260   2.122   0.592   3.042 -0.2378 -1.8484 -0.8174
 6601SOL     OW31261   0.117   4.693  13.676  0.0247  0.0762 -0.2305
 6601SOL    HW131262   0.100   4.601  13.655 -0.5106  0.0114  0.5204
 6601SOL    HW231263   0.194   4.679  13.731 -0.5048 -0.2449  0.4139
 6602SOL     OW31264   3.632   0.855   5.092  0.4746 -0.3674  0.4038
 6602SOL    HW131265   3.703   0.886   5.036  0.3995  0.2968  0.6848
 6602SOL    HW231266   3.617   0.765   5.061 -0.6428  0.5806 -1.7823
 6603SOL     OW31267   1.335   3.036   5.402  0.4206  0.3828  0.2836
 6603SOL    HW131268   1.296   2.967   5.456 -0.6026 -0.0881 -1.0370
 6603SOL    HW231269   1.317   3.110   5.459  0.3902  0.3117  0.3665
 6604SOL     OW31270   3.348   3.197   1.930 -0.1855  0.2847  0.0586
 6604SOL    HW131271   3.394   3.263   1.879  1.5089 -0.2835  0.8508
 6604SOL    HW231272   3.368   3.120   1.876  1.0709  0.2700  0.5464
 6605SOL     OW31273   2.591   4.066  14.377  0.4697  0.3761 -0.2732
 6605SOL    HW131274   2.550   3.980  14.374  0.5305  0.2675  1.8741
 6605SOL    HW231275   2.630   4.071  14.464  2.2971 -0.7218 -1.0290
 6606SOL     OW31276   4.452   3.344   4.149 -0.2617  0.3420 -0.6679
 6606SOL    HW131277   4.376   3.384   4.192  0.6074 -0.6861  1.8181
 6606SOL    HW231278   4.436   3.335   4.055 -1.3474  2.5811 -0.7142
 6607SOL     OW31279   4.194   0.772   8.265 -0.0867 -0.3708  0.0970
 6607SOL    HW131280   4.238   0.853   8.293  0.6389 -0.5991 -0.3841
 6607SOL    HW231281   4.190   0.720   8.346  0.5273 -2.1439 -1.0063
 6608SOL     OW31282   3.271   4.102   7.004 -0.2977  0.1020 -0.0747
 6608SOL    HW131283   3.319   4.096   7.086 -0.8592 -1.8233  0.1154
 6608SOL    HW231284   3.232   4.015   7.002  0.9396 -0.4041 -1.6067
 6609SOL     OW31285   4.574   0.926  12.020  0.6252  0.2485 -0.3346
 6609SOL    HW131286   4.567   1.021  12.012  1.1491  0.3730  0.6768
 6609SOL    HW231287   4.668   0.927  12.002  0.3760 -1.0238 -1.6828
 6610SOL     OW31288   2.199   3.583   5.608 -0.7357 -0.1478 -0.1409
 6610SOL    HW131289   2.146   3.635   5.548  0.4085  2.9205  1.5231
 6610SOL    HW231290   2.134   3.516   5.630 -2.4104  1.1525 -1.0827
 6611SOL     OW31291   2.266   4.004   6.995  0.0971 -0.0511  0.0949
 6611SOL    HW131292   2.354   4.031   6.966 -0.1537 -1.2734 -1.7864
 6611SOL    HW231293   2.222   4.088   6.982 -1.0542  0.0517  4.5778
 6612SOL     OW31294   0.025   4.521   4.574 -0.0376  0.4298  0.1164
 6612SOL    HW131295   0.066   4.573   4.504  1.4893  1.1918  1.5750
 6612SOL    HW231296   0.102   4.486   4.618  0.7333  0.7768 -0.9263
 6613SOL     OW31297   1.775   2.151   1.464 -0.0124 -0.9997  0.0974
 6613SOL    HW131298   1.751   2.083   1.402 -1.3875  0.0551 -0.5310
 6613SOL    HW231299   1.832   2.093   1.514  0.0730 -1.0555 -0.0626
 6614SOL     OW31300   1.715   1.571   2.494 -0.0757  0.2670 -0.7819
 6614SOL    HW131301   1.677   1.534   2.414  0.3039  3.3318 -2.3903
 6614SOL    HW231302   1.799   1.525   2.487 -0.5477 -0.8827  1.4140
 6615SOL     OW31303   1.061   2.088  11.872  0.1515 -0.0604  0.5776
 6615SOL    HW131304   1.120   2.086  11.797  0.4470 -1.0127  0.8391
 6615SOL    HW231305   1.096   2.160  11.924  0.1903  1.3171 -1.3390
 6616SOL     OW31306   2.446   3.087   7.897  0.0891  0.1998  0.0939
 6616SOL    HW131307   2.371   3.112   7.843  1.6235 -0.2834 -2.2703
 6616SOL    HW231308   2.409   3.074   7.984  2.3411 -1.6786  0.7816
 6617SOL     OW31309   2.548   4.367   2.383 -0.0169 -0.0867 -0.3082
 6617SOL    HW131310   2.613   4.430   2.415  1.4776 -0.8070 -1.8966
 6617SOL    HW231311   2.546   4.392   2.291  0.9749 -2.3690 -0.9481
 6618SOL     OW31312   3.609   2.575   9.246 -1.3777 -0.5292  0.9446
 6618SOL    HW131313   3.617   2.631   9.322 -1.3368  1.6189 -0.6364
 6618SOL    HW231314   3.547   2.510   9.281 -0.8234 -0.9645  1.1139
 6619SOL     OW31315   2.505   4.571   3.544  0.2249 -0.1752 -0.4838
 6619SOL    HW131316   2.462   4.653   3.520 -2.3126 -1.1812  0.7094
 6619SOL    HW231317   2.598   4.593   3.556 -0.2491  1.5569  0.0209
 6620SOL     OW31318   3.453   4.603   8.516  0.2789  0.0211  0.1077
 6620SOL    HW131319   3.503   4.564   8.444 -0.0270  0.0198 -0.0997
 6620SOL    HW231320   3.502   4.570   8.592  1.2902  1.4509  0.0687
 6621SOL     OW31321   1.642   1.199   5.124  0.2337  0.0961 -0.3099
 6621SOL    HW131322   1.657   1.139   5.052 -0.5353 -2.0304  1.3020
 6621SOL    HW231323   1.692   1.276   5.096  1.5806 -0.4001  0.7586
 6622SOL     OW31324   2.148   2.846   8.070 -0.3262  0.0155  0.0706
 6622SOL    HW131325   2.111   2.931   8.093 -1.1823 -0.2716 -0.2279
 6622SOL    HW231326   2.082   2.802   8.017 -1.5307  0.1157  1.4823
 6623SOL     OW31327   2.651   3.726  14.887  0.6358 -0.1014  0.4750
 6623SOL    HW131328   2.584   3.658  14.891 -0.4877  0.7279 -3.9750
 6623SOL    HW231329   2.732   3.677  14.874  0.2752 -0.7783  0.8014
 6624SOL     OW31330   2.770   1.751   7.754  0.8727 -0.2709  0.4016
 6624SOL    HW131331   2.857   1.712   7.765  0.6110 -0.6620  1.0810
 6624SOL    HW231332   2.747   1.743   7.662  1.3110 -1.0291  0.3625
 6625SOL     OW31333   4.197   2.544   7.470  0.1114  0.2220  0.5062
 6625SOL    HW131334   4.259   2.613   7.446  0.3580 -0.3771 -0.6149
 6625SOL    HW231335   4.226   2.517   7.557  0.9520 -0.1698  0.1082
 6626SOL     OW31336   0.485   0.196   4.508 -0.5041 -0.0849 -0.1226
 6626SOL    HW131337   0.516   0.232   4.425 -3.1196 -0.2606 -1.1632
 6626SOL    HW231338   0.524   0.255   4.572  1.2101 -1.8968  0.5325
 6627SOL     OW31339   4.639   2.806  12.401  0.8495 -0.4705 -0.0088
 6627SOL    HW131340   4.653   2.803  12.306  0.2149 -1.6171 -0.0555
 6627SOL    HW231341   4.604   2.718  12.411 -2.3399  0.9130  0.8694
 6628SOL     OW31342   3.829   0.934   4.851  0.3241  0.4785  0.3559
 6628SOL    HW131343   3.851   0.965   4.939 -0.8327 -0.4734  0.9775
 6628SOL    HW231344   3.818   1.019   4.808  0.5420  0.4980  0.3393
 6629SOL     OW31345   0.227   1.043  15.534  0.1362 -0.4858  0.4254
 6629SOL    HW131346   0.250   1.086  15.617 -0.9745 -0.8513  0.9202
 6629SOL    HW231347   0.142   1.082  15.513 -0.7619 -1.7113  1.7699
 6630SOL     OW31348   4.481   4.214   0.756 -0.4602 -0.3028  0.2055
 6630SOL    HW131349   4.401   4.258   0.728 -0.1938 -0.7121 -1.1947
 6630SOL    HW231350   4.523   4.297   0.780 -0.8314 -0.0567 -0.0048
 6631SOL     OW31351   2.919   1.598  10.352  0.0453 -0.0567  0.4202
 6631SOL    HW131352   2.904   1.507  10.374 -1.2903  0.4141  1.4266
 6631SOL    HW231353   3.012   1.603  10.331 -0.2307  0.3881 -0.7144
 6632SOL     OW31354   3.620   4.626  15.148  0.0471 -0.1319  0.9596
 6632SOL    HW131355   3.700   4.619  15.096 -0.5640  0.7355 -0.0981
 6632SOL    HW231356   3.551   4.613  15.083  0.2578 -0.2879  0.7675
 6633SOL     OW31357   2.845   0.321   7.075 -0.1063 -0.2030 -0.6072
 6633SOL    HW131358   2.833   0.391   7.140  2.1288 -0.3727 -0.0073
 6633SOL    HW231359   2.822   0.361   6.991 -0.4854  1.9452  0.4990
 6634SOL     OW31360   4.676   2.002   8.283 -0.7753 -0.2977 -0.3762
 6634SOL    HW131361   4.673   1.953   8.365 -0.4138  0.2697 -0.0262
 6634SOL    HW231362   4.707   2.089   8.307  0.2682 -0.2913 -1.7137
 6635SOL     OW31363   2.462   4.336   4.168 -0.4066 -0.5626  0.4334
 6635SOL    HW131364   2.547   4.368   4.198 -0.0002 -1.6081  0.3729
 6635SOL    HW231365   2.406   4.414   4.163 -1.4756 -1.4618 -1.6059
 6636SOL     OW31366   0.910   1.543   4.042  0.1362  0.1907  0.1650
 6636SOL    HW131367   0.957   1.506   4.117 -0.8022  0.1467  0.7285
 6636SOL    HW231368   0.977   1.611   4.030 -0.0588 -0.2344 -3.1309
 6637SOL     OW31369   3.056   1.011   4.372  0.2174 -0.7434  0.2042
 6637SOL    HW131370   3.107   0.981   4.447 -1.3652  1.5912  2.2003
 6637SOL    HW231371   2.974   1.028   4.419  0.1893 -1.6822  0.5112
 6638SOL     OW31372   3.525   3.100   5.319 -0.1844 -0.1525 -0.5079
 6638SOL    HW131373   3.465   3.085   5.391 -0.0492  1.3807 -0.0791
 6638SOL    HW231374   3.596   3.136   5.372  0.5364  0.2617 -1.7495
 6639SOL     OW31375   4.171   0.973   8.543 -0.1046 -0.2646  0.0264
 6639SOL    HW131376   4.224   0.909   8.588  0.4861  1.4652  1.7936
 6639SOL    HW231377   4.234   0.994   8.474 -2.0249  0.1467 -1.6159
 6640SOL     OW31378   0.480   0.778   7.680  0.2844 -0.1105 -0.1346
 6640SOL    HW131379   0.474   0.783   7.775  0.7910  1.1777 -0.1715
 6640SOL    HW231380   0.550   0.842   7.664 -1.3597  1.9157  0.8221
 6641SOL     OW31381   3.035   1.007   0.271  0.0763 -0.0206 -0.1113
 6641SOL    HW131382   3.039   1.060   0.351 -0.8630  1.4432 -1.0193
 6641SOL    HW231383   3.111   1.037   0.221  0.6309 -0.7795  0.2722
 6642SOL     OW31384   2.842   0.167   7.522 -0.3462 -0.0342  0.0571
 6642SOL    HW131385   2.906   0.195   7.456  0.8821 -1.6035  0.5656
 6642SOL    HW231386   2.782   0.240   7.512 -0.2764  0.1488  1.0122
 6643SOL     OW31387   0.020   3.339   5.437 -0.2894  0.7792  0.4040
 6643SOL    HW131388   4.646   3.341   5.419 -0.3425 -0.1969  0.5671
 6643SOL    HW231389   0.033   3.247   5.414 -1.6091  0.9823 -1.1644
 6644SOL     OW31390   1.344   3.930   3.260 -0.2251  0.1220 -0.1979
 6644SOL    HW131391   1.312   3.873   3.330 -0.7192  0.6817  0.0398
 6644SOL    HW231392   1.371   4.006   3.312 -2.0348  0.3452  0.4202
 6645SOL     OW31393   0.351   0.770  10.696  0.5308 -0.3112 -0.0971
 6645SOL    HW131394   0.375   0.677  10.695 -0.7079 -0.6364  0.1618
 6645SOL    HW231395   0.315   0.786  10.783  0.0525  1.2439 -0.5796
 6646SOL     OW31396   0.596   3.053   0.391  0.1543 -0.1230 -0.3863
 6646SOL    HW131397   0.644   2.991   0.336 -2.0252 -0.7351 -1.5928
 6646SOL    HW231398   0.629   3.140   0.371  0.0279 -0.0474 -0.2675
 6647SOL     OW31399   1.789   0.088   2.829 -0.2367  0.0611 -0.3518
 6647SOL    HW131400   1.788   0.145   2.752  1.7134 -0.1685 -0.5622
 6647SOL    HW231401   1.847   0.138   2.887 -0.9099  0.9838 -0.4727
 6648SOL     OW31402   3.993   0.440   2.634  0.6500  0.6013 -0.0334
 6648SOL    HW131403   4.066   0.403   2.684 -1.4627 -0.9990  1.8381
 6648SOL    HW231404   3.928   0.369   2.634  0.7949  0.4666 -0.1061
 6649SOL     OW31405   1.258   3.460   4.308  0.4427  0.8920  0.8958
 6649SOL    HW131406   1.163   3.449   4.315  0.4572 -0.3417 -0.8528
 6649SOL    HW231407   1.292   3.408   4.380  1.5471 -0.9148 -0.9326
 6650SOL     OW31408   0.530   3.172   8.525 -0.8393  0.0102 -0.7975
 6650SOL    HW131409   0.513   3.172   8.430  1.0214 -0.4617 -1.1153
 6650SOL    HW231410   0.476   3.096   8.548 -1.6717  1.2667  1.3651
 6651SOL     OW31411   4.661   3.354   1.117  0.0369  0.5801 -0.3166
 6651SOL    HW131412   4.583   3.378   1.067 -1.5862 -1.4887  1.2087
 6651SOL    HW231413   0.002   3.338   1.046  0.0737 -0.4365 -0.0562
 6652SOL     OW31414   2.816   3.452   9.812 -0.5172 -0.4690 -0.4862
 6652SOL    HW131415   2.875   3.526   9.799 -0.8827 -0.5603 -2.5954
 6652SOL    HW231416   2.732   3.492   9.836 -1.1494 -1.3440 -1.2361
 6653SOL     OW31417   4.359   0.581   4.880 -0.5211 -0.4607 -0.1956
 6653SOL    HW131418   4.363   0.569   4.785 -0.1790 -1.5654 -0.0534
 6653SOL    HW231419   4.272   0.544   4.896 -0.7855  0.0902 -0.3859
 6654SOL     OW31420   3.586   2.600   8.958  0.2186 -0.5416  0.6815
 6654SOL    HW131421   3.666   2.592   8.905  0.6701 -2.7378  1.7072
 6654SOL    HW231422   3.617   2.583   9.047  1.0209 -0.9861  0.3230
 6655SOL     OW31423   3.480   2.152  10.086  0.7288  0.5445  0.3562
 6655SOL    HW131424   3.501   2.069  10.128  0.8413  0.6864  0.5759
 6655SOL    HW231425   3.568   2.179  10.061  1.0825  0.3099  1.3772
 6656SOL     OW31426   2.204   2.236   2.175 -1.0298 -0.2234 -0.5644
 6656SOL    HW131427   2.184   2.226   2.268 -2.2939 -1.3591 -0.9700
 6656SOL    HW231428   2.203   2.143   2.152  1.8757 -0.0454 -1.4985
 6657SOL     OW31429   3.873   0.643   6.975  0.5594  0.1077  0.5847
 6657SOL    HW131430   3.924   0.680   6.903 -0.8278 -1.5718 -1.2418
 6657SOL    HW231431   3.823   0.578   6.926  1.4046  2.5206 -3.5073
 6658SOL     OW31432   4.413   1.789   9.410 -0.5270  0.1321  0.6349
 6658SOL    HW131433   4.397   1.811   9.319  2.1329  0.7681  0.3213
 6658SOL    HW231434   4.324   1.806   9.441 -0.3240  0.7971  0.8547
 6659SOL     OW31435   3.603   4.390   1.470 -0.0547 -0.5002  0.7587
 6659SOL    HW131436   3.542   4.460   1.494 -0.7265 -0.8086 -0.0699
 6659SOL    HW231437   3.606   4.342   1.552  0.6322  2.2113  2.3381
 6660SOL     OW31438   3.150   0.373   0.925 -0.0706  1.0703  0.1385
 6660SOL    HW131439   3.178   0.337   1.009 -0.2318  0.5050 -0.0539
 6660SOL    HW231440   3.169   0.467   0.930 -0.8449  1.3431 -1.7204
 6661SOL     OW31441   1.263   4.627   4.108 -0.3477 -0.5328  0.4370
 6661SOL    HW131442   1.202   4.638   4.035  1.5549 -0.8766 -1.2023
 6661SOL    HW231443   1.210   4.667   4.177 -0.5672  1.0807 -0.6586
 6662SOL     OW31444   4.015   3.634   4.070  0.2735 -0.6225 -0.0145
 6662SOL    HW131445   4.043   3.546   4.097  1.0219 -0.5351 -0.4819
 6662SOL    HW231446   4.005   3.676   4.156  1.8257 -2.6032  1.1574
 6663SOL     OW31447   0.492   4.565  12.915 -0.1480 -0.2520  0.1933
 6663SOL    HW131448   0.505   4.558  12.820 -2.8873  0.0729 -0.2113
 6663SOL    HW231449   0.583   4.543  12.935 -0.5333 -2.3669 -0.3652
 6664SOL     OW31450   1.347   0.359  11.197 -0.0437  0.4575  0.7538
 6664SOL    HW131451   1.384   0.334  11.112 -0.4543  1.1962  0.3512
 6664SOL    HW231452   1.423   0.353  11.255  0.6815 -0.4692 -0.2916
 6665SOL     OW31453   3.844   1.210   2.383 -0.2758 -0.1980 -0.0499
 6665SOL    HW131454   3.803   1.172   2.305 -1.7833  1.6323 -0.1397
 6665SOL    HW231455   3.778   1.269   2.418  0.6215  0.2929  0.8172
 6666SOL     OW31456   2.443   4.453   4.459 -0.0786 -0.5448 -0.2255
 6666SOL    HW131457   2.533   4.422   4.456 -0.4515 -1.6830  0.0329
 6666SOL    HW231458   2.430   4.495   4.374 -0.0964 -1.0449 -0.4714
 6667SOL     OW31459   2.194   3.967  15.389  0.0542  0.2524 -0.1674
 6667SOL    HW131460   2.165   3.879  15.411  1.1350  0.1716  0.9231
 6667SOL    HW231461   2.287   3.957  15.409 -0.2612 -1.5763  0.3558
 6668SOL     OW31462   3.609   3.993  16.734 -0.3327  0.7735 -0.1297
 6668SOL    HW131463   3.562   4.052  16.675 -1.3796  1.0951  1.0187
 6668SOL    HW231464   3.564   4.025  16.812 -0.5506  3.3794 -1.3309
 6669SOL     OW31465   2.673   3.583   2.833 -0.0429 -0.5041  0.3881
 6669SOL    HW131466   2.597   3.526   2.824 -0.7717  0.7966 -1.5874
 6669SOL    HW231467   2.748   3.523   2.829 -0.4899 -1.1071  0.9140
 6670SOL     OW31468   0.135   1.723   4.237 -0.0982  0.2436  0.2703
 6670SOL    HW131469   0.132   1.632   4.207  1.2269  0.7508 -1.3584
 6670SOL    HW231470   0.226   1.749   4.228  0.2745 -0.7248  1.1714
 6671SOL     OW31471   4.507   2.041   7.719 -0.2894  0.3692 -0.3031
 6671SOL    HW131472   4.554   1.975   7.769 -0.5706  1.8703  1.9688
 6671SOL    HW231473   4.579   2.101   7.697  1.7088 -2.4915 -1.5311
 6672SOL     OW31474   2.665   1.455  14.024  0.4258  0.1870 -0.0622
 6672SOL    HW131475   2.608   1.385  13.991  0.8116 -1.6059  3.0620
 6672SOL    HW231476   2.748   1.414  14.002 -0.3010 -1.7149  0.7408
 6673SOL     OW31477   1.136   1.956   3.593 -0.0624  0.0328  0.1867
 6673SOL    HW131478   1.058   2.002   3.562 -0.9448 -1.3857  0.3087
 6673SOL    HW231479   1.184   1.949   3.511  0.8203 -2.6586  0.9532
 6674SOL     OW31480   2.888   0.812   7.489  0.0995 -0.2793 -0.5071
 6674SOL    HW131481   2.953   0.858   7.542 -1.0687  0.9218 -0.0921
 6674SOL    HW231482   2.806   0.858   7.507 -0.5612 -1.7074  0.1586
 6675SOL     OW31483   4.562   2.918   5.529 -0.5558 -0.1352 -0.0660
 6675SOL    HW131484   4.588   2.870   5.608 -0.5547 -2.0362 -1.2136
 6675SOL    HW231485   4.474   2.882   5.522 -1.1595  1.2642  0.4492
 6676SOL     OW31486   2.609   2.840   7.810 -0.1313 -0.2455  0.7201
 6676SOL    HW131487   2.590   2.933   7.821  0.6868 -0.0034  0.0443
 6676SOL    HW231488   2.528   2.794   7.830 -0.7407  0.6102  0.2261
 6677SOL     OW31489   2.612   2.341   7.187 -0.0271 -0.2418 -0.6382
 6677SOL    HW131490   2.691   2.396   7.180  0.4852 -0.7153  1.4820
 6677SOL    HW231491   2.580   2.378   7.269 -2.0059  0.2666 -1.6463
 6678SOL     OW31492   4.366   0.658   8.059  0.0609  0.1789 -0.0679
 6678SOL    HW131493   4.446   0.709   8.045  1.6535 -1.8834  1.5682
 6678SOL    HW231494   4.338   0.713   8.132 -2.2418  1.2660 -1.7884
 6679SOL     OW31495   1.928   4.358   3.423 -0.1463 -0.4545  0.4812
 6679SOL    HW131496   2.019   4.372   3.398  0.1278 -2.4326  0.3574
 6679SOL    HW231497   1.892   4.348   3.334  0.0929  1.5618  0.1554
 6680SOL     OW31498   4.401   1.956   1.786  0.0389  0.3222 -0.2054
 6680SOL    HW131499   4.337   1.969   1.856 -0.2682  1.1386 -0.6406
 6680SOL    HW231500   4.357   1.882   1.746  0.5948 -0.2033  0.1652
 6681SOL     OW31501   4.375   1.136  13.798  0.1879  0.0205 -0.1349
 6681SOL    HW131502   4.314   1.103  13.864 -0.2667  0.0090 -0.5607
 6681SOL    HW231503   4.426   1.195  13.854 -2.1599  1.0929  0.8976
 6682SOL     OW31504   0.539   4.429   6.345  0.6505 -0.1498  0.1264
 6682SOL    HW131505   0.533   4.349   6.398  0.6722  0.2082  0.6749
 6682SOL    HW231506   0.632   4.429   6.323  0.4103 -0.9895 -0.8830
 6683SOL     OW31507   3.830   3.146   9.203 -0.0205 -0.0491  0.0149
 6683SOL    HW131508   3.899   3.211   9.190  1.1767 -1.5547 -1.2002
 6683SOL    HW231509   3.820   3.147   9.298 -2.3842 -2.9502 -0.2305
 6684SOL     OW31510   2.182   3.721  11.783  0.1634  0.0280 -0.1989
 6684SOL    HW131511   2.129   3.769  11.846 -0.6693 -0.1675 -0.7511
 6684SOL    HW231512   2.265   3.741  11.826 -0.2738 -1.3325  1.2823
 6685SOL     OW31513   3.561   3.618  13.427 -1.0086 -0.0879  0.3129
 6685SOL    HW131514   3.485   3.638  13.372 -1.6887 -2.5778  0.3448
 6685SOL    HW231515   3.551   3.522  13.430 -3.0075  0.1350  0.9443
 6686SOL     OW31516   0.811   1.158   2.942 -0.4240  0.0812 -1.1676
 6686SOL    HW131517   0.872   1.085   2.933  0.4131  0.5618  0.6466
 6686SOL    HW231518   0.730   1.141   2.893 -0.9327  0.3575 -0.4210
 6687SOL     OW31519   3.377   2.582   7.264 -0.3593  0.0354  0.1099
 6687SOL    HW131520   3.469   2.566   7.283 -1.3719 -3.0627  2.2715
 6687SOL    HW231521   3.339   2.517   7.323 -0.9994  2.9642  2.9272
 6688SOL     OW31522   1.758   3.954   4.761 -0.3216  0.2233 -0.0591
 6688SOL    HW131523   1.721   3.882   4.710  0.8567 -1.1156  0.9861
 6688SOL    HW231524   1.764   3.913   4.847 -0.5932  0.5063  0.0965
 6689SOL     OW31525   4.308   0.327  11.184  0.6331  0.1558 -0.0816
 6689SOL    HW131526   4.313   0.249  11.240 -0.1888 -0.9188 -1.5142
 6689SOL    HW231527   4.401   0.337  11.164  0.3029 -1.0179 -2.1715
 6690SOL     OW31528   1.548   1.306  11.911 -0.3073  0.4770 -0.5977
 6690SOL    HW131529   1.625   1.322  11.857  1.2018 -0.8735  1.1902
 6690SOL    HW231530   1.586   1.280  11.995  2.6779  1.0797 -1.7551
 6691SOL     OW31531   2.393   1.958   2.449  0.6154 -0.1848 -0.5307
 6691SOL    HW131532   2.411   1.982   2.540  2.0137 -1.2869 -0.5157
 6691SOL    HW231533   2.432   1.871   2.451 -0.6612 -0.6936  2.6156
 6692SOL     OW31534   4.191   2.989   7.944  0.3413  0.1190 -0.2563
 6692SOL    HW131535   4.252   3.061   7.959  2.8917 -2.3014  1.1203
 6692SOL    HW231536   4.106   3.033   7.949 -0.6764 -1.8908  0.1619
 6693SOL     OW31537   4.397   4.531   6.784  0.2366  0.5637  0.1122
 6693SOL    HW131538   4.432   4.608   6.739  0.4817  0.2611 -0.2143
 6693SOL    HW231539   4.306   4.532   6.754 -0.8314  0.8717  3.3592
 6694SOL     OW31540   3.841   3.485   7.914 -0.2673 -0.3424 -0.3470
 6694SOL    HW131541   3.888   3.483   7.997  1.5767 -3.0548 -1.4669
 6694SOL    HW231542   3.817   3.578   7.908 -1.1227 -0.6240 -1.3184
 6695SOL     OW31543   4.404   2.928   4.299  0.7265 -0.0837  0.0668
 6695SOL    HW131544   4.354   2.959   4.224  1.0103 -1.8367 -0.8331
 6695SOL    HW231545   4.381   2.836   4.311  0.1216 -0.2603 -2.6122
 6696SOL     OW31546   4.228   1.594   7.492 -0.3382  0.9064 -0.2522
 6696SOL    HW131547   4.315   1.633   7.486 -0.4700  0.9634 -1.8623
 6696SOL    HW231548   4.177   1.670   7.462  1.4873  3.6735  3.6036
 6697SOL     OW31549   1.888   0.109   5.057  0.1146 -0.3244 -0.6754
 6697SOL    HW131550   1.902   0.015   5.049 -1.9531 -0.6001 -1.0937
 6697SOL    HW231551   1.841   0.128   4.975 -2.2237 -1.7225  0.3456
 6698SOL     OW31552   4.159   2.248   2.029 -0.2303  0.1719  0.3396
 6698SOL    HW131553   4.138   2.263   2.121 -0.3265  3.2933 -0.1894
 6698SOL    HW231554   4.079   2.204   2.001 -0.2240 -0.7498  1.7914
 6699SOL     OW31555   4.512   4.524   4.429  0.5022  0.5340  0.2780
 6699SOL    HW131556   4.496   4.430   4.422 -0.6820  0.8182 -0.7726
 6699SOL    HW231557   4.577   4.517   4.500  0.6441 -2.2660 -0.1079
 6700SOL     OW31558   2.085   2.830   7.042  0.7717  0.5440  0.2828
 6700SOL    HW131559   2.118   2.856   6.956  1.3240  1.5825  0.8123
 6700SOL    HW231560   2.011   2.888   7.060 -0.6354 -1.6925  1.6971
 6701SOL     OW31561   0.513   3.705  13.829 -0.3598  0.2462  0.0038
 6701SOL    HW131562   0.520   3.764  13.904 -0.7329  0.4046 -0.0848
 6701SOL    HW231563   0.543   3.618  13.854  1.0470  0.6200 -0.3773
 6702SOL     OW31564   1.123   3.650  15.452 -0.1919  0.1820 -0.5942
 6702SOL    HW131565   1.116   3.736  15.493 -2.1971 -0.3605  0.1767
 6702SOL    HW231566   1.207   3.660  15.406  0.6007 -0.0277  0.8122
 6703SOL     OW31567   3.548   4.111   0.415  0.1242 -0.1035  0.5226
 6703SOL    HW131568   3.613   4.144   0.477 -1.8147  0.9930  1.9803
 6703SOL    HW231569   3.476   4.092   0.476  0.3629  0.1180  0.8732
 6704SOL     OW31570   3.353   0.107   7.352  0.2889 -0.0545 -0.4786
 6704SOL    HW131571   3.437   0.069   7.376 -0.6685 -1.0644  1.2398
 6704SOL    HW231572   3.383   0.168   7.284  0.3212  2.5770  1.8996
 6705SOL     OW31573   1.997   1.029   9.287  0.9360  0.8156 -0.1155
 6705SOL    HW131574   1.991   1.117   9.323 -0.3604  0.8196 -0.3677
 6705SOL    HW231575   1.992   0.977   9.368 -0.9442 -1.5378 -1.7590
 6706SOL     OW31576   0.567   0.508   7.390 -0.7949  0.0607 -0.0039
 6706SOL    HW131577   0.556   0.427   7.341 -1.1128  0.9616 -1.4296
 6706SOL    HW231578   0.537   0.473   7.473  1.2583  1.0519  1.1815
 6707SOL     OW31579   2.540   4.505   2.960  0.1967  0.0337  0.2905
 6707SOL    HW131580   2.519   4.479   3.050  0.1619  1.2836  0.6487
 6707SOL    HW231581   2.454   4.494   2.919 -0.6196 -0.1935  2.0582
 6708SOL     OW31582   0.972   3.050  12.186 -0.7196 -0.1991  0.2272
 6708SOL    HW131583   0.971   2.981  12.119  4.3228 -0.3749  0.3167
 6708SOL    HW231584   1.066   3.069  12.184 -0.7602 -0.1818 -1.7703
 6709SOL     OW31585   3.994   2.203   2.505  0.8570 -0.0904  0.5291
 6709SOL    HW131586   4.086   2.223   2.523  1.6791 -2.4898 -1.0506
 6709SOL    HW231587   4.007   2.193   2.411  3.5092 -0.7142  0.9573
 6710SOL     OW31588   0.925   2.094  12.779 -0.2640  0.1291  0.0638
 6710SOL    HW131589   1.008   2.050  12.763  0.3819  1.3612 -0.0056
 6710SOL    HW231590   0.871   2.014  12.779  1.8445 -1.2772 -0.2405
 6711SOL     OW31591   2.166   3.438   8.548 -0.2399  0.0607 -0.2063
 6711SOL    HW131592   2.261   3.432   8.558 -0.4242  1.6583  2.4976
 6711SOL    HW231593   2.145   3.367   8.487 -1.4218  0.6804 -0.5398
 6712SOL     OW31594   1.473   4.046   6.236  0.1599  0.0759 -0.1795
 6712SOL    HW131595   1.403   4.099   6.197 -0.4233 -0.2517  0.4157
 6712SOL    HW231596   1.428   3.981   6.291  0.6096  1.8621  2.2884
 6713SOL     OW31597   0.879   4.429   3.503  0.0235 -0.5393 -0.0855
 6713SOL    HW131598   0.835   4.346   3.518  0.7050 -1.3323 -2.6671
 6713SOL    HW231599   0.924   4.442   3.587 -0.9085  1.7653  0.0673
 6714SOL     OW31600   2.135   3.917   6.646 -0.7540  0.6149 -0.3240
 6714SOL    HW131601   2.072   3.912   6.574 -2.8609  0.7877  1.4865
 6714SOL    HW231602   2.089   3.947   6.725  0.5293  1.2087  0.1817
 6715SOL     OW31603   3.255   3.355   0.759  0.2974  0.1142  0.3102
 6715SOL    HW131604   3.188   3.415   0.727 -1.4017 -0.8455  2.0699
 6715SOL    HW231605   3.343   3.388   0.740  0.4066  0.8273  2.0432
 6716SOL     OW31606   0.738   3.276   6.204  0.5104  0.9241 -0.0266
 6716SOL    HW131607   0.695   3.231   6.277  0.4222 -0.3738 -0.8751
 6716SOL    HW231608   0.764   3.203   6.148 -0.6747 -0.3634  1.1062
 6717SOL     OW31609   3.951   2.069   8.059 -0.8103 -0.0981  0.0283
 6717SOL    HW131610   3.963   2.145   8.003  1.8685  0.3188  1.1948
 6717SOL    HW231611   3.883   2.094   8.122  0.2636  0.0613  1.1041
 6718SOL     OW31612   1.115   2.411   4.145  0.5637 -0.1333  0.4311
 6718SOL    HW131613   1.031   2.434   4.105 -0.1709  0.9965  2.6105
 6718SOL    HW231614   1.107   2.316   4.142  3.5948 -0.3433 -1.2376
 6719SOL     OW31615   3.795   3.446   8.362  0.1245 -0.0983 -0.0002
 6719SOL    HW131616   3.723   3.478   8.308  1.8415  1.5215 -1.3619
 6719SOL    HW231617   3.768   3.482   8.446  0.9918 -1.0388  0.6811
 6720SOL     OW31618   1.621   4.223   4.277 -0.0844 -0.0157 -0.7807
 6720SOL    HW131619   1.699   4.249   4.325 -0.2583  0.3787 -0.7084
 6720SOL    HW231620   1.566   4.219   4.356  1.3217  0.8985  0.2544
 6721SOL     OW31621   0.129   4.285   9.054 -0.1782 -0.2850 -0.5911
 6721SOL    HW131622   0.071   4.208   9.056 -1.0690  0.3468 -2.1453
 6721SOL    HW231623   0.142   4.307   9.147  0.3180  0.5155 -0.8526
 6722SOL     OW31624   3.932   1.965   5.504  0.3012 -0.3796  0.1339
 6722SOL    HW131625   3.923   1.896   5.570  2.7230 -1.8482 -1.0779
 6722SOL    HW231626   3.844   2.004   5.506 -0.3353 -1.8304  0.8043
 6723SOL     OW31627   3.073   0.753  15.647 -0.0759 -0.0632 -0.0127
 6723SOL    HW131628   3.019   0.679  15.619 -0.7550 -0.4705  2.3550
 6723SOL    HW231629   3.159   0.714  15.662  0.0639  0.2773  0.0783
 6724SOL     OW31630   2.458   1.042   9.143  0.2035  0.6518 -0.2648
 6724SOL    HW131631   2.494   1.024   9.230  3.1325  4.2680 -0.7329
 6724SOL    HW231632   2.378   1.093   9.153  0.1767  0.4083  0.7905
 6725SOL     OW31633   3.401   3.272  10.947  0.5556  0.3881  0.6186
 6725SOL    HW131634   3.493   3.258  10.972  0.7403  2.2466  0.9286
 6725SOL    HW231635   3.390   3.194  10.892 -2.1582  0.7262  0.7256
 6726SOL     OW31636   2.381   2.162   0.274 -0.2880 -0.5985  0.3907
 6726SOL    HW131637   2.399   2.256   0.277  0.6702 -0.7121 -1.5630
 6726SOL    HW231638   2.298   2.162   0.226  0.6558 -0.1809 -1.2547
 6727SOL     OW31639   4.595   2.589  11.611  0.1019 -0.2480 -0.1681
 6727SOL    HW131640   4.575   2.518  11.550  2.2274 -1.2278  0.2508
 6727SOL    HW231641   4.682   2.555  11.632 -0.5890 -2.5065 -0.9371
 6728SOL     OW31642   4.443   4.257   8.231 -0.1059 -0.1436 -0.0260
 6728SOL    HW131643   4.452   4.277   8.324 -0.8266 -0.2292  0.0569
 6728SOL    HW231644   4.349   4.276   8.227 -0.3381 -1.7535 -2.3614
 6729SOL     OW31645   4.472   1.044   5.050  0.1510  0.2373  0.4970
 6729SOL    HW131646   4.509   1.072   4.966  0.6964  0.2217  0.7397
 6729SOL    HW231647   4.401   0.981   5.034 -0.4677  1.2675 -0.8433
 6730SOL     OW31648   1.277   1.862  13.579  0.0861  0.3548 -0.2781
 6730SOL    HW131649   1.342   1.892  13.643  0.0521 -1.2028  0.5070
 6730SOL    HW231650   1.321   1.780  13.557 -1.7061 -0.4310 -0.9568
 6731SOL     OW31651   2.470   1.793  11.209 -0.0965 -0.6801  0.0556
 6731SOL    HW131652   2.542   1.731  11.200 -0.7499 -1.2640 -1.1274
 6731SOL    HW231653   2.501   1.872  11.165  0.5570 -0.8264  0.2532
 6732SOL     OW31654   4.008   3.403  12.344  0.2049  0.0309 -0.5570
 6732SOL    HW131655   4.081   3.460  12.320  2.5858 -3.1697 -0.8464
 6732SOL    HW231656   4.009   3.422  12.437 -1.1887  1.4242 -0.8388
 6733SOL     OW31657   4.054   3.233   1.510  0.5248 -0.0580 -0.3703
 6733SOL    HW131658   4.091   3.194   1.589  1.3719 -0.2674 -0.8819
 6733SOL    HW231659   4.133   3.257   1.462 -0.2831  2.7688 -0.2876
 6734SOL     OW31660   0.180   1.360   7.920 -0.3200 -0.1009 -0.2177
 6734SOL    HW131661   0.221   1.370   8.006 -1.0154 -0.0023  0.1054
 6734SOL    HW231662   0.251   1.345   7.858  0.0601 -2.1163  0.7299
 6735SOL     OW31663   3.254   1.327   2.998  0.1939 -0.0835  0.0813
 6735SOL    HW131664   3.208   1.251   2.963  3.8671 -1.4687 -1.6837
 6735SOL    HW231665   3.344   1.303   2.979  0.1785  0.6126 -0.9021
 6736SOL     OW31666   4.566   2.169   1.651 -0.1911  0.5756 -0.3875
 6736SOL    HW131667   4.532   2.117   1.724 -0.9864  0.8535 -0.5547
 6736SOL    HW231668   4.654   2.133   1.646  0.4473  2.0641  0.4060
 6737SOL     OW31669   2.521   1.196   5.457 -0.0661  0.1492  0.7724
 6737SOL    HW131670   2.482   1.184   5.370  0.7549  0.8941  0.3021
 6737SOL    HW231671   2.560   1.283   5.460  0.5458 -0.0803 -0.5667
 6738SOL     OW31672   1.178   2.669   5.315  0.4234  0.7523 -0.2858
 6738SOL    HW131673   1.268   2.688   5.341 -0.7437  1.4095  3.3710
 6738SOL    HW231674   1.168   2.575   5.332 -0.1444  0.3125 -3.1053
 6739SOL     OW31675   1.753   4.565   3.906 -0.2671 -0.0397 -0.0528
 6739SOL    HW131676   1.820   4.553   3.839  1.0590  2.2898  0.8419
 6739SOL    HW231677   1.685   4.506   3.874  0.3974 -0.1701 -1.2474
 6740SOL     OW31678   1.722   3.870   2.549  0.0609  0.3835 -0.1846
 6740SOL    HW131679   1.817   3.878   2.538 -0.1793  0.6216 -2.1043
 6740SOL    HW231680   1.701   3.823   2.468 -0.5403  0.9979 -0.3774
 6741SOL     OW31681   4.168   2.530   8.550 -0.4556 -0.0408 -0.0412
 6741SOL    HW131682   4.242   2.522   8.609  0.3635  0.3428 -1.0103
 6741SOL    HW231683   4.206   2.478   8.479 -1.6613  0.2311 -0.8901
 6742SOL     OW31684   1.796   4.006   6.152 -0.0112 -0.0491 -0.5975
 6742SOL    HW131685   1.871   4.063   6.135  0.0787 -0.2917 -1.0196
 6742SOL    HW231686   1.801   3.966   6.239  1.4935  3.3348  0.8437
 6743SOL     OW31687   2.098   3.030   8.395  0.3266  0.2318 -0.0900
 6743SOL    HW131688   2.138   2.958   8.443  0.6427  1.3334  1.2860
 6743SOL    HW231689   2.041   3.065   8.463  2.4434  0.4026  1.5995
 6744SOL     OW31690   4.573   0.415   6.428 -0.3238 -0.5918 -0.5758
 6744SOL    HW131691   4.572   0.415   6.332  0.2154  0.8213 -0.5841
 6744SOL    HW231692   4.663   0.383   6.435 -0.1600 -0.1544 -0.6314
 6745SOL     OW31693   3.989   0.705   6.036  0.2836  0.1269 -0.0552
 6745SOL    HW131694   3.995   0.688   5.942  0.1562  2.1393 -0.4157
 6745SOL    HW231695   4.039   0.787   6.040 -0.3800  0.4194  2.0729
 6746SOL     OW31696   1.525   4.631   8.925  0.1916 -0.2181 -0.7201
 6746SOL    HW131697   1.430   4.640   8.923  0.2721  1.0014  1.1501
 6746SOL    HW231698   1.541   4.540   8.949 -0.4489 -0.3921 -0.9439
 6747SOL     OW31699   3.879   2.754   1.423 -0.1524  0.4569  0.1386
 6747SOL    HW131700   3.923   2.688   1.477  0.5560  0.9284  0.1364
 6747SOL    HW231701   3.810   2.692   1.398 -1.4022  1.7744  0.3745
 6748SOL     OW31702   3.661   2.697   2.307 -0.1911 -0.2921 -0.1362
 6748SOL    HW131703   3.643   2.605   2.328 -0.6866 -0.2569 -0.4041
 6748SOL    HW231704   3.582   2.715   2.257 -0.7857 -1.4557  0.3794
 6749SOL     OW31705   1.515   2.874   8.184  0.6254 -0.2062  0.2578
 6749SOL    HW131706   1.588   2.906   8.236  1.8032 -1.6272 -0.5160
 6749SOL    HW231707   1.444   2.929   8.217 -0.4281 -0.3805 -1.6991
 6750SOL     OW31708   1.253   2.724   7.953 -0.0535  0.3556  0.3762
 6750SOL    HW131709   1.224   2.681   8.034 -0.7032 -0.9874 -0.5607
 6750SOL    HW231710   1.262   2.646   7.898  3.5410  0.9626  0.1246
 6751SOL     OW31711   3.488   1.536   5.405  0.7998  0.1057 -0.2868
 6751SOL    HW131712   3.564   1.554   5.460 -0.4570  1.3911  1.0202
 6751SOL    HW231713   3.455   1.624   5.423  2.3436  1.0394 -1.9210
 6752SOL     OW31714   0.668   3.021   5.396 -0.2833  0.3870 -0.6337
 6752SOL    HW131715   0.606   3.088   5.367  0.2637  1.2830  0.2658
 6752SOL    HW231716   0.621   2.942   5.371  0.2518  0.6265 -2.3650
 6753SOL     OW31717   3.177   3.356   8.301 -0.1353  0.3768  0.4860
 6753SOL    HW131718   3.199   3.281   8.246 -1.0661  0.7311 -0.3618
 6753SOL    HW231719   3.256   3.410   8.289  0.1238  0.3766  2.1872
 6754SOL     OW31720   4.633   4.204   5.010 -0.3199  0.2538  0.1838
 6754SOL    HW131721   4.683   4.211   5.091  1.5045 -4.2325 -0.5380
 6754SOL    HW231722   4.558   4.254   5.044 -0.7732 -0.0178 -0.4264
 6755SOL     OW31723   2.286   2.704   8.272 -0.4362 -0.0434 -0.9950
 6755SOL    HW131724   2.231   2.738   8.201 -1.6130  0.0142 -0.0682
 6755SOL    HW231725   2.369   2.676   8.233  0.8242  2.5165 -0.1591
 6756SOL     OW31726   0.479   3.231   3.555  0.2928  0.3610  0.4806
 6756SOL    HW131727   0.453   3.180   3.479 -1.0951 -0.5515  1.5531
 6756SOL    HW231728   0.438   3.174   3.620 -2.6622 -0.4429 -2.0525
 6757SOL     OW31729   4.714   0.153   3.006 -0.5271 -0.6752 -0.3247
 6757SOL    HW131730   0.000   0.200   2.923  0.7398  1.4716  0.9924
 6757SOL    HW231731   0.077   0.107   3.014 -0.1190  0.3741  1.4201
 6758SOL     OW31732   2.751   1.113   5.920 -0.2915 -0.0651 -0.2290
 6758SOL    HW131733   2.845   1.102   5.906 -0.4142 -0.6438 -0.6311
 6758SOL    HW231734   2.727   1.152   5.836 -2.0898  2.1205  1.2750
 6759SOL     OW31735   2.464   2.140   3.137  0.2204  0.5053  1.3133
 6759SOL    HW131736   2.509   2.215   3.097 -1.7164  0.3161 -1.2119
 6759SOL    HW231737   2.537   2.080   3.125  0.0771  0.2183  1.8719
 6760SOL     OW31738   0.213   2.497   4.377 -0.4641 -0.0286  0.1404
 6760SOL    HW131739   0.251   2.409   4.374  1.6980  0.9470 -1.2586
 6760SOL    HW231740   0.197   2.505   4.471 -0.5212 -2.4907  0.3217
 6761SOL     OW31741   1.221   2.058   8.968 -0.3729  0.2522 -0.7629
 6761SOL    HW131742   1.186   2.130   9.021 -0.1283  1.9742 -2.9616
 6761SOL    HW231743   1.233   1.990   9.034  0.1635  0.5944 -0.4971
 6762SOL     OW31744   3.756   2.626  11.092  0.6162 -0.0869  0.4852
 6762SOL    HW131745   3.709   2.638  11.009 -0.2353  0.1856  1.0075
 6762SOL    HW231746   3.771   2.719  11.111 -0.3238 -0.1749  1.6184
 6763SOL     OW31747   2.754   3.009  16.182  0.0010  0.0759 -0.1245
 6763SOL    HW131748   2.816   2.952  16.136  2.2760  0.3971  2.5129
 6763SOL    HW231749   2.730   3.071  16.114  0.7378 -0.6076 -1.0059
 6764SOL     OW31750   3.177   1.410   2.250 -0.3497 -0.5126 -0.2388
 6764SOL    HW131751   3.187   1.412   2.345  0.1584 -1.2690 -0.2777
 6764SOL    HW231752   3.252   1.466   2.229  0.2947 -0.7036  1.5929
 6765SOL     OW31753   2.315   3.903   7.486 -0.3898  0.3951 -0.1073
 6765SOL    HW131754   2.293   3.858   7.404 -1.9059  1.1424 -0.1082
 6765SOL    HW231755   2.411   3.911   7.483 -0.3055 -0.0750  1.3137
 6766SOL     OW31756   2.599   0.948   4.679  0.2357 -0.5404 -0.0790
 6766SOL    HW131757   2.693   0.955   4.662 -0.0757  2.5294 -0.5569
 6766SOL    HW231758   2.587   1.015   4.747 -0.9385 -0.0917 -0.7348
 6767SOL     OW31759   0.484   2.194   5.072 -0.0996 -0.1775  0.9705
 6767SOL    HW131760   0.500   2.239   4.989  1.1999 -0.3086  1.1578
 6767SOL    HW231761   0.573   2.194   5.107  1.4425 -0.4881 -2.9820
 6768SOL     OW31762   1.410   0.787   7.817  0.2502  0.2715  0.5818
 6768SOL    HW131763   1.476   0.721   7.798 -1.4595 -1.1903 -0.1937
 6768SOL    HW231764   1.457   0.848   7.875  1.6544  0.3098 -0.6002
 6769SOL     OW31765   4.296   1.758  16.080 -0.0447 -0.0015  0.1130
 6769SOL    HW131766   4.283   1.852  16.092  1.7749  0.2547  0.0872
 6769SOL    HW231767   4.241   1.723  16.150 -1.3175  0.7125 -0.5392
 6770SOL     OW31768   0.734   0.876   6.985  0.5185  0.6468  0.5171
 6770SOL    HW131769   0.792   0.887   6.910  0.1862  0.0322  0.1670
 6770SOL    HW231770   0.788   0.840   7.056 -1.2286  2.1926  2.6471
 6771SOL     OW31771   1.582   1.375   8.886  0.5234 -0.0957  0.0794
 6771SOL    HW131772   1.537   1.347   8.806 -0.1060 -0.7494  0.6688
 6771SOL    HW231773   1.581   1.471   8.878 -1.0284 -0.0410  1.0518
 6772SOL     OW31774   3.949   0.247   4.329  0.5321 -0.0477  0.2717
 6772SOL    HW131775   4.019   0.254   4.263 -0.2216  1.9441 -0.3210
 6772SOL    HW231776   3.881   0.285   4.273  1.5178 -1.1630 -1.7054
 6773SOL     OW31777   1.726   2.773   7.298 -0.3976  0.0159 -0.0771
 6773SOL    HW131778   1.797   2.784   7.361  0.5015 -0.1652 -1.0478
 6773SOL    HW231779   1.652   2.798   7.353 -0.0550 -1.1648  0.9121
 6774SOL     OW31780   4.502   4.665  16.954 -0.2289  0.3437 -0.3334
 6774SOL    HW131781   4.452   4.719  17.014  0.3419  0.7082 -0.1807
 6774SOL    HW231782   4.434   4.632  16.895  0.5153 -1.4093 -0.2094
 6775SOL     OW31783   4.423   3.609  11.763  0.5664 -0.4726 -0.0151
 6775SOL    HW131784   4.420   3.658  11.681  0.2514  0.2706  0.4369
 6775SOL    HW231785   4.330   3.623  11.780  0.4260 -2.4273  0.9087
 6776SOL     OW31786   1.897   3.644   8.634 -0.0049 -0.2664 -0.0435
 6776SOL    HW131787   1.868   3.562   8.594  1.7127 -0.3106 -1.1701
 6776SOL    HW231788   1.823   3.699   8.608  0.1489 -1.1716 -2.3149
 6777SOL     OW31789   0.967   1.583  16.429  0.9486  0.5835  0.0841
 6777SOL    HW131790   0.970   1.604  16.336  0.0371  0.7735  0.1009
 6777SOL    HW231791   1.041   1.522  16.440  1.2800  1.2368  1.5007
 6778SOL     OW31792   4.193   1.146  14.095 -0.1264  0.2492  0.1898
 6778SOL    HW131793   4.133   1.217  14.074  0.5060  0.4618 -0.9048
 6778SOL    HW231794   4.165   1.073  14.039 -0.5167  0.2058  0.4408
 6779SOL     OW31795   0.098   3.009   5.495 -0.5313  0.2818 -0.6265
 6779SOL    HW131796   0.135   2.920   5.493 -0.9676  0.1674 -3.1889
 6779SOL    HW231797   0.013   2.974   5.521  0.0066 -0.7215 -0.1789
 6780SOL     OW31798   0.137   1.512  16.762  0.0491  0.3631  0.1590
 6780SOL    HW131799   0.072   1.443  16.746  1.1643 -0.5461 -0.5225
 6780SOL    HW231800   0.208   1.474  16.710 -0.5354 -0.6666  0.1215
 6781SOL     OW31801   4.296   3.879   2.884  0.1906  0.0861 -0.5264
 6781SOL    HW131802   4.384   3.897   2.918 -0.3249 -0.1669  0.9226
 6781SOL    HW231803   4.267   3.969   2.871  1.4688  0.5195 -0.4109
 6782SOL     OW31804   2.052   1.804   5.645 -0.1601 -0.2538  0.5116
 6782SOL    HW131805   2.128   1.824   5.700 -0.3668 -0.2057  0.7842
 6782SOL    HW231806   2.018   1.739   5.707 -0.6130 -1.3260 -0.8585
 6783SOL     OW31807   2.369   3.598   8.115 -0.4636  0.6620 -0.0272
 6783SOL    HW131808   2.457   3.603   8.151  0.4172 -1.2822 -1.8806
 6783SOL    HW231809   2.367   3.663   8.045 -0.2904  1.2021  0.4746
 6784SOL     OW31810   4.147   0.433   4.930 -0.3586  0.1066  0.1906
 6784SOL    HW131811   4.101   0.454   5.012 -1.4774  2.0366 -0.9191
 6784SOL    HW231812   4.074   0.394   4.883  0.7577 -2.9113  1.0085
 6785SOL     OW31813   0.681   1.397   3.946 -0.3271 -0.0842  0.6385
 6785SOL    HW131814   0.752   1.434   3.998  0.6782 -0.1500 -0.6946
 6785SOL    HW231815   0.706   1.308   3.922  2.4108  1.0551 -0.7286
 6786SOL     OW31816   4.665   0.516   2.781 -0.4198 -0.3446 -0.3619
 6786SOL    HW131817   4.601   0.540   2.848 -0.9616 -0.5242 -0.8234
 6786SOL    HW231818   0.002   0.475   2.846 -0.5522 -0.3961 -0.2750
 6787SOL     OW31819   0.411   3.076   9.929 -0.0924  0.6473 -0.3760
 6787SOL    HW131820   0.485   3.018   9.916  0.0450  0.4559  1.2580
 6787SOL    HW231821   0.346   3.012   9.958  2.2861 -0.4865  2.4152
 6788SOL     OW31822   4.664   3.773   7.420  0.2021 -0.3399  0.6729
 6788SOL    HW131823   4.655   3.868   7.421 -2.1843 -0.5769  0.8525
 6788SOL    HW231824   4.586   3.750   7.470 -1.4549  1.7706 -0.9868
 6789SOL     OW31825   0.860   0.746  13.592 -0.6545  0.2506 -0.4780
 6789SOL    HW131826   0.832   0.820  13.646  1.3865 -0.2541  1.2786
 6789SOL    HW231827   0.955   0.743  13.606 -0.6417 -0.0008 -0.6152
 6790SOL     OW31828   0.972   0.858   5.274 -0.0611 -0.3389  0.4478
 6790SOL    HW131829   0.918   0.886   5.200 -1.3059 -2.1411  0.6798
 6790SOL    HW231830   1.043   0.819   5.222 -1.6802 -0.8262 -1.3499
 6791SOL     OW31831   2.482   4.281   6.177 -0.1486 -0.0057  0.9153
 6791SOL    HW131832   2.455   4.209   6.119  0.2881  0.9661 -0.4749
 6791SOL    HW231833   2.404   4.329   6.205  0.3658  0.9138  0.7590
 6792SOL     OW31834   2.401   1.714  10.660  0.0365  0.4312  0.2526
 6792SOL    HW131835   2.388   1.650  10.591 -1.1864  2.8642 -1.7970
 6792SOL    HW231836   2.310   1.712  10.689  0.1330  0.9308  0.6038
 6793SOL     OW31837   3.948   0.361   7.496  0.0710 -0.2772  0.2662
 6793SOL    HW131838   4.022   0.390   7.551  2.0664 -0.8539 -2.1328
 6793SOL    HW231839   3.987   0.355   7.409 -1.7300 -0.0967 -0.5485
 6794SOL     OW31840   0.056   2.939   0.310 -0.5444 -0.2776  0.2345
 6794SOL    HW131841   0.091   2.982   0.232  0.6619  0.5577  1.2349
 6794SOL    HW231842   0.133   2.890   0.338  0.3002  0.7909 -0.2362
 6795SOL     OW31843   1.318   0.300   2.287  0.7236  0.2103  1.0229
 6795SOL    HW131844   1.406   0.265   2.302  0.9981 -0.0504 -1.3042
 6795SOL    HW231845   1.312   0.293   2.192 -0.6499  2.9092  0.9154
 6796SOL     OW31846   3.691   3.679  10.694  0.0661  0.1541  0.0972
 6796SOL    HW131847   3.604   3.719  10.687 -0.4395 -0.7929  0.9223
 6796SOL    HW231848   3.691   3.619  10.620  0.4252  1.9106 -1.3337
 6797SOL     OW31849   3.344   1.892   3.501  0.4581 -0.7136  0.2198
 6797SOL    HW131850   3.265   1.922   3.456  1.0107  1.2131  0.5760
 6797SOL    HW231851   3.330   1.921   3.591 -0.0519 -1.1031  0.2694
 6798SOL     OW31852   3.877   1.953   3.212 -0.0544 -0.0789 -0.1704
 6798SOL    HW131853   3.931   1.987   3.283  1.2978  1.8959 -2.1475
 6798SOL    HW231854   3.837   1.876   3.252  0.9628  0.2875  1.5392
 6799SOL     OW31855   2.595   2.198   1.295 -0.4095  0.2181  0.0857
 6799SOL    HW131856   2.591   2.292   1.278  3.1217  0.3946  0.1682
 6799SOL    HW231857   2.673   2.165   1.251 -1.0006 -1.1901  0.0837
 6800SOL     OW31858   1.063   2.876   7.278 -0.1687 -0.3734  0.1671
 6800SOL    HW131859   1.095   2.868   7.188  0.8767 -3.6415  0.8431
 6800SOL    HW231860   1.126   2.825   7.329 -2.1378 -0.3023  2.6841
 6801SOL     OW31861   0.504   3.456   3.361 -0.6719 -0.2191 -0.0495
 6801SOL    HW131862   0.466   3.395   3.424  0.9954  0.0431  1.2192
 6801SOL    HW231863   0.439   3.526   3.355  1.3423  1.6736 -0.0130
 6802SOL     OW31864   1.260   1.508   9.960 -0.0497  0.1838  0.0291
 6802SOL    HW131865   1.208   1.586   9.981 -0.9427 -0.2159 -0.7154
 6802SOL    HW231866   1.271   1.524   9.866  0.1000  3.1223  0.5597
 6803SOL     OW31867   0.233   2.627   6.571 -0.0677 -0.0989 -0.5057
 6803SOL    HW131868   0.184   2.606   6.650 -0.8291  0.4257 -0.8364
 6803SOL    HW231869   0.316   2.580   6.583 -0.0099  0.5291  1.3925
 6804SOL     OW31870   3.651   3.229   0.813 -0.0639  0.4551  0.1362
 6804SOL    HW131871   3.710   3.165   0.852 -1.5957 -0.4564  0.9816
 6804SOL    HW231872   3.700   3.249   0.734  1.2132 -0.5294  0.6849
 6805SOL     OW31873   0.399   0.583   4.763  0.0645 -0.4651 -0.2773
 6805SOL    HW131874   0.361   0.660   4.721  0.4037 -0.4549 -0.5716
 6805SOL    HW231875   0.340   0.565   4.836  1.0532 -2.5678  0.0152
 6806SOL     OW31876   1.922   3.055   2.972 -0.2998 -0.0535 -0.3984
 6806SOL    HW131877   1.898   3.101   2.892  1.2966  0.8644 -0.3463
 6806SOL    HW231878   1.986   2.991   2.941  1.0171  1.3658 -0.5475
 6807SOL     OW31879   3.915   1.050   0.791  0.0525  0.7279 -0.6009
 6807SOL    HW131880   4.000   1.070   0.753 -0.8693  0.7620 -2.6342
 6807SOL    HW231881   3.931   1.070   0.883 -2.0976  3.0108 -0.7469
 6808SOL     OW31882   3.933   2.195  15.936  0.1496  0.5142  0.3362
 6808SOL    HW131883   3.890   2.268  15.891 -0.5114 -0.7866 -1.1509
 6808SOL    HW231884   3.889   2.196  16.021 -2.0313 -0.5202 -0.7789
 6809SOL     OW31885   3.031   0.655  11.926 -0.1460  0.2532 -0.4607
 6809SOL    HW131886   3.088   0.581  11.903  0.6822  0.8076 -0.1922
 6809SOL    HW231887   3.076   0.691  12.002 -1.4276 -0.4259  0.6186
 6810SOL     OW31888   1.702   0.706   6.246  0.0947  0.2426  0.1512
 6810SOL    HW131889   1.612   0.731   6.266 -0.0302  1.9857 -2.4994
 6810SOL    HW231890   1.690   0.612   6.246  1.0073  0.1258 -1.0344
 6811SOL     OW31891   2.573   2.583   0.071 -0.3842  0.1545 -0.1485
 6811SOL    HW131892   2.505   2.600   0.136 -0.5563 -0.6845 -0.1043
 6811SOL    HW231893   2.545   2.498   0.036  0.5759 -0.4479  0.5496
 6812SOL     OW31894   4.144   3.264  11.629  0.0079  0.2365 -0.1570
 6812SOL    HW131895   4.158   3.350  11.590 -1.6509 -0.2193 -1.7366
 6812SOL    HW231896   4.049   3.256  11.626 -0.0898  1.5517 -0.4671
 6813SOL     OW31897   2.823   3.379  15.344  0.1209 -0.0876 -0.7312
 6813SOL    HW131898   2.849   3.417  15.429 -2.4912  0.9904 -0.4167
 6813SOL    HW231899   2.734   3.413  15.343  0.8172  1.7414 -0.6642
 6814SOL     OW31900   1.469   1.295   8.664 -0.4386 -0.2069  0.0496
 6814SOL    HW131901   1.376   1.275   8.654 -0.5457  0.1418  0.3467
 6814SOL    HW231902   1.508   1.225   8.612  1.2693  0.1132  0.9001
 6815SOL     OW31903   3.578   4.616   1.752 -0.5096  0.1277  0.4643
 6815SOL    HW131904   3.615   4.570   1.827  0.7330  0.5229  0.0928
 6815SOL    HW231905   3.539   4.682   1.810 -0.2694  0.0644  0.6966
 6816SOL     OW31906   1.476   3.986   7.148 -0.0287  0.0493 -0.3884
 6816SOL    HW131907   1.566   3.972   7.176  0.0015 -0.6960 -0.8568
 6816SOL    HW231908   1.434   3.984   7.234  0.5091  1.2918 -0.0943
 6817SOL     OW31909   3.637   1.798   9.262  0.4069 -0.1356 -0.1923
 6817SOL    HW131910   3.569   1.743   9.302  1.0210 -0.4809  0.3657
 6817SOL    HW231911   3.712   1.768   9.313  1.8164  0.9854 -1.6051
 6818SOL     OW31912   0.857   2.024   2.542 -0.3704 -0.2784 -0.3530
 6818SOL    HW131913   0.774   2.056   2.505  1.6535  1.7892 -3.1202
 6818SOL    HW231914   0.925   2.066   2.489 -0.7589  0.5729 -0.1943
 6819SOL     OW31915   0.045   0.936   7.878 -0.4211  0.1263 -0.6401
 6819SOL    HW131916   0.110   0.907   7.814  0.4745 -0.2832  0.4464
 6819SOL    HW231917   4.717   0.993   7.819  2.1432  2.3983 -0.6018
 6820SOL     OW31918   4.352   3.948  13.921  0.2507  0.6275 -0.2491
 6820SOL    HW131919   4.320   3.873  13.870 -0.6666  1.5820 -1.0803
 6820SOL    HW231920   4.444   3.928  13.938 -0.5712 -1.7323  1.3967
 6821SOL     OW31921   2.143   4.696   8.164  0.4781  0.2403  0.3240
 6821SOL    HW131922   2.205   4.625   8.147 -1.8752 -1.4880 -1.2260
 6821SOL    HW231923   2.144   4.711   8.258  2.1095  1.2062  0.1534
 6822SOL     OW31924   3.323   0.423   8.382 -0.1773  0.6512  0.1857
 6822SOL    HW131925   3.303   0.390   8.294  0.7435  3.0465 -0.9356
 6822SOL    HW231926   3.392   0.484   8.356 -0.1849  1.9940  3.3543
 6823SOL     OW31927   2.894   4.329  13.950  0.0708  0.6039  0.5487
 6823SOL    HW131928   2.944   4.256  13.912  0.5274  1.2422 -0.0906
 6823SOL    HW231929   2.934   4.399  13.897  0.7621  0.6106  1.0840
 6824SOL     OW31930   3.152   2.951   7.195 -0.2266 -0.1432 -0.3749
 6824SOL    HW131931   3.127   2.861   7.217  0.1992  0.2009  1.5989
 6824SOL    HW231932   3.172   2.981   7.284 -1.5524 -2.1993  0.6130
 6825SOL     OW31933   0.477   1.502   3.794  0.3304  0.0212 -0.1264
 6825SOL    HW131934   0.540   1.453   3.846  1.2834  0.7449 -0.6074
 6825SOL    HW231935   0.519   1.588   3.801 -1.8700  1.0232  0.6676
 6826SOL     OW31936   4.079   3.589  17.400  0.7318  0.5521 -0.0049
 6826SOL    HW131937   4.144   3.655  17.376 -0.8657  1.7591 -0.9232
 6826SOL    HW231938   4.015   3.634  17.454  1.2655  1.3242 -0.0046
 6827SOL     OW31939   2.334   1.142  16.406  0.1300 -0.0442 -0.9221
 6827SOL    HW131940   2.277   1.142  16.483 -0.5315  3.1284 -1.3935
 6827SOL    HW231941   2.277   1.158  16.331 -0.3487  1.6491 -0.1960
 6828SOL     OW31942   0.649   3.120  17.230  0.0653 -0.5337  0.1285
 6828SOL    HW131943   0.700   3.077  17.161 -2.0149 -0.9312 -1.1659
 6828SOL    HW231944   0.653   3.043  17.287 -1.1024  0.0449  0.9768
 6829SOL     OW31945   4.635   2.583  12.529  0.5921  0.5043  0.6891
 6829SOL    HW131946   4.546   2.558  12.552  0.0940  0.8198 -0.8691
 6829SOL    HW231947   4.665   2.512  12.471 -0.6045  0.6549 -0.1239
 6830SOL     OW31948   0.417   4.257   3.709  0.0507 -0.1002  0.3193
 6830SOL    HW131949   0.349   4.219   3.653 -0.6177  0.9001  0.4572
 6830SOL    HW231950   0.392   4.230   3.798 -2.0714 -0.2143 -0.3107
 6831SOL     OW31951   0.939   1.671  14.387  0.5514  0.2960 -0.0943
 6831SOL    HW131952   1.022   1.685  14.341  2.2610 -0.0401  2.8854
 6831SOL    HW231953   0.888   1.711  14.317 -0.8457 -3.2511 -1.0989
 6832SOL     OW31954   0.479   1.873  10.116  0.2930 -0.1537  0.3106
 6832SOL    HW131955   0.462   1.933  10.044 -2.5399  0.3807  1.4182
 6832SOL    HW231956   0.399   1.882  10.167  0.2947  0.9135  0.1201
 6833SOL     OW31957   3.872   4.279  15.740 -0.6696 -0.1923  0.1184
 6833SOL    HW131958   3.955   4.250  15.701 -1.9873 -0.9588 -2.1252
 6833SOL    HW231959   3.908   4.339  15.805  1.2728  2.3928 -3.3035
 6834SOL     OW31960   4.036   1.255   3.022  0.0463  0.5848 -0.5156
 6834SOL    HW131961   3.970   1.247   3.091  1.7371 -1.5699  0.8682
 6834SOL    HW231962   4.116   1.252   3.075 -0.4675 -1.3906  0.1727
 6835SOL     OW31963   3.448   0.674   3.732  0.1574  0.6082 -0.2176
 6835SOL    HW131964   3.532   0.702   3.695  0.5477  0.2442  0.3819
 6835SOL    HW231965   3.429   0.741   3.798  0.2554  1.7407 -1.3583
 6836SOL     OW31966   4.133   0.006   2.665 -0.1316  0.3353  0.4092
 6836SOL    HW131967   4.205   0.027   2.606 -0.3973  3.2420  1.1502
 6836SOL    HW231968   4.175   4.652   2.708 -1.1350 -0.2978  0.3001
 6837SOL     OW31969   2.646   2.804  16.322  0.3480  0.4037 -0.0553
 6837SOL    HW131970   2.597   2.769  16.247  0.4573  0.7849 -0.3078
 6837SOL    HW231971   2.694   2.870  16.271 -1.3925  1.9633  0.3057
 6838SOL     OW31972   2.255   3.777   5.818 -0.1675  0.0639  0.0888
 6838SOL    HW131973   2.311   3.828   5.760  1.2687 -1.8571 -0.2068
 6838SOL    HW231974   2.237   3.703   5.761  0.9670  0.2170 -0.4748
 6839SOL     OW31975   1.468   3.442   4.126  0.2170  0.2119 -0.3638
 6839SOL    HW131976   1.386   3.467   4.169  0.4076 -2.2023  1.4160
 6839SOL    HW231977   1.471   3.353   4.163  0.8674 -0.3032 -1.6515
 6840SOL     OW31978   2.554   1.150   8.432 -0.1604  0.0348  0.1412
 6840SOL    HW131979   2.518   1.167   8.519 -0.4741  2.4057 -0.4495
 6840SOL    HW231980   2.482   1.184   8.378 -0.8156 -2.2028 -0.4034
 6841SOL     OW31981   2.401   0.212   4.825  0.0564 -0.1651 -0.7953
 6841SOL    HW131982   2.320   0.165   4.843  0.3844 -0.9831 -1.4384
 6841SOL    HW231983   2.365   0.300   4.819  1.5178  0.5591  0.8649
 6842SOL     OW31984   2.638   3.732  10.556  0.3829 -0.5011  0.4039
 6842SOL    HW131985   2.657   3.743  10.650  0.3031 -0.5960  0.4301
 6842SOL    HW231986   2.629   3.637  10.560 -0.2816 -0.3937  1.3118
 6843SOL     OW31987   1.519   1.265   9.639 -0.0587 -0.2994 -0.5094
 6843SOL    HW131988   1.563   1.350   9.636  0.1465 -0.3931 -0.0782
 6843SOL    HW231989   1.555   1.221   9.562  2.2747  0.4261  0.1850
 6844SOL     OW31990   4.532   2.877   0.810  0.2104 -0.0379  0.0457
 6844SOL    HW131991   4.491   2.807   0.758  0.8898  0.4035 -1.0728
 6844SOL    HW231992   4.624   2.865   0.787 -0.2465 -0.1858 -1.7111
 6845SOL     OW31993   4.294   3.707   2.263  0.1669  0.2891  0.2418
 6845SOL    HW131994   4.337   3.682   2.181 -2.4012 -0.8865 -0.7190
 6845SOL    HW231995   4.348   3.773   2.308 -0.8580  0.2174  1.5876
 6846SOL     OW31996   0.865   3.123   2.742 -0.4659 -0.1289  0.3751
 6846SOL    HW131997   0.876   3.059   2.672  0.1953  2.1784 -1.6323
 6846SOL    HW231998   0.954   3.147   2.768  0.2890  1.5960 -3.8399
 6847SOL     OW31999   0.458   0.315   7.886 -0.4398  0.3098 -0.3194
 6847SOL    HW132000   0.479   0.371   7.811  1.2296  1.5507  1.0894
 6847SOL    HW232001   0.518   0.245   7.859 -1.2643 -0.9421  1.1176
 6848SOL     OW32002   0.598   0.030   7.989 -0.8874  0.4803  0.1468
 6848SOL    HW132003   0.673   0.087   8.011  0.3982 -1.6412  1.2568
 6848SOL    HW232004   0.575   0.067   7.904 -0.5577 -3.3790 -1.5860
 6849SOL     OW32005   3.679   3.108  14.377 -0.0232  0.5109  0.6232
 6849SOL    HW132006   3.590   3.126  14.408 -0.5585  0.8122 -1.0862
 6849SOL    HW232007   3.679   3.153  14.293  1.1200 -1.5522 -0.4889
 6850SOL     OW32008   2.155   2.151   2.927  0.1940 -0.1890  0.1729
 6850SOL    HW132009   2.209   2.072   2.933 -0.0044 -0.3699 -0.5149
 6850SOL    HW232010   2.223   2.218   2.933  0.9845 -1.0545  0.9592
 6851SOL     OW32011   2.400   4.133   5.975 -0.2148 -0.2537  0.1463
 6851SOL    HW132012   2.452   4.130   5.895 -0.2877 -0.7132  0.1146
 6851SOL    HW232013   2.412   4.039   5.991  0.8488 -0.0579  0.5466
 6852SOL     OW32014   1.108   4.434   5.534  0.7558 -0.5029 -0.2423
 6852SOL    HW132015   1.157   4.458   5.612 -1.1153  0.7404  0.5433
 6852SOL    HW232016   1.042   4.502   5.543  0.9556 -0.3675  0.1907
 6853SOL     OW32017   0.084   3.076   7.774 -0.8558 -0.1588  0.0583
 6853SOL    HW132018   0.166   3.030   7.755  1.1587  2.9809  1.0532
 6853SOL    HW232019   0.063   3.038   7.860  1.5175  1.0960  1.2299
 6854SOL     OW32020   2.313   0.229   8.183 -0.0863 -0.0730  0.5519
 6854SOL    HW132021   2.283   0.147   8.145 -0.8583  1.2152 -1.6178
 6854SOL    HW232022   2.327   0.199   8.273 -0.5899  0.1023  0.6909
 6855SOL     OW32023   4.510   1.455   8.561 -0.0455 -0.0384  0.0730
 6855SOL    HW132024   4.523   1.510   8.638  0.7774 -0.3813  0.1824
 6855SOL    HW232025   4.437   1.490   8.510  0.4577 -1.1570 -1.4335
 6856SOL     OW32026   3.880   1.814   5.987 -0.5134 -0.2096 -0.6470
 6856SOL    HW132027   3.972   1.840   5.988 -0.1970 -1.3743  1.1259
 6856SOL    HW232028   3.840   1.869   6.053  1.7870  1.4411 -0.6426
 6857SOL     OW32029   2.317   0.240  15.709 -0.0894 -0.1656  0.8284
 6857SOL    HW132030   2.266   0.321  15.704  1.6097  0.5972 -4.0736
 6857SOL    HW232031   2.409   0.259  15.727  0.1381 -0.9350  0.4649
 6858SOL     OW32032   2.112   4.688   6.603 -0.1768  0.1942  0.0540
 6858SOL    HW132033   2.130   4.657   6.691 -1.9748 -1.4482 -0.1814
 6858SOL    HW232034   2.045   4.628   6.571  1.0910 -0.6330 -1.0695
 6859SOL     OW32035   1.956   2.166  11.651  0.1086 -0.3135 -0.4968
 6859SOL    HW132036   2.037   2.128  11.685 -0.0979 -0.3908 -0.0828
 6859SOL    HW232037   1.901   2.090  11.633  0.1606 -0.8969  1.7707
 6860SOL     OW32038   3.389   1.211  10.404  0.3470 -0.3008 -0.4133
 6860SOL    HW132039   3.477   1.177  10.387  1.6725  2.0879  1.5749
 6860SOL    HW232040   3.397   1.240  10.495  0.6565 -1.8315  0.0463
 6861SOL     OW32041   2.630   0.852   4.954 -0.3454 -0.2732 -0.2064
 6861SOL    HW132042   2.624   0.816   4.866  0.2421  1.5626 -0.9936
 6861SOL    HW232043   2.545   0.894   4.971  1.4046  2.6789  1.3910
 6862SOL     OW32044   3.198   4.305   2.325 -0.3407  0.1119 -0.2039
 6862SOL    HW132045   3.235   4.391   2.305 -0.3124  0.1998  0.2302
 6862SOL    HW232046   3.143   4.285   2.249 -1.5274  0.1017  0.6573
 6863SOL     OW32047   4.671   1.212   2.994  0.1085 -0.3557 -0.4149
 6863SOL    HW132048   0.007   1.147   2.953 -1.4883 -1.2537 -1.2191
 6863SOL    HW232049   0.002   1.263   3.056  2.8801 -1.4206 -1.8893
 6864SOL     OW32050   2.252   2.824   8.537  0.9553 -0.1442  0.2606
 6864SOL    HW132051   2.272   2.795   8.448  0.1014 -0.3303  0.1305
 6864SOL    HW232052   2.336   2.803   8.577  1.7161  1.4125 -0.5355
 6865SOL     OW32053   1.275   3.948   5.291  0.2208 -0.0709 -0.7090
 6865SOL    HW132054   1.230   4.015   5.343  0.5385 -0.5736  0.2129
 6865SOL    HW232055   1.208   3.882   5.270 -1.9605  2.0271 -0.3881
 6866SOL     OW32056   3.308   1.586   7.726 -0.1945  0.1348  0.5357
 6866SOL    HW132057   3.359   1.628   7.657 -0.2722 -2.2089 -0.9020
 6866SOL    HW232058   3.339   1.634   7.803 -1.1677  1.1587  0.2982
 6867SOL     OW32059   0.307   4.655   5.980 -0.6562  0.0372  0.0218
 6867SOL    HW132060   0.346   0.006   5.931 -0.4889  0.9427  1.5007
 6867SOL    HW232061   0.322   4.679   6.071 -0.1054  1.2295 -0.3826
 6868SOL     OW32062   4.245   1.041   4.274 -0.1608 -0.6378 -0.4656
 6868SOL    HW132063   4.169   1.010   4.225 -0.6930 -1.7395  1.0545
 6868SOL    HW232064   4.227   1.133   4.295  1.7728 -0.8599  2.1566
 6869SOL     OW32065   3.815   0.861   4.440  0.6677  0.0649 -0.1031
 6869SOL    HW132066   3.843   0.770   4.449  0.5197  0.1692  1.2734
 6869SOL    HW232067   3.720   0.851   4.437  0.5951  1.1369 -1.8319
 6870SOL     OW32068   2.898   2.350   4.286 -0.2907  0.2033 -0.1579
 6870SOL    HW132069   2.963   2.280   4.287 -0.9308 -0.3894 -0.9826
 6870SOL    HW232070   2.892   2.355   4.381 -0.3607 -1.3720 -0.0911
 6871SOL     OW32071   0.340   3.513   9.228  0.1039 -0.0909 -0.2876
 6871SOL    HW132072   0.342   3.523   9.323  0.6494 -0.1678 -0.2889
 6871SOL    HW232073   0.267   3.451   9.228  0.3166 -0.3422  0.0820
 6872SOL     OW32074   0.713   2.434   1.780  0.4121 -0.0705 -0.1763
 6872SOL    HW132075   0.636   2.483   1.808  1.8046  2.2395 -0.3871
 6872SOL    HW232076   0.687   2.348   1.815  0.9751 -0.1950 -0.0645
 6873SOL     OW32077   1.516   3.063  11.575 -0.1556  0.1991 -0.3724
 6873SOL    HW132078   1.565   3.137  11.538  0.1114  1.4058  2.3994
 6873SOL    HW232079   1.574   2.992  11.548  0.9102  0.7621  0.4474
 6874SOL     OW32080   2.666   3.429   4.999 -0.0603 -0.5938 -0.1640
 6874SOL    HW132081   2.697   3.391   4.917  0.9854 -0.5257  0.1922
 6874SOL    HW232082   2.690   3.361   5.062  0.7505  1.2550  1.5436
 6875SOL     OW32083   0.333   0.156  11.922 -0.3663 -0.3550 -0.1952
 6875SOL    HW132084   0.408   0.213  11.938 -1.5051  1.1010  0.0308
 6875SOL    HW232085   0.312   0.175  11.830  0.2037 -0.4684 -0.3440
 6876SOL     OW32086   3.220   2.768  15.195 -0.3088  0.3058 -0.0396
 6876SOL    HW132087   3.205   2.806  15.109 -2.2645  0.9033  0.5795
 6876SOL    HW232088   3.152   2.811  15.247  0.7653 -0.2451  1.8418
 6877SOL     OW32089   1.243   2.012   9.502 -0.7405  0.3830  0.1407
 6877SOL    HW132090   1.243   2.067   9.580 -1.6002  0.7467 -0.1208
 6877SOL    HW232091   1.167   2.047   9.455  0.7434  0.8028 -1.9468
 6878SOL     OW32092   0.563   0.664  16.839  0.1139 -0.8164  0.7416
 6878SOL    HW132093   0.656   0.686  16.835  0.3875 -2.3200 -0.6717
 6878SOL    HW232094   0.531   0.725  16.772  0.2982 -1.2048  0.3031
 6879SOL     OW32095   1.487   0.001   4.725 -0.4598 -0.2920 -0.2598
 6879SOL    HW132096   1.446   4.685   4.804  2.6067 -2.1707  0.4723
 6879SOL    HW232097   1.566   0.042   4.761 -0.5575 -0.8369  0.5930
 6880SOL     OW32098   3.215   1.971   4.982  0.5196 -0.5720 -0.1044
 6880SOL    HW132099   3.280   1.903   4.999  1.2370 -0.1547 -1.1841
 6880SOL    HW232100   3.203   1.960   4.888  0.8720 -1.8409  0.0116
 6881SOL     OW32101   1.244   2.792   0.584  0.9214  0.0582  1.0312
 6881SOL    HW132102   1.253   2.823   0.494 -0.8752  0.8801  1.1232
 6881SOL    HW232103   1.319   2.831   0.629  0.0912  1.6047  1.0829
 6882SOL     OW32104   1.337   3.591   7.388  0.1706  0.6485 -0.0642
 6882SOL    HW132105   1.278   3.549   7.326 -1.1136  1.2886  0.7183
 6882SOL    HW232106   1.337   3.523   7.455  0.5593  0.2449 -0.4807
 6883SOL     OW32107   0.544   4.112   5.675 -0.1587 -0.3938  0.3584
 6883SOL    HW132108   0.550   4.200   5.639 -0.0102 -0.3406  0.5102
 6883SOL    HW232109   0.460   4.120   5.720 -0.0188 -0.2055  0.5865
 6884SOL     OW32110   2.444   1.695   0.738 -0.5296 -0.1211 -0.7319
 6884SOL    HW132111   2.348   1.699   0.730 -0.8671 -1.8961  2.2603
 6884SOL    HW232112   2.458   1.602   0.721 -0.8617 -0.4446  0.7631
 6885SOL     OW32113   2.081   2.049   9.971  0.4917  0.8315  0.6172
 6885SOL    HW132114   2.024   2.116  10.010  0.1220  0.8676  0.0053
 6885SOL    HW232115   2.163   2.094   9.994 -0.0599  1.4124  1.4716
 6886SOL     OW32116   3.955   0.177   4.808 -0.2926  0.2695  0.8291
 6886SOL    HW132117   3.880   0.222   4.767 -1.9797 -0.3850  3.1696
 6886SOL    HW232118   3.957   0.094   4.760 -2.1596  0.8933 -0.3359
 6887SOL     OW32119   4.604   1.236   7.032 -0.3503 -0.0230  0.3909
 6887SOL    HW132120   4.519   1.202   7.057 -0.0784 -0.6022  0.5338
 6887SOL    HW232121   4.603   1.204   6.941  1.9688 -1.0054  0.6976
 6888SOL     OW32122   2.508   0.004  15.694  0.0210  0.0173  0.3860
 6888SOL    HW132123   2.498   4.691  15.606 -0.6828 -1.6084  1.0938
 6888SOL    HW232124   2.602   4.716  15.710  0.0695  0.3298  0.2795
 6889SOL     OW32125   1.303   4.623   5.671 -0.2426 -0.7700  0.5443
 6889SOL    HW132126   1.239   4.653   5.736  0.3524 -0.1119  0.8357
 6889SOL    HW232127   1.382   4.614   5.725 -0.4498  0.7235  1.1102
 6890SOL     OW32128   0.672   4.123   2.769  1.1953 -0.2135  0.4025
 6890SOL    HW132129   0.666   4.029   2.749  0.6632  0.6463 -3.3529
 6890SOL    HW232130   0.766   4.135   2.761  1.0208  1.0511  0.3232
 6891SOL     OW32131   1.300   3.359   0.307  0.2945 -0.4373  0.5302
 6891SOL    HW132132   1.375   3.349   0.247 -0.0190 -2.4655  0.4463
 6891SOL    HW232133   1.228   3.362   0.243  0.1083  3.4594  0.9390
 6892SOL     OW32134   0.822   1.143   4.170 -0.1965 -0.0543 -0.3726
 6892SOL    HW132135   0.834   1.144   4.075 -2.3914  3.5530 -0.6310
 6892SOL    HW232136   0.782   1.057   4.178  0.6093 -0.4819 -0.9491
 6893SOL     OW32137   1.277   3.795  12.158  0.2985 -0.2292 -0.0974
 6893SOL    HW132138   1.265   3.889  12.164 -1.9051 -0.2900 -3.0458
 6893SOL    HW232139   1.334   3.799  12.081 -0.3398 -0.1221 -0.5673
 6894SOL     OW32140   0.972   1.880   4.719  0.0326  0.7396 -0.0643
 6894SOL    HW132141   0.877   1.880   4.704 -0.0108 -2.6249  0.3815
 6894SOL    HW232142   0.982   1.974   4.703 -1.7181  0.9286 -0.0557
 6895SOL     OW32143   2.424   3.952  15.579  0.3635 -0.3483  0.5245
 6895SOL    HW132144   2.496   3.971  15.639  2.4132 -2.0380 -1.4301
 6895SOL    HW232145   2.471   3.950  15.496 -2.3158 -1.1283 -0.9490
 6896SOL     OW32146   3.581   4.632  12.822  0.0909  0.0510  0.5209
 6896SOL    HW132147   3.592   4.587  12.739 -1.1732 -0.0786  0.4183
 6896SOL    HW232148   3.514   4.691  12.788 -1.2815 -0.1064  2.9432
 6897SOL     OW32149   3.273   0.997   1.032  0.0356 -0.3222  0.0935
 6897SOL    HW132150   3.242   1.012   1.121  1.2382  1.4747  0.1972
 6897SOL    HW232151   3.208   0.932   1.005 -0.3548 -0.3933  1.2184
 6898SOL     OW32152   3.973   3.499   7.665  0.5271 -0.2266 -0.2250
 6898SOL    HW132153   3.937   3.482   7.752  1.6145 -0.8863  0.0894
 6898SOL    HW232154   3.892   3.508   7.614 -0.6124  0.0500  1.5955
 6899SOL     OW32155   4.418   0.112   3.415  0.0998  0.6080  0.3208
 6899SOL    HW132156   4.452   0.200   3.401  0.0044  0.5554 -0.2530
 6899SOL    HW232157   4.464   0.056   3.352  0.4145  0.1246  0.9819
 6900SOL     OW32158   3.870   1.958  11.849  0.2459  0.4505 -0.3298
 6900SOL    HW132159   3.931   2.007  11.793  1.4736 -1.7331 -0.9471
 6900SOL    HW232160   3.882   2.006  11.931  1.1277 -0.3530  0.0155
 6901SOL     OW32161   3.174   3.296   4.916 -0.6515  0.0101  0.4783
 6901SOL    HW132162   3.196   3.279   5.008 -1.8070 -0.1282  0.7335
 6901SOL    HW232163   3.117   3.219   4.910 -0.2089 -0.2862  0.1136
 6902SOL     OW32164   4.324   1.105  14.746 -0.0390 -0.8464  0.0855
 6902SOL    HW132165   4.348   1.109  14.839  2.3978  2.1792 -0.6544
 6902SOL    HW232166   4.408   1.065  14.723  1.7197  1.9607  1.6238
 6903SOL     OW32167   2.841   3.761  16.284  0.3215  0.1199 -0.2272
 6903SOL    HW132168   2.755   3.796  16.303 -0.2798 -1.7019  0.4492
 6903SOL    HW232169   2.841   3.679  16.333  1.1566  0.7148  0.7614
 6904SOL     OW32170   0.100   3.780   1.259 -0.0947 -0.0638 -0.1579
 6904SOL    HW132171   0.105   3.824   1.344  2.1520  1.1221 -0.9072
 6904SOL    HW232172   0.028   3.821   1.212  0.1316  0.9577  0.3947
 6905SOL     OW32173   3.559   4.004  10.963  0.5066 -0.4990 -0.3613
 6905SOL    HW132174   3.570   3.946  11.039  0.8059 -2.9318 -2.2548
 6905SOL    HW232175   3.464   4.004  10.948  0.4045 -2.3631  0.1720
 6906SOL     OW32176   3.226   4.302   3.034  0.4682 -0.0532 -0.3153
 6906SOL    HW132177   3.263   4.268   2.953 -0.0953  2.5669 -1.6894
 6906SOL    HW232178   3.183   4.381   2.999  0.3755 -0.4826 -1.1644
 6907SOL     OW32179   0.017   3.758   0.564  0.4057  0.0345 -0.5390
 6907SOL    HW132180   4.698   3.845   0.556 -0.6602 -0.3541  0.4863
 6907SOL    HW232181   4.696   3.710   0.492  0.8505  0.4446 -1.0741
 6908SOL     OW32182   4.535   1.768   6.958 -0.3117 -0.0791  0.1360
 6908SOL    HW132183   4.509   1.691   7.009  0.3677 -0.0490  0.5466
 6908SOL    HW232184   4.583   1.732   6.884  0.6729  0.7213  0.3709
 6909SOL     OW32185   1.014   3.683   6.497  0.0147  0.0756 -0.4508
 6909SOL    HW132186   1.035   3.607   6.442 -0.8601 -0.2383 -0.3529
 6909SOL    HW232187   0.964   3.741   6.441  1.1218  2.5030  1.0891
 6910SOL     OW32188   1.105   2.683   6.497 -0.6900  0.0884  0.2551
 6910SOL    HW132189   1.024   2.664   6.544 -0.6865  0.3483  0.3657
 6910SOL    HW232190   1.174   2.637   6.545  1.4563  1.9630 -1.0224
 6911SOL     OW32191   4.702   1.095   7.670 -0.3376  0.0365 -0.2741
 6911SOL    HW132192   0.053   1.115   7.610 -0.9292 -1.4905 -1.4979
 6911SOL    HW232193   4.631   1.074   7.609 -0.2815 -1.2796  0.1239
 6912SOL     OW32194   1.084   2.296  14.146 -0.3556 -0.3360 -0.4097
 6912SOL    HW132195   1.041   2.212  14.133 -4.3913  1.7221 -0.5249
 6912SOL    HW232196   1.012   2.358  14.157 -0.6447 -0.2538 -2.8384
 6913SOL     OW32197   3.042   0.765   5.023  0.0359  0.0572  0.6280
 6913SOL    HW132198   3.111   0.733   5.082 -1.9737 -2.0877  1.8329
 6913SOL    HW232199   3.010   0.820   5.095 -1.1302  0.9115 -0.5473
 6914SOL     OW32200   1.068   1.754   2.229  0.2866 -0.8819  0.2232
 6914SOL    HW132201   0.987   1.792   2.262  0.9981  0.9591 -0.1511
 6914SOL    HW232202   1.131   1.799   2.285 -1.3565 -0.6723  1.9099
 6915SOL     OW32203   1.459   0.680  10.669  0.1394 -0.1279  0.0401
 6915SOL    HW132204   1.408   0.732  10.607 -1.8481 -1.7372  0.3490
 6915SOL    HW232205   1.501   0.753  10.715  0.2557  0.7043 -1.3824
 6916SOL     OW32206   3.101   2.412   5.488  0.1020 -0.2616 -0.1340
 6916SOL    HW132207   3.019   2.386   5.532  2.0879 -1.1185  3.0852
 6916SOL    HW232208   3.078   2.451   5.404 -2.5960 -1.0427  0.2218
 6917SOL     OW32209   0.670   4.050   8.379  0.3863 -0.9991 -0.1658
 6917SOL    HW132210   0.726   4.092   8.313  0.1643 -1.0031 -0.3566
 6917SOL    HW232211   0.706   3.963   8.391  1.2754 -0.9764 -2.5238
 6918SOL     OW32212   2.400   1.877  13.807  0.0079 -0.8950  0.1724
 6918SOL    HW132213   2.444   1.797  13.834  2.7130  0.7330  0.5789
 6918SOL    HW232214   2.362   1.897  13.892  1.1980  0.4634  0.3916
 6919SOL     OW32215   1.270   4.700   2.482 -0.4402 -0.1658 -0.3145
 6919SOL    HW132216   1.248   4.711   2.390  0.8212  1.4777 -0.4053
 6919SOL    HW232217   1.358   4.670   2.457 -0.2126 -2.0743  2.6690
 6920SOL     OW32218   0.845   2.418   4.067  0.3134  0.3994  0.3187
 6920SOL    HW132219   0.818   2.494   4.016 -0.2298  0.4698  0.7022
 6920SOL    HW232220   0.782   2.357   4.028 -0.8187  1.4413  0.5085
 6921SOL     OW32221   4.368   0.061   1.150 -0.1273  0.2850  0.3493
 6921SOL    HW132222   4.291   0.052   1.094 -0.9467  3.1094  1.0602
 6921SOL    HW232223   4.335   0.063   1.240 -0.0226  0.2359  0.3894
 6922SOL     OW32224   3.661   3.449  15.528  0.3058  0.0768  0.1320
 6922SOL    HW132225   3.670   3.543  15.547  1.1400 -0.1004  0.6283
 6922SOL    HW232226   3.568   3.435  15.545  0.3113 -0.6918 -0.4699
 6923SOL     OW32227   0.060   2.209   5.752 -0.3489  0.7635  0.1224
 6923SOL    HW132228   0.012   2.127   5.765 -3.3973  2.3704 -0.8272
 6923SOL    HW232229   0.136   2.183   5.804 -0.9127  2.7715  1.9744
 6924SOL     OW32230   2.840   2.032   6.189 -0.0594  0.0856 -0.7058
 6924SOL    HW132231   2.853   1.939   6.167 -0.3611 -0.4287  1.2625
 6924SOL    HW232232   2.812   2.064   6.104 -1.1257  1.3528  0.1163
 6925SOL     OW32233   0.454   2.755   5.028  0.3605  0.2750 -0.4279
 6925SOL    HW132234   0.377   2.795   4.988  0.0749  0.1932  0.0430
 6925SOL    HW232235   0.472   2.813   5.102 -0.1956 -0.0329 -0.0466
 6926SOL     OW32236   1.649   3.825   4.069  0.8449  0.4060  0.0642
 6926SOL    HW132237   1.554   3.818   4.054  0.9932  1.3106 -1.2664
 6926SOL    HW232238   1.666   3.731   4.058  3.1748  0.5952  2.2213
 6927SOL     OW32239   2.126   2.418   6.054 -0.3404 -0.1491 -0.1412
 6927SOL    HW132240   2.117   2.440   6.147 -2.2200  0.2332 -0.4205
 6927SOL    HW232241   2.044   2.437   6.009 -1.0774  0.8773  1.6542
 6928SOL     OW32242   3.797   2.074   2.692 -0.6886 -0.5862 -0.2659
 6928SOL    HW132243   3.842   2.107   2.615  1.5282 -2.4935  0.1914
 6928SOL    HW232244   3.704   2.073   2.669 -0.7325  1.4930 -0.1792
 6929SOL     OW32245   2.706   1.121   1.186 -0.0095  0.6084 -0.2264
 6929SOL    HW132246   2.612   1.135   1.180 -0.1925 -0.6814 -0.3842
 6929SOL    HW232247   2.723   1.032   1.155  0.0707 -0.1908  2.1120
 6930SOL     OW32248   3.005   4.275  17.445  0.5479  0.6497  0.0026
 6930SOL    HW132249   3.100   4.266  17.438  0.2879 -2.5635  0.7137
 6930SOL    HW232250   2.987   4.365  17.418 -1.8682  0.2654  0.3634
 6931SOL     OW32251   3.901   2.294   8.426 -0.5985 -0.0375  0.1703
 6931SOL    HW132252   3.965   2.341   8.374 -1.2206 -0.5154 -1.0198
 6931SOL    HW232253   3.966   2.250   8.482  2.2262  1.3017 -2.0565
 6932SOL     OW32254   1.741   0.107   4.760 -0.1641 -0.0506  0.5818
 6932SOL    HW132255   1.817   0.056   4.731  1.0026  1.4310  1.0259
 6932SOL    HW232256   1.759   0.186   4.710 -2.0989 -0.5713 -0.9284
 6933SOL     OW32257   2.755   2.224  16.420  0.0807  0.1430 -0.5207
 6933SOL    HW132258   2.746   2.247  16.513 -0.7962  3.6338 -1.4855
 6933SOL    HW232259   2.834   2.265  16.386  1.7055 -2.2029  0.4436
 6934SOL     OW32260   1.010   4.538   7.551 -0.2098  0.1331  0.2908
 6934SOL    HW132261   0.937   4.584   7.591 -0.1490  0.4806  0.0008
 6934SOL    HW232262   1.061   4.616   7.527 -0.2307  0.1314  0.2409
 6935SOL     OW32263   0.477   0.723  15.473  0.0796 -0.1822  0.5957
 6935SOL    HW132264   0.394   0.735  15.426  0.2520 -2.0738 -0.1808
 6935SOL    HW232265   0.521   0.662  15.414 -1.2221 -0.0310 -0.5509
 6936SOL     OW32266   1.031   0.482   3.549 -0.2048 -0.2364  0.4430
 6936SOL    HW132267   0.948   0.507   3.590 -1.0893 -0.7884 -1.0161
 6936SOL    HW232268   1.036   0.396   3.591 -2.6218  0.1258  1.4605
 6937SOL     OW32269   0.006   2.464   3.396 -0.8153  0.0552  0.0018
 6937SOL    HW132270   4.678   2.384   3.417 -0.1496 -0.6608 -1.1799
 6937SOL    HW232271   4.674   2.521   3.341  2.3224 -1.2990 -4.3695
 6938SOL     OW32272   4.450   3.183   6.455 -0.2238 -0.4903 -0.3863
 6938SOL    HW132273   4.495   3.104   6.427  0.4034  0.4759 -2.0865
 6938SOL    HW232274   4.521   3.247   6.452  2.6765 -3.6978  0.5073
 6939SOL     OW32275   3.799   3.466   0.721  0.4924 -0.3721  0.0174
 6939SOL    HW132276   3.784   3.549   0.675 -1.5136 -0.7168  0.0747
 6939SOL    HW232277   3.895   3.467   0.715  0.4319 -1.9968 -1.0646
 6940SOL     OW32278   4.096   2.735   1.721  0.1020  0.0789  0.1838
 6940SOL    HW132279   4.071   2.676   1.650 -1.0978  0.5605  0.2135
 6940SOL    HW232280   4.159   2.688   1.775 -1.4342 -2.4173 -0.2269
 6941SOL     OW32281   1.177   2.987   2.764 -0.0162  0.2668 -0.0011
 6941SOL    HW132282   1.179   2.893   2.778 -1.7732  0.3711  0.8691
 6941SOL    HW232283   1.260   3.028   2.789  0.6423 -1.5083  0.7030
 6942SOL     OW32284   2.170   3.916   4.331 -0.2187  0.4952 -0.6901
 6942SOL    HW132285   2.089   3.961   4.355 -0.1148  0.7223 -0.7642
 6942SOL    HW232286   2.222   3.993   4.309 -0.3279  1.3997  2.2261
 6943SOL     OW32287   3.647   0.279   8.750 -0.0660  0.2808 -0.2653
 6943SOL    HW132288   3.571   0.328   8.720 -0.1306  1.2486  1.4750
 6943SOL    HW232289   3.707   0.307   8.681  3.2008 -2.1284  1.5825
 6944SOL     OW32290   2.048   2.386   1.437 -0.4104  0.0687 -0.3739
 6944SOL    HW132291   2.136   2.421   1.422 -0.1383 -1.0129 -1.2264
 6944SOL    HW232292   2.058   2.380   1.532  0.3086 -0.7957 -0.5038
 6945SOL     OW32293   0.452   0.530  10.307 -0.0372  0.2746 -0.5430
 6945SOL    HW132294   0.434   0.611  10.354  0.9917  1.5428 -2.3529
 6945SOL    HW232295   0.533   0.549  10.259  0.0488  2.4686  0.5010
 6946SOL     OW32296   1.435   2.725   9.721 -0.2404 -0.2129 -0.1569
 6946SOL    HW132297   1.529   2.708   9.724 -0.0545  0.7322 -0.6490
 6946SOL    HW232298   1.426   2.765   9.635 -0.6894  1.7871  0.8197
 6947SOL     OW32299   0.703   2.348   3.031 -0.4585 -0.5060 -0.0126
 6947SOL    HW132300   0.702   2.253   3.042 -1.5623 -0.2525  2.1157
 6947SOL    HW232301   0.798   2.356   3.037 -0.4245 -2.3323  2.0150
 6948SOL     OW32302   2.036   3.508   9.396  0.1966 -0.6722  0.1069
 6948SOL    HW132303   1.989   3.425   9.398 -2.4935  0.7713 -2.6783
 6948SOL    HW232304   2.120   3.496   9.441  0.8096  0.8039 -0.6124
 6949SOL     OW32305   0.678   4.005  15.267 -0.3917  0.0680  0.8605
 6949SOL    HW132306   0.718   4.087  15.295 -0.1913  0.4316 -0.4680
 6949SOL    HW232307   0.750   3.943  15.259  0.1787  0.8900 -0.3435
 6950SOL     OW32308   1.064   2.947   3.631  0.3680 -0.4185  0.2201
 6950SOL    HW132309   1.111   3.028   3.614  1.3309 -0.6679  1.6790
 6950SOL    HW232310   1.016   2.939   3.549 -0.2378 -0.4756  0.5766
 6951SOL     OW32311   4.517   1.655   3.992  0.4602 -0.3942  0.7416
 6951SOL    HW132312   4.562   1.582   4.034 -1.9479 -2.2625  0.0964
 6951SOL    HW232313   4.525   1.633   3.899  3.7513  1.5536  0.5883
 6952SOL     OW32314   0.347   2.194   9.759  0.8576  0.5443 -0.2039
 6952SOL    HW132315   0.401   2.133   9.709  1.0199 -0.1524  0.8430
 6952SOL    HW232316   0.371   2.281   9.725  0.3065  0.8359  0.1493
 6953SOL     OW32317   0.844   2.926   1.131  0.4053 -0.0184 -0.2142
 6953SOL    HW132318   0.935   2.954   1.128 -0.0607  1.7013  1.2506
 6953SOL    HW232319   0.819   2.885   1.048 -0.8424  3.9467 -1.7628
 6954SOL     OW32320   0.560   1.741  16.404 -0.1907  0.2094 -0.5004
 6954SOL    HW132321   0.465   1.729  16.404 -0.4233  2.2165 -2.3617
 6954SOL    HW232322   0.568   1.808  16.472 -2.1671 -0.0595 -0.0020
 6955SOL     OW32323   1.789   0.121   1.903  0.5183  0.3650 -0.5408
 6955SOL    HW132324   1.812   0.179   1.975 -0.6595 -0.7857  0.7447
 6955SOL    HW232325   1.769   0.037   1.944 -1.5905  1.9354  1.5764
 6956SOL     OW32326   3.306   3.565   9.254 -0.0550 -0.0116 -0.4193
 6956SOL    HW132327   3.252   3.610   9.190  0.5343  1.1930 -0.0629
 6956SOL    HW232328   3.376   3.630   9.256  0.8473 -0.9894  0.1426
 6957SOL     OW32329   0.053   4.686   2.034 -0.0285  0.7347  0.1753
 6957SOL    HW132330   0.148   4.698   2.030  0.0254  0.6700  1.3490
 6957SOL    HW232331   0.025   0.038   2.090  1.4456  0.5777  1.1218
 6958SOL     OW32332   1.343   3.275  15.969 -0.4254  0.0185  0.5412
 6958SOL    HW132333   1.424   3.259  16.017 -0.6699 -2.4313  0.1734
 6958SOL    HW232334   1.331   3.181  15.957 -0.0061 -0.2036  1.8703
 6959SOL     OW32335   3.120   3.381  11.932 -0.3554 -0.2688  0.2071
 6959SOL    HW132336   3.127   3.423  11.846 -2.3438  0.2209  0.2771
 6959SOL    HW232337   3.069   3.303  11.908 -1.8138  0.8372 -0.2849
 6960SOL     OW32338   2.994   2.636   6.877  0.5882 -0.3516  0.0659
 6960SOL    HW132339   3.012   2.601   6.964  0.3158 -1.9366 -0.5200
 6960SOL    HW232340   3.051   2.713   6.883 -0.9176  0.8124 -0.4884
 6961SOL     OW32341   3.710   0.693   5.652  0.0600  0.4157  0.3641
 6961SOL    HW132342   3.712   0.724   5.742  1.7711  1.8943 -0.1813
 6961SOL    HW232343   3.630   0.640   5.652  0.5282 -0.3053 -0.2616
 6962SOL     OW32344   1.665   2.303  10.971 -0.1472 -0.8043  0.1178
 6962SOL    HW132345   1.754   2.308  11.004 -0.1956 -3.1506  0.5570
 6962SOL    HW232346   1.655   2.383  10.919  0.3977 -0.0587  1.1563
 6963SOL     OW32347   3.339   3.373   2.566  0.4935 -0.2930 -0.5550
 6963SOL    HW132348   3.377   3.332   2.645 -0.0715  1.9266  0.8664
 6963SOL    HW232349   3.408   3.434   2.539  1.3799 -1.2329 -0.4317
 6964SOL     OW32350   2.246   3.521   5.265 -0.5896  0.1275 -0.7895
 6964SOL    HW132351   2.298   3.563   5.333 -0.0895 -1.1061 -0.4128
 6964SOL    HW232352   2.317   3.515   5.201  1.6749  2.5489  1.4834
 6965SOL     OW32353   3.569   4.418   0.630  0.1369  0.2734  0.0705
 6965SOL    HW132354   3.641   4.469   0.592 -0.1255  0.0556 -0.7079
 6965SOL    HW232355   3.607   4.332   0.645  1.8483  0.5509 -2.6979
 6966SOL     OW32356   3.918   1.830   5.268 -0.5234  0.3648 -0.0197
 6966SOL    HW132357   3.928   1.783   5.351  0.2259 -0.1828 -0.4262
 6966SOL    HW232358   3.879   1.915   5.291 -0.7477  0.3577 -0.3805
 6967SOL     OW32359   1.096   1.203  10.437  0.3760  0.1677 -0.0110
 6967SOL    HW132360   1.007   1.186  10.469  1.4698 -3.1773  1.2375
 6967SOL    HW232361   1.132   1.187  10.524 -0.2617 -1.1838  0.0064
 6968SOL     OW32362   3.884   1.099   9.271 -0.3728  0.3101  0.5964
 6968SOL    HW132363   3.940   1.070   9.343  1.4115  0.0675 -0.8895
 6968SOL    HW232364   3.941   1.158   9.222 -0.9094  0.7909  0.5597
 6969SOL     OW32365   3.800   1.471  16.115 -0.3284 -0.3956  0.1126
 6969SOL    HW132366   3.780   1.562  16.138 -2.2912 -1.0603  1.0095
 6969SOL    HW232367   3.775   1.476  16.023 -2.8011 -4.1839  0.5976
 6970SOL     OW32368   2.803   4.303   5.403 -0.1995  0.4752  0.6706
 6970SOL    HW132369   2.898   4.296   5.401 -0.2150 -0.3073  2.5026
 6970SOL    HW232370   2.792   4.394   5.374  2.3486  0.2748 -0.8556
 6971SOL     OW32371   2.902   3.192   6.203  0.3980  0.6172  0.0869
 6971SOL    HW132372   2.818   3.238   6.202 -0.0602 -0.2158 -0.5249
 6971SOL    HW232373   2.877   3.108   6.164 -0.2007  0.5089  0.6978
 6972SOL     OW32374   2.889   3.754   5.989  0.0535 -0.1837 -0.4863
 6972SOL    HW132375   2.876   3.836   5.942  0.3170  0.4612  0.5551
 6972SOL    HW232376   2.984   3.742   5.984  0.0912 -0.3188  0.5389
 6973SOL     OW32377   3.049   0.242   9.834  0.0452  0.1200  0.1533
 6973SOL    HW132378   3.042   0.336   9.819  0.8900 -0.2038 -2.3039
 6973SOL    HW232379   3.035   0.242   9.928 -2.6030  1.5202 -0.2554
 6974SOL     OW32380   3.771   4.207   1.150  0.1066 -0.0138 -0.2339
 6974SOL    HW132381   3.688   4.254   1.144 -1.0127 -1.9815  0.1686
 6974SOL    HW232382   3.748   4.118   1.126  0.0378  0.1842 -0.9156
 6975SOL     OW32383   3.595   2.831   2.544 -0.3809  0.7202 -0.0249
 6975SOL    HW132384   3.561   2.909   2.502  0.2911  0.8845 -0.2632
 6975SOL    HW232385   3.650   2.801   2.472 -0.5448 -2.3271  1.1001
 6976SOL     OW32386   0.318   2.625   2.334 -0.7185 -0.5966  0.0995
 6976SOL    HW132387   0.317   2.534   2.305 -1.9950  0.3481 -2.8454
 6976SOL    HW232388   0.412   2.644   2.329 -0.7316 -0.6219 -0.2293
 6977SOL     OW32389   3.468   3.255   6.832  0.1676 -1.1949 -0.0095
 6977SOL    HW132390   3.464   3.172   6.784 -2.9634 -0.6259 -0.7306
 6977SOL    HW232391   3.476   3.211   6.917  1.7345 -2.6582 -0.9167
 6978SOL     OW32392   0.855   3.724   5.682  0.4410  0.0760 -0.3864
 6978SOL    HW132393   0.845   3.653   5.745  2.3818  1.1312  1.1318
 6978SOL    HW232394   0.767   3.761   5.679  0.1609 -0.7630 -3.0049
 6979SOL     OW32395   0.082   4.216   7.970 -0.3004 -0.2925  0.2837
 6979SOL    HW132396   0.156   4.240   7.915  0.9224 -2.3403  1.0205
 6979SOL    HW232397   0.021   4.199   7.898  0.2985 -0.5365 -0.1600
 6980SOL     OW32398   2.810   2.643  14.323  0.0621 -0.0772  0.1714
 6980SOL    HW132399   2.729   2.633  14.373 -0.2163 -1.0025 -0.4598
 6980SOL    HW232400   2.799   2.576  14.256  0.4778  1.4895 -1.4685
 6981SOL     OW32401   2.891   1.915   7.210  0.5106  0.3514  0.6234
 6981SOL    HW132402   2.911   1.958   7.293  1.8738  1.1349 -0.1155
 6981SOL    HW232403   2.843   1.986   7.166  0.8030 -0.2607 -0.6704
 6982SOL     OW32404   2.764   0.054   8.919 -0.0365  0.4166 -0.0462
 6982SOL    HW132405   2.820   4.697   8.913 -0.1805  0.3689 -0.7781
 6982SOL    HW232406   2.730   0.053   8.829  1.7702  0.4074 -0.7419
 6983SOL     OW32407   3.949   0.318   5.332  0.1001  0.0160 -0.4563
 6983SOL    HW132408   3.908   0.381   5.392  0.5879 -0.5728  0.4865
 6983SOL    HW232409   3.950   0.242   5.390 -0.0011  1.1077  0.9831
 6984SOL     OW32410   1.492   0.927   6.965  0.1647 -0.2026 -0.0270
 6984SOL    HW132411   1.472   0.974   7.047  0.5900  1.6400 -0.9833
 6984SOL    HW232412   1.429   0.954   6.898  0.9265 -1.0443 -1.0559
 6985SOL     OW32413   4.181   2.860   3.642  0.4209 -0.2636 -0.1588
 6985SOL    HW132414   4.231   2.812   3.708 -0.3421  0.5645  1.0144
 6985SOL    HW232415   4.244   2.927   3.616 -0.5481  0.0776 -1.6314
 6986SOL     OW32416   1.502   2.080   0.118 -0.0451 -0.3762  0.2440
 6986SOL    HW132417   1.526   1.988   0.114 -0.9628 -0.6658  1.3421
 6986SOL    HW232418   1.450   2.099   0.039  1.3617 -0.7011 -0.7482
 6987SOL     OW32419   3.255   0.722   1.344  0.4634 -0.0358  0.4911
 6987SOL    HW132420   3.299   0.732   1.428 -0.0753 -0.9440  0.8742
 6987SOL    HW232421   3.326   0.761   1.293  1.1912 -1.2876  0.5726
 6988SOL     OW32422   2.531   4.133   5.735 -0.2951 -0.2574  0.0402
 6988SOL    HW132423   2.584   4.078   5.677 -0.4209 -1.5305  1.1526
 6988SOL    HW232424   2.512   4.203   5.672  2.5725 -0.6854 -1.2973
 6989SOL     OW32425   0.548   0.527   5.277  0.2851 -0.4378 -0.2090
 6989SOL    HW132426   0.556   0.543   5.183  2.0965  0.1641  0.0532
 6989SOL    HW232427   0.626   0.570   5.310 -0.7392 -0.3818  2.1484
 6990SOL     OW32428   0.459   1.168   4.816  0.4166 -0.0365 -0.8799
 6990SOL    HW132429   0.509   1.181   4.735  1.9265 -1.9102 -0.2382
 6990SOL    HW232430   0.372   1.177   4.777  0.4303  1.2819 -0.6104
 6991SOL     OW32431   4.291   2.740   5.983  0.1988  0.3911  0.1432
 6991SOL    HW132432   4.318   2.794   6.057  0.4243 -2.5730  2.2187
 6991SOL    HW232433   4.345   2.666   6.009 -0.4265  0.4370  1.5701
 6992SOL     OW32434   0.833   3.361  14.526 -0.4436  0.8938 -0.1802
 6992SOL    HW132435   0.780   3.339  14.450 -0.6663 -1.1888  0.5865
 6992SOL    HW232436   0.875   3.276  14.530 -1.4605  0.4504  1.1198
 6993SOL     OW32437   2.687   0.789   2.559 -0.2034  0.0680  0.3157
 6993SOL    HW132438   2.707   0.874   2.519 -1.1917  0.0637 -0.1953
 6993SOL    HW232439   2.727   0.729   2.496 -0.3660  0.4904 -0.1964
 6994SOL     OW32440   3.860   3.756   0.601  0.0224  0.0935 -0.2385
 6994SOL    HW132441   3.942   3.720   0.567 -0.3828 -0.6454 -0.4434
 6994SOL    HW232442   3.811   3.770   0.520  0.1748  0.9252 -0.1810
 6995SOL     OW32443   4.698   1.596   7.754 -0.5153  0.9811 -0.5795
 6995SOL    HW132444   4.654   1.517   7.785 -0.6887  0.9915 -0.7925
 6995SOL    HW232445   0.011   1.563   7.671 -2.8070  0.1359 -1.1866
 6996SOL     OW32446   2.650   0.172   2.217  0.1865 -0.1967 -0.0526
 6996SOL    HW132447   2.746   0.180   2.223  0.2646 -0.4178 -0.9490
 6996SOL    HW232448   2.631   0.114   2.290 -2.3957  0.4210 -0.2351
 6997SOL     OW32449   1.719   1.482  17.617  0.1956  0.2213  0.2269
 6997SOL    HW132450   1.627   1.473  17.641 -0.3250 -1.1911 -2.2527
 6997SOL    HW232451   1.749   1.507   0.018 -1.4473  0.9339  0.5933
 6998SOL     OW32452   2.549   2.478  13.225 -0.3436  0.5318  0.1692
 6998SOL    HW132453   2.610   2.496  13.153 -0.0195 -0.5461  0.1680
 6998SOL    HW232454   2.512   2.565  13.238 -1.6696 -0.2821  1.8108
 6999SOL     OW32455   0.103   1.157  17.100  0.3360  0.6189 -0.2593
 6999SOL    HW132456   0.089   1.063  17.089  1.4670  0.3206  0.9289
 6999SOL    HW232457   0.022   1.185  17.058 -0.5046 -1.7653 -0.2175
 7000SOL     OW32458   1.880   0.187   2.350  0.3883  0.0752 -0.0441
 7000SOL    HW132459   1.970   0.206   2.376 -0.1189 -0.4710  2.1218
 7000SOL    HW232460   1.886   0.222   2.261 -1.6426  1.6800  0.4553
 7001SOL     OW32461   0.822   0.323   7.446  0.0113 -0.2387 -0.1915
 7001SOL    HW132462   0.874   0.282   7.516 -0.2585 -1.4845 -0.7212
 7001SOL    HW232463   0.812   0.410   7.485  2.2553  0.0624 -0.2825
 7002SOL     OW32464   1.664   2.925  15.403 -0.2533 -0.2976 -0.1526
 7002SOL    HW132465   1.631   2.841  15.435  0.6239 -0.4765  0.3094
 7002SOL    HW232466   1.720   2.947  15.478  1.1572 -0.2464 -1.2197
 7003SOL     OW32467   0.072   3.455  14.119  0.1035  0.3593 -0.6641
 7003SOL    HW132468   0.086   3.360  14.116 -0.3802  0.3191 -1.6490
 7003SOL    HW232469   0.125   3.476  14.195  0.9968 -1.2634 -0.8292
 7004SOL     OW32470   2.482   3.268  15.872 -0.1207 -0.0370 -0.2350
 7004SOL    HW132471   2.475   3.298  15.781 -0.7161  0.1841 -0.1125
 7004SOL    HW232472   2.414   3.321  15.913  0.4687  0.5511 -0.0080
 7005SOL     OW32473   0.192   0.114  13.452  0.5651  0.3636  0.1920
 7005SOL    HW132474   0.143   0.178  13.401 -0.6087 -0.9145 -0.2921
 7005SOL    HW232475   0.132   0.080  13.518 -0.9855 -2.9076 -2.8638
 7006SOL     OW32476   2.139   1.118   7.512 -0.7696  0.0403 -0.5933
 7006SOL    HW132477   2.143   1.092   7.604 -0.2426  1.5981 -0.1757
 7006SOL    HW232478   2.127   1.031   7.474 -1.9508  0.2495 -0.6935
 7007SOL     OW32479   4.584   4.440   1.855  0.0101  0.0851  0.3843
 7007SOL    HW132480   4.541   4.525   1.866  1.1219  0.5488  1.0965
 7007SOL    HW232481   4.515   4.390   1.810 -1.3066  1.3968  0.9264
 7008SOL     OW32482   1.044   2.164   5.121  0.3304  0.0563  0.6292
 7008SOL    HW132483   1.132   2.125   5.126  1.2242  1.6223 -2.8994
 7008SOL    HW232484   1.063   2.256   5.105  0.1765  0.3210  2.0103
 7009SOL     OW32485   4.375   1.339   2.136 -0.6367 -0.7300  0.7704
 7009SOL    HW132486   4.316   1.410   2.110  2.6178  2.3574  1.7532
 7009SOL    HW232487   4.319   1.291   2.197 -4.7081  0.7495 -1.7823
 7010SOL     OW32488   1.898   3.170   4.529  0.3926 -0.0359  0.5072
 7010SOL    HW132489   1.846   3.090   4.536  0.4346 -0.1127 -0.0978
 7010SOL    HW232490   1.937   3.175   4.616 -1.2732 -2.5947  1.4002
 7011SOL     OW32491   3.097   4.291   1.376 -0.3353  0.2646  0.8947
 7011SOL    HW132492   3.035   4.225   1.405 -0.6813  0.1457 -0.1025
 7011SOL    HW232493   3.173   4.287   1.433 -1.6577 -0.3554  2.6323
 7012SOL     OW32494   2.280   4.077   5.516 -0.1516  0.2412  0.3081
 7012SOL    HW132495   2.194   4.085   5.557 -0.9166  0.7165 -1.3745
 7012SOL    HW232496   2.308   4.164   5.544 -0.4181  0.1396  0.8896
 7013SOL     OW32497   2.897   1.109  12.426 -0.6345  0.0890  0.1686
 7013SOL    HW132498   2.895   1.138  12.335  2.9825  1.3497  0.4613
 7013SOL    HW232499   2.888   1.195  12.468 -1.6475 -0.7477  1.6335
 7014SOL     OW32500   4.626   3.904  11.675  0.5697  0.0528 -0.2563
 7014SOL    HW132501   4.531   3.920  11.677  0.9011  2.1269 -1.2701
 7014SOL    HW232502   4.656   3.976  11.730  0.7042  0.2605 -0.6003
 7015SOL     OW32503   3.453   1.129   5.915 -0.0921 -0.2495  0.0669
 7015SOL    HW132504   3.525   1.172   5.869  0.2275  0.5629  1.3423
 7015SOL    HW232505   3.455   1.174   5.999  0.1955  2.8413 -1.5918
 7016SOL     OW32506   0.260   3.721   6.479  0.2467  0.5000 -0.5367
 7016SOL    HW132507   0.167   3.700   6.468  0.0009  1.4456 -0.2509
 7016SOL    HW232508   0.285   3.640   6.522 -0.6599  1.3617  1.5771
 7017SOL     OW32509   0.450   2.133   7.952 -0.5284  0.2998 -0.0320
 7017SOL    HW132510   0.420   2.131   8.043 -0.3274 -2.1008 -0.0095
 7017SOL    HW232511   0.408   2.054   7.918  0.5633  0.7467 -2.4127
 7018SOL     OW32512   0.806   4.189   8.935  0.4152 -0.0600  0.1197
 7018SOL    HW132513   0.862   4.120   8.899 -0.4929 -0.0170 -1.3932
 7018SOL    HW232514   0.738   4.127   8.962 -0.5101 -0.0578 -2.1822
 7019SOL     OW32515   1.851   2.166   0.198 -0.6158 -0.4505  0.1019
 7019SOL    HW132516   1.933   2.206   0.227 -0.0072 -1.8771  0.3468
 7019SOL    HW232517   1.855   2.077   0.234 -0.8838 -0.0988  1.0044
 7020SOL     OW32518   0.355   1.170   4.357  0.9849 -0.4602  0.7884
 7020SOL    HW132519   0.290   1.139   4.294  0.3713  0.0628  1.1743
 7020SOL    HW232520   0.413   1.224   4.303  0.7888 -1.7749 -0.7299
 7021SOL     OW32521   2.892   4.122   6.634 -0.0252 -0.7104  0.1531
 7021SOL    HW132522   2.908   4.031   6.656 -0.1770 -0.8907 -0.4614
 7021SOL    HW232523   2.973   4.145   6.588 -0.5665 -1.2589 -1.0924
 7022SOL     OW32524   0.950   0.909  17.678 -0.3295  0.2435 -0.1257
 7022SOL    HW132525   0.896   0.894   0.071 -1.7448  0.7710 -1.0053
 7022SOL    HW232526   0.945   0.818  17.648 -2.3937  0.0712  0.7270
 7023SOL     OW32527   3.441   1.408  14.642 -0.5123 -0.0536 -0.3205
 7023SOL    HW132528   3.510   1.423  14.577 -0.3973 -1.4041 -0.5103
 7023SOL    HW232529   3.375   1.473  14.618 -0.8375  0.1183  1.0241
 7024SOL     OW32530   2.022   4.151   2.243 -0.1117  0.4116  0.5404
 7024SOL    HW132531   1.998   4.080   2.184  0.7561  1.1040 -0.6386
 7024SOL    HW232532   2.075   4.109   2.311 -0.9896  0.5658  1.3192
 7025SOL     OW32533   3.475   4.010   1.429 -0.2651 -0.0525 -0.0712
 7025SOL    HW132534   3.439   3.924   1.451  0.2550  0.0575  1.2176
 7025SOL    HW232535   3.412   4.065   1.476  1.6559  2.6462 -0.6244
 7026SOL     OW32536   0.217   2.268   8.574 -0.0016 -0.2111 -0.3551
 7026SOL    HW132537   0.177   2.286   8.489 -1.7980 -2.9877 -0.0867
 7026SOL    HW232538   0.139   2.262   8.630  0.6316  2.1316  0.7932
 7027SOL     OW32539   3.298   1.948   5.294  0.2565 -0.4603 -0.3852
 7027SOL    HW132540   3.254   1.985   5.370  0.7069  0.2212 -0.4585
 7027SOL    HW232541   3.219   1.918   5.250 -0.4282  1.9074 -0.7696
 7028SOL     OW32542   4.027   1.101  16.243  0.3629  0.1414 -0.8952
 7028SOL    HW132543   4.109   1.075  16.200  0.3885 -1.4947  0.1372
 7028SOL    HW232544   4.048   1.171  16.305 -0.8342 -1.8655  1.8112
 7029SOL     OW32545   4.255   1.994  13.993 -0.5396 -0.1711 -0.3386
 7029SOL    HW132546   4.255   1.918  14.051 -0.3459  2.0711  2.6244
 7029SOL    HW232547   4.327   2.042  14.033 -0.5023  0.8997 -1.7043
 7030SOL     OW32548   4.606   3.132  13.166 -0.3983  0.1065 -0.0475
 7030SOL    HW132549   4.679   3.164  13.220  0.1140 -0.5025 -0.3713
 7030SOL    HW232550   4.544   3.194  13.204 -1.3159 -1.0333  0.2981
 7031SOL     OW32551   3.163   2.161   2.528  0.1707 -0.1266 -0.3369
 7031SOL    HW132552   3.210   2.228   2.577 -3.1775  0.2879  2.3377
 7031SOL    HW232553   3.211   2.154   2.446  1.3144  0.6722  0.2605
 7032SOL     OW32554   3.750   4.227   4.535  0.2079  0.6672 -0.2216
 7032SOL    HW132555   3.690   4.252   4.605  1.5269 -0.6136  1.3795
 7032SOL    HW232556   3.809   4.170   4.585  0.4854  1.7507  0.6836
 7033SOL     OW32557   0.317   1.746  12.189 -0.3391  0.4071  0.1032
 7033SOL    HW132558   0.334   1.691  12.113  0.0118  0.1252  0.3858
 7033SOL    HW232559   0.223   1.762  12.196 -0.6689 -2.4924  2.1820
 7034SOL     OW32560   1.433   1.543   8.563  0.3401  0.5005 -0.0503
 7034SOL    HW132561   1.442   1.452   8.592  1.3246  0.7770  0.5361
 7034SOL    HW232562   1.508   1.593   8.596  0.8337  1.4428 -2.6572
 7035SOL     OW32563   3.301   4.255  17.442 -0.5420  0.3530  0.4503
 7035SOL    HW132564   3.338   4.207  17.517 -0.4278 -1.1193 -0.5428
 7035SOL    HW232565   3.351   4.335  17.459 -0.0635  0.1017  0.2452
 7036SOL     OW32566   3.479   1.267   9.803 -0.7568 -0.0097  0.1082
 7036SOL    HW132567   3.514   1.329   9.867 -1.6208  0.7836 -0.1993
 7036SOL    HW232568   3.563   1.232   9.771  0.4261  2.7699  0.1959
 7037SOL     OW32569   0.349   4.151  14.752  0.2054 -0.2563  0.2375
 7037SOL    HW132570   0.416   4.155  14.820 -0.0948 -0.7826  0.5658
 7037SOL    HW232571   0.355   4.060  14.723  2.2970  0.3088 -1.1615
 7038SOL     OW32572   0.985   0.044  12.676  0.4537 -0.2733 -0.1886
 7038SOL    HW132573   0.922   0.013  12.610 -0.7294 -0.1842  0.8993
 7038SOL    HW232574   1.065   0.049  12.624  0.7111  0.2639  0.2634
 7039SOL     OW32575   0.583   3.075   5.859  0.4698  0.4470 -0.1669
 7039SOL    HW132576   0.569   3.137   5.930 -2.0820  0.0234 -0.3292
 7039SOL    HW232577   0.590   2.991   5.904  0.6701 -0.4938 -1.9486
 7040SOL     OW32578   0.473   4.670   8.761  0.5327  0.8610 -0.5929
 7040SOL    HW132579   0.525   4.709   8.691  0.9328  0.9366 -0.2545
 7040SOL    HW232580   0.482   4.576   8.753  0.8487  0.9306 -1.0524
 7041SOL     OW32581   0.378   2.264   4.411  0.5496 -0.5774 -0.7421
 7041SOL    HW132582   0.330   2.245   4.491  2.9091 -2.3149  0.2595
 7041SOL    HW232583   0.449   2.320   4.444  2.1391 -2.4101 -1.0954
 7042SOL     OW32584   2.943   3.172   3.492 -0.5214 -0.5390 -0.4130
 7042SOL    HW132585   2.953   3.124   3.410  2.0674  0.6114 -0.7649
 7042SOL    HW232586   2.987   3.254   3.468 -1.3265 -0.6560 -2.3076
 7043SOL     OW32587   1.532   3.666   8.702  0.2810 -0.2212  0.4728
 7043SOL    HW132588   1.510   3.574   8.687  2.3709 -0.5309 -0.7673
 7043SOL    HW232589   1.560   3.666   8.793  1.0191  3.4016  0.2184
 7044SOL     OW32590   3.179   0.354  10.261 -0.1369 -0.2672  0.1286
 7044SOL    HW132591   3.252   0.383  10.316 -0.4506  1.4795 -0.3549
 7044SOL    HW232592   3.141   0.294  10.325  0.1496 -1.3174 -0.6887
 7045SOL     OW32593   0.435   2.105   8.978 -0.1139  0.0796  0.2897
 7045SOL    HW132594   0.381   2.036   9.017 -0.3266  0.7717  1.2189
 7045SOL    HW232595   0.524   2.070   8.968 -0.6034 -1.1574  0.2572
 7046SOL     OW32596   4.613   3.870  13.900 -0.2096 -0.2678 -0.1863
 7046SOL    HW132597   4.693   3.907  13.862 -0.4388  0.1399 -0.2670
 7046SOL    HW232598   4.659   3.805  13.953  0.5336  0.7888  0.4575
 7047SOL     OW32599   3.052   4.438   9.631 -0.4188 -0.0055  0.5647
 7047SOL    HW132600   2.982   4.489   9.671  2.5802  2.9280  1.9962
 7047SOL    HW232601   3.042   4.356   9.679  0.2174 -2.1799 -2.9682
 7048SOL     OW32602   0.007   2.095   2.474 -0.2611 -0.0545  0.1648
 7048SOL    HW132603   0.093   2.135   2.461 -0.6913  0.6325 -0.6043
 7048SOL    HW232604   0.012   2.050   2.558  2.1185 -2.4880 -1.2935
 7049SOL     OW32605   0.970   4.258  16.118  0.7589  0.4958  0.3531
 7049SOL    HW132606   0.912   4.202  16.170  1.9709 -0.3977  0.7286
 7049SOL    HW232607   0.914   4.333  16.097  0.8435  0.8697  1.4861
 7050SOL     OW32608   4.046   2.152   3.831  0.0624 -0.0050  0.5295
 7050SOL    HW132609   4.114   2.101   3.787  0.5172  0.3231  0.8565
 7050SOL    HW232610   3.967   2.100   3.819  1.2006 -2.1077  2.1323
 7051SOL     OW32611   0.211   1.646   4.903 -0.2592 -0.7428  0.1881
 7051SOL    HW132612   0.272   1.586   4.945  1.5337  1.8173  1.2082
 7051SOL    HW232613   0.134   1.590   4.916 -0.7492 -0.7067 -2.3968
 7052SOL     OW32614   0.493   1.978   8.489  0.2783  0.9466  0.1740
 7052SOL    HW132615   0.519   1.994   8.398 -1.7847  0.8066 -0.4441
 7052SOL    HW232616   0.495   2.070   8.513  0.6619  0.9431  0.1614
 7053SOL     OW32617   0.508   2.592   0.048 -0.0816 -0.2459 -0.7051
 7053SOL    HW132618   0.513   2.554   0.135 -1.9719 -0.4525 -0.6750
 7053SOL    HW232619   0.586   2.548   0.013 -0.7045 -2.6157  0.9095
 7054SOL     OW32620   0.021   0.601  15.604 -0.2283 -1.0485  0.0760
 7054SOL    HW132621   4.682   0.551  15.660 -0.7575 -0.6966 -0.1702
 7054SOL    HW232622   0.061   0.658  15.670  1.4867 -1.4420 -0.6381
 7055SOL     OW32623   3.309   0.289   4.857 -0.2495 -0.6223  0.6932
 7055SOL    HW132624   3.268   0.281   4.771 -0.6044 -2.1415  1.0113
 7055SOL    HW232625   3.330   0.197   4.870 -0.2888 -0.9560 -1.7439
 7056SOL     OW32626   1.575   1.236   7.078  0.2428 -0.1341 -0.2441
 7056SOL    HW132627   1.613   1.172   7.018  0.8461  0.4423 -0.4737
 7056SOL    HW232628   1.507   1.186   7.124  0.0596 -1.6028 -2.0902
 7057SOL     OW32629   3.003   0.942   4.054  0.0573  0.5293 -0.2351
 7057SOL    HW132630   3.060   0.881   4.102  0.7056  1.1400 -0.2357
 7057SOL    HW232631   2.986   1.012   4.117 -1.6244  0.4101 -0.5560
 7058SOL     OW32632   0.548   3.411   4.850 -0.5608 -0.0679 -0.0763
 7058SOL    HW132633   0.604   3.352   4.899  1.4320  0.9886 -1.1105
 7058SOL    HW232634   0.501   3.449   4.925  0.6800  2.8517 -0.7835
 7059SOL     OW32635   3.480   0.834  15.223  0.6568 -0.4200  0.1911
 7059SOL    HW132636   3.552   0.895  15.239  0.0172 -0.3376  2.7263
 7059SOL    HW232637   3.462   0.797  15.310  0.3889 -0.3610  0.1621
 7060SOL     OW32638   3.459   1.196  16.884 -0.5882  0.4254  0.2760
 7060SOL    HW132639   3.537   1.187  16.830  0.0012  0.8595  1.0614
 7060SOL    HW232640   3.426   1.109  16.863 -0.1708 -0.6963  4.3040
 7061SOL     OW32641   1.732   3.478   3.315  0.8851  0.3386 -0.0829
 7061SOL    HW132642   1.684   3.397   3.300 -2.1718  2.1744 -0.2893
 7061SOL    HW232643   1.821   3.444   3.321  0.4009 -0.9952 -0.4569
 7062SOL     OW32644   3.453   1.349  10.635 -0.0869  0.5929  0.2501
 7062SOL    HW132645   3.435   1.390  10.719  1.0623  2.7013 -0.5378
 7062SOL    HW232646   3.541   1.380  10.614 -0.5589  0.8917 -1.3140
 7063SOL     OW32647   1.769   0.529   2.235  0.0253  0.2994 -0.3825
 7063SOL    HW132648   1.792   0.601   2.177 -2.4544  0.9083 -0.6289
 7063SOL    HW232649   1.815   0.550   2.316 -0.1748  1.9842 -0.7055
 7064SOL     OW32650   2.437   0.449   6.437 -0.1451  0.3423 -0.4015
 7064SOL    HW132651   2.410   0.399   6.513 -2.0674 -1.0500 -2.0229
 7064SOL    HW232652   2.448   0.388   6.364 -1.2522  0.1539 -0.4120
 7065SOL     OW32653   1.578   2.356   0.472 -0.1169 -0.2512  0.4738
 7065SOL    HW132654   1.589   2.267   0.438  0.0875 -0.6907  1.7144
 7065SOL    HW232655   1.497   2.346   0.521 -0.0765 -1.1291  0.3633
 7066SOL     OW32656   1.427   0.257   5.443 -0.5522 -0.0069  0.0238
 7066SOL    HW132657   1.427   0.352   5.427  1.1581  0.4750  2.8612
 7066SOL    HW232658   1.384   0.239   5.359 -0.2063  0.1509 -0.1904
 7067SOL     OW32659   3.129   3.681  11.461 -0.0740 -0.2439  0.3579
 7067SOL    HW132660   3.219   3.670  11.429  0.1663 -1.7071  1.5511
 7067SOL    HW232661   3.085   3.668  11.377 -1.8061  1.0603  1.0789
 7068SOL     OW32662   2.553   0.443   6.821  0.3299  0.6253 -0.5000
 7068SOL    HW132663   2.478   0.431   6.879  1.3035 -1.3572  0.3576
 7068SOL    HW232664   2.523   0.391   6.746 -0.2152  2.0876 -1.2997
 7069SOL     OW32665   1.366   3.988   4.504  0.2107  0.2072 -0.3409
 7069SOL    HW132666   1.397   4.070   4.543  3.1290 -0.4465 -1.3217
 7069SOL    HW232667   1.446   3.936   4.514 -0.1107 -0.1265  0.5301
 7070SOL     OW32668   3.276   0.645   5.149 -0.1614 -0.0532 -0.4215
 7070SOL    HW132669   3.342   0.656   5.080  0.2610  0.4510  0.0660
 7070SOL    HW232670   3.311   0.572   5.200 -1.0491  0.4311  0.8810
 7071SOL     OW32671   2.203   2.040   7.606  0.1579  0.1227 -0.1286
 7071SOL    HW132672   2.122   2.090   7.597 -0.6928 -1.2757 -0.1050
 7071SOL    HW232673   2.260   2.094   7.551  0.1149  0.1643 -0.1327
 7072SOL     OW32674   3.163   0.756   6.382  0.2987  1.2979  0.0899
 7072SOL    HW132675   3.079   0.724   6.348  0.8137 -0.3275  0.3677
 7072SOL    HW232676   3.168   0.707   6.464 -1.8472 -1.2279 -1.2855
 7073SOL     OW32677   1.913   0.457   4.889 -0.4101 -0.4640 -0.0575
 7073SOL    HW132678   1.924   0.486   4.799  0.5884 -0.3850  0.0906
 7073SOL    HW232679   1.828   0.414   4.885 -0.1018 -0.9748 -0.9469
 7074SOL     OW32680   0.699   4.504   3.788 -0.2430  0.4158 -0.5662
 7074SOL    HW132681   0.770   4.448   3.759 -0.0959  0.2729  0.0725
 7074SOL    HW232682   0.742   4.575   3.836 -2.8360  1.1687  0.6900
 7075SOL     OW32683   1.731   2.707   1.990 -0.9000 -0.5831  0.1847
 7075SOL    HW132684   1.798   2.669   1.934  0.1209  1.9666 -0.3225
 7075SOL    HW232685   1.697   2.623   2.022  0.9769 -1.4447 -0.0841
 7076SOL     OW32686   3.263   1.867   1.596 -0.7477  0.2644  0.0347
 7076SOL    HW132687   3.192   1.887   1.656 -0.0047 -1.5735  1.5152
 7076SOL    HW232688   3.252   1.774   1.576  1.2666 -0.2309  1.2617
 7077SOL     OW32689   4.414   3.560   5.978  0.2492  0.1965 -0.2001
 7077SOL    HW132690   4.462   3.643   5.982 -0.5452  0.7326 -1.7527
 7077SOL    HW232691   4.324   3.588   5.963  0.2647  0.8674  1.0105
 7078SOL     OW32692   0.569   3.123  13.081  0.4768  0.1536  0.3770
 7078SOL    HW132693   0.587   3.100  13.172  0.6022 -2.1933 -0.2493
 7078SOL    HW232694   0.658   3.110  13.050  0.6821 -2.2254  2.0109
 7079SOL     OW32695   1.284   2.342  11.154  0.6533  0.1816 -0.1135
 7079SOL    HW132696   1.196   2.346  11.191 -0.0741 -0.8204 -1.7365
 7079SOL    HW232697   1.266   2.326  11.062 -1.1383 -1.1542  0.4736
 7080SOL     OW32698   0.653   2.409   0.267  0.4323  0.4953  0.6323
 7080SOL    HW132699   0.622   2.318   0.259  1.1227  0.3428 -0.3814
 7080SOL    HW232700   0.729   2.390   0.321  0.4788  0.9749  0.7307
 7081SOL     OW32701   2.107   0.296   8.747  0.1792  0.2271  0.6403
 7081SOL    HW132702   2.023   0.259   8.775 -0.8794  1.9904 -0.2395
 7081SOL    HW232703   2.167   0.242   8.799  0.8894  0.9820  0.6107
 7082SOL     OW32704   3.549   1.290   3.444  0.4772 -0.5273 -0.5535
 7082SOL    HW132705   3.470   1.270   3.394 -0.6569  2.4975  0.0114
 7082SOL    HW232706   3.568   1.209   3.490 -0.0252 -1.1909 -1.5177
 7083SOL     OW32707   4.004   4.121   1.579 -0.0690 -0.6874 -0.3187
 7083SOL    HW132708   3.918   4.145   1.544 -0.2838 -2.2764 -0.8745
 7083SOL    HW232709   3.983   4.038   1.622 -1.0962  0.2755  1.0677
 7084SOL     OW32710   2.856   2.140  12.640 -0.3536 -0.2590  0.3475
 7084SOL    HW132711   2.899   2.106  12.718  0.3466  1.2039  0.6120
 7084SOL    HW232712   2.927   2.200  12.618 -1.5836  1.3553  0.7613
 7085SOL     OW32713   3.977   4.483   4.374 -0.2208  0.0330 -0.0543
 7085SOL    HW132714   4.020   4.560   4.412 -0.3782 -0.2455  0.6797
 7085SOL    HW232715   3.904   4.468   4.435  1.1906  0.9723  1.8834
 7086SOL     OW32716   4.135   2.044  14.663  0.3336 -0.5442  0.2587
 7086SOL    HW132717   4.065   2.060  14.600  1.6293  0.9813 -0.7755
 7086SOL    HW232718   4.137   1.951  14.686  1.9524 -0.4442  0.5339
 7087SOL     OW32719   2.807   0.187  10.932  0.1134  0.3572  0.5483
 7087SOL    HW132720   2.803   0.092  10.919  0.2926  0.3343  0.6679
 7087SOL    HW232721   2.723   0.209  10.891  0.3422 -1.3973 -0.8597
 7088SOL     OW32722   3.503   2.656   1.942 -0.3589 -0.4627 -0.0457
 7088SOL    HW132723   3.482   2.565   1.922 -0.1340 -0.4604 -0.2926
 7088SOL    HW232724   3.453   2.656   2.024  0.5399 -0.6472  0.5082
 7089SOL     OW32725   4.703   1.965   6.127  0.2434 -0.1761  0.3484
 7089SOL    HW132726   0.039   1.913   6.070 -0.5324  0.6907 -1.2439
 7089SOL    HW232727   4.612   1.939   6.114  0.5079 -1.2502  0.7082
 7090SOL     OW32728   4.198   1.469   4.224 -0.0798 -0.5442 -0.2408
 7090SOL    HW132729   4.256   1.516   4.283  0.6275 -0.4210 -1.0462
 7090SOL    HW232730   4.176   1.394   4.280 -4.5052  1.7212  1.0289
 7091SOL     OW32731   2.756   4.452  14.980 -0.1419  0.7588  0.0079
 7091SOL    HW132732   2.805   4.513  15.035  0.9472 -1.6764  1.7050
 7091SOL    HW232733   2.822   4.403  14.931 -0.1092  0.0573  0.7589
 7092SOL     OW32734   0.385   0.131   5.634 -0.1100  0.7313 -0.4384
 7092SOL    HW132735   0.377   0.218   5.673  0.6696  0.0846  1.1912
 7092SOL    HW232736   0.305   0.129   5.582 -0.2171 -2.0513 -0.1811
 7093SOL     OW32737   1.608   2.348   8.468  0.3545 -0.1074 -0.0846
 7093SOL    HW132738   1.669   2.389   8.406 -1.2732  1.1853 -0.8273
 7093SOL    HW232739   1.526   2.380   8.431 -0.2205 -1.7892 -0.2240
 7094SOL     OW32740   1.404   1.490   2.712 -0.4247  0.8690  0.2020
 7094SOL    HW132741   1.483   1.537   2.739 -1.1396  1.4201  1.3218
 7094SOL    HW232742   1.426   1.419   2.652  0.4936  0.3350  1.1741
 7095SOL     OW32743   2.438   0.029  14.955 -0.2992 -0.1857 -0.0400
 7095SOL    HW132744   2.515   0.085  14.964 -3.7088  4.4241  0.7565
 7095SOL    HW232745   2.412   0.057  14.867 -2.1965 -0.5358  0.4031
 7096SOL     OW32746   2.029   2.831   4.313  0.0051 -0.6471 -0.0463
 7096SOL    HW132747   2.005   2.911   4.266  0.5368 -0.6680 -0.3535
 7096SOL    HW232748   2.091   2.872   4.373  0.1420  0.4407 -0.9304
 7097SOL     OW32749   1.775   4.467   5.015  0.0734 -0.3704 -0.0156
 7097SOL    HW132750   1.844   4.407   5.043  0.2549 -0.5049 -0.7502
 7097SOL    HW232751   1.721   4.410   4.959 -1.2552 -0.3483  1.2333
 7098SOL     OW32752   0.670   1.196  17.063  0.1184  0.7450  0.1441
 7098SOL    HW132753   0.615   1.268  17.092  0.7562  2.0030 -1.7823
 7098SOL    HW232754   0.646   1.135  17.133  1.4918 -0.7719 -0.7162
 7099SOL     OW32755   1.482   2.436  12.922  0.0597 -0.0382  0.1158
 7099SOL    HW132756   1.503   2.349  12.954 -1.2881 -1.0371 -1.7093
 7099SOL    HW232757   1.476   2.416  12.828  2.1417  1.6723 -0.3981
 7100SOL     OW32758   2.982   1.252  15.556 -0.0572  0.3828 -0.0294
 7100SOL    HW132759   2.954   1.163  15.533  2.2956  0.0472 -1.6302
 7100SOL    HW232760   3.042   1.238  15.629  1.0451  1.0811 -0.8007
 7101SOL     OW32761   1.506   1.976  15.308 -0.5737  0.3852 -0.3247
 7101SOL    HW132762   1.544   2.053  15.350  2.8374 -1.1204 -0.5998
 7101SOL    HW232763   1.454   1.938  15.378  0.8594 -2.0475 -0.5799
 7102SOL     OW32764   2.756   1.287   9.509 -0.9296 -0.2547  0.7605
 7102SOL    HW132765   2.706   1.227   9.565 -0.6953 -1.2177 -0.0721
 7102SOL    HW232766   2.692   1.307   9.441  0.0186 -1.2380 -0.4000
 7103SOL     OW32767   0.815   2.590  14.755  0.1870 -0.7627 -0.0572
 7103SOL    HW132768   0.816   2.529  14.681 -1.8589  2.2297 -2.5872
 7103SOL    HW232769   0.749   2.558  14.816 -1.7992  0.0818 -1.7501
 7104SOL     OW32770   2.736   0.495   6.133 -0.4033 -0.1833 -0.3475
 7104SOL    HW132771   2.743   0.413   6.086  1.2729  0.3335 -1.0095
 7104SOL    HW232772   2.643   0.516   6.136 -0.3769  0.0540 -1.2557
 7105SOL     OW32773   3.458   1.455   9.067 -0.3031  0.1667  0.6310
 7105SOL    HW132774   3.416   1.541   9.070  0.0136  0.2819  1.5198
 7105SOL    HW232775   3.393   1.394   9.100 -1.1583  0.8744  0.2596
 7106SOL     OW32776   1.469   0.832   5.801 -0.0878  0.4385  0.0837
 7106SOL    HW132777   1.557   0.801   5.781 -1.0651 -2.9978  1.0093
 7106SOL    HW232778   1.409   0.785   5.743 -0.8946  0.2576  1.0518
 7107SOL     OW32779   1.153   2.323   5.690  0.1019  0.0450 -0.2333
 7107SOL    HW132780   1.213   2.251   5.669 -0.2808 -0.6755  1.1051
 7107SOL    HW232781   1.162   2.322   5.786  0.0706 -0.5661 -0.2362
 7108SOL     OW32782   0.976   3.118   8.281 -0.3487 -0.4778 -0.0010
 7108SOL    HW132783   1.002   3.125   8.373 -1.5892 -2.3339  0.5079
 7108SOL    HW232784   0.893   3.164   8.272  0.4338  0.9186  0.0156
 7109SOL     OW32785   3.583   3.092   6.383 -0.1801  0.7901  0.2626
 7109SOL    HW132786   3.661   3.121   6.429  1.6412 -2.2234 -0.9450
 7109SOL    HW232787   3.574   2.996   6.385 -1.1751  0.8415 -2.4974
 7110SOL     OW32788   2.705   0.763  15.164 -0.1230  0.3388  0.2555
 7110SOL    HW132789   2.695   0.727  15.252 -0.1226 -0.8405 -0.2320
 7110SOL    HW232790   2.780   0.824  15.170 -0.2728  0.5643 -0.1048
 7111SOL     OW32791   0.335   4.655  16.294  0.4701  0.6503 -0.1666
 7111SOL    HW132792   0.348   4.709  16.217  0.7777 -0.1643 -0.6811
 7111SOL    HW232793   0.324   4.569  16.254  1.5404 -1.7503  4.7197
 7112SOL     OW32794   1.729   0.817   9.343 -0.0564 -0.1714  0.2189
 7112SOL    HW132795   1.784   0.877   9.395 -1.7953  1.3424  0.2797
 7112SOL    HW232796   1.748   0.844   9.253  0.4006  1.9501  0.9398
 7113SOL     OW32797   4.662   2.465   1.344  0.2017  0.2293 -0.1898
 7113SOL    HW132798   0.033   2.492   1.347 -0.2133  1.6707 -1.0122
 7113SOL    HW232799   4.662   2.389   1.286  0.4241 -1.1518  1.5978
 7114SOL     OW32800   3.834   3.691   5.690 -0.7360 -0.2573 -0.4581
 7114SOL    HW132801   3.922   3.654   5.680 -0.6305 -0.1684  0.1418
 7114SOL    HW232802   3.811   3.658   5.777  1.9419  2.5090  1.2857
 7115SOL     OW32803   0.671   2.221   8.646  0.2223  0.0827  0.3584
 7115SOL    HW132804   0.713   2.207   8.562  2.4962 -0.3580  1.5637
 7115SOL    HW232805   0.588   2.237   8.600 -0.7933 -0.6388  1.9056
 7116SOL     OW32806   3.696   3.931   1.119  0.1053  0.2890  0.1282
 7116SOL    HW132807   3.603   3.913   1.128 -0.0014  0.3056 -0.9585
 7116SOL    HW232808   3.724   3.879   1.043 -2.6650 -0.6562 -0.2503
 7117SOL     OW32809   2.227   3.558  13.434  0.3773 -0.2628 -0.2109
 7117SOL    HW132810   2.277   3.480  13.457  0.2729  0.2975  1.9422
 7117SOL    HW232811   2.273   3.629  13.480 -0.0682 -0.5693  0.7191
 7118SOL     OW32812   0.360   2.356   8.956  0.5367  0.7367  0.0629
 7118SOL    HW132813   0.389   2.398   9.037  1.4834 -0.4872  0.3583
 7118SOL    HW232814   0.405   2.271   8.948  0.6723  0.8538 -0.4447
 7119SOL     OW32815   4.399   3.758   7.253 -0.2877  0.4653 -0.0573
 7119SOL    HW132816   4.382   3.667   7.276  0.4390  0.4200  0.3320
 7119SOL    HW232817   4.377   3.800   7.336  2.5107  3.2292 -0.7088
 7120SOL     OW32818   4.416   0.538  16.133 -0.7653 -0.2792  0.9292
 7120SOL    HW132819   4.359   0.534  16.057  0.1025 -1.9073  0.3688
 7120SOL    HW232820   4.379   0.471  16.190 -1.9637  0.9562  1.5956
 7121SOL     OW32821   2.201   2.697   7.779  0.5777  0.5912  0.4324
 7121SOL    HW132822   2.181   2.756   7.706  0.0236 -0.1896 -0.0584
 7121SOL    HW232823   2.111   2.700   7.814 -0.4224 -1.6093 -1.9527
 7122SOL     OW32824   4.358   2.349   0.387 -0.2485  0.1656 -0.1815
 7122SOL    HW132825   4.327   2.414   0.324  0.0319  1.2265  0.7639
 7122SOL    HW232826   4.427   2.309   0.334 -0.8846  0.3480 -1.1498
 7123SOL     OW32827   1.198   4.019   3.037  0.6687 -0.2164 -0.2730
 7123SOL    HW132828   1.210   3.975   3.122  3.2263 -0.5305 -0.8139
 7123SOL    HW232829   1.175   3.950   2.974 -0.4652  0.7342 -0.8912
 7124SOL     OW32830   3.729   2.249  10.034  0.0100  0.0332 -0.2172
 7124SOL    HW132831   3.760   2.312  10.099 -0.6894 -0.9979  1.1147
 7124SOL    HW232832   3.793   2.177  10.032 -1.0267 -0.9604  2.1120
 7125SOL     OW32833   0.702   0.003   4.245 -0.1327 -0.1361  0.5056
 7125SOL    HW132834   0.738   4.659   4.305 -1.3823 -1.1589  0.1413
 7125SOL    HW232835   0.610   4.699   4.252 -0.3898  0.7288  0.2509
 7126SOL     OW32836   4.300   3.148   5.487  0.3045 -0.1436 -0.0193
 7126SOL    HW132837   4.249   3.194   5.421 -0.0286  1.2277  1.1954
 7126SOL    HW232838   4.242   3.136   5.562 -0.2553 -3.7247 -1.0443
 7127SOL     OW32839   3.900   3.650   2.406  0.0371 -0.3300  0.0166
 7127SOL    HW132840   3.977   3.607   2.369  0.1720 -0.2925  0.2520
 7127SOL    HW232841   3.910   3.743   2.383  1.5266 -0.4266  0.2657
 7128SOL     OW32842   4.694   0.807  10.936  0.7629  0.3196  0.2891
 7128SOL    HW132843   0.002   0.777  10.850  0.2760  0.5877  0.0303
 7128SOL    HW232844   0.057   0.849  10.955  1.4679  0.3670 -2.8594
 7129SOL     OW32845   2.519   2.899   3.776 -0.3992  0.1247 -0.1769
 7129SOL    HW132846   2.586   2.918   3.711  2.3510  1.5036  3.0939
 7129SOL    HW232847   2.557   2.827   3.825  0.3284 -0.2824 -1.3586
 7130SOL     OW32848   3.780   3.259  13.348  0.0564  0.2650  0.1088
 7130SOL    HW132849   3.773   3.349  13.315 -2.0242  0.5769  1.4449
 7130SOL    HW232850   3.874   3.254  13.366 -0.5077  0.1516  3.0750
 7131SOL     OW32851   3.300   0.314   1.999  0.4278  0.2688  0.8560
 7131SOL    HW132852   3.287   0.395   2.048 -1.6807  0.3572  0.1797
 7131SOL    HW232853   3.350   0.353   1.927  2.6891 -2.8954  0.7055
 7132SOL     OW32854   3.291   1.422   4.992  0.3479  0.4603 -0.4905
 7132SOL    HW132855   3.361   1.410   5.057 -2.8137  1.0450  3.0159
 7132SOL    HW232856   3.212   1.422   5.046  0.0098  0.4337 -0.9874
 7133SOL     OW32857   3.579   1.436   5.921 -0.6041 -0.0203 -0.3497
 7133SOL    HW132858   3.628   1.389   5.854  1.7891  1.0775  0.6315
 7133SOL    HW232859   3.652   1.470   5.974 -0.8461  2.2787 -1.4897
 7134SOL     OW32860   0.075   3.055   5.963  0.0652  0.0853 -0.2700
 7134SOL    HW132861   4.706   3.067   5.992 -0.3592 -0.6558 -1.2736
 7134SOL    HW232862   0.109   3.111   6.032 -0.0722  0.7931 -0.7809
 7135SOL     OW32863   3.296   2.171   2.913 -0.1621 -0.0700 -0.0498
 7135SOL    HW132864   3.344   2.245   2.875 -2.2222  1.3406  0.1074
 7135SOL    HW232865   3.295   2.191   3.006 -0.2515  1.2492 -0.3323
 7136SOL     OW32866   3.535   2.482   4.227  0.3313  0.1576 -0.4722
 7136SOL    HW132867   3.468   2.475   4.294  0.2977 -0.5325 -0.5710
 7136SOL    HW232868   3.517   2.563   4.179 -1.5844  0.1926  0.3150
 7137SOL     OW32869   4.100   2.677  13.556 -0.0328 -0.1861  0.0856
 7137SOL    HW132870   4.079   2.588  13.586 -1.3169 -0.3257 -1.2354
 7137SOL    HW232871   4.192   2.665  13.534 -0.0498 -0.4293  0.1477
 7138SOL     OW32872   0.450   0.017   1.297  0.1967 -0.4061 -0.7417
 7138SOL    HW132873   0.436   0.100   1.343  0.6944 -0.2021 -0.9640
 7138SOL    HW232874   0.361   4.708   1.282  0.4376 -2.2978  1.4849
 7139SOL     OW32875   3.895   3.129   8.645 -0.5219 -0.4120 -0.6181
 7139SOL    HW132876   3.870   3.197   8.708  1.6218 -1.8237  1.7692
 7139SOL    HW232877   3.853   3.049   8.677  0.7092 -0.6784  0.3480
 7140SOL     OW32878   2.630   0.045   2.459  0.1304  0.1043  0.7387
 7140SOL    HW132879   2.680   4.685   2.454 -0.6361 -0.4972  2.6649
 7140SOL    HW232880   2.572   0.012   2.527  2.3329 -1.7514  1.6776
 7141SOL     OW32881   1.442   3.106   0.994 -0.0256  0.8202 -0.2959
 7141SOL    HW132882   1.409   3.082   0.907 -2.0886  0.3977  0.5829
 7141SOL    HW232883   1.375   3.172   1.017  0.4378  0.9452  0.6968
 7142SOL     OW32884   0.325   3.150   1.386 -0.7283  0.3886  0.1244
 7142SOL    HW132885   0.415   3.150   1.419 -0.4147 -1.1940 -0.7208
 7142SOL    HW232886   0.321   3.244   1.372 -1.6709  0.3860  0.3779
 7143SOL     OW32887   2.429   2.088   9.364 -0.1138 -0.2146 -0.5014
 7143SOL    HW132888   2.458   2.085   9.455 -0.7304 -1.3214 -0.3378
 7143SOL    HW232889   2.404   2.180   9.359  1.5830  0.1460 -2.3309
 7144SOL     OW32890   2.121   1.859   7.406  0.4004  0.0286  0.1306
 7144SOL    HW132891   2.193   1.890   7.461  0.7792 -1.0814  0.2559
 7144SOL    HW232892   2.064   1.820   7.472  0.5696  1.7295  1.2749
 7145SOL     OW32893   2.279   3.234   4.484 -0.1166  0.1786 -0.3716
 7145SOL    HW132894   2.287   3.285   4.404  0.5541  0.1231 -0.3354
 7145SOL    HW232895   2.353   3.272   4.531 -0.3673 -1.6146  1.4484
 7146SOL     OW32896   3.269   2.668   6.426 -0.1132  0.1212 -0.0916
 7146SOL    HW132897   3.242   2.692   6.514  1.0394  4.0803 -0.8042
 7146SOL    HW232898   3.269   2.754   6.384  0.0705  0.5394  0.7677
 7147SOL     OW32899   1.596   2.623   8.142  0.3799  0.0142 -0.5236
 7147SOL    HW132900   1.575   2.710   8.176  0.2662  0.4051 -1.6013
 7147SOL    HW232901   1.681   2.606   8.184  0.8017 -0.6627 -1.6436
 7148SOL     OW32902   3.777   1.586  15.817  0.1213 -0.3676  0.4912
 7148SOL    HW132903   3.691   1.607  15.853 -0.1426  2.1031 -1.5900
 7148SOL    HW232904   3.820   1.664  15.850  0.2741 -0.7934  1.2901
 7149SOL     OW32905   3.914   3.291   3.320 -0.4129 -0.2962  0.5149
 7149SOL    HW132906   3.958   3.331   3.396  1.0278  0.1486 -0.5663
 7149SOL    HW232907   3.918   3.356   3.250 -2.0591 -0.8513 -0.0853
 7150SOL     OW32908   1.041   1.726   6.510 -0.2462 -0.4638 -0.0678
 7150SOL    HW132909   1.104   1.655   6.518 -1.1552 -1.3868 -1.2330
 7150SOL    HW232910   1.091   1.803   6.483 -0.5049 -0.2915 -0.0604
 7151SOL     OW32911   0.432   0.273   1.865 -0.4738 -0.3269 -0.0070
 7151SOL    HW132912   0.505   0.269   1.803 -2.9224 -1.6784 -2.8266
 7151SOL    HW232913   0.370   0.332   1.822 -1.0172  1.5497  3.3676
 7152SOL     OW32914   1.986   1.824  14.455 -0.4249 -0.5500 -0.0705
 7152SOL    HW132915   2.005   1.872  14.374 -2.0804 -1.0088 -0.7384
 7152SOL    HW232916   1.942   1.746  14.420  0.8600 -1.0464 -0.5892
 7153SOL     OW32917   1.808   4.655  12.397 -0.2599  0.2635  0.0512
 7153SOL    HW132918   1.796   4.668  12.491 -0.1720 -2.1539  0.3770
 7153SOL    HW232919   1.842   4.566  12.398  0.6853  0.6472  1.3722
 7154SOL     OW32920   1.071   2.832  13.543 -0.2184 -0.4229  0.2593
 7154SOL    HW132921   1.078   2.834  13.447  2.5958 -1.1966  0.4493
 7154SOL    HW232922   1.080   2.925  13.563  0.5276 -0.5889  0.6766
 7155SOL     OW32923   3.230   2.489   2.409 -0.4411 -1.1196 -0.5753
 7155SOL    HW132924   3.146   2.520   2.376 -1.4064 -2.7645  0.3658
 7155SOL    HW232925   3.271   2.569   2.443 -1.0561 -0.6052 -1.0353
 7156SOL     OW32926   4.046   0.086  14.595 -0.1059  0.4741  0.4707
 7156SOL    HW132927   3.999   0.054  14.672 -0.8881  2.5080  0.8150
 7156SOL    HW232928   4.056   0.003  14.547  2.1164  2.1810 -1.9942
 7157SOL     OW32929   1.051   3.436  17.210 -0.1675  0.2128 -0.3494
 7157SOL    HW132930   0.992   3.475  17.275 -0.1381 -1.1404  0.4969
 7157SOL    HW232931   1.033   3.481  17.127  1.4375  0.1034 -0.7640
 7158SOL     OW32932   2.835   2.386  11.992 -0.2306  0.0704 -0.2247
 7158SOL    HW132933   2.757   2.331  11.994 -1.2434  1.5667  1.1646
 7158SOL    HW232934   2.825   2.428  12.077 -1.4646  0.0781 -0.3652
 7159SOL     OW32935   3.427   4.074  17.606 -0.0026  0.3358  0.0908
 7159SOL    HW132936   3.511   4.066  17.561  0.5697 -3.1872  1.8163
 7159SOL    HW232937   3.417   3.986  17.641 -2.3501  0.8422  0.6939
 7160SOL     OW32938   4.614   1.610   8.769  0.0384 -0.4038  0.1830
 7160SOL    HW132939   4.546   1.664   8.729 -0.5833 -0.9721  0.4637
 7160SOL    HW232940   4.621   1.637   8.861 -0.5975  3.5779 -0.9469
 7161SOL     OW32941   3.813   0.739   9.079  0.1137  0.4487  0.1874
 7161SOL    HW132942   3.856   0.821   9.052  0.8620 -0.4657 -1.4407
 7161SOL    HW232943   3.721   0.757   9.058  0.1461  0.4322  0.0270
 7162SOL     OW32944   3.987   1.519   4.460  0.0685  0.2440  0.3228
 7162SOL    HW132945   3.982   1.535   4.554 -2.3495 -1.6665  0.5168
 7162SOL    HW232946   3.907   1.566   4.436 -0.6220 -0.4542  1.2302
 7163SOL     OW32947   2.027   2.111   7.918  0.4757 -0.2485  0.2506
 7163SOL    HW132948   1.984   2.039   7.870 -0.5753  0.1598  0.5671
 7163SOL    HW232949   2.108   2.068   7.945  0.9094  2.4802  3.2644
 7164SOL     OW32950   2.990   4.348   7.639  0.2699 -0.1609 -0.4115
 7164SOL    HW132951   2.973   4.428   7.690  2.8022 -2.7182  4.4279
 7164SOL    HW232952   2.904   4.320   7.607  0.7041 -0.2993 -1.4674
 7165SOL     OW32953   3.553   1.913   7.862  0.1015 -0.6025 -0.0119
 7165SOL    HW132954   3.563   1.979   7.930 -0.8195  0.7027 -1.1539
 7165SOL    HW232955   3.471   1.873   7.890  0.9106 -2.2651  0.0613
 7166SOL     OW32956   0.107   1.131  10.932 -0.1503 -0.0530  0.9534
 7166SOL    HW132957   0.166   1.129  11.007  0.4287  2.4965  0.5719
 7166SOL    HW232958   0.036   1.187  10.964  1.1115  1.9375  0.3004
 7167SOL     OW32959   0.283   2.964   6.271 -0.1698 -0.6310  0.7541
 7167SOL    HW132960   0.217   2.896   6.260  1.3487 -1.9859 -0.0666
 7167SOL    HW232961   0.346   2.927   6.208 -0.0380  0.0817  0.4648
 7168SOL     OW32962   3.595   3.576  11.040  0.2012 -0.1676 -0.0150
 7168SOL    HW132963   3.606   3.597  11.133 -0.0908 -3.0473  0.6670
 7168SOL    HW232964   3.502   3.555  11.047 -0.3536  1.9447 -0.9144
 7169SOL     OW32965   0.491   2.583   8.430  0.2107 -0.0477  0.2508
 7169SOL    HW132966   0.406   2.625   8.442  0.4999  1.0170 -1.4605
 7169SOL    HW232967   0.541   2.665   8.422 -1.0136  0.5427 -1.3130
 7170SOL     OW32968   4.252   3.783   1.811 -0.4761  0.5254 -0.0723
 7170SOL    HW132969   4.226   3.817   1.897 -1.5338 -0.0980 -0.1466
 7170SOL    HW232970   4.316   3.851   1.789  0.6537 -0.4527  0.2511
 7171SOL     OW32971   4.073   3.734  13.982 -0.4976 -0.1165  0.3729
 7171SOL    HW132972   4.137   3.769  14.044  1.0205  0.7492 -1.6357
 7171SOL    HW232973   4.125   3.741  13.901  0.4127 -0.7474  0.9101
 7172SOL     OW32974   2.949   1.735   5.371 -0.4858 -0.3724  0.2238
 7172SOL    HW132975   2.896   1.678   5.426  0.7063 -0.2290  1.5300
 7172SOL    HW232976   3.033   1.719   5.415 -1.2301  0.3001  1.8870
 7173SOL     OW32977   1.499   1.301   2.532 -0.9378  0.3010 -0.3360
 7173SOL    HW132978   1.552   1.222   2.545 -0.6302  0.2482 -1.9118
 7173SOL    HW232979   1.528   1.327   2.445  1.3713  0.5360  0.5125
 7174SOL     OW32980   1.525   4.381   1.541 -0.0084  0.0719  0.1305
 7174SOL    HW132981   1.543   4.378   1.635 -1.5954 -0.9517  0.3912
 7174SOL    HW232982   1.605   4.405   1.492 -0.3163  1.7544  0.4569
 7175SOL     OW32983   0.437   2.400  10.164  0.3386 -0.0454 -0.1026
 7175SOL    HW132984   0.399   2.320  10.129 -1.7077  0.3901  1.1822
 7175SOL    HW232985   0.362   2.458  10.176  0.0212 -0.2479 -1.0358
 7176SOL     OW32986   0.106   2.120  13.792  0.6058  0.2177  0.3271
 7176SOL    HW132987   0.166   2.194  13.805  1.0758 -0.5241  2.4375
 7176SOL    HW232988   0.170   2.054  13.765 -1.2137 -1.6003  0.4691
 7177SOL     OW32989   2.095   0.843   4.632 -0.1903 -0.0467  0.9180
 7177SOL    HW132990   2.105   0.922   4.580 -1.1215 -2.8762 -3.5177
 7177SOL    HW232991   2.001   0.835   4.648 -0.5055  2.6995  0.4802
 7178SOL     OW32992   3.075   4.367   8.307 -0.3359 -0.1299 -0.0697
 7178SOL    HW132993   3.028   4.436   8.355  0.5114 -1.2485  2.3822
 7178SOL    HW232994   3.022   4.288   8.318 -0.5308  0.0794  0.5349
 7179SOL     OW32995   2.733   2.773   6.309 -0.4967  0.0754 -0.4835
 7179SOL    HW132996   2.792   2.699   6.322 -0.2561  0.5385  1.0688
 7179SOL    HW232997   2.721   2.816   6.393 -0.1656  0.5886 -0.6971
 7180SOL     OW32998   1.021   3.308   4.238  0.6793 -0.0623 -0.6362
 7180SOL    HW132999   0.944   3.365   4.236  2.1829  2.0018  0.6857
 7180SOL    HW233000   0.990   3.233   4.289 -1.7126  2.1549  1.1930
 7181SOL     OW33001   3.013   3.770   5.448 -0.1015 -0.6194  0.5234
 7181SOL    HW133002   2.994   3.864   5.452  0.8636 -0.4377  0.9923
 7181SOL    HW233003   3.090   3.768   5.505  0.1018  4.1410  0.4036
 7182SOL     OW33004   3.587   2.193   5.994  0.1004 -0.1331  0.3520
 7182SOL    HW133005   3.601   2.287   6.007  1.9631 -0.1062 -1.9179
 7182SOL    HW233006   3.504   2.175   6.038  0.5024  0.3947  1.3228
 7183SOL     OW33007   1.217   2.908   8.672 -0.0771  0.0360  0.7846
 7183SOL    HW133008   1.232   2.903   8.767 -0.3796 -1.2054  0.7619
 7183SOL    HW233009   1.243   2.823   8.636  0.3382 -0.0351  1.2501
 7184SOL     OW33010   0.761   0.502   7.633  0.5867  0.2340  0.4606
 7184SOL    HW133011   0.668   0.502   7.613  0.2760 -2.4391  2.0630
 7184SOL    HW233012   0.757   0.484   7.726 -1.6174  0.7286  0.4640
 7185SOL     OW33013   0.161   4.613   4.345  0.2836  0.6607 -0.0640
 7185SOL    HW133014   0.175   4.519   4.340  1.8630  0.8553  0.8722
 7185SOL    HW233015   0.127   4.623   4.256  2.2691  0.2384 -0.8474
 7186SOL     OW33016   4.099   2.256  16.820 -0.1444 -0.4881  0.2166
 7186SOL    HW133017   4.154   2.252  16.899  2.5129  0.1082 -1.6019
 7186SOL    HW233018   4.012   2.245  16.858  0.7145 -0.9896  2.0438
 7187SOL     OW33019   1.174   4.370  10.245  0.4368  0.5295  0.1716
 7187SOL    HW133020   1.095   4.377  10.298 -0.3086 -2.0056 -0.6091
 7187SOL    HW233021   1.122   4.350  10.167  2.8960 -2.5442 -0.6716
 7188SOL     OW33022   3.192   2.920   0.943  0.1462  0.0241  0.4064
 7188SOL    HW133023   3.099   2.921   0.920 -0.0722 -1.2482  1.2461
 7188SOL    HW233024   3.220   2.829   0.934  0.1991  0.0893 -0.0901
 7189SOL     OW33025   2.923   4.641   2.848  0.0967  0.1821 -0.2372
 7189SOL    HW133026   2.914   4.705   2.919  0.0972 -0.6405  0.4991
 7189SOL    HW233027   2.848   4.584   2.866  0.8881 -1.0557 -0.8927
 7190SOL     OW33028   1.884   2.490   2.512 -0.0138  0.2516 -0.1696
 7190SOL    HW133029   1.906   2.582   2.494 -3.4970  1.1924  0.4115
 7190SOL    HW233030   1.888   2.441   2.430  1.1244 -1.3745  0.8627
 7191SOL     OW33031   3.963   4.662   4.666 -0.0830 -0.0428  0.2584
 7191SOL    HW133032   4.008   4.578   4.677  0.5016  0.4718  1.7279
 7191SOL    HW233033   4.010   4.712   4.599 -1.5774  2.0256  0.7621
 7192SOL     OW33034   3.406   1.241   2.121  0.1713 -0.3903 -0.5775
 7192SOL    HW133035   3.348   1.229   2.046 -0.7457 -0.5839  0.1527
 7192SOL    HW233036   3.437   1.330   2.109  0.0722 -0.3939 -0.8637
 7193SOL     OW33037   1.750   0.074   9.209  0.5857  0.1429  0.1030
 7193SOL    HW133038   1.720   0.108   9.293 -1.8080 -0.7234 -0.4155
 7193SOL    HW233039   1.745   4.700   9.199 -2.7285  0.3851 -0.7140
 7194SOL     OW33040   0.650   4.233  14.322 -0.4472  0.0832  0.1874
 7194SOL    HW133041   0.654   4.142  14.292 -0.0749  0.0376  0.3776
 7194SOL    HW233042   0.617   4.214  14.410  0.9395  0.1825  0.7248
 7195SOL     OW33043   4.037   0.799   0.837  0.5269  0.3110 -0.5430
 7195SOL    HW133044   3.991   0.881   0.820  0.1318  0.2724  0.3318
 7195SOL    HW233045   4.128   0.821   0.818  1.5061 -1.2245  2.3684
 7196SOL     OW33046   0.470   4.599   6.860 -0.2241  0.4942  0.2220
 7196SOL    HW133047   0.478   4.550   6.779  4.0040 -2.3615  2.3604
 7196SOL    HW233048   0.481   4.690   6.830 -2.0719  0.1728 -1.4153
 7197SOL     OW33049   2.844   1.347  10.405 -0.3190 -0.1061 -0.7255
 7197SOL    HW133050   2.762   1.361  10.453  1.6999 -0.4081  2.8361
 7197SOL    HW233051   2.851   1.252  10.400 -0.4423 -0.0272 -2.2300
 7198SOL     OW33052   0.364   2.832  10.119 -0.2415 -0.0303 -0.4645
 7198SOL    HW133053   0.345   2.891  10.192 -0.4974 -0.9845  0.2442
 7198SOL    HW233054   0.332   2.748  10.154 -0.4652 -0.5727 -1.9781
 7199SOL     OW33055   1.029   1.688   4.510  0.0948  0.6968  0.0479
 7199SOL    HW133056   1.022   1.748   4.584 -1.3937  1.0155 -0.3581
 7199SOL    HW233057   1.091   1.625   4.548 -0.1743  0.6200  0.3618
 7200SOL     OW33058   0.719   4.080  11.314  0.1881 -0.1349 -0.2728
 7200SOL    HW133059   0.653   4.021  11.275 -0.3361 -0.3730  0.9831
 7200SOL    HW233060   0.679   4.164  11.291 -3.4680 -1.6292  0.5553
 7201SOL     OW33061   3.584   4.713  14.830 -0.4416  0.0142 -0.6153
 7201SOL    HW133062   3.526   4.657  14.881 -0.6970  0.3031 -0.5926
 7201SOL    HW233063   3.660   4.660  14.856 -1.2921 -0.7014  0.3960
 7202SOL     OW33064   0.989   3.786  16.665  0.8637 -0.8981 -0.0308
 7202SOL    HW133065   0.962   3.805  16.755 -1.7479 -0.1596 -0.9666
 7202SOL    HW233066   1.083   3.804  16.665  1.0196 -1.7169 -1.5964
 7203SOL     OW33067   0.638   3.868  12.801  0.0095 -0.3059 -0.7447
 7203SOL    HW133068   0.636   3.802  12.731 -2.1623 -1.0248  0.0095
 7203SOL    HW233069   0.732   3.886  12.795  0.0879 -0.3717  0.2269
 7204SOL     OW33070   0.888   4.576  14.417  0.0970 -0.3429  0.2096
 7204SOL    HW133071   0.814   4.536  14.462  1.6386 -1.0503  2.0534
 7204SOL    HW233072   0.928   4.502  14.372 -0.5371 -0.1466 -0.6920
 7205SOL     OW33073   0.560   3.131  10.923  0.4038  0.7812 -0.1885
 7205SOL    HW133074   0.619   3.056  10.933  0.4532  0.8370 -0.0570
 7205SOL    HW233075   0.579   3.169  11.009  1.7466  1.1593 -0.6475
 7206SOL     OW33076   3.778   0.855   7.928  0.7113  0.1381  0.0711
 7206SOL    HW133077   3.815   0.859   8.016  0.9071 -0.9541  0.0400
 7206SOL    HW233078   3.749   0.945   7.914 -1.3717 -0.2265  2.1846
 7207SOL     OW33079   3.258   1.525  13.592 -0.0891 -0.0994 -0.2047
 7207SOL    HW133080   3.200   1.524  13.515  0.2224  0.8325 -0.4565
 7207SOL    HW233081   3.203   1.514  13.669  0.5691  0.5985  0.3615
 7208SOL     OW33082   0.228   3.970  10.226 -0.3191 -0.4385  0.4674
 7208SOL    HW133083   0.245   4.063  10.245 -2.3814 -0.1373  0.8913
 7208SOL    HW233084   0.315   3.931  10.224  1.5935  3.8698 -0.8194
 7209SOL     OW33085   0.373   4.022   1.688  0.5121  0.3757  0.5979
 7209SOL    HW133086   0.459   4.049   1.718  0.3300  0.0910  1.3792
 7209SOL    HW233087   0.383   3.927   1.691 -1.7748  0.0897 -0.9275
 7210SOL     OW33088   2.302   3.511   9.493 -0.5327  0.1298  0.2856
 7210SOL    HW133089   2.350   3.557   9.424  1.8963 -2.9660 -0.0718
 7210SOL    HW233090   2.305   3.566   9.571 -0.3505 -0.1076  0.4428
 7211SOL     OW33091   1.774   3.179   6.346 -0.0121  0.2840 -0.2305
 7211SOL    HW133092   1.814   3.117   6.285 -1.3350 -2.9719  2.1647
 7211SOL    HW233093   1.782   3.124   6.425 -1.0116 -0.6262 -0.7528
 7212SOL     OW33094   1.283   2.164   1.882 -0.3340 -0.5894 -0.0238
 7212SOL    HW133095   1.357   2.225   1.875 -2.0869  1.6973  1.2161
 7212SOL    HW233096   1.292   2.130   1.794  1.9132  0.7661 -0.3228
 7213SOL     OW33097   2.954   4.586  10.357  0.1228 -0.1462  0.3046
 7213SOL    HW133098   2.989   4.551  10.440 -1.2796 -0.9604  0.5490
 7213SOL    HW233099   2.860   4.573  10.364  0.2206 -0.5271  1.0053
 7214SOL     OW33100   2.691   3.639   6.708  0.3046  0.2819 -0.4861
 7214SOL    HW133101   2.744   3.560   6.699 -0.3896 -0.1721 -0.6607
 7214SOL    HW233102   2.744   3.708   6.668  1.0246 -0.2556 -0.4450
 7215SOL     OW33103   3.588   1.729   6.661 -0.2389  0.0510 -0.0512
 7215SOL    HW133104   3.614   1.641   6.636  1.1186  0.5408 -0.3756
 7215SOL    HW233105   3.668   1.781   6.655 -0.9380  0.9474 -1.6413
 7216SOL     OW33106   1.146   0.680   3.189  0.2636 -0.4665  0.0314
 7216SOL    HW133107   1.120   0.665   3.098 -1.4217  1.8614  0.1513
 7216SOL    HW233108   1.181   0.769   3.195 -0.2536 -0.1044 -2.3326
 7217SOL     OW33109   1.702   1.309   9.116  0.3241  0.1329 -0.4915
 7217SOL    HW133110   1.722   1.403   9.121  1.0620 -0.0082 -0.7609
 7217SOL    HW233111   1.641   1.312   9.043  1.4181  1.1842 -1.3720
 7218SOL     OW33112   2.653   0.643   2.111  0.6764  0.5868  0.0047
 7218SOL    HW133113   2.596   0.565   2.115 -1.1970  1.9698  0.3712
 7218SOL    HW233114   2.699   0.645   2.195  0.8337  3.1225 -0.1565
 7219SOL     OW33115   3.187   0.894  16.556  0.3293 -0.1535  0.2835
 7219SOL    HW133116   3.188   0.931  16.467 -1.8152 -0.4050  0.1399
 7219SOL    HW233117   3.095   0.883  16.583 -0.0961  0.6211 -0.8290
 7220SOL     OW33118   2.364   4.587  12.914  0.5208  0.3626  0.4838
 7220SOL    HW133119   2.456   4.569  12.895  0.0579 -0.7577 -0.6828
 7220SOL    HW233120   2.325   4.501  12.895 -0.3354  0.6922  0.7194
 7221SOL     OW33121   4.081   0.384   5.623  0.0085  0.3098 -0.0344
 7221SOL    HW133122   4.088   0.479   5.615  1.7652  0.2337  0.5908
 7221SOL    HW233123   3.987   0.370   5.622 -0.1045  1.0594  0.6635
 7222SOL     OW33124   3.121   1.407   5.514  0.1358  0.6364  0.0911
 7222SOL    HW133125   3.145   1.499   5.516  2.0009  0.1243  1.6583
 7222SOL    HW233126   3.187   1.361   5.566 -0.5964  1.1170  1.4447
 7223SOL     OW33127   0.242   1.478   8.455 -0.7065 -0.4667  0.9846
 7223SOL    HW133128   0.221   1.533   8.531  2.0038 -1.6835  2.6319
 7223SOL    HW233129   0.162   1.426   8.457 -2.4673  2.2067 -0.5800
 7224SOL     OW33130   0.577   3.735   7.007  0.0972  0.3168 -0.0318
 7224SOL    HW133131   0.513   3.790   6.962 -0.5237 -1.6232 -1.5173
 7224SOL    HW233132   0.601   3.671   6.941  1.1863  1.0240 -0.3223
 7225SOL     OW33133   3.768   3.204   9.453  0.0614 -0.2428 -0.1754
 7225SOL    HW133134   3.709   3.261   9.403  0.3182 -0.5624 -0.8419
 7225SOL    HW233135   3.715   3.198   9.533  0.7072 -1.4978  0.1566
 7226SOL     OW33136   0.786   0.836   9.264 -0.3290  0.2780  0.5185
 7226SOL    HW133137   0.809   0.929   9.262 -0.9342  0.4873  2.2972
 7226SOL    HW233138   0.717   0.837   9.198 -0.5551  2.7384  0.7702
 7227SOL     OW33139   3.836   2.923  17.281  0.4318  0.4931  0.5701
 7227SOL    HW133140   3.847   3.006  17.233  0.8442 -0.1770 -0.4940
 7227SOL    HW233141   3.918   2.878  17.259  0.5131  0.0219  1.8495
 7228SOL     OW33142   1.486   4.446   8.041 -0.3289 -0.1357 -0.4912
 7228SOL    HW133143   1.543   4.422   8.114 -0.4234 -1.3055 -0.8100
 7228SOL    HW233144   1.425   4.504   8.086  0.9715 -0.3235  1.5051
 7229SOL     OW33145   3.518   3.219   7.304  0.6723 -0.3353  0.4734
 7229SOL    HW133146   3.489   3.168   7.229 -0.7334 -0.3373  1.0337
 7229SOL    HW233147   3.477   3.168   7.374 -0.8627  0.5303  0.2078
 7230SOL     OW33148   4.105   2.635   0.402 -0.0388 -0.0076  0.6670
 7230SOL    HW133149   4.065   2.586   0.474 -0.2380 -2.8295 -1.3574
 7230SOL    HW233150   4.141   2.704   0.457 -1.5103  1.0934  0.2376
 7231SOL     OW33151   3.277   0.846   0.562  0.0528 -0.4313  0.4450
 7231SOL    HW133152   3.275   0.786   0.636 -1.4975 -0.7636  0.1384
 7231SOL    HW233153   3.228   0.805   0.491 -0.9000 -0.6483  1.2468
 7232SOL     OW33154   0.908   3.622   0.506 -0.0969 -0.0271 -0.1211
 7232SOL    HW133155   0.937   3.672   0.583  1.3321 -0.0014 -0.6806
 7232SOL    HW233156   0.993   3.599   0.469  0.0055 -1.9005  1.2753
 7233SOL     OW33157   1.933   1.392   4.061  0.7853 -0.2508  0.0218
 7233SOL    HW133158   2.000   1.362   4.000  2.0407  0.1147  1.2388
 7233SOL    HW233159   1.853   1.398   4.007  1.2380 -3.4064 -1.0054
 7234SOL     OW33160   1.468   1.632   6.141  0.1497 -0.0890 -0.0969
 7234SOL    HW133161   1.460   1.712   6.194 -1.7825 -0.3488 -0.0050
 7234SOL    HW233162   1.558   1.609   6.165  1.3243  0.9192 -3.5798
 7235SOL     OW33163   0.518   3.126   4.519  0.3776 -0.6803  0.1948
 7235SOL    HW133164   0.509   3.140   4.425 -3.3532 -0.0811  0.6511
 7235SOL    HW233165   0.608   3.096   4.537  0.1591 -1.5402 -0.1554
 7236SOL     OW33166   3.579   2.030  14.938 -0.2801  0.5806  0.0198
 7236SOL    HW133167   3.630   2.094  14.889 -1.6147  1.0381 -0.7584
 7236SOL    HW233168   3.603   2.059  15.026 -0.9709  1.2249 -0.0025
 7237SOL     OW33169   4.680   3.467   2.240 -0.0266  0.1151  0.1425
 7237SOL    HW133170   4.645   3.396   2.187 -0.4077  0.8197 -0.5440
 7237SOL    HW233171   0.024   3.505   2.180  1.1266  0.4279  1.5599
 7238SOL     OW33172   0.529   3.296  15.707  0.1505  0.0437  0.0823
 7238SOL    HW133173   0.482   3.264  15.784  1.9005 -0.4391  0.9473
 7238SOL    HW233174   0.586   3.219  15.698 -0.6646 -0.2291 -2.6141
 7239SOL     OW33175   3.274   1.450   9.798  0.4312 -0.3085  1.1730
 7239SOL    HW133176   3.249   1.430   9.888 -0.6344 -1.0792  0.7125
 7239SOL    HW233177   3.347   1.390   9.783  0.5141  0.4125 -1.3164
 7240SOL     OW33178   4.278   2.180   1.051  0.7097 -0.2170  0.6849
 7240SOL    HW133179   4.264   2.211   1.141 -0.3455 -0.6650  0.6662
 7240SOL    HW233180   4.370   2.200   1.035  1.1633 -1.4528  1.7678
 7241SOL     OW33181   1.926   0.435   7.776 -0.3873 -0.0785  0.2403
 7241SOL    HW133182   1.951   0.475   7.692  0.5262 -0.9427  0.0928
 7241SOL    HW233183   1.992   0.483   7.825  0.0120 -2.6419  2.1903
 7242SOL     OW33184   1.840   1.995   6.209  0.8884  0.0292 -0.5839
 7242SOL    HW133185   1.848   2.074   6.156  0.3264  0.6359  0.2207
 7242SOL    HW233186   1.754   2.009   6.249  1.5161  1.6960  0.2170
 7243SOL     OW33187   3.546   3.737   7.394 -0.2563 -0.1338 -0.6379
 7243SOL    HW133188   3.637   3.737   7.364  0.2165  0.1711  0.7781
 7243SOL    HW233189   3.522   3.646   7.380 -1.3484  0.3646 -1.9327
 7244SOL     OW33190   2.591   1.253   9.822 -0.1051 -0.3208  0.1189
 7244SOL    HW133191   2.560   1.293   9.903 -2.6434  0.8613 -1.4410
 7244SOL    HW233192   2.676   1.220   9.850 -0.7015 -1.2058  0.8644
 7245SOL     OW33193   0.317   4.357  14.546  0.2644 -0.0513 -0.4934
 7245SOL    HW133194   0.302   4.306  14.466  1.1193 -2.0798  0.6352
 7245SOL    HW233195   0.315   4.288  14.613  1.5912  1.9680  1.6212
 7246SOL     OW33196   0.997   4.503   7.160  0.0882 -0.0935 -0.4185
 7246SOL    HW133197   1.067   4.508   7.225  0.3257  1.2407 -0.7813
 7246SOL    HW233198   1.041   4.458   7.088  0.3894 -0.0608 -0.2519
 7247SOL     OW33199   0.331   4.469   7.065  0.1410  0.5874 -0.1410
 7247SOL    HW133200   0.407   4.441   7.117 -0.0944  4.1374  2.0820
 7247SOL    HW233201   0.378   4.514   6.995  2.4297 -2.5540 -0.6897
 7248SOL     OW33202   4.604   1.908   3.588  0.0445  0.0463 -0.0004
 7248SOL    HW133203   4.698   1.926   3.599 -0.6157  1.9951  2.4291
 7248SOL    HW233204   4.575   1.954   3.509  3.0630  2.2369  0.1516
 7249SOL     OW33205   4.393   3.327   3.557  0.1914 -0.2369 -0.3500
 7249SOL    HW133206   4.474   3.359   3.517  1.4442 -3.5578 -0.4551
 7249SOL    HW233207   4.420   3.235   3.563 -0.4791 -0.3627  0.7391
 7250SOL     OW33208   4.445   0.372   5.760 -0.3593  0.0355 -0.3746
 7250SOL    HW133209   4.478   0.411   5.679  1.5267 -0.7880  0.0051
 7250SOL    HW233210   4.443   0.280   5.734  1.6196  0.3100 -1.4907
 7251SOL     OW33211   0.913   0.006   1.195 -0.3345 -0.0278 -0.0518
 7251SOL    HW133212   0.837   0.059   1.169  0.7838  0.1209 -3.1257
 7251SOL    HW233213   0.878   4.639   1.181  0.0612  0.0485 -1.5970
 7252SOL     OW33214   0.977   3.659   6.761 -0.2805  0.2154 -0.1953
 7252SOL    HW133215   0.928   3.580   6.740 -0.1926  0.1902 -0.3074
 7252SOL    HW233216   0.998   3.682   6.671  0.3832 -0.9633 -0.3530
 7253SOL     OW33217   3.291   1.974   7.703 -0.7412 -0.6606  0.1072
 7253SOL    HW133218   3.243   2.038   7.756 -1.2195 -0.7132 -0.2634
 7253SOL    HW233219   3.223   1.952   7.639 -1.0185  1.1358 -0.2167
 7254SOL     OW33220   2.253   1.927   1.220 -0.7657  0.4507  0.2495
 7254SOL    HW133221   2.186   1.871   1.260 -0.3594  0.0674  0.3968
 7254SOL    HW233222   2.247   1.888   1.133  0.0487  2.5473 -0.7257
 7255SOL     OW33223   0.907   1.061   8.560  0.7481 -0.0585  0.7010
 7255SOL    HW133224   0.959   1.062   8.479  2.7552 -2.2160  1.9789
 7255SOL    HW233225   0.969   1.057   8.632 -0.6346  0.4199  1.8994
 7256SOL     OW33226   1.864   2.209   5.416 -0.2034  0.5527  0.3104
 7256SOL    HW133227   1.920   2.138   5.449  0.2138  0.8282  0.1995
 7256SOL    HW233228   1.927   2.275   5.386  0.6095 -0.6235 -0.5930
 7257SOL     OW33229   0.565   0.679   3.387  0.1761 -0.7149  0.4153
 7257SOL    HW133230   0.589   0.599   3.435  0.3443  0.0640  1.6306
 7257SOL    HW233231   0.489   0.655   3.334  0.5282  0.1390 -0.4549
 7258SOL     OW33232   0.220   1.167   1.020  0.0812 -0.3812 -0.4148
 7258SOL    HW133233   0.196   1.081   0.987  2.0315 -1.3684  0.7093
 7258SOL    HW233234   0.132   1.204   1.025 -0.0472 -1.0199  2.2940
 7259SOL     OW33235   3.441   4.046   8.306 -1.1081  0.1891  0.3448
 7259SOL    HW133236   3.364   4.015   8.258 -0.8753  1.8447 -1.1104
 7259SOL    HW233237   3.510   4.048   8.239 -0.4977  2.3294  1.0533
 7260SOL     OW33238   2.083   2.165   4.911  0.1568  0.3055 -0.5452
 7260SOL    HW133239   2.097   2.252   4.946 -1.4018 -0.0411  0.9335
 7260SOL    HW233240   2.094   2.189   4.819  2.8191 -1.1024 -0.5963
 7261SOL     OW33241   1.842   1.472   5.111  0.0756 -0.4524 -0.7947
 7261SOL    HW133242   1.839   1.548   5.054  1.4023 -0.2319 -0.5749
 7261SOL    HW233243   1.936   1.470   5.131  0.0893 -0.6662 -0.8756
 7262SOL     OW33244   1.658   1.300   7.372 -0.1199 -0.0273  0.0739
 7262SOL    HW133245   1.699   1.229   7.421 -0.0390  0.0905  0.1784
 7262SOL    HW233246   1.640   1.254   7.290  0.4555 -0.0675 -0.0342
 7263SOL     OW33247   3.931   2.566  16.779  0.4361 -0.3079  0.1605
 7263SOL    HW133248   3.927   2.502  16.708  0.4395  0.1699 -0.2710
 7263SOL    HW233249   3.844   2.577  16.817  0.4383  1.1493 -0.2476
 7264SOL     OW33250   3.902   3.423   4.883  0.6281 -0.3856 -0.0234
 7264SOL    HW133251   3.900   3.327   4.880  1.9029 -0.3884 -1.0100
 7264SOL    HW233252   3.824   3.446   4.833  0.0115 -2.8111 -0.2076
 7265SOL     OW33253   1.531   2.028  13.700  0.4692  0.4253  0.1457
 7265SOL    HW133254   1.552   1.961  13.764  1.4425  0.8733  0.2871
 7265SOL    HW233255   1.502   2.100  13.756 -0.0504  0.3912 -0.0784
 7266SOL     OW33256   1.736   2.010  14.846 -0.1048 -0.3367 -0.5379
 7266SOL    HW133257   1.725   2.007  14.941 -0.0644  1.2323 -0.4837
 7266SOL    HW233258   1.699   1.924  14.823  2.1305 -1.7965  1.3546
 7267SOL     OW33259   0.167   3.349   1.674  0.2136 -0.6730  0.0689
 7267SOL    HW133260   0.247   3.346   1.727  0.9532 -0.7038 -1.0378
 7267SOL    HW233261   0.193   3.399   1.596 -2.3032  0.2380 -0.1630
 7268SOL     OW33262   3.457   2.393   4.956 -0.0178 -0.1818 -0.1361
 7268SOL    HW133263   3.395   2.379   4.884  0.0203  0.9084 -0.3898
 7268SOL    HW233264   3.463   2.306   4.994 -0.5984 -0.1880 -0.0504
 7269SOL     OW33265   2.293   2.074   6.918  0.4872 -0.5366 -0.1729
 7269SOL    HW133266   2.359   2.039   6.977 -1.3001 -0.6114  1.7853
 7269SOL    HW233267   2.281   2.162   6.956 -2.0453 -0.7876 -0.3749
 7270SOL     OW33268   3.762   0.750   8.365 -0.5516 -0.0406  0.6221
 7270SOL    HW133269   3.801   0.810   8.301  1.4531 -0.8411  1.0830
 7270SOL    HW233270   3.739   0.806   8.439 -0.0580  0.7778  0.1639
 7271SOL     OW33271   3.868   3.394   1.737 -0.3304 -0.0968 -0.3219
 7271SOL    HW133272   3.801   3.354   1.681 -0.5275 -0.2565  0.0292
 7271SOL    HW233273   3.851   3.337   1.811 -0.0634  0.4610  0.1733
 7272SOL     OW33274   1.065   2.483   2.493  0.0376  0.5444  0.4156
 7272SOL    HW133275   1.149   2.530   2.496  0.1861  0.4521 -2.1305
 7272SOL    HW233276   1.019   2.527   2.564  0.1306 -1.9149  2.0010
 7273SOL     OW33277   0.566   3.148   2.038 -0.0338 -0.7218  0.1475
 7273SOL    HW133278   0.489   3.104   2.076 -0.5741 -0.5785 -0.7866
 7273SOL    HW233279   0.609   3.073   1.996 -0.0437 -1.3514  1.2353
 7274SOL     OW33280   2.596   2.857  11.484 -0.0713 -0.2469  0.4141
 7274SOL    HW133281   2.511   2.887  11.516  0.0522  0.9090 -0.3386
 7274SOL    HW233282   2.629   2.934  11.436 -1.0547 -0.1929 -0.1591
 7275SOL     OW33283   2.074   4.551   8.443 -0.6513  0.3069 -0.6123
 7275SOL    HW133284   2.012   4.500   8.390 -2.3451 -0.2807  1.9472
 7275SOL    HW233285   2.018   4.576   8.517  1.1646  0.5518  0.6840
 7276SOL     OW33286   1.429   1.175  10.966 -0.1867 -0.7156  0.1079
 7276SOL    HW133287   1.345   1.131  10.981 -0.0572 -0.0566  2.9044
 7276SOL    HW233288   1.493   1.114  11.003  1.7039  0.1502 -1.7656
 7277SOL     OW33289   2.542   3.486   7.770 -0.4069  0.3435  0.0128
 7277SOL    HW133290   2.564   3.400   7.733  2.4181  2.2079 -2.6120
 7277SOL    HW233291   2.450   3.483   7.745 -0.5298  5.0730 -0.0081
 7278SOL     OW33292   2.038   2.128   3.351  0.5121 -0.3524 -0.0637
 7278SOL    HW133293   2.001   2.208   3.390  2.6722 -0.2967  1.8835
 7278SOL    HW233294   1.998   2.127   3.264  4.5381  1.0730 -1.9238
 7279SOL     OW33295   3.740   3.629   9.317 -0.6575  0.0303 -0.0766
 7279SOL    HW133296   3.772   3.636   9.407  0.1741  0.2763 -0.3863
 7279SOL    HW233297   3.775   3.541   9.306  1.6749  0.6882  2.1446
 7280SOL     OW33298   0.309   1.677  17.335 -0.7723  0.6673  0.0410
 7280SOL    HW133299   0.285   1.694  17.426 -1.6588  2.1131 -0.4617
 7280SOL    HW233300   0.231   1.707  17.289  0.8535  2.5687 -1.4658
 7281SOL     OW33301   2.772   3.673   4.972  0.2464 -0.1081 -0.2194
 7281SOL    HW133302   2.734   3.586   4.984  0.2661  0.0782  1.1917
 7281SOL    HW233303   2.863   3.654   4.948  0.6853  0.6773  0.8582
 7282SOL     OW33304   3.955   2.332   4.029 -0.2214 -0.4069 -0.7202
 7282SOL    HW133305   3.915   2.391   3.966 -0.1659 -1.8300 -2.0994
 7282SOL    HW233306   3.995   2.274   3.964  1.0386 -0.0718 -0.2465
 7283SOL     OW33307   4.608   2.737   4.082 -0.1398 -0.1553  0.1674
 7283SOL    HW133308   4.524   2.715   4.121  0.6787 -1.5208  1.1716
 7283SOL    HW233309   4.667   2.678   4.129 -0.2182 -1.7149 -1.7160
 7284SOL     OW33310   2.164   2.988   8.878 -0.5169 -0.6187  0.4526
 7284SOL    HW133311   2.208   3.053   8.932 -0.6292  1.0814 -1.5412
 7284SOL    HW233312   2.228   2.916   8.873 -0.7153 -0.8911  1.8506
 7285SOL     OW33313   1.309   3.538   4.681 -0.5430 -0.0022  0.1769
 7285SOL    HW133314   1.235   3.500   4.729 -0.9076 -1.2692 -1.3833
 7285SOL    HW233315   1.269   3.559   4.597  1.6765  2.3940 -0.2798
 7286SOL     OW33316   0.195   0.664   6.426 -0.2300  0.2126 -0.2603
 7286SOL    HW133317   0.211   0.677   6.332  1.9563 -0.6130 -0.0058
 7286SOL    HW233318   0.247   0.585   6.443 -0.7084  0.0795  0.5990
 7287SOL     OW33319   4.699   2.807  14.741  0.8010 -0.3273 -0.4984
 7287SOL    HW133320   4.716   2.799  14.835 -1.9669  1.9288  0.2152
 7287SOL    HW233321   4.643   2.885  14.739 -0.3322 -1.0884  0.6429
 7288SOL     OW33322   3.064   3.792  10.978 -0.3476  0.5747  0.0468
 7288SOL    HW133323   3.083   3.703  10.951  0.2183  0.6675  0.1432
 7288SOL    HW233324   3.151   3.828  10.995 -0.6638  1.6265 -0.5098
 7289SOL     OW33325   3.482   2.198   6.558  0.1162 -0.4385  0.0124
 7289SOL    HW133326   3.414   2.222   6.495 -0.7968  1.2426  1.6416
 7289SOL    HW233327   3.464   2.104   6.555  0.8184 -0.6164  1.5288
 7290SOL     OW33328   1.989   3.088  15.506 -0.3524  0.5941 -0.2428
 7290SOL    HW133329   2.078   3.081  15.472  0.2427 -0.4345  1.4880
 7290SOL    HW233330   1.970   3.000  15.540  1.3539  0.5217  0.5455
 7291SOL     OW33331   1.883   4.416  12.306  0.0873 -0.2930 -0.6605
 7291SOL    HW133332   1.848   4.367  12.381 -1.1240  1.9069  0.2032
 7291SOL    HW233333   1.974   4.418  12.336 -0.4982  1.1116  0.9897
 7292SOL     OW33334   1.364   0.191   8.619  0.2441 -0.1300  0.4631
 7292SOL    HW133335   1.272   0.172   8.638  0.6299 -1.3596  1.1547
 7292SOL    HW233336   1.370   0.266   8.678 -0.3160 -0.6615  1.2100
 7293SOL     OW33337   0.698   0.494   7.040  0.3842  0.2358 -0.4980
 7293SOL    HW133338   0.609   0.526   7.026 -0.2891 -0.5200  2.0474
 7293SOL    HW233339   0.709   0.464   6.950  1.5452  3.2785 -1.3466
 7294SOL     OW33340   1.894   4.511   6.599  0.3405  0.1942  0.1643
 7294SOL    HW133341   1.887   4.542   6.689 -1.4155  1.0123 -0.2559
 7294SOL    HW233342   1.942   4.430   6.615  1.3181  0.4343 -1.5056
 7295SOL     OW33343   1.105   3.661   4.544 -0.0865 -0.2468  0.5668
 7295SOL    HW133344   1.109   3.680   4.451 -0.9680 -0.0881  0.5672
 7295SOL    HW233345   1.063   3.744   4.564 -2.5015 -1.4835  0.5985
 7296SOL     OW33346   1.590   1.768  10.680 -0.7379 -0.0411  0.1268
 7296SOL    HW133347   1.629   1.856  10.679 -1.3706  0.2386 -0.1910
 7296SOL    HW233348   1.552   1.765  10.768 -0.6179  0.6951  0.2030
 7297SOL     OW33349   3.476   4.602   6.069  0.3515  0.6031 -0.0686
 7297SOL    HW133350   3.439   4.588   6.156  0.5375 -0.1024 -0.1008
 7297SOL    HW233351   3.402   4.558   6.027  1.4033 -0.6703 -0.6052
 7298SOL     OW33352   2.423   4.169  16.611 -0.1958 -0.3455 -0.1591
 7298SOL    HW133353   2.422   4.080  16.647 -0.5695 -0.6164 -0.8622
 7298SOL    HW233354   2.465   4.168  16.525  1.6237 -1.9719  0.7361
 7299SOL     OW33355   1.702   4.420  14.116 -0.0397 -0.7164 -0.0756
 7299SOL    HW133356   1.772   4.386  14.172 -0.5237 -0.4059  0.7169
 7299SOL    HW233357   1.760   4.466  14.056 -1.0925 -1.4870 -1.6680
 7300SOL     OW33358   1.977   3.097   2.224  0.4322 -0.2842  0.0166
 7300SOL    HW133359   1.920   3.020   2.224 -1.4828  1.1456 -1.2436
 7300SOL    HW233360   1.905   3.160   2.223  0.6705 -0.0144 -0.3015
 7301SOL     OW33361   1.607   3.038   5.850  0.3748 -0.0779  0.1656
 7301SOL    HW133362   1.533   3.085   5.812 -0.2411 -0.8457  0.4178
 7301SOL    HW233363   1.578   3.047   5.941 -0.0592 -1.8453  0.2065
 7302SOL     OW33364   3.085   4.255   6.432  0.6346 -0.2313 -0.2443
 7302SOL    HW133365   3.062   4.183   6.373  0.7437 -0.5700  0.1267
 7302SOL    HW233366   3.174   4.224   6.451 -0.6003 -1.7594  2.9898
 7303SOL     OW33367   0.566   0.115   6.319  0.2123  0.3053 -0.7105
 7303SOL    HW133368   0.532   0.038   6.273 -0.7376  0.5399 -0.4129
 7303SOL    HW233369   0.500   0.178   6.292 -1.2697 -0.2240  1.6165
 7304SOL     OW33370   1.774   4.504  13.414  0.3347  0.4016 -0.6782
 7304SOL    HW133371   1.708   4.519  13.347 -2.4190  0.7951  2.1359
 7304SOL    HW233372   1.713   4.471  13.480 -0.0132  1.5799 -0.4253
 7305SOL     OW33373   3.926   4.371   6.951  0.3154 -0.7480 -0.8427
 7305SOL    HW133374   3.973   4.388   7.032  1.0485  0.0723 -1.4386
 7305SOL    HW233375   3.838   4.348   6.981 -0.9203  2.8844 -1.6768
 7306SOL     OW33376   1.498   3.469  15.115 -0.6932  0.0008 -0.0077
 7306SOL    HW133377   1.440   3.399  15.145 -0.8852 -0.0825 -0.5762
 7306SOL    HW233378   1.573   3.452  15.171 -2.9118 -2.5515  2.1782
 7307SOL     OW33379   4.162   2.160   6.733 -0.8071  0.1759 -0.0368
 7307SOL    HW133380   4.144   2.066   6.734 -2.7857  0.5539  0.1368
 7307SOL    HW233381   4.139   2.176   6.824 -0.5242 -1.2138  0.2753
 7308SOL     OW33382   0.623   0.372  11.562 -0.1805  0.0719 -0.0131
 7308SOL    HW133383   0.673   0.358  11.481  2.5052 -0.6950  1.7875
 7308SOL    HW233384   0.529   0.376  11.542 -0.0979 -3.2605 -1.0702
 7309SOL     OW33385   0.551   3.709   9.465  0.1288  0.0430 -0.7539
 7309SOL    HW133386   0.571   3.655   9.388  0.1201  0.6419 -1.1840
 7309SOL    HW233387   0.638   3.714   9.503 -0.4076 -0.9571  0.5864
 7310SOL     OW33388   1.268   2.385   7.032  0.4229  0.0632 -0.6400
 7310SOL    HW133389   1.315   2.301   7.034 -0.2568 -0.3077 -0.1165
 7310SOL    HW233390   1.214   2.390   7.111  0.3923 -0.9796 -0.5918
 7311SOL     OW33391   3.450   0.053   2.990 -0.2425  0.4447  0.2280
 7311SOL    HW133392   3.472   0.133   2.942 -0.0067  0.0220 -0.3644
 7311SOL    HW233393   3.469   4.706   2.926  0.1072  1.2280 -0.4985
 7312SOL     OW33394   1.783   3.314   2.138 -0.0110 -0.9091  0.5749
 7312SOL    HW133395   1.739   3.259   2.204 -2.1647 -0.5204 -0.5275
 7312SOL    HW233396   1.700   3.336   2.095  1.0125  1.3667 -0.2258
 7313SOL     OW33397   3.617   4.330   7.767 -0.1089  0.1329 -0.1041
 7313SOL    HW133398   3.557   4.325   7.842  0.1995  1.4060  0.2088
 7313SOL    HW233399   3.697   4.309   7.815 -0.7646  1.5737  1.6232
 7314SOL     OW33400   0.550   1.028   7.893 -0.5600  0.1569 -0.1903
 7314SOL    HW133401   0.589   1.002   7.809  0.4899  1.7977 -0.1965
 7314SOL    HW233402   0.512   0.947   7.928  2.8345 -1.6329 -0.6364
 7315SOL     OW33403   3.211   4.342   4.680  0.4198 -0.6953 -0.1239
 7315SOL    HW133404   3.208   4.428   4.640 -2.9374 -0.1684  1.2748
 7315SOL    HW233405   3.131   4.338   4.733  0.3601 -1.3774 -0.2555
 7316SOL     OW33406   0.594   3.717   5.254 -0.3669 -0.3137  0.0579
 7316SOL    HW133407   0.514   3.770   5.259  0.1863  0.4959  0.3581
 7316SOL    HW233408   0.627   3.760   5.332 -2.6448  1.2600  0.1662
 7317SOL     OW33409   4.469   0.439  16.802 -0.3165  0.2299 -0.4573
 7317SOL    HW133410   4.439   0.528  16.783 -0.2468 -0.2001 -2.5741
 7317SOL    HW233411   4.467   0.429  16.897  3.7341 -3.6925 -0.7627
 7318SOL     OW33412   1.789   2.526   0.451 -0.2651 -0.5991 -0.3508
 7318SOL    HW133413   1.726   2.457   0.470  0.0724 -0.9641 -0.5648
 7318SOL    HW233414   1.734   2.605   0.447 -0.2989 -0.6023  0.0421
 7319SOL     OW33415   3.618   3.048   2.898 -0.1245  0.0207  0.0192
 7319SOL    HW133416   3.550   2.989   2.929  0.3986 -0.3971  0.3634
 7319SOL    HW233417   3.669   2.984   2.850  1.8294  2.8501 -1.6950
 7320SOL     OW33418   1.304   3.301   6.008 -0.5691 -0.1045  0.1755
 7320SOL    HW133419   1.313   3.396   5.995  3.2116 -0.4492  0.2224
 7320SOL    HW233420   1.351   3.291   6.091  1.2306  2.4773 -0.5066
 7321SOL     OW33421   3.643   3.445   2.581  0.1269 -0.0390  0.2817
 7321SOL    HW133422   3.614   3.380   2.645 -0.9289 -0.8654 -1.0183
 7321SOL    HW233423   3.691   3.392   2.517  1.4573  1.9478 -0.3472
 7322SOL     OW33424   2.728   1.858   4.754  0.1025 -0.6286  0.2405
 7322SOL    HW133425   2.639   1.874   4.783 -0.7168 -1.8015 -1.6199
 7322SOL    HW233426   2.737   1.914   4.676  0.6295  1.1652  1.5997
 7323SOL     OW33427   1.398   3.310   5.254  0.0529  0.5140  0.2513
 7323SOL    HW133428   1.311   3.284   5.223 -0.1092 -0.1789  1.2836
 7323SOL    HW233429   1.402   3.400   5.222  0.0284  0.4946  0.1928
 7324SOL     OW33430   2.563   4.703   8.323  0.6019 -0.1377  0.1202
 7324SOL    HW133431   2.545   4.610   8.305  0.7379  0.0888 -1.2156
 7324SOL    HW233432   2.514   4.714   8.404 -0.4145  0.2240 -0.5363
 7325SOL     OW33433   2.499   1.362   1.051 -0.1229  0.3283 -0.2343
 7325SOL    HW133434   2.420   1.398   1.010 -0.2008  0.4219  0.0019
 7325SOL    HW233435   2.472   1.275   1.080  2.4220 -0.3674  0.0598
 7326SOL     OW33436   1.270   2.388  13.071 -0.6393  0.5349  0.2382
 7326SOL    HW133437   1.334   2.420  13.007 -0.1784  1.6848  1.2783
 7326SOL    HW233438   1.327   2.337  13.129  1.3901  2.0095 -0.4458
 7327SOL     OW33439   1.263   2.571   6.680  0.0270 -0.1985 -0.1403
 7327SOL    HW133440   1.340   2.619   6.649 -0.2535  0.3823  0.0790
 7327SOL    HW233441   1.281   2.569   6.774  1.8409  1.1129 -0.4477
 7328SOL     OW33442   1.623   1.638   4.524 -0.4065  0.1509  0.1332
 7328SOL    HW133443   1.622   1.652   4.619  0.7159  0.1037  0.1466
 7328SOL    HW233444   1.589   1.717   4.481 -1.5455 -0.1353  0.5009
 7329SOL     OW33445   0.442   3.352   1.933 -0.2200 -0.4439  0.2606
 7329SOL    HW133446   0.468   3.440   1.961 -2.6204  0.4050 -0.1099
 7329SOL    HW233447   0.508   3.293   1.968 -1.5248 -1.5248  0.8981
 7330SOL     OW33448   1.804   0.196  13.799  0.2498 -0.1978 -0.2749
 7330SOL    HW133449   1.848   0.132  13.856  0.6081  0.5735  0.3070
 7330SOL    HW233450   1.750   0.253  13.854  1.7738  0.1978  0.8314
 7331SOL     OW33451   2.691   3.760   3.866 -0.0400  0.1165 -0.1787
 7331SOL    HW133452   2.744   3.813   3.926 -0.9619 -0.1001  0.8247
 7331SOL    HW233453   2.660   3.687   3.920 -0.2106 -0.3476 -0.9060
 7332SOL     OW33454   2.841   2.206  13.242  0.5008 -0.0305 -0.2090
 7332SOL    HW133455   2.914   2.160  13.283  0.1819 -0.2245  0.1457
 7332SOL    HW233456   2.884   2.286  13.212  1.4754 -0.3707  0.2871
 7333SOL     OW33457   0.486   4.377   7.275  0.0501 -0.2487  0.5178
 7333SOL    HW133458   0.543   4.429   7.332 -0.9420  0.0027  1.2680
 7333SOL    HW233459   0.417   4.341   7.331 -0.1192  0.3124  0.6653
 7334SOL     OW33460   1.678   2.889   5.026 -0.2333 -0.3311  0.6575
 7334SOL    HW133461   1.641   2.961   5.076 -1.0456 -1.6594  1.9735
 7334SOL    HW233462   1.639   2.923   4.946 -0.3569  0.7007  1.1569
 7335SOL     OW33463   3.061   2.603   8.705 -0.0600  0.6021  0.3086
 7335SOL    HW133464   3.048   2.508   8.698  0.3247  0.5150  0.7374
 7335SOL    HW233465   3.146   2.606   8.662 -1.6664  1.1614 -2.8217
 7336SOL     OW33466   4.234   0.890   4.586 -0.0449  0.6817  0.1575
 7336SOL    HW133467   4.195   0.976   4.568  0.3617  0.8099 -0.1183
 7336SOL    HW233468   4.163   0.848   4.635 -0.5755 -1.2390 -2.2618
 7337SOL     OW33469   0.603   0.810   5.967  0.1361  0.8009  0.2347
 7337SOL    HW133470   0.577   0.776   5.881 -0.4790  2.2379 -0.1577
 7337SOL    HW233471   0.624   0.903   5.952 -1.2959  1.1729  0.5574
 7338SOL     OW33472   2.972   1.472   8.912 -0.4030 -0.0969 -0.4231
 7338SOL    HW133473   3.018   1.404   8.865  1.3131  0.4092  0.5372
 7338SOL    HW233474   2.914   1.429   8.976  0.5521 -0.3240  0.2831
 7339SOL     OW33475   4.379   2.872   8.768  0.5223  0.1953 -0.7113
 7339SOL    HW133476   4.347   2.877   8.858  2.4888 -0.0723 -0.0018
 7339SOL    HW233477   4.323   2.936   8.725  0.6046 -0.3069 -1.5763
 7340SOL     OW33478   3.122   1.057   1.441  0.2670 -0.2478  0.4338
 7340SOL    HW133479   3.118   1.128   1.506  3.7233  0.2831  0.0618
 7340SOL    HW233480   3.164   0.994   1.498 -1.4657  0.0002  1.9998
 7341SOL     OW33481   1.500   0.497   4.185 -0.2629  0.1873 -0.4139
 7341SOL    HW133482   1.560   0.564   4.219 -0.9083  0.4776  0.1660
 7341SOL    HW233483   1.427   0.554   4.160 -0.8443 -0.3193  0.1277
 7342SOL     OW33484   0.947   4.443   8.886 -0.1405  0.3340  0.2279
 7342SOL    HW133485   0.895   4.370   8.920 -0.2242 -1.1900 -3.2549
 7342SOL    HW233486   0.918   4.443   8.795 -0.7273  0.0111  0.4154
 7343SOL     OW33487   2.815   0.697   5.931 -0.1322  0.0205  0.2323
 7343SOL    HW133488   2.725   0.727   5.946 -0.2001  0.1131 -0.3529
 7343SOL    HW233489   2.820   0.661   6.020  0.6880 -0.1223  0.1239
 7344SOL     OW33490   2.470   3.567   2.558 -0.5670 -0.2975  0.1224
 7344SOL    HW133491   2.447   3.565   2.465  1.5773 -4.6790 -0.3460
 7344SOL    HW233492   2.552   3.517   2.552  0.1632  0.5834  2.5350
 7345SOL     OW33493   0.729   3.552   7.743 -0.2630  0.0763  0.3437
 7345SOL    HW133494   0.820   3.584   7.742 -1.3901  3.2563 -0.7607
 7345SOL    HW233495   0.677   3.631   7.733 -1.2333 -0.7295 -0.8715
 7346SOL     OW33496   0.972   0.709   6.061 -0.1334  0.0479 -0.6574
 7346SOL    HW133497   1.048   0.729   6.115 -0.7889 -0.1903  0.3581
 7346SOL    HW233498   1.012   0.672   5.982  1.0939  0.9327 -0.4453
 7347SOL     OW33499   4.105   1.461  16.052 -0.0339 -0.7958  0.9003
 7347SOL    HW133500   4.056   1.538  16.081 -0.6120 -0.8675  0.1283
 7347SOL    HW233501   4.101   1.483  15.959  3.6784 -0.5278  0.8299
 7348SOL     OW33502   0.953   2.717   4.379 -0.3776  0.0353  0.2447
 7348SOL    HW133503   0.953   2.746   4.288 -2.1117  1.0075  0.5722
 7348SOL    HW233504   1.021   2.649   4.381 -0.7725 -0.3473  0.6777
 7349SOL     OW33505   0.297   3.829   3.897  0.0181  0.3702 -0.3009
 7349SOL    HW133506   0.300   3.802   3.805 -3.9798 -1.9100  0.2472
 7349SOL    HW233507   0.351   3.764   3.940  1.6907  1.4189 -0.8046
 7350SOL     OW33508   1.585   3.275   8.148  0.0531 -0.0518 -0.1029
 7350SOL    HW133509   1.598   3.343   8.082  1.1495  0.8173  1.0131
 7350SOL    HW233510   1.498   3.238   8.130  0.6674  0.0256 -3.2506
 7351SOL     OW33511   0.979   3.284  13.170 -0.6404 -0.2541 -0.7493
 7351SOL    HW133512   0.905   3.281  13.231  0.5437  0.9622  0.7395
 7351SOL    HW233513   1.050   3.290  13.234 -1.8743 -0.5211  0.6440
 7352SOL     OW33514   3.771   2.383  15.309  0.1586  0.4897  0.1554
 7352SOL    HW133515   3.758   2.378  15.403  0.8617  0.1910  0.2359
 7352SOL    HW233516   3.846   2.327  15.292  0.7848  1.2843  0.2966
 7353SOL     OW33517   3.671   0.179  11.637 -0.5871 -0.1110 -0.6834
 7353SOL    HW133518   3.704   0.117  11.572 -1.0114 -0.7339 -0.3097
 7353SOL    HW233519   3.583   0.142  11.641 -1.1290  0.9183 -3.0048
 7354SOL     OW33520   0.781   2.310   7.006  0.4704 -0.2812 -0.2159
 7354SOL    HW133521   0.831   2.320   6.924 -0.3792  1.0913 -0.5789
 7354SOL    HW233522   0.689   2.312   6.979  0.7067  2.5799 -0.8139
 7355SOL     OW33523   0.862   3.290   4.638 -0.1203 -0.1131  0.0317
 7355SOL    HW133524   0.814   3.372   4.626 -2.1012 -1.2850  0.0726
 7355SOL    HW233525   0.852   3.238   4.558  1.7272 -0.1690 -0.1734
 7356SOL     OW33526   0.303   4.310   8.856 -0.4181 -0.3125 -0.7099
 7356SOL    HW133527   0.249   4.298   8.934 -0.4038 -0.4196 -0.7155
 7356SOL    HW233528   0.236   4.306   8.787 -1.1813 -0.6567  0.0497
 7357SOL     OW33529   3.458   3.418   8.819 -1.0845  0.2058  0.1543
 7357SOL    HW133530   3.474   3.498   8.768  1.7132 -1.1947 -1.1306
 7357SOL    HW233531   3.490   3.451   8.903 -1.4882 -0.1121  0.4347
 7358SOL     OW33532   0.130   2.853   1.263 -0.0847  0.1389 -0.0555
 7358SOL    HW133533   0.050   2.807   1.239 -0.9166  1.5488  0.0334
 7358SOL    HW233534   0.086   2.922   1.312  0.5662 -1.0413  2.1957
 7359SOL     OW33535   3.039   3.361   2.600 -0.6010  0.0794  0.0016
 7359SOL    HW133536   3.125   3.321   2.613 -0.9482 -0.6732  0.0032
 7359SOL    HW233537   3.035   3.351   2.505  2.6466 -0.1385 -0.1183
 7360SOL     OW33538   2.550   0.602  12.322  0.2764 -0.2164  0.0417
 7360SOL    HW133539   2.546   0.670  12.255  1.9178 -0.0952  0.0646
 7360SOL    HW233540   2.601   0.637  12.396  1.7639 -1.4811 -0.3830
 7361SOL     OW33541   3.819   3.374   2.375 -0.1118 -0.1845  0.3230
 7361SOL    HW133542   3.887   3.317   2.412 -1.5698 -0.9744  1.7985
 7361SOL    HW233543   3.861   3.457   2.353 -1.8451  0.0550 -2.1756
 7362SOL     OW33544   0.030   0.870   1.315  0.3092  0.2928 -0.1980
 7362SOL    HW133545   0.048   0.902   1.404 -0.9974  2.7787 -0.8372
 7362SOL    HW233546   4.715   0.782   1.324 -0.1617  0.4696 -0.3866
 7363SOL     OW33547   4.248   1.045  12.053 -0.2664  0.4202 -0.5998
 7363SOL    HW133548   4.299   1.122  12.027  0.8174 -0.3670 -0.7655
 7363SOL    HW233549   4.287   1.018  12.136 -2.3822  1.7702  0.8518
 7364SOL     OW33550   3.109   0.468  11.112 -0.0371 -0.7528  0.7353
 7364SOL    HW133551   3.150   0.477  11.025 -1.9308  0.4914 -0.0234
 7364SOL    HW233552   3.130   0.549  11.159  1.2779 -1.4134  1.2897
 7365SOL     OW33553   3.787   3.853   1.405  0.8040 -0.4918 -0.1491
 7365SOL    HW133554   3.774   3.879   1.314  1.5950 -0.6058 -0.2949
 7365SOL    HW233555   3.877   3.825   1.391  1.0649 -0.0378  0.6282
 7366SOL     OW33556   1.808   3.092   4.050  0.0172 -0.3756 -0.0022
 7366SOL    HW133557   1.795   3.178   4.088  0.8931 -1.1301  2.0018
 7366SOL    HW233558   1.897   3.109   4.019  0.3651  0.9419  1.7387
 7367SOL     OW33559   2.771   3.813   7.239  0.6094  0.3944  0.2792
 7367SOL    HW133560   2.848   3.848   7.194 -1.2751  1.6882 -1.9307
 7367SOL    HW233561   2.759   3.738   7.182  0.6862  0.6402 -0.0619
 7368SOL     OW33562   1.008   0.611   7.616  0.3855 -0.1563  0.6413
 7368SOL    HW133563   0.929   0.565   7.643  0.7113 -0.8245  0.4562
 7368SOL    HW233564   1.062   0.611   7.695  1.1367 -1.4898  0.1194
 7369SOL     OW33565   2.056   0.087  15.587 -0.1666  0.6129 -0.2518
 7369SOL    HW133566   1.977   0.140  15.580 -0.8621 -0.2540  1.0196
 7369SOL    HW233567   2.041   0.012  15.644 -1.1180  0.5413 -0.5939
 7370SOL     OW33568   3.531   4.420  10.463  0.3263 -0.0705 -0.1645
 7370SOL    HW133569   3.576   4.428  10.547  0.8191 -2.0757 -0.2374
 7370SOL    HW233570   3.457   4.478  10.483 -0.4312 -0.6202 -1.3917
 7371SOL     OW33571   2.126   3.066   7.465  0.3384 -0.2155 -0.2383
 7371SOL    HW133572   2.038   3.096   7.441 -0.7381 -1.7938  1.6784
 7371SOL    HW233573   2.167   3.054   7.379 -0.9486 -1.5500 -0.6754
 7372SOL     OW33574   3.912   3.297  15.717 -0.5053  0.2818  0.3661
 7372SOL    HW133575   3.903   3.291  15.622 -0.0382 -0.1007  0.3457
 7372SOL    HW233576   3.832   3.258  15.754  0.8345 -2.6543  0.2417
 7373SOL     OW33577   3.531   4.284  13.006  0.4775  0.2820 -0.3118
 7373SOL    HW133578   3.566   4.373  13.008 -0.1968  0.5364  0.0453
 7373SOL    HW233579   3.459   4.294  12.942  1.3175  0.4831 -1.2245
 7374SOL     OW33580   0.984   2.452   0.182  0.0953 -0.0227 -0.3264
 7374SOL    HW133581   0.944   2.390   0.242  0.1165  0.3374  0.0637
 7374SOL    HW233582   0.987   2.404   0.099 -0.5588 -0.9955  0.2156
 7375SOL     OW33583   1.213   1.203  14.812  0.2731  0.0044 -0.4839
 7375SOL    HW133584   1.245   1.113  14.818  1.1461  0.3437 -0.0435
 7375SOL    HW233585   1.214   1.222  14.718  1.6536  1.0092 -0.2640
 7376SOL     OW33586   3.949   2.355  13.928 -0.1765 -0.3594  0.3117
 7376SOL    HW133587   3.972   2.263  13.922 -0.7794 -0.7121  3.0377
 7376SOL    HW233588   3.999   2.384  13.852  0.8437 -1.7048  0.4732
 7377SOL     OW33589   3.518   4.388   9.953  0.8662  0.0083  0.6812
 7377SOL    HW133590   3.435   4.379  10.000  0.0879  3.0395 -0.1039
 7377SOL    HW233591   3.582   4.371  10.023  2.7192  0.7994 -0.8157
 7378SOL     OW33592   1.480   2.666   1.563  0.1162 -0.6863  0.4552
 7378SOL    HW133593   1.405   2.606   1.572 -2.5391  2.1418 -3.0496
 7378SOL    HW233594   1.545   2.607   1.601  1.0167  0.0560  0.0705
 7379SOL     OW33595   0.918   1.685  12.594 -0.0135  0.2251  0.3144
 7379SOL    HW133596   0.963   1.755  12.546 -1.3284 -0.0494 -1.2988
 7379SOL    HW233597   0.844   1.735  12.627 -0.6672 -1.3565  1.2232
 7380SOL     OW33598   3.952   0.556   8.297 -0.0281  0.0019 -0.1279
 7380SOL    HW133599   3.883   0.613   8.332  1.6086  0.7872  1.8937
 7380SOL    HW233600   4.031   0.585   8.343  1.8372 -2.1191 -2.0147
 7381SOL     OW33601   2.477   3.804  14.371 -0.1489 -0.6334  0.3007
 7381SOL    HW133602   2.490   3.760  14.455 -1.0535 -2.7896 -0.6924
 7381SOL    HW233603   2.408   3.865  14.399 -0.1380 -0.5706  0.1889
 7382SOL     OW33604   1.362   1.379   7.406 -0.2100 -0.2928  0.1290
 7382SOL    HW133605   1.354   1.289   7.438  1.8394 -0.3104  0.6195
 7382SOL    HW233606   1.457   1.373   7.398 -0.2161 -0.7842  0.3956
 7383SOL     OW33607   3.947   0.650  16.055  0.0503 -0.3086 -0.0818
 7383SOL    HW133608   3.941   0.670  16.148  1.6809  3.3678 -0.7367
 7383SOL    HW233609   4.008   0.578  16.071 -0.7634 -1.1451 -0.7318
 7384SOL     OW33610   3.017   1.330   3.587 -0.1547  0.2619 -0.1676
 7384SOL    HW133611   2.989   1.399   3.527  0.3199 -1.4787 -2.3793
 7384SOL    HW233612   3.025   1.376   3.671 -1.3196 -0.7358  0.4909
 7385SOL     OW33613   3.165   3.926   4.040 -0.1005  0.7103  0.0053
 7385SOL    HW133614   3.106   3.966   3.976 -1.5634 -0.5638  0.5547
 7385SOL    HW233615   3.120   3.902   4.120 -1.8620  0.8888 -0.9371
 7386SOL     OW33616   2.465   2.742  17.560  0.1641  0.2648  0.0906
 7386SOL    HW133617   2.494   2.683  17.630  1.6224  0.1917 -0.5798
 7386SOL    HW233618   2.381   2.771  17.596  0.4019 -0.8178  1.5481
 7387SOL     OW33619   3.315   1.867   2.885  0.6687  0.4857  0.4388
 7387SOL    HW133620   3.333   1.961   2.875  3.8832 -0.1939 -0.0015
 7387SOL    HW233621   3.220   1.880   2.891  0.6718  0.0431  1.3765
 7388SOL     OW33622   1.230   2.987   8.085  0.2201  0.0669 -0.2569
 7388SOL    HW133623   1.249   2.894   8.074 -1.3959 -0.3102  0.0680
 7388SOL    HW233624   1.136   2.990   8.102  0.4992  0.2131  1.3294
 7389SOL     OW33625   0.439   1.570   7.942  0.8770 -0.4851  0.0879
 7389SOL    HW133626   0.517   1.520   7.919  0.5653  0.1435 -2.3578
 7389SOL    HW233627   0.467   1.625   8.016  2.1082  0.6980 -1.2586
 7390SOL     OW33628   1.991   4.036   1.346  0.1701  0.4047  0.5672
 7390SOL    HW133629   1.982   3.951   1.389 -0.5655  0.2047  0.0147
 7390SOL    HW233630   2.027   4.006   1.263 -1.1292 -1.2398  0.5857
 7391SOL     OW33631   2.047   2.628  17.408 -0.2647  0.1066  0.4735
 7391SOL    HW133632   2.086   2.571  17.343 -2.4491 -2.1849  1.1633
 7391SOL    HW233633   1.958   2.627  17.371 -0.3055 -1.8723  0.6415
 7392SOL     OW33634   4.285   1.682   5.105 -0.1336 -0.0680  0.1857
 7392SOL    HW133635   4.225   1.741   5.060  1.9767  2.0834  0.1906
 7392SOL    HW233636   4.293   1.737   5.183  1.5987 -0.6443  0.4268
 7393SOL     OW33637   0.134   4.054   6.204  0.2472  0.3139  0.1669
 7393SOL    HW133638   0.224   4.032   6.227  0.1057 -0.2526  0.1848
 7393SOL    HW233639   0.081   3.990   6.253  0.8618 -0.2627  0.0707
 7394SOL     OW33640   1.716   3.976   0.292  0.0673  0.0214  0.2650
 7394SOL    HW133641   1.641   4.036   0.287  0.2899  0.2243 -0.7279
 7394SOL    HW233642   1.788   4.037   0.306  2.4708 -2.9900  1.1330
 7395SOL     OW33643   0.221   0.151   4.486  0.0653  0.4803 -0.0753
 7395SOL    HW133644   0.203   0.065   4.449  0.1523 -0.5625  2.3081
 7395SOL    HW233645   0.314   0.154   4.508  0.7622  0.1025 -2.9538
 7396SOL     OW33646   0.938   0.943   7.830 -0.0200  0.3969 -0.4730
 7396SOL    HW133647   0.987   1.013   7.874  0.6501  0.0713 -0.7221
 7396SOL    HW233648   0.888   0.910   7.905  0.1904  0.9559 -0.0876
 7397SOL     OW33649   1.567   4.023  11.572 -0.3461  0.4514 -0.1592
 7397SOL    HW133650   1.642   3.982  11.616 -0.8346  1.8998  2.0455
 7397SOL    HW233651   1.609   4.045  11.489 -2.4185 -0.2397 -1.3992
 7398SOL     OW33652   3.572   2.799   8.636  0.6483 -0.2188 -0.0175
 7398SOL    HW133653   3.622   2.773   8.559  0.8645  0.7762 -0.2180
 7398SOL    HW233654   3.645   2.813   8.696  3.6223 -0.0568 -3.7190
 7399SOL     OW33655   2.529   3.812   2.355 -0.4758 -0.2982  0.0947
 7399SOL    HW133656   2.549   3.723   2.328 -1.1691 -0.4426  0.0578
 7399SOL    HW233657   2.447   3.801   2.402  0.6671 -0.1288  2.1347
 7400SOL     OW33658   2.063   2.038  15.227  0.1660 -0.2729 -0.2899
 7400SOL    HW133659   2.091   2.065  15.140  0.6105  2.9492  0.8763
 7400SOL    HW233660   2.141   2.018  15.278  0.8944 -1.9481 -2.0631
 7401SOL     OW33661   0.812   3.027   4.146 -0.5014 -0.4299 -0.2610
 7401SOL    HW133662   0.881   2.961   4.142  2.5623  2.8249 -0.6815
 7401SOL    HW233663   0.836   3.068   4.063  2.3274 -0.3902  0.5915
 7402SOL     OW33664   0.747   4.222   1.077 -1.0514  0.1088 -0.0736
 7402SOL    HW133665   0.822   4.268   1.040 -1.1761  0.5066  0.1720
 7402SOL    HW233666   0.788   4.157   1.133  0.3351  0.2224 -0.9628
 7403SOL     OW33667   0.641   1.351   3.466  0.4937 -0.1346 -0.4700
 7403SOL    HW133668   0.549   1.349   3.491  1.3209 -0.3032  2.5389
 7403SOL    HW233669   0.628   1.307   3.381  2.6280 -1.6995  0.0220
 7404SOL     OW33670   3.448   3.849   2.089  0.1532  0.3465  0.2556
 7404SOL    HW133671   3.522   3.793   2.113 -0.4816 -0.5266  0.1994
 7404SOL    HW233672   3.434   3.820   1.999 -0.4170 -0.2126  0.5176
 7405SOL     OW33673   0.273   1.778   3.573 -0.3370 -0.0934 -0.2782
 7405SOL    HW133674   0.328   1.852   3.600 -1.6502  0.0779  1.9529
 7405SOL    HW233675   0.271   1.796   3.479 -0.2096  0.0996 -0.2458
 7406SOL     OW33676   3.253   3.402   3.731  0.0932  0.3612 -0.2250
 7406SOL    HW133677   3.335   3.366   3.696  1.0536  2.4183 -0.0998
 7406SOL    HW233678   3.198   3.325   3.715 -0.6376  1.0232 -0.8726
 7407SOL     OW33679   2.354   3.072   2.246 -0.0164 -1.0313 -0.4608
 7407SOL    HW133680   2.444   3.098   2.230  0.2649 -0.9117  1.2991
 7407SOL    HW233681   2.347   3.018   2.167 -1.0783 -0.3918 -0.8098
 7408SOL     OW33682   0.690   1.442  15.165 -0.1246  0.4622 -0.8188
 7408SOL    HW133683   0.651   1.396  15.240 -0.5948  1.3235 -0.5436
 7408SOL    HW233684   0.765   1.382  15.163 -0.4934 -0.0037 -0.8001
 7409SOL     OW33685   1.170   1.055   5.276 -0.5304  0.2638  0.1226
 7409SOL    HW133686   1.085   1.018   5.298 -0.7020  0.1972 -0.6733
 7409SOL    HW233687   1.212   1.072   5.361 -1.0847  2.2983 -0.0145
 7410SOL     OW33688   4.244   4.114   5.356  0.5058  0.1596  0.4314
 7410SOL    HW133689   4.149   4.120   5.370  0.5245 -1.6621  1.4616
 7410SOL    HW233690   4.284   4.200   5.362 -1.0814  0.7789  2.0677
 7411SOL     OW33691   4.319   4.517   6.245  0.1555  0.7535  0.2322
 7411SOL    HW133692   4.368   4.477   6.173  1.8213  0.0378  1.7565
 7411SOL    HW233693   4.308   4.447   6.309  0.1408  0.0670 -0.5282
 7412SOL     OW33694   3.563   4.376   7.223  0.0524  0.3248 -0.2093
 7412SOL    HW133695   3.559   4.359   7.317 -0.6682  2.5361  0.1695
 7412SOL    HW233696   3.471   4.400   7.212 -0.2758 -0.8411 -0.0015
 7413SOL     OW33697   2.635   3.330  10.951 -0.3826 -0.4079 -0.0794
 7413SOL    HW133698   2.603   3.334  11.041  0.9468 -1.0310  0.4316
 7413SOL    HW233699   2.634   3.236  10.933 -4.4175 -0.3540 -0.0208
 7414SOL     OW33700   1.431   3.117   2.591  0.2773 -0.0772  0.4740
 7414SOL    HW133701   1.449   3.132   2.684 -3.0899  0.6230  1.0150
 7414SOL    HW233702   1.388   3.194   2.554  1.5288  0.2693 -0.2468
 7415SOL     OW33703   0.985   3.151   4.918  0.0498  0.5798 -0.4140
 7415SOL    HW133704   0.943   3.148   4.832  0.6261 -0.7978 -0.6465
 7415SOL    HW233705   0.955   3.076   4.970  0.2749  0.5008 -0.3959
 7416SOL     OW33706   0.482   1.745   9.199  0.1475  0.4905  0.4903
 7416SOL    HW133707   0.541   1.674   9.222 -0.2108  0.1886  0.4770
 7416SOL    HW233708   0.524   1.819   9.242 -0.6242  1.5397 -0.5510
 7417SOL     OW33709   0.193   1.249  12.108 -0.1956  0.0168 -0.2426
 7417SOL    HW133710   0.160   1.162  12.088 -0.3121 -0.2362  1.0478
 7417SOL    HW233711   0.115   1.304  12.110  0.0576  0.3215  1.5854
 7418SOL     OW33712   2.517   2.635  12.392 -0.0264 -0.5834  0.7075
 7418SOL    HW133713   2.515   2.687  12.472 -2.1000 -0.5684  0.6473
 7418SOL    HW233714   2.496   2.693  12.320  1.6718 -1.2015 -0.3038
 7419SOL     OW33715   0.856   1.317   8.033  0.2163 -0.0183 -0.3685
 7419SOL    HW133716   0.884   1.355   8.116 -0.4750 -0.2464 -0.0227
 7419SOL    HW233717   0.941   1.285   8.005  1.7737  1.7306  2.4136
 7420SOL     OW33718   3.949   0.957  10.792  0.1027  0.0212 -0.1844
 7420SOL    HW133719   3.952   0.930  10.884 -0.0734  2.2712  0.4828
 7420SOL    HW233720   3.877   1.019  10.791  0.4282  0.4382  1.9405
 7421SOL     OW33721   0.180   2.803   2.062 -0.1695  0.8396  0.0002
 7421SOL    HW133722   0.172   2.802   1.966  3.1583  0.7805 -0.2867
 7421SOL    HW233723   0.186   2.710   2.085  0.3535  2.0680  4.8840
 7422SOL     OW33724   3.585   4.563  12.551  0.3106  0.1534 -0.4202
 7422SOL    HW133725   3.663   4.507  12.546  0.3826  0.5090 -2.9966
 7422SOL    HW233726   3.588   4.622  12.476 -0.6180  0.0823 -0.5113
 7423SOL     OW33727   1.892   4.200   5.032  0.0759  0.6515  0.6950
 7423SOL    HW133728   1.816   4.145   5.054 -0.0236  0.1476 -0.8452
 7423SOL    HW233729   1.958   4.175   5.096 -0.2809  1.7198  1.4777
 7424SOL     OW33730   1.073   3.803   5.189  0.1939  0.7608 -0.1696
 7424SOL    HW133731   0.996   3.777   5.139 -0.1301 -1.9381  1.6980
 7424SOL    HW233732   1.070   3.764   5.277  1.3926  1.5349  0.2139
 7425SOL     OW33733   1.013   1.897  13.203 -0.2480  0.6160 -0.6493
 7425SOL    HW133734   1.004   1.978  13.253  0.3379  1.2762 -1.6119
 7425SOL    HW233735   0.953   1.920  13.132 -3.5681 -0.3886  1.8448
 7426SOL     OW33736   2.739   4.346   6.249 -0.0908 -0.8302  0.2916
 7426SOL    HW133737   2.647   4.322   6.241  0.0333 -1.2850  0.2667
 7426SOL    HW233738   2.737   4.431   6.205 -1.9302 -1.3549 -0.6144
 7427SOL     OW33739   2.042   2.582   8.413 -0.4466  0.0276 -0.0228
 7427SOL    HW133740   2.061   2.503   8.462 -1.7808  0.1810  0.7337
 7427SOL    HW233741   2.118   2.614   8.363 -2.1340  1.8815 -1.4565
 7428SOL     OW33742   3.520   0.877   6.516 -0.0453 -0.3041 -0.1153
 7428SOL    HW133743   3.470   0.924   6.450  1.2485  1.5567  0.2177
 7428SOL    HW233744   3.485   0.917   6.595 -0.8925  1.9071 -1.6240
 7429SOL     OW33745   1.146   2.475   9.285 -0.0629 -0.8177  0.2682
 7429SOL    HW133746   1.148   2.554   9.339 -0.6034  0.0794 -1.0267
 7429SOL    HW233747   1.094   2.498   9.208  1.9564  1.6332 -0.3492
 7430SOL     OW33748   1.082   4.087   4.287  0.3606  0.1888 -0.2540
 7430SOL    HW133749   1.161   4.047   4.250  0.1582  0.2459 -0.7461
 7430SOL    HW233750   1.034   4.107   4.207 -1.7113 -2.3294  0.3825
 7431SOL     OW33751   2.074   2.292  11.384 -0.2750 -0.2501  0.1429
 7431SOL    HW133752   2.020   2.245  11.448  0.0878 -0.1697  0.5084
 7431SOL    HW233753   2.088   2.218  11.325  2.6115  0.0289  0.4838
 7432SOL     OW33754   0.732   3.773   2.185  0.3902 -0.2193 -0.3282
 7432SOL    HW133755   0.814   3.740   2.146  0.5817  1.0639 -1.0293
 7432SOL    HW233756   0.671   3.700   2.194  1.1912 -1.1921 -2.5403
 7433SOL     OW33757   1.549   2.134   8.179  0.5676  0.8294 -0.2106
 7433SOL    HW133758   1.590   2.108   8.262 -0.1565 -0.7071 -0.3274
 7433SOL    HW233759   1.617   2.123   8.112  1.1248 -2.6367  0.9103
 7434SOL     OW33760   4.326   0.168   2.018 -0.2127 -0.2405  0.1378
 7434SOL    HW133761   4.276   0.094   1.983  2.2673 -2.2019  0.7598
 7434SOL    HW233762   4.287   0.186   2.103 -0.3255  0.3473 -0.0395
 7435SOL     OW33763   0.038   1.560  17.032  0.1701  0.6076 -0.2991
 7435SOL    HW133764   0.071   1.641  17.072 -1.7514  1.0569  0.4174
 7435SOL    HW233765   0.091   1.561  16.953 -0.7027  0.9457 -0.8828
 7436SOL     OW33766   4.296   1.543   8.171  0.7020 -0.6459  0.2780
 7436SOL    HW133767   4.272   1.530   8.080 -0.2536  0.7222  0.3378
 7436SOL    HW233768   4.222   1.598   8.199  1.5194  0.2094  0.7707
 7437SOL     OW33769   4.456   0.241   6.861 -0.1173 -0.4867  0.0354
 7437SOL    HW133770   4.399   0.181   6.813 -0.5191 -1.4469  1.6986
 7437SOL    HW233771   4.497   0.182   6.925  1.1499 -2.1623 -2.3298
 7438SOL     OW33772   1.868   3.706  14.677 -0.2811  0.1551 -0.0160
 7438SOL    HW133773   1.787   3.673  14.638  0.0418 -0.3406 -0.2706
 7438SOL    HW233774   1.836   3.772  14.738 -1.0055 -0.8300  0.6500
 7439SOL     OW33775   0.119   3.033   0.984 -0.1982  0.1320 -0.2209
 7439SOL    HW133776   0.105   2.938   0.974 -3.2934  0.6132 -0.6226
 7439SOL    HW233777   0.027   3.056   0.969 -0.5667 -0.2456  1.4392
 7440SOL     OW33778   0.504   0.799   0.040 -0.1617 -0.2455 -0.5475
 7440SOL    HW133779   0.572   0.866   0.037  1.4504 -1.9130 -1.3960
 7440SOL    HW233780   0.425   0.850   0.056 -0.1480 -0.7684  1.2613
 7441SOL     OW33781   4.187   2.948  17.214  0.2863 -0.0603  0.5005
 7441SOL    HW133782   4.217   2.950  17.305  1.6019  0.3797  0.0591
 7441SOL    HW233783   4.122   2.878  17.212 -0.5052  0.7055 -0.7617
 7442SOL     OW33784   3.162   0.116   5.317 -0.1783  0.8204 -0.3383
 7442SOL    HW133785   3.154   0.159   5.401  0.1438  1.0877 -0.4434
 7442SOL    HW233786   3.215   0.038   5.335 -1.2294  0.5072  1.3442
 7443SOL     OW33787   2.561   3.327   1.276  0.6200  0.0310 -0.1066
 7443SOL    HW133788   2.647   3.319   1.235 -0.1833  1.8179 -2.1641
 7443SOL    HW233789   2.517   3.366   1.200  0.3774  0.3130  0.1796
 7444SOL     OW33790   1.752   3.230   5.233 -0.1701 -0.4410 -0.0706
 7444SOL    HW133791   1.725   3.143   5.264  0.6530 -0.7804 -0.3200
 7444SOL    HW233792   1.818   3.264   5.294  1.1975 -0.8034 -1.3575
 7445SOL     OW33793   1.038   3.881   8.376 -0.8653 -0.0824  0.0574
 7445SOL    HW133794   1.064   3.915   8.291 -1.2178 -0.6047 -0.2677
 7445SOL    HW233795   1.074   3.948   8.433 -2.1551 -0.7370  1.6286
 7446SOL     OW33796   3.462   3.884   2.382 -0.5750  0.2432 -0.2097
 7446SOL    HW133797   3.424   3.970   2.398  1.5822  1.4982 -1.8434
 7446SOL    HW233798   3.430   3.867   2.293  1.7510  0.8667 -1.1525
 7447SOL     OW33799   0.730   0.403  15.339 -0.0718  0.3286  0.2670
 7447SOL    HW133800   0.766   0.490  15.359 -0.5599  1.1450 -2.3101
 7447SOL    HW233801   0.720   0.367  15.427  1.2744 -0.2087  0.1829
 7448SOL     OW33802   1.255   2.688   7.295 -0.4207  0.7272  0.8748
 7448SOL    HW133803   1.349   2.683   7.313 -0.2698  0.7208  0.0532
 7448SOL    HW233804   1.219   2.612   7.342 -1.5501  0.4870 -0.3500
 7449SOL     OW33805   2.372   0.911   2.330 -0.1284 -0.1358 -0.0936
 7449SOL    HW133806   2.299   0.920   2.269  1.8614 -1.1956 -2.6315
 7449SOL    HW233807   2.413   0.828   2.305  1.9564 -0.2769  3.7508
 7450SOL     OW33808   0.361   2.851   1.827 -0.2461  0.1308 -0.4932
 7450SOL    HW133809   0.376   2.946   1.822 -0.2602  0.0810 -1.4930
 7450SOL    HW233810   0.419   2.813   1.893  0.0249  0.2099 -0.6866
 7451SOL     OW33811   2.980   2.523   6.333 -0.3751  0.2980 -0.3186
 7451SOL    HW133812   3.020   2.520   6.419  0.7041  0.4102 -0.8235
 7451SOL    HW233813   2.960   2.430   6.322  1.8043 -0.0788 -1.0999
 7452SOL     OW33814   3.079   3.252  16.468  0.1641 -0.4969 -0.2268
 7452SOL    HW133815   3.140   3.253  16.394 -1.4739  0.0992 -1.5563
 7452SOL    HW233816   2.995   3.225  16.431  0.8677 -0.6606 -1.6935
 7453SOL     OW33817   1.904   1.951   1.273 -0.1395  0.0349  0.2878
 7453SOL    HW133818   1.980   1.901   1.244  0.6746  1.8793 -0.7841
 7453SOL    HW233819   1.930   2.040   1.251 -0.8716  0.3578  0.7102
 7454SOL     OW33820   4.361   3.092  11.556 -0.4463 -0.0729  0.4099
 7454SOL    HW133821   4.313   3.169  11.587 -0.5463 -0.9514  2.4281
 7454SOL    HW233822   4.297   3.021  11.551  0.4197 -0.7003 -1.7662
 7455SOL     OW33823   3.868   3.580   8.991  0.4050 -0.1410  0.3766
 7455SOL    HW133824   3.877   3.669   9.025  0.0984 -0.3866  1.1093
 7455SOL    HW233825   3.962   3.564   8.978  0.4079  0.0853  0.1247
 7456SOL     OW33826   0.106   0.509   7.400  0.0255  0.0629 -0.0362
 7456SOL    HW133827   0.164   0.555   7.338 -1.6582  0.0361 -1.6302
 7456SOL    HW233828   0.136   0.420   7.385 -0.5735 -0.1838  0.2215
 7457SOL     OW33829   1.580   0.979   7.996  0.3543  0.3194 -0.3820
 7457SOL    HW133830   1.552   0.917   8.064 -0.7632 -0.9366 -1.9771
 7457SOL    HW233831   1.614   1.054   8.044 -0.9107  0.4823  0.2547
 7458SOL     OW33832   2.374   0.088   3.492 -0.3682  0.2909  0.3044
 7458SOL    HW133833   2.345   0.113   3.405 -1.1791  0.6954  0.6943
 7458SOL    HW233834   2.452   0.145   3.495 -1.0801  1.3294 -1.1769
 7459SOL     OW33835   2.512   1.843  10.874 -0.0598 -0.4300  0.0041
 7459SOL    HW133836   2.479   1.818  10.788  0.9286 -1.0978 -0.1779
 7459SOL    HW233837   2.590   1.788  10.876 -0.0880 -0.5801 -3.1609
 7460SOL     OW33838   4.234   3.712   2.681  0.5983 -0.4873  0.1630
 7460SOL    HW133839   4.261   3.743   2.767 -0.3924 -1.8595  0.9689
 7460SOL    HW233840   4.196   3.793   2.648  0.3079 -0.6597  0.0699
 7461SOL     OW33841   4.487   3.504  17.317 -0.3429  0.0605  0.0075
 7461SOL    HW133842   4.446   3.506  17.230 -1.0108 -1.8844  0.2926
 7461SOL    HW233843   4.570   3.458  17.303  0.5721  1.1527  1.9015
 7462SOL     OW33844   3.752   1.872  14.463 -0.3093 -0.0998 -0.3081
 7462SOL    HW133845   3.681   1.878  14.527 -0.7559 -2.4527 -0.5982
 7462SOL    HW233846   3.773   1.779  14.477  3.6360  1.1681  2.3857
 7463SOL     OW33847   4.220   2.256  15.945  0.4338  0.5415 -0.2548
 7463SOL    HW133848   4.162   2.304  15.887  0.8228  1.2297 -0.0724
 7463SOL    HW233849   4.189   2.281  16.032  0.8134 -1.8246  0.5610
 7464SOL     OW33850   0.912   0.864   1.228  0.1296  0.1600  0.2818
 7464SOL    HW133851   0.903   0.905   1.314 -0.9265 -0.0028  0.2597
 7464SOL    HW233852   0.870   0.778   1.235  1.5212 -0.5387 -0.0561
 7465SOL     OW33853   2.289   1.145   4.399 -0.7315  0.0236  0.7845
 7465SOL    HW133854   2.355   1.107   4.456 -2.6597 -0.1449  2.9261
 7465SOL    HW233855   2.336   1.209   4.346 -0.9755 -0.5391 -0.1180
 7466SOL     OW33856   0.230   4.336   6.200 -0.1330  0.3428 -0.2400
 7466SOL    HW133857   0.312   4.352   6.154 -1.1658 -1.1557 -2.6018
 7466SOL    HW233858   0.200   4.249   6.173  0.2164  0.7751 -2.0526
 7467SOL     OW33859   0.899   3.942  14.134  0.3218  0.5115  0.1384
 7467SOL    HW133860   0.900   4.012  14.068  2.6495  0.6400  0.3382
 7467SOL    HW233861   0.805   3.942  14.151 -0.1159 -1.2728 -2.1856
 7468SOL     OW33862   0.988   1.580   7.034 -0.5172  0.4404 -0.0572
 7468SOL    HW133863   1.051   1.508   7.027 -0.8316 -0.0035  1.9020
 7468SOL    HW233864   1.054   1.640   6.998  0.0695 -1.0859 -1.5317
 7469SOL     OW33865   2.071   2.811   0.365  0.0424 -0.3195 -0.3165
 7469SOL    HW133866   2.121   2.780   0.441 -0.8166 -1.5983 -0.2889
 7469SOL    HW233867   2.146   2.828   0.308  0.3172  0.6450  0.3241
 7470SOL     OW33868   2.599   2.016   4.515 -0.5905 -0.2699  0.6396
 7470SOL    HW133869   2.576   1.938   4.465  0.7096 -1.5723  2.0741
 7470SOL    HW233870   2.518   2.066   4.503 -1.8501 -1.9689  2.0926
 7471SOL     OW33871   0.077   2.304   9.909 -0.1069  0.4779  0.1452
 7471SOL    HW133872   0.162   2.261   9.907  0.0238  0.8425 -1.9107
 7471SOL    HW233873   0.027   2.242   9.962  0.4841 -1.3290 -1.4316
 7472SOL     OW33874   1.019   1.122   9.483  0.5964 -0.1233 -0.0598
 7472SOL    HW133875   1.072   1.201   9.494 -0.2274  0.2574  1.1795
 7472SOL    HW233876   1.081   1.049   9.482  1.0113  0.2032  1.5886
 7473SOL     OW33877   2.292   2.799   4.675 -0.0273  0.7734  1.2063
 7473SOL    HW133878   2.235   2.844   4.613  1.7536  0.8286 -0.4039
 7473SOL    HW233879   2.239   2.788   4.754  0.6100 -0.0285  1.5206
 7474SOL     OW33880   3.116   3.960   6.564  0.4050 -0.2160  0.0574
 7474SOL    HW133881   3.162   3.884   6.528  0.0259 -0.4665  0.0943
 7474SOL    HW233882   3.191   4.019   6.566  1.3647 -1.4866  2.0166
 7475SOL     OW33883   1.789   0.799   6.659 -0.6547  0.4549 -0.5546
 7475SOL    HW133884   1.830   0.808   6.572  0.9526  2.4403  0.4049
 7475SOL    HW233885   1.823   0.882   6.693  1.0620 -0.1302 -0.8532
 7476SOL     OW33886   2.844   0.757   3.961  0.2225  0.1828 -0.0773
 7476SOL    HW133887   2.822   0.783   3.872 -0.0464  0.3995  0.0502
 7476SOL    HW233888   2.884   0.841   3.985  0.2890 -0.7169  2.9407
 7477SOL     OW33889   2.528   2.539   8.519  0.2388  0.1671  0.3154
 7477SOL    HW133890   2.538   2.567   8.610 -1.5965  1.5628  0.0813
 7477SOL    HW233891   2.612   2.496   8.504 -1.4368 -2.9718 -0.1908
 7478SOL     OW33892   3.126   2.776   3.317  0.5194 -0.2627  0.4534
 7478SOL    HW133893   3.186   2.702   3.326 -0.3967 -0.8361  1.8229
 7478SOL    HW233894   3.137   2.777   3.221 -2.5431 -1.1464  0.0881
 7479SOL     OW33895   2.862   1.034   5.467 -0.0807  0.8018 -0.1127
 7479SOL    HW133896   2.852   1.114   5.415  1.0133  0.2074 -1.2390
 7479SOL    HW233897   2.932   1.058   5.528  0.2582  0.8677 -0.5216
 7480SOL     OW33898   0.094   4.242   2.576 -0.1216  0.3691  0.2045
 7480SOL    HW133899   0.058   4.262   2.490  1.0885  1.4710 -0.0529
 7480SOL    HW233900   0.183   4.220   2.550 -0.6054  1.2485 -2.1382
 7481SOL     OW33901   0.655   2.163   9.456  0.1536 -0.0638  0.3979
 7481SOL    HW133902   0.668   2.245   9.503  2.3829  0.5501 -1.3106
 7481SOL    HW233903   0.654   2.175   9.361  3.5047  2.1675  0.6717
 7482SOL     OW33904   3.207   4.623  16.779  0.0237 -0.0091 -0.2036
 7482SOL    HW133905   3.287   4.659  16.818 -1.5899  0.5895  2.5504
 7482SOL    HW233906   3.164   4.704  16.750 -0.9663 -1.1026 -1.7930
 7483SOL     OW33907   3.710   2.183   2.350  0.4693 -0.3557  0.3929
 7483SOL    HW133908   3.778   2.196   2.283 -3.1210  4.0323 -2.4163
 7483SOL    HW233909   3.654   2.118   2.309  0.7283  0.9969 -2.1275
 7484SOL     OW33910   1.208   3.366  12.364  0.2747 -0.0368 -0.0568
 7484SOL    HW133911   1.188   3.302  12.295  0.3711  1.4328 -1.4695
 7484SOL    HW233912   1.122   3.387  12.401 -0.6784  0.3399 -2.4604
 7485SOL     OW33913   1.157   2.717   2.863 -0.2776 -0.7018 -0.2211
 7485SOL    HW133914   1.096   2.714   2.937 -0.4183  0.1388 -0.2937
 7485SOL    HW233915   1.105   2.675   2.794 -2.9537 -1.3619  2.1678
 7486SOL     OW33916   0.973   3.045   9.002 -0.3275  0.4168  0.3338
 7486SOL    HW133917   1.055   3.042   8.951 -0.0031 -0.9026  0.9102
 7486SOL    HW233918   0.922   3.101   8.944 -1.0263 -0.9895 -0.4102
 7487SOL     OW33919   3.066   1.015   8.242 -0.7465 -0.5796  0.3995
 7487SOL    HW133920   3.014   1.017   8.322 -1.3973 -0.9171 -0.0131
 7487SOL    HW233921   3.141   1.069   8.268 -1.5046  0.9955 -0.6327
 7488SOL     OW33922   3.061   3.096   9.382 -0.0141  0.0395  0.2187
 7488SOL    HW133923   3.074   3.003   9.403 -2.2519 -0.0248  1.3372
 7488SOL    HW233924   3.000   3.119   9.451  1.4589 -0.5809  1.7205
 7489SOL     OW33925   1.259   1.755   8.661 -0.0015  0.2554 -0.2386
 7489SOL    HW133926   1.323   1.684   8.654  1.8979  2.0121 -0.2629
 7489SOL    HW233927   1.182   1.710   8.696 -0.3166  0.5333 -0.5755
 7490SOL     OW33928   1.454   2.176  10.846 -0.4089  0.2907 -0.3228
 7490SOL    HW133929   1.527   2.219  10.890 -0.3527 -0.8744  0.7236
 7490SOL    HW233930   1.503   2.104  10.807 -0.8593 -0.3128  0.2230
 7491SOL     OW33931   0.479   3.214   5.293 -0.5697 -0.7825 -0.3193
 7491SOL    HW133932   0.409   3.155   5.265  0.0144 -1.4803 -0.3137
 7491SOL    HW233933   0.436   3.261   5.365  3.9558 -1.2158  2.6073
 7492SOL     OW33934   0.208   3.606  12.116 -0.5437  0.2153 -0.2215
 7492SOL    HW133935   0.244   3.564  12.039 -1.0421 -0.7661  0.0876
 7492SOL    HW233936   0.135   3.548  12.134 -0.0758 -0.6836 -1.2454
 7493SOL     OW33937   3.774   1.024   6.709  0.2178  0.0241  0.3075
 7493SOL    HW133938   3.764   1.097   6.648 -1.9249 -0.3352  0.2421
 7493SOL    HW233939   3.865   1.033   6.739 -0.5660 -0.7966  2.9403
 7494SOL     OW33940   1.424   3.259  10.283  0.6047  0.5961 -0.0831
 7494SOL    HW133941   1.519   3.259  10.297  0.6650 -2.3905 -0.3160
 7494SOL    HW233942   1.406   3.165  10.284  1.2107  0.4790 -0.3618
 7495SOL     OW33943   4.018   0.895   4.223 -0.5874  0.0316 -0.3287
 7495SOL    HW133944   3.977   0.929   4.143  2.0973  1.9801 -0.8674
 7495SOL    HW233945   3.939   0.868   4.270 -1.9083 -1.7868 -3.5590
 7496SOL     OW33946   2.939   3.665   7.449  0.5543  0.1644  0.3122
 7496SOL    HW133947   2.900   3.736   7.398  2.2414  1.5038  0.9043
 7496SOL    HW233948   2.922   3.701   7.536  0.3503  1.5877 -0.3174
 7497SOL     OW33949   4.388   4.409  17.611  0.8183 -0.0101 -0.4057
 7497SOL    HW133950   4.420   4.493  17.643 -0.7758 -0.2291  1.7334
 7497SOL    HW233951   4.440   4.401  17.530  1.9736  1.3872  0.1988
 7498SOL     OW33952   3.882   3.845  10.616  0.2215 -0.6149 -0.4678
 7498SOL    HW133953   3.829   3.924  10.628  0.4126 -0.5389 -0.1231
 7498SOL    HW233954   3.819   3.780  10.648  0.1304 -0.3185 -0.0538
 7499SOL     OW33955   4.492   0.044  11.737 -0.4800 -0.0721  0.0562
 7499SOL    HW133956   4.564   0.107  11.738 -0.5769  0.0197  1.0942
 7499SOL    HW233957   4.488   0.017  11.645 -1.1004 -2.2736  0.7359
 7500SOL     OW33958   1.539   4.010   5.524  0.3338  0.6730  0.0058
 7500SOL    HW133959   1.495   4.006   5.609 -0.5467  1.6892 -0.4100
 7500SOL    HW233960   1.515   4.096   5.489 -0.8818 -0.9042 -2.9826
 7501SOL     OW33961   3.228   0.097   2.168 -0.3638  0.5972 -0.2566
 7501SOL    HW133962   3.219   0.173   2.111 -1.0201  1.3916  0.9032
 7501SOL    HW233963   3.314   0.113   2.206 -0.6801  1.0399  0.2762
 7502SOL     OW33964   0.959   2.206   7.801  0.3256 -0.3356 -0.5037
 7502SOL    HW133965   0.943   2.113   7.785 -3.1693 -0.2546  2.5927
 7502SOL    HW233966   0.880   2.238   7.758  0.3347  2.1187  1.3166
 7503SOL     OW33967   4.473   0.099   5.702  0.0115  0.4820  0.2299
 7503SOL    HW133968   4.480   0.036   5.773 -0.4531  0.9194  0.6586
 7503SOL    HW233969   4.400   0.074   5.646  0.0133  0.4255  0.2532
 7504SOL     OW33970   4.664   4.459   8.689  0.1608  0.4925  0.0559
 7504SOL    HW133971   0.014   4.404   8.654 -0.8574 -1.8850  1.7965
 7504SOL    HW233972   4.695   4.547   8.666  1.6483 -0.4089 -1.4193
 7505SOL     OW33973   2.054   0.770   4.890 -0.5915 -0.2138  0.4060
 7505SOL    HW133974   2.103   0.802   4.814  0.7333 -0.4320  1.1711
 7505SOL    HW233975   1.990   0.717   4.843 -0.4193 -0.9702  1.0232
 7506SOL     OW33976   1.955   4.499   0.729  0.0392  0.1245  0.0043
 7506SOL    HW133977   1.873   4.537   0.759  1.6132  1.8389  2.0255
 7506SOL    HW233978   1.991   4.576   0.686 -0.8565  1.4440  1.6357
 7507SOL     OW33979   0.013   2.510  11.261 -0.1615  0.0198 -0.3857
 7507SOL    HW133980   4.659   2.484  11.315  0.3380  1.5546  1.0460
 7507SOL    HW233981   0.052   2.423  11.268 -2.3006 -0.8207  1.0962
 7508SOL     OW33982   0.952   2.656  15.000 -0.0214  0.2545  0.1897
 7508SOL    HW133983   0.904   2.647  14.917 -0.2951 -0.0047  0.3779
 7508SOL    HW233984   0.926   2.740  15.036  0.5529  0.5482 -0.0810
 7509SOL     OW33985   0.060   4.178   0.908 -0.3363 -0.3001 -0.6370
 7509SOL    HW133986   4.691   4.163   0.878  0.0586 -0.4974 -1.7286
 7509SOL    HW233987   0.053   4.160   1.001  2.9647  0.5862 -0.2174
 7510SOL     OW33988   3.273   2.088  15.179 -0.4089 -0.0126  0.6238
 7510SOL    HW133989   3.352   2.134  15.208  0.0608 -1.0944  1.0713
 7510SOL    HW233990   3.211   2.147  15.223 -1.4189  0.0953 -0.9461
 7511SOL     OW33991   4.563   3.011   5.104  0.3430  0.3604 -0.0631
 7511SOL    HW133992   4.584   3.081   5.042 -2.0696  1.1272  0.0011
 7511SOL    HW233993   4.560   3.056   5.188 -0.9178  2.3575 -1.1873
 7512SOL     OW33994   4.680   1.198   2.223  0.5223  0.2183 -0.1622
 7512SOL    HW133995   0.012   1.123   2.254  0.9548 -0.1707 -1.8530
 7512SOL    HW233996   4.684   1.247   2.305 -0.5244 -1.0251  0.6329
 7513SOL     OW33997   2.433   3.235   7.490  0.2130 -0.3081  0.0530
 7513SOL    HW133998   2.402   3.325   7.491  0.8459 -0.0742 -1.6836
 7513SOL    HW233999   2.382   3.198   7.562 -1.8814  0.1472 -1.2256
 7514SOL     OW34000   2.342   2.304  12.806  1.0469  0.1364 -0.4636
 7514SOL    HW134001   2.278   2.248  12.761  0.8562  0.0004 -0.0291
 7514SOL    HW234002   2.418   2.247  12.801 -0.6569 -2.2030  0.2761
 7515SOL     OW34003   0.868   0.924   2.716  0.3709 -0.1321  0.4005
 7515SOL    HW134004   0.860   0.836   2.679  0.2891 -0.1888  0.5525
 7515SOL    HW234005   0.840   0.911   2.806  1.9287  2.1494  1.2096
 7516SOL     OW34006   3.361   1.720   9.094 -0.3969  0.1229  0.7505
 7516SOL    HW134007   3.323   1.754   9.175  2.9356  0.0822  2.3156
 7516SOL    HW234008   3.447   1.761   9.089  0.8985 -2.4114  2.3229
 7517SOL     OW34009   1.235   4.097   7.605 -0.5855 -0.0892 -0.0912
 7517SOL    HW134010   1.167   4.155   7.570 -1.1370 -0.0084  1.1314
 7517SOL    HW234011   1.187   4.059   7.678  1.2395 -0.4214  0.9500
 7518SOL     OW34012   4.255   3.875  11.019 -0.4535  0.2287 -0.0761
 7518SOL    HW134013   4.234   3.939  10.952  3.2136  0.1980 -1.2772
 7518SOL    HW234014   4.198   3.802  10.993  0.0594  0.5984 -2.1875
 7519SOL     OW34015   2.207   4.178   7.617 -0.5444  0.2482  0.6236
 7519SOL    HW134016   2.155   4.169   7.697 -1.9781 -0.6145 -0.4094
 7519SOL    HW234017   2.228   4.088   7.595 -0.2135  0.5574 -0.3011
 7520SOL     OW34018   0.827   3.910  14.601  0.6180  0.6617 -0.0067
 7520SOL    HW134019   0.780   3.878  14.677  0.8438  0.2586 -0.0364
 7520SOL    HW234020   0.866   3.829  14.568  0.4356  1.8958 -3.3348
 7521SOL     OW34021   0.090   2.897   7.109 -0.4842 -0.4488  0.2135
 7521SOL    HW134022   0.034   2.905   7.031  1.6667 -1.6909 -1.4418
 7521SOL    HW234023   0.064   2.810   7.138 -1.3927 -0.2532  0.0042
 7522SOL     OW34024   1.325   4.026   2.301 -0.4381  0.6409  0.2259
 7522SOL    HW134025   1.270   3.962   2.256 -1.2976  1.8453 -0.4594
 7522SOL    HW234026   1.408   4.000   2.262 -0.6474 -1.2355  1.0156
 7523SOL     OW34027   3.501   0.061  10.672 -0.3341 -0.0851  0.5040
 7523SOL    HW134028   3.456   0.037  10.591  2.5284 -2.2553 -0.4305
 7523SOL    HW234029   3.440   0.031  10.739 -0.7857 -1.7918 -0.6597
 7524SOL     OW34030   2.861   0.056  17.502  0.1227 -0.4426 -0.0140
 7524SOL    HW134031   2.873   0.106  17.583  1.5195  1.1625 -1.2198
 7524SOL    HW234032   2.821   0.116  17.439 -1.0697  0.2121  1.3508
 7525SOL     OW34033   2.522   0.911  16.107 -0.0539 -0.5353 -0.0829
 7525SOL    HW134034   2.528   1.006  16.096  0.1407 -0.4496  0.7079
 7525SOL    HW234035   2.430   0.904  16.134  0.3582  2.5477  2.1976
 7526SOL     OW34036   2.887   0.554  15.545 -0.3247 -0.3505 -0.6387
 7526SOL    HW134037   2.828   0.540  15.619 -0.1333 -2.0692 -0.8098
 7526SOL    HW234038   2.821   0.576  15.480 -3.0110 -1.1730  1.8076
 7527SOL     OW34039   3.862   1.213   3.624 -0.9724 -0.2099 -0.0076
 7527SOL    HW134040   3.843   1.229   3.717 -1.2769 -0.8065  0.0384
 7527SOL    HW234041   3.869   1.117   3.627 -1.1884 -0.2402 -0.4067
 7528SOL     OW34042   2.020   4.218   5.589  0.2562 -0.6222  0.3836
 7528SOL    HW134043   2.028   4.201   5.496  0.1161  3.1111 -0.2800
 7528SOL    HW234044   1.929   4.190   5.603 -0.4600  2.7899  2.4135
 7529SOL     OW34045   0.257   3.574   1.224  0.0082  0.8030 -0.0869
 7529SOL    HW134046   0.267   3.596   1.131 -0.1382 -0.9195 -0.5033
 7529SOL    HW234047   0.219   3.658   1.249  0.7948  1.3980 -0.8781
 7530SOL     OW34048   0.150   3.861  11.455  0.2183 -0.2603 -0.0819
 7530SOL    HW134049   0.216   3.854  11.524  0.8480 -1.2927 -0.7843
 7530SOL    HW234050   0.212   3.852  11.382  0.4545  1.5729 -0.1140
 7531SOL     OW34051   0.386   0.171   8.343 -0.6517  0.1849 -0.1875
 7531SOL    HW134052   0.412   0.251   8.387 -0.4323  1.5793 -2.8580
 7531SOL    HW234053   0.299   0.165   8.384 -1.5955 -3.3017 -2.5975
 7532SOL     OW34054   3.765   4.512  13.078 -0.3265 -0.1992 -0.2986
 7532SOL    HW134055   3.765   4.580  13.011  0.6682  0.5781  0.4851
 7532SOL    HW234056   3.769   4.565  13.158 -1.7221 -0.0651 -0.3229
 7533SOL     OW34057   2.428   0.794   7.597 -0.3546 -0.0124 -0.1408
 7533SOL    HW134058   2.427   0.889   7.609 -0.2392  0.0938 -0.9699
 7533SOL    HW234059   2.438   0.761   7.686  2.5515 -3.4341 -1.7114
 7534SOL     OW34060   0.792   4.249  15.416  0.4641  0.0959 -0.1115
 7534SOL    HW134061   0.826   4.206  15.495 -1.0965 -2.5376 -0.8873
 7534SOL    HW234062   0.702   4.260  15.445  0.0370 -1.8532 -0.6635
 7535SOL     OW34063   3.188   2.683   3.998 -0.0040  0.8036  0.3781
 7535SOL    HW134064   3.140   2.693   3.915  0.7849  0.8035 -0.0775
 7535SOL    HW234065   3.254   2.618   3.974 -1.9544 -0.4711 -1.5775
 7536SOL     OW34066   2.820   0.998   8.758  0.2832 -0.6241  0.0244
 7536SOL    HW134067   2.782   1.039   8.836 -0.7178  0.2692 -0.9330
 7536SOL    HW234068   2.824   0.904   8.776 -1.3047 -0.3993  1.6133
 7537SOL     OW34069   3.236   1.489   4.053 -0.3024  0.0911  0.1452
 7537SOL    HW134070   3.215   1.478   4.146 -2.1986  2.1737 -0.0660
 7537SOL    HW234071   3.161   1.542   4.027  0.1571  0.8909  0.4580
 7538SOL     OW34072   2.989   3.214   9.089 -0.0928  0.2388 -0.1674
 7538SOL    HW134073   3.008   3.180   9.176 -0.4064  2.5519  0.7827
 7538SOL    HW234074   3.068   3.186   9.042  0.1702  1.8452 -0.6810
 7539SOL     OW34075   0.291   3.628   4.556  0.0431  0.0859  0.1527
 7539SOL    HW134076   0.312   3.543   4.594 -0.5161 -0.6216 -1.1377
 7539SOL    HW234077   0.357   3.682   4.599  1.1009 -0.2311 -1.0676
 7540SOL     OW34078   2.271   0.547   2.563  1.0877  0.0353  0.1535
 7540SOL    HW134079   2.217   0.626   2.568 -0.7359 -1.3710  2.6085
 7540SOL    HW234080   2.196   0.496   2.533  0.2210  1.1232  0.4495
 7541SOL     OW34081   3.200   1.315   8.358 -0.3292 -0.2246  0.8436
 7541SOL    HW134082   3.260   1.387   8.379  0.2138 -0.4175 -0.0445
 7541SOL    HW234083   3.242   1.271   8.284  1.8408  0.2200  1.8272
 7542SOL     OW34084   0.751   2.131   8.129  0.3718 -0.2155 -0.0695
 7542SOL    HW134085   0.828   2.075   8.125  0.2813 -0.2054 -1.7304
 7542SOL    HW234086   0.777   2.223   8.117 -0.9240  0.4774  2.3395
 7543SOL     OW34087   0.623   2.504   5.086  0.2737 -0.1258  0.6497
 7543SOL    HW134088   0.623   2.593   5.051  0.0123 -1.4332 -2.7118
 7543SOL    HW234089   0.717   2.497   5.105  0.3093  0.5037  0.7191
 7544SOL     OW34090   4.295   0.099  17.414 -0.2195 -0.7697  0.0304
 7544SOL    HW134091   4.217   0.047  17.436  0.1317 -0.6489  1.5563
 7544SOL    HW234092   4.250   0.171  17.371  2.3254 -0.5251 -2.1670
 7545SOL     OW34093   1.118   0.760   8.986  0.2700  0.0577  1.0667
 7545SOL    HW134094   1.050   0.759   8.918  1.6677 -0.6853 -0.3337
 7545SOL    HW234095   1.190   0.712   8.946  0.4228 -0.6525  2.1915
 7546SOL     OW34096   3.679   1.134   7.918  0.3106  0.4080  0.1671
 7546SOL    HW134097   3.652   1.153   7.828 -0.4607 -0.6792  0.1663
 7546SOL    HW234098   3.719   1.217   7.941 -0.2945  0.6262  0.4326
 7547SOL     OW34099   4.438   4.101  15.441  0.1324  0.4720 -0.0269
 7547SOL    HW134100   4.400   4.022  15.402 -1.1138  0.9886  0.1398
 7547SOL    HW234101   4.521   4.092  15.393 -1.5322  0.4731 -2.9159
 7548SOL     OW34102   0.827   0.016   8.812 -0.1374  0.4956  0.1158
 7548SOL    HW134103   0.765   4.699   8.750  1.2857 -1.5971 -0.0237
 7548SOL    HW234104   0.848   4.661   8.867 -1.1392 -1.9413 -2.8625
 7549SOL     OW34105   0.879   4.074   5.111 -0.0089 -0.2810 -0.1552
 7549SOL    HW134106   0.955   4.017   5.109  0.2555  0.1115 -1.5484
 7549SOL    HW234107   0.904   4.128   5.186  1.1997 -2.2381  0.8674
 7550SOL     OW34108   1.272   1.032   6.784  0.2720  0.0028  0.3187
 7550SOL    HW134109   1.301   1.012   6.695 -0.5580  1.2665 -0.2343
 7550SOL    HW234110   1.222   1.113   6.781  2.8263  1.5107 -1.9120
 7551SOL     OW34111   4.231   1.961   1.991 -0.5296  0.3041 -0.3595
 7551SOL    HW134112   4.264   2.025   2.053  2.4549 -0.2720 -1.3742
 7551SOL    HW234113   4.171   1.913   2.049  2.0872  0.6886  2.6936
 7552SOL     OW34114   1.604   3.639   6.858  0.4005  0.4548 -0.3129
 7552SOL    HW134115   1.643   3.552   6.864  0.1400  0.4624  1.3769
 7552SOL    HW234116   1.522   3.620   6.903 -0.3881  0.6899 -1.6619
 7553SOL     OW34117   2.913   2.090   9.066 -0.5091  0.2034 -0.3817
 7553SOL    HW134118   2.905   2.039   9.147 -2.6101 -0.2959 -0.9236
 7553SOL    HW234119   3.007   2.081   9.048 -0.3629  0.2296  0.3612
 7554SOL     OW34120   3.228   3.323   5.506 -0.3152  0.2513  0.3978
 7554SOL    HW134121   3.312   3.364   5.486  0.9505 -0.8764  3.2943
 7554SOL    HW234122   3.256   3.232   5.497 -1.5558 -0.0377 -0.4960
 7555SOL     OW34123   1.602   1.508   9.650  0.2484  0.4841 -0.0940
 7555SOL    HW134124   1.590   1.554   9.733  2.8460  2.8557 -1.0250
 7555SOL    HW234125   1.596   1.588   9.599  0.9741  1.8233  1.9333
 7556SOL     OW34126   0.939   2.841   0.853  0.1275 -0.1767 -0.2264
 7556SOL    HW134127   0.931   2.862   0.760 -0.4836 -1.2441 -0.4096
 7556SOL    HW234128   1.031   2.825   0.870  0.0482  0.0077  0.3880
 7557SOL     OW34129   4.528   0.649  14.718 -0.2607 -0.6860 -0.6568
 7557SOL    HW134130   4.443   0.613  14.691 -2.1516  2.4084  1.1335
 7557SOL    HW234131   4.537   0.717  14.652 -0.0931 -1.0176 -0.9721
 7558SOL     OW34132   4.485   0.750  11.829  0.1330  0.5391 -0.1173
 7558SOL    HW134133   4.580   0.746  11.816  0.0404  0.7844 -0.8674
 7558SOL    HW234134   4.481   0.811  11.902 -3.2466 -1.3917  1.3100
 7559SOL     OW34135   0.759   2.829   7.092 -0.1945  0.1345 -0.1339
 7559SOL    HW134136   0.676   2.785   7.110  0.4082 -0.5299  0.9692
 7559SOL    HW234137   0.790   2.851   7.179  0.0753  0.8286 -0.4049
 7560SOL     OW34138   4.520   4.614   5.867  0.3879 -0.1345  0.1112
 7560SOL    HW134139   4.479   4.531   5.889  0.5001  0.0289  0.9425
 7560SOL    HW234140   4.590   4.628   5.931  0.7417 -3.0147  0.3453
 7561SOL     OW34141   2.612   0.554  13.980 -1.3197 -0.1269  0.6250
 7561SOL    HW134142   2.639   0.646  13.984  2.2025 -1.0662 -1.0456
 7561SOL    HW234143   2.518   0.553  13.962 -1.2960  2.3444  0.3650
 7562SOL     OW34144   2.129   2.462   3.132 -0.1541 -0.0480 -0.5895
 7562SOL    HW134145   2.081   2.494   3.055  1.2899  1.4628 -0.8533
 7562SOL    HW234146   2.210   2.423   3.099  1.7562  1.3286  2.4872
 7563SOL     OW34147   0.774   2.694   2.429 -0.3846 -0.0685 -0.0600
 7563SOL    HW134148   0.864   2.663   2.440 -0.0787  0.5717 -0.7197
 7563SOL    HW234149   0.781   2.789   2.428  0.1073 -0.1110 -2.3998
 7564SOL     OW34150   3.484   0.952  10.329 -0.0481  0.0675 -0.7137
 7564SOL    HW134151   3.493   0.859  10.307  2.6538 -0.2316  1.5995
 7564SOL    HW234152   3.521   0.956  10.417  0.1980  0.1520 -0.8208
 7565SOL     OW34153   4.593   3.380   2.568  0.7235 -0.4127  0.7796
 7565SOL    HW134154   4.612   3.388   2.662  0.1584 -0.4740  0.9003
 7565SOL    HW234155   4.679   3.381   2.526  0.7699 -0.9837  0.8655
 7566SOL     OW34156   4.261   1.195   9.550  0.0474 -0.2652 -0.5580
 7566SOL    HW134157   4.296   1.278   9.514 -0.5356 -0.2875 -1.1731
 7566SOL    HW234158   4.230   1.227   9.634  0.9848 -2.1501  0.5060
 7567SOL     OW34159   2.292   4.414   6.599  0.1037 -0.1677 -0.0616
 7567SOL    HW134160   2.199   4.395   6.611 -0.4086  1.9872 -0.6093
 7567SOL    HW234161   2.329   4.333   6.634  1.3472  0.0295 -0.9022
 7568SOL     OW34162   0.292   2.961   8.012  0.6368 -0.1415  0.1485
 7568SOL    HW134163   0.329   3.039   7.970 -0.2877  0.6906  0.8650
 7568SOL    HW234164   0.333   2.897   7.955 -1.6072  0.3075 -1.9597
 7569SOL     OW34165   4.652   3.920   4.473 -0.0394  0.1484  0.1807
 7569SOL    HW134166   4.666   3.909   4.567 -0.3435 -0.4826  0.1538
 7569SOL    HW234167   4.558   3.912   4.460 -0.0539 -0.9515  1.0060
 7570SOL     OW34168   0.163   3.731  11.128 -0.5528  0.2897  0.6244
 7570SOL    HW134169   0.228   3.661  11.128 -1.1872 -0.3313  2.9379
 7570SOL    HW234170   0.214   3.796  11.176 -0.9027  2.0955 -1.4710
 7571SOL     OW34171   0.482   0.285  14.891  0.5312 -0.0125 -0.3274
 7571SOL    HW134172   0.430   0.217  14.849  0.3176 -1.1179  1.7336
 7571SOL    HW234173   0.535   0.252  14.963  0.5546  1.2964  0.2559
 7572SOL     OW34174   0.473   4.467   1.369  0.5910 -0.3990  0.3212
 7572SOL    HW134175   0.450   4.459   1.276  1.1302 -0.7347  0.2190
 7572SOL    HW234176   0.476   4.562   1.368 -2.4026 -0.2729  1.8597
 7573SOL     OW34177   4.152   0.142   7.751 -0.2141 -0.2700  0.0247
 7573SOL    HW134178   4.067   0.185   7.765 -0.0172 -0.0508  0.5564
 7573SOL    HW234179   4.196   0.220   7.718  1.6632 -0.6820  1.5759
 7574SOL     OW34180   1.295   0.911  11.363 -0.3122  0.2045 -0.1770
 7574SOL    HW134181   1.301   0.861  11.444 -0.9001 -0.6599 -0.6677
 7574SOL    HW234182   1.344   0.990  11.386 -1.7761  0.3045  2.4976
 7575SOL     OW34183   0.582   1.254   4.183  0.0236 -0.4215 -0.7180
 7575SOL    HW134184   0.626   1.324   4.232  0.7900 -0.5219 -1.2736
 7575SOL    HW234185   0.653   1.191   4.176  2.0199  1.6661  0.7462
 7576SOL     OW34186   1.772   2.352   8.746 -0.1502  0.1186 -0.9461
 7576SOL    HW134187   1.714   2.313   8.681  0.6434  0.1624 -1.6873
 7576SOL    HW234188   1.832   2.372   8.674 -0.6189 -0.8106 -1.5834
 7577SOL     OW34189   3.682   4.054   7.287  0.0942 -0.1571  0.3007
 7577SOL    HW134190   3.714   3.965   7.272  0.0904 -0.0083 -0.5933
 7577SOL    HW234191   3.717   4.062   7.376  0.9221 -1.4558  0.0924
 7578SOL     OW34192   0.207   4.404   5.894  0.3044  0.3363 -0.0201
 7578SOL    HW134193   0.231   4.350   5.969 -3.1835 -0.8479  0.2173
 7578SOL    HW234194   0.278   4.467   5.884  0.9419 -0.5323 -1.0169
 7579SOL     OW34195   3.194   0.505   1.218 -0.3314 -0.3058 -0.2871
 7579SOL    HW134196   3.222   0.579   1.271 -0.4129  0.4660 -1.3094
 7579SOL    HW234197   3.221   0.531   1.130 -2.1508 -2.2487 -1.4266
 7580SOL     OW34198   1.812   4.085  15.258  0.1510  0.3262  0.0974
 7580SOL    HW134199   1.729   4.060  15.299  1.5086 -2.8440  0.8297
 7580SOL    HW234200   1.811   4.180  15.274  3.8039  0.3216  0.4192
 7581SOL     OW34201   2.608   3.754   1.617  0.3928  0.0935  0.3899
 7581SOL    HW134202   2.602   3.684   1.682  1.8477 -0.1814  0.2360
 7581SOL    HW234203   2.561   3.723   1.539  2.2729  0.5360 -0.9180
 7582SOL     OW34204   1.467   4.584   5.869  0.1944  0.1280  0.4917
 7582SOL    HW134205   1.465   4.668   5.914  1.5056  0.6935 -0.5087
 7582SOL    HW234206   1.561   4.584   5.854 -0.0585 -2.3675 -1.1884
 7583SOL     OW34207   1.253   1.621   7.511 -0.3059  0.1301 -0.3131
 7583SOL    HW134208   1.279   1.631   7.603 -0.7469  2.5430 -0.4484
 7583SOL    HW234209   1.303   1.542   7.487 -0.9641  0.1624 -1.8034
 7584SOL     OW34210   3.195   2.364   0.100  0.3638 -0.1520  0.5112
 7584SOL    HW134211   3.124   2.397   0.046 -0.1844 -0.0506  1.2949
 7584SOL    HW234212   3.210   2.282   0.053  0.8275  1.5733 -2.3766
 7585SOL     OW34213   0.772   3.969   7.169 -0.1057 -0.2151 -0.6126
 7585SOL    HW134214   0.716   3.908   7.218  2.7263 -3.6174 -1.5689
 7585SOL    HW234215   0.812   3.910   7.105  0.1103 -0.3490 -0.3595
 7586SOL     OW34216   4.172   0.189   6.214 -0.0502 -0.5201  0.5857
 7586SOL    HW134217   4.201   0.106   6.253  0.7515 -0.3516  0.3478
 7586SOL    HW234218   4.151   0.247   6.287  0.1134 -0.0523  0.2609
 7587SOL     OW34219   1.168   3.302   6.761 -0.9976  0.2233 -0.3423
 7587SOL    HW134220   1.164   3.314   6.856  1.0357 -2.0755  0.0404
 7587SOL    HW234221   1.255   3.332   6.734  0.0881 -0.9640  1.7966
 7588SOL     OW34222   3.406   2.857   2.840  0.0557  0.4119 -0.0811
 7588SOL    HW134223   3.346   2.807   2.895  3.8318 -1.9565  1.8807
 7588SOL    HW234224   3.488   2.806   2.839 -0.3940 -0.3410  1.3628
 7589SOL     OW34225   3.784   1.943   6.676 -0.5814  0.4614 -0.0486
 7589SOL    HW134226   3.763   2.024   6.723 -0.4327  0.6123 -0.2424
 7589SOL    HW234227   3.879   1.944   6.679 -0.6261 -0.4694  1.2408
 7590SOL     OW34228   4.636   3.380   6.318 -0.2853  0.5586 -0.4479
 7590SOL    HW134229   4.703   3.324   6.278  1.0884 -0.3089  3.0920
 7590SOL    HW234230   4.608   3.424   6.237 -0.5956  0.5859 -0.3254
 7591SOL     OW34231   4.263   3.790   0.274 -0.3631  0.1491 -0.7268
 7591SOL    HW134232   4.215   3.840   0.208 -2.5803 -1.0507 -0.0231
 7591SOL    HW234233   4.234   3.703   0.248 -0.8951 -0.2815  1.3340
 7592SOL     OW34234   0.483   0.352   8.515 -0.4267  0.1567 -0.1350
 7592SOL    HW134235   0.454   0.435   8.553 -0.9650 -0.8813  1.7290
 7592SOL    HW234236   0.516   0.308   8.594 -0.2485 -1.9633 -1.4074
 7593SOL     OW34237   3.617   4.405   6.524 -0.5134 -0.0172  0.7529
 7593SOL    HW134238   3.598   4.467   6.453 -0.5701 -1.7030 -0.7230
 7593SOL    HW234239   3.552   4.422   6.592  1.4117  1.5754  2.1805
 7594SOL     OW34240   1.313   1.644   8.188 -0.1247  0.1482  0.0729
 7594SOL    HW134241   1.369   1.713   8.153 -0.8660  1.7068  1.9097
 7594SOL    HW234242   1.286   1.690   8.268  0.9439 -0.6885  0.9089
 7595SOL     OW34243   2.043   2.084   3.653 -0.1208 -0.0688  0.2574
 7595SOL    HW134244   2.130   2.121   3.669  0.2318 -1.1981  0.9452
 7595SOL    HW234245   2.000   2.168   3.636 -0.6638  0.4741  4.2889
 7596SOL     OW34246   2.803   4.199   3.726 -0.2456 -0.1791  0.1850
 7596SOL    HW134247   2.779   4.128   3.665  0.3143  0.8125 -1.1865
 7596SOL    HW234248   2.752   4.274   3.697 -1.2255 -0.3366  1.5398
 7597SOL     OW34249   3.989   2.494   6.300  0.2208  0.0954  0.3302
 7597SOL    HW134250   3.945   2.421   6.344 -0.0168  0.0043 -0.0500
 7597SOL    HW234251   4.070   2.452   6.273  0.4574  0.7597  0.0069
 7598SOL     OW34252   1.278   3.081  11.683  0.2525 -0.0510  0.4670
 7598SOL    HW134253   1.347   3.042  11.629  1.1389  1.1054  0.7680
 7598SOL    HW234254   1.290   3.170  11.650 -0.4057 -0.2066 -0.1810
 7599SOL     OW34255   1.382   0.407   4.881  0.5217 -0.1140 -0.1337
 7599SOL    HW134256   1.379   0.433   4.790  1.0915 -0.4264 -0.2416
 7599SOL    HW234257   1.326   0.329   4.875  0.4821  0.0712 -2.0644
 7600SOL     OW34258   3.473   3.821   4.607  0.0502  0.0945  0.3477
 7600SOL    HW134259   3.491   3.883   4.536  1.0997 -0.1515  0.4047
 7600SOL    HW234260   3.467   3.738   4.559  1.9670  0.2288 -0.1316
 7601SOL     OW34261   2.660   2.769   1.994  0.0838  0.2065  0.1059
 7601SOL    HW134262   2.606   2.713   1.937  0.9475  2.2459 -2.7050
 7601SOL    HW234263   2.751   2.757   1.968  0.3879  0.3533  1.1158
 7602SOL     OW34264   1.298   2.675   2.444 -0.1112  0.5341 -0.7501
 7602SOL    HW134265   1.300   2.769   2.428 -1.2931  0.3326 -2.0736
 7602SOL    HW234266   1.363   2.663   2.513  0.9003  2.7459 -1.3467
 7603SOL     OW34267   4.094   4.304  12.026 -0.3845 -0.2357 -0.2567
 7603SOL    HW134268   4.135   4.383  12.059  0.3620  0.5605 -3.1317
 7603SOL    HW234269   4.019   4.299  12.085  1.2009 -0.3339  1.7311
 7604SOL     OW34270   2.892   1.658   3.427 -0.1553  0.1293  0.3758
 7604SOL    HW134271   2.889   1.748   3.460 -1.4011  0.2028  0.0730
 7604SOL    HW234272   2.816   1.669   3.370  0.3243  0.6236 -0.1700
 7605SOL     OW34273   3.306   2.683   0.823 -0.8356 -0.8612  0.0155
 7605SOL    HW134274   3.217   2.666   0.852 -1.0119 -0.6865 -0.4094
 7605SOL    HW234275   3.287   2.742   0.750  1.0239  0.9749  0.9934
 7606SOL     OW34276   1.725   3.314   5.001  0.2073 -0.7714  0.0066
 7606SOL    HW134277   1.635   3.310   4.969 -0.7951  1.6346  2.6301
 7606SOL    HW234278   1.728   3.301   5.095  0.9136 -2.0435 -0.1900
 7607SOL     OW34279   0.010   2.970  12.963  0.5600  1.0064  0.0685
 7607SOL    HW134280   0.102   2.993  12.952  0.9435 -0.2330  0.7141
 7607SOL    HW234281   4.700   3.028  13.033 -2.8729 -0.9786  0.1892
 7608SOL     OW34282   4.618   2.931   4.458  0.0117 -0.5691 -0.1469
 7608SOL    HW134283   4.555   2.937   4.386 -1.1752 -0.0005  0.9266
 7608SOL    HW234284   4.684   2.876   4.415 -1.8380 -2.1874 -0.9377
 7609SOL     OW34285   2.290   0.631   5.336 -0.2664  0.0585  0.3578
 7609SOL    HW134286   2.245   0.648   5.253 -0.9266  1.6060  1.0401
 7609SOL    HW234287   2.373   0.601   5.300 -0.5541 -1.2918  0.8118
 7610SOL     OW34288   2.186   2.047  10.714 -0.2839 -0.4198 -0.2532
 7610SOL    HW134289   2.268   2.045  10.763  0.5047  0.7741 -1.5473
 7610SOL    HW234290   2.181   2.137  10.683  1.9191  0.4421  1.8676
 7611SOL     OW34291   4.251   2.077   4.895 -0.2343 -0.3884 -0.1114
 7611SOL    HW134292   4.196   2.045   4.967  0.0839  3.2901  1.7480
 7611SOL    HW234293   4.236   2.008   4.830 -0.3532 -0.6833  0.2277
 7612SOL     OW34294   3.664   0.202   1.859  0.0413  0.1375 -0.2643
 7612SOL    HW134295   3.727   0.268   1.831  0.6052 -0.0897  0.4572
 7612SOL    HW234296   3.715   0.141   1.912  0.7359 -1.9584 -3.3504
 7613SOL     OW34297   3.359   1.041  15.877  0.0218  0.0222  0.2226
 7613SOL    HW134298   3.393   0.953  15.865 -0.7774 -0.3410  0.6378
 7613SOL    HW234299   3.290   1.046  15.810  0.8121 -0.5292 -0.6254
 7614SOL     OW34300   1.388   3.639   3.942 -0.1480  0.0194  0.0853
 7614SOL    HW134301   1.320   3.575   3.920  1.5607 -1.9382  0.5409
 7614SOL    HW234302   1.422   3.592   4.018 -0.9424 -0.4095  0.1805
 7615SOL     OW34303   3.481   1.669   3.005 -0.0856  0.5774 -0.0881
 7615SOL    HW134304   3.541   1.637   2.938 -1.2125  0.6101 -1.1135
 7615SOL    HW234305   3.447   1.743   2.954  2.0743 -0.4487 -3.0027
 7616SOL     OW34306   2.306   3.897   8.525 -0.6057  0.0506 -0.2728
 7616SOL    HW134307   2.284   3.823   8.468 -2.8219  0.5969 -0.1245
 7616SOL    HW234308   2.252   3.864   8.597 -1.8269 -0.2182 -1.3055
 7617SOL     OW34309   0.467   2.315   8.513  0.4105  0.2501  0.0507
 7617SOL    HW134310   0.376   2.307   8.539  0.2430 -3.3031 -1.5981
 7617SOL    HW234311   0.465   2.411   8.516 -0.9476  0.1014  3.8694
 7618SOL     OW34312   3.442   2.702   5.563 -0.0584  0.3213 -0.2832
 7618SOL    HW134313   3.348   2.721   5.569 -0.0252 -0.1040  1.5879
 7618SOL    HW234314   3.472   2.778   5.612  1.4191  0.4393 -1.3950
 7619SOL     OW34315   0.176   3.393   2.487  0.6470  0.5487  0.2754
 7619SOL    HW134316   0.182   3.385   2.392 -2.3684  0.4295  0.0920
 7619SOL    HW234317   0.266   3.425   2.499  0.5030  0.9845  0.2133
 7620SOL     OW34318   4.499   1.638   0.165  0.3764  0.0180  0.1443
 7620SOL    HW134319   4.521   1.615   0.255 -1.3001 -1.1981  0.2222
 7620SOL    HW234320   4.509   1.733   0.164 -0.8659  0.1177 -1.7506
 7621SOL     OW34321   2.560   0.948  13.835  1.1999  0.3748 -0.3923
 7621SOL    HW134322   2.475   0.976  13.868  0.8810 -1.0568 -0.0157
 7621SOL    HW234323   2.576   1.011  13.764  0.0238  1.5169  0.3653
 7622SOL     OW34324   1.635   4.387   1.782  0.0420 -0.2737 -0.4123
 7622SOL    HW134325   1.636   4.378   1.878  1.3512 -0.7888 -0.4832
 7622SOL    HW234326   1.720   4.424   1.760  0.0837  1.0874  1.9865
 7623SOL     OW34327   2.731   2.099  12.397 -0.0749  0.2876  0.6722
 7623SOL    HW134328   2.771   2.091  12.484  1.7561 -3.0261 -0.5112
 7623SOL    HW234329   2.755   2.189  12.374 -3.0530  1.2841  1.4408
 7624SOL     OW34330   0.015   0.168   5.871  0.2417  0.2125 -0.3866
 7624SOL    HW134331   4.653   0.168   5.822  1.5252 -0.8818 -2.5319
 7624SOL    HW234332   0.040   0.076   5.870 -1.1662 -0.1867  0.1967
 7625SOL     OW34333   1.838   0.283  15.559 -0.2693 -0.4301  0.0518
 7625SOL    HW134334   1.822   0.356  15.619 -1.3766 -0.9341  0.3681
 7625SOL    HW234335   1.787   0.215  15.603  0.2051  0.1164  1.4297
 7626SOL     OW34336   0.271   3.645   2.816 -0.3849  0.3833 -0.1053
 7626SOL    HW134337   0.332   3.700   2.767 -3.0497  1.9868 -1.6357
 7626SOL    HW234338   0.325   3.581   2.862 -0.3008  0.5920  0.0866
 7627SOL     OW34339   4.510   2.294  16.122  0.2887  0.3552 -0.3361
 7627SOL    HW134340   4.533   2.362  16.059  2.0848 -0.9476 -1.0841
 7627SOL    HW234341   4.470   2.221  16.074  3.7884  0.2550 -3.1147
 7628SOL     OW34342   2.454   1.059   3.244  0.0217  0.2214 -0.8744
 7628SOL    HW134343   2.441   1.154   3.233 -0.8421 -0.3381 -4.7274
 7628SOL    HW234344   2.417   1.023   3.163  1.4524 -0.9226 -1.0139
 7629SOL     OW34345   2.384   2.658   0.233  0.9117 -0.9089  0.0309
 7629SOL    HW134346   2.342   2.574   0.248  1.4173 -1.5330 -2.1104
 7629SOL    HW234347   2.315   2.715   0.198  0.0901 -0.4754  2.3353
 7630SOL     OW34348   2.992   0.859   5.280 -0.1694 -0.0924  0.6115
 7630SOL    HW134349   3.067   0.909   5.313  0.8803 -0.3870 -1.3186
 7630SOL    HW234350   2.918   0.903   5.322 -0.9125 -1.3379  0.6029
 7631SOL     OW34351   0.431   4.347   9.358 -0.1130  0.1948 -0.1634
 7631SOL    HW134352   0.468   4.259   9.366  1.1934  0.7052 -0.6761
 7631SOL    HW234353   0.339   4.331   9.339  0.1472  1.8327 -2.7988
 7632SOL     OW34354   4.121   4.025   6.230 -0.4221 -0.2555 -1.1983
 7632SOL    HW134355   4.095   4.066   6.148 -1.2906  0.0435 -0.7742
 7632SOL    HW234356   4.044   4.030   6.287 -1.0379 -1.0163 -1.9611
 7633SOL     OW34357   4.282   2.817   1.030  0.2714  0.3981 -0.3570
 7633SOL    HW134358   4.275   2.897   0.978 -2.1146  0.9430  0.8004
 7633SOL    HW234359   4.202   2.820   1.083 -0.0417  2.0969 -0.9148
 7634SOL     OW34360   1.135   0.792   8.189  0.4687 -0.2182 -0.5474
 7634SOL    HW134361   1.133   0.792   8.285  1.7306 -2.0166 -0.5088
 7634SOL    HW234362   1.085   0.872   8.173  0.5804  0.3475  1.8355
 7635SOL     OW34363   3.854   1.558   7.137 -0.1690 -0.3301 -0.3217
 7635SOL    HW134364   3.874   1.492   7.203  4.3811 -0.1824 -1.5444
 7635SOL    HW234365   3.923   1.623   7.152 -2.1662  1.7850 -0.2900
 7636SOL     OW34366   1.472   3.575  17.517  0.2728  0.2086  0.3147
 7636SOL    HW134367   1.526   3.536  17.448  0.4712  0.3487  0.3927
 7636SOL    HW234368   1.534   3.570  17.590 -0.7659  0.5475  1.2188
 7637SOL     OW34369   4.157   0.611   8.473 -0.4522  0.0864  0.4000
 7637SOL    HW134370   4.170   0.658   8.555 -0.1160  0.3722  0.1844
 7637SOL    HW234371   4.166   0.518   8.494  2.5843  0.1583 -0.5930
 7638SOL     OW34372   4.662   2.322   7.349  0.1026 -0.0934  0.0130
 7638SOL    HW134373   0.022   2.369   7.369 -1.3901  1.6624  1.8910
 7638SOL    HW234374   4.671   2.286   7.261 -0.3090  3.1506 -1.3332
 7639SOL     OW34375   1.445   4.447   4.167 -0.9092 -0.3419  0.3350
 7639SOL    HW134376   1.449   4.465   4.261  1.6623  0.9604 -0.0384
 7639SOL    HW234377   1.375   4.508   4.144 -0.0203 -0.3051 -2.2312
 7640SOL     OW34378   4.529   0.442   8.121  0.1636 -0.1304 -0.3967
 7640SOL    HW134379   4.506   0.364   8.071  2.7522 -1.3287  0.3342
 7640SOL    HW234380   4.463   0.501   8.084 -1.1279 -1.6351 -0.4647
 7641SOL     OW34381   2.180   2.296   5.603  0.3522 -0.4470  0.1789
 7641SOL    HW134382   2.185   2.293   5.507  0.6072  0.4062  0.1649
 7641SOL    HW234383   2.093   2.333   5.616  0.0508 -1.0629 -0.0837
 7642SOL     OW34384   2.137   0.168   5.205 -0.6990 -0.2667  0.4360
 7642SOL    HW134385   2.068   0.132   5.149  0.3570 -0.9548 -0.4020
 7642SOL    HW234386   2.131   0.252   5.158 -0.2615 -1.0564 -1.0085
 7643SOL     OW34387   3.006   4.369  14.866 -0.2190  0.8035 -0.3990
 7643SOL    HW134388   3.094   4.398  14.844  1.0854 -0.9223  2.5069
 7643SOL    HW234389   2.979   4.315  14.792 -0.3733  0.9985 -0.4847
 7644SOL     OW34390   1.901   2.475  16.942  0.7113  0.4678  0.2324
 7644SOL    HW134391   1.957   2.550  16.923  0.6230  0.5502  0.3002
 7644SOL    HW234392   1.963   2.404  16.960  0.7910  1.1356  2.5854
 7645SOL     OW34393   3.593   2.816  16.104  0.2042 -0.1881 -0.0360
 7645SOL    HW134394   3.555   2.898  16.137 -1.7787 -2.3309  2.9408
 7645SOL    HW234395   3.593   2.828  16.009  1.3435 -1.4298 -0.1960
 7646SOL     OW34396   0.993   0.920  12.554 -0.0518  1.1484  0.6246
 7646SOL    HW134397   1.016   0.990  12.615 -0.9473  0.3236  1.9249
 7646SOL    HW234398   1.011   0.964  12.471  0.1222 -1.3896 -0.6849
 7647SOL     OW34399   3.354   3.204   3.263  0.2933 -0.7914  0.0556
 7647SOL    HW134400   3.414   3.272   3.230 -3.2170  0.9518 -2.7615
 7647SOL    HW234401   3.300   3.189   3.185  1.2493  0.9211 -0.9449
 7648SOL     OW34402   2.335   2.127   7.353 -0.5767 -0.4968 -0.2366
 7648SOL    HW134403   2.285   2.157   7.278  0.3147  0.4524 -0.4369
 7648SOL    HW234404   2.390   2.058   7.317  2.4298  2.5137 -1.3213
 7649SOL     OW34405   2.443   3.573   3.419  0.0371  0.2062 -0.0011
 7649SOL    HW134406   2.399   3.557   3.335 -0.0232 -0.3660  0.1414
 7649SOL    HW234407   2.468   3.665   3.418 -0.5807  0.3683 -1.4970
 7650SOL     OW34408   3.014   4.325   2.665 -0.4545 -0.2178 -0.4332
 7650SOL    HW134409   2.967   4.315   2.748  0.8811 -0.7868  0.2554
 7650SOL    HW234410   2.964   4.263   2.612 -1.3470  1.2777 -1.3557
 7651SOL     OW34411   3.513   3.817   5.035 -0.5126 -0.5917  0.4171
 7651SOL    HW134412   3.556   3.732   5.023 -1.0017 -0.9550  1.2951
 7651SOL    HW234413   3.492   3.813   5.128  1.5302 -1.0781  0.8718
 7652SOL     OW34414   3.078   0.469   2.363  0.1573 -0.0527 -0.3048
 7652SOL    HW134415   3.119   0.394   2.406  3.0022 -0.2047 -3.3431
 7652SOL    HW234416   3.038   0.507   2.441 -2.3888  0.0812 -1.6638
 7653SOL     OW34417   0.987   1.680   5.074  0.2882  0.2929 -0.6934
 7653SOL    HW134418   0.900   1.640   5.062 -0.5088  2.0165 -0.6270
 7653SOL    HW234419   0.966   1.770   5.098  0.9631  0.9533 -2.5664
 7654SOL     OW34420   1.603   0.824   7.361  0.2200 -0.2178  0.6631
 7654SOL    HW134421   1.544   0.754   7.387 -0.3879 -0.4394 -1.3086
 7654SOL    HW234422   1.638   0.800   7.275 -1.4788  1.1213 -0.4154
 7655SOL     OW34423   1.422   0.571   3.620 -0.6822  0.3168  0.3452
 7655SOL    HW134424   1.362   0.631   3.575 -1.8733 -1.0266  0.1548
 7655SOL    HW234425   1.464   0.516   3.554 -0.8352  0.7096 -0.0801
 7656SOL     OW34426   2.290   0.643  10.990 -0.6871 -0.3620 -0.0024
 7656SOL    HW134427   2.334   0.558  10.985  0.6754  0.3902 -0.6631
 7656SOL    HW234428   2.229   0.626  11.063  1.2252 -2.7562  1.0649
 7657SOL     OW34429   2.965   2.020   5.528 -0.0417  0.6486 -0.1296
 7657SOL    HW134430   2.896   2.057   5.471  0.6043  1.7115 -0.2213
 7657SOL    HW234431   2.948   1.927   5.516  0.0321  0.3746  2.0587
 7658SOL     OW34432   1.657   3.523  14.833 -0.1977  0.2937 -0.2616
 7658SOL    HW134433   1.636   3.550  14.744  1.3564  0.7127 -0.5139
 7658SOL    HW234434   1.580   3.556  14.879  0.5254 -0.3430  1.4039
 7659SOL     OW34435   2.574   3.426   5.474  0.0720 -0.7269 -0.9704
 7659SOL    HW134436   2.669   3.438   5.474  0.6047 -4.6054  0.0837
 7659SOL    HW234437   2.560   3.455   5.564 -1.8393  0.7675 -1.7635
 7660SOL     OW34438   1.345   4.307   8.755  0.4105  0.0180 -0.6768
 7660SOL    HW134439   1.353   4.330   8.847 -2.3512 -0.8587 -0.2237
 7660SOL    HW234440   1.318   4.218   8.778  1.4783 -0.7433 -2.3587
 7661SOL     OW34441   0.890   3.629  17.335  0.5398 -0.2262 -0.0732
 7661SOL    HW134442   0.863   3.662  17.421 -0.3656  0.6724 -0.7153
 7661SOL    HW234443   0.940   3.703  17.301 -0.9837  0.8776  0.0941
 7662SOL     OW34444   1.532   1.863   5.933 -0.3540 -0.7392  0.1606
 7662SOL    HW134445   1.564   1.926   5.869  0.5180 -1.5919 -0.2489
 7662SOL    HW234446   1.561   1.777   5.902  1.0643 -0.5305  0.9105
 7663SOL     OW34447   1.742   4.565   7.487  0.9574  0.5193 -0.3963
 7663SOL    HW134448   1.652   4.547   7.514  0.9530 -0.1749 -0.8778
 7663SOL    HW234449   1.731   4.635   7.423  0.2759  0.6874 -0.0958
 7664SOL     OW34450   1.110   3.054   2.502  0.3254  0.2480  0.5668
 7664SOL    HW134451   1.133   3.005   2.581 -0.4097 -0.9676  0.0150
 7664SOL    HW234452   1.089   3.141   2.536  1.4623  1.1475 -1.0460
 7665SOL     OW34453   1.917   2.943   8.940  0.0603 -0.5400  0.1594
 7665SOL    HW134454   2.011   2.951   8.954  0.1706  1.3744 -1.6070
 7665SOL    HW234455   1.878   3.030   8.934 -0.4868 -0.7981 -0.0819
 7666SOL     OW34456   0.528   0.596   2.001  0.1961  0.2599  0.1626
 7666SOL    HW134457   0.457   0.576   2.062 -0.9589  0.2605 -1.1951
 7666SOL    HW234458   0.487   0.649   1.932  0.2081 -0.3385 -0.2993
 7667SOL     OW34459   1.013   4.250  14.100  0.5616 -0.6095 -0.0325
 7667SOL    HW134460   0.948   4.221  14.164  0.8808 -0.3500  0.4089
 7667SOL    HW234461   1.099   4.253  14.141  0.1287 -0.6573  0.8671
 7668SOL     OW34462   1.047   3.281   7.552  0.1303 -0.3868 -0.3525
 7668SOL    HW134463   1.060   3.261   7.459  1.5538 -0.0813 -0.2248
 7668SOL    HW234464   1.055   3.189   7.579  0.1355  0.3012  2.0033
 7669SOL     OW34465   1.188   0.497  12.342 -0.0292  0.0142 -0.1018
 7669SOL    HW134466   1.195   0.426  12.279  3.2511 -1.2076  1.6637
 7669SOL    HW234467   1.167   0.459  12.427 -3.0751 -1.3527 -1.4920
 7670SOL     OW34468   1.112   1.014   2.878 -0.0418 -0.3172 -0.0759
 7670SOL    HW134469   1.202   0.990   2.855  0.2701  0.7765 -0.0353
 7670SOL    HW234470   1.067   0.999   2.795 -2.3906 -1.1933  1.3454
 7671SOL     OW34471   2.576   3.068   2.631  0.9532 -0.1382  0.0153
 7671SOL    HW134472   2.632   3.128   2.680  0.5188 -0.2753  0.6805
 7671SOL    HW234473   2.584   3.114   2.547  0.0917  1.4862  0.8345
 7672SOL     OW34474   3.379   0.939   5.614 -0.1896 -0.2250  0.8128
 7672SOL    HW134475   3.472   0.934   5.592 -0.2947 -1.7753  0.7547
 7672SOL    HW234476   3.398   0.971   5.702 -0.7111 -0.5120  1.0235
 7673SOL     OW34477   0.559   1.655   5.800 -0.0936  0.2862 -1.0888
 7673SOL    HW134478   0.511   1.593   5.744 -0.6713 -1.6829  1.6087
 7673SOL    HW234479   0.560   1.740   5.756  1.6093  1.3905  1.0851
 7674SOL     OW34480   3.414   2.689  11.100  0.5236 -0.3243  0.7401
 7674SOL    HW134481   3.407   2.730  11.186 -0.2067 -0.2394  0.6363
 7674SOL    HW234482   3.438   2.770  11.053  1.1437 -1.2730 -0.5895
 7675SOL     OW34483   4.167   2.858  11.477  0.1903 -0.5279  0.3780
 7675SOL    HW134484   4.106   2.856  11.551  1.1561 -0.8054  1.1698
 7675SOL    HW234485   4.108   2.893  11.411  1.1586  1.4264  0.5272
 7676SOL     OW34486   1.526   2.849   9.452  0.2737 -0.3748 -0.5221
 7676SOL    HW134487   1.485   2.797   9.384 -2.3435  0.0031  0.7732
 7676SOL    HW234488   1.509   2.940   9.429 -0.4304 -0.6773 -1.1895
 7677SOL     OW34489   1.134   3.429   9.272  0.4486  0.1088 -0.0197
 7677SOL    HW134490   1.221   3.467   9.259 -0.5549  1.5996 -2.4217
 7677SOL    HW234491   1.163   3.338   9.268 -1.9850 -0.5830 -1.5515
 7678SOL     OW34492   4.172   2.958  11.814 -0.2379 -0.6843 -0.1411
 7678SOL    HW134493   4.143   2.874  11.848 -0.5120  0.2227  1.8628
 7678SOL    HW234494   4.089   3.003  11.796 -1.1303 -0.7953  3.8919
 7679SOL     OW34495   1.318   4.304   4.606  0.3147 -0.3224 -0.5196
 7679SOL    HW134496   1.289   4.328   4.518  0.1122 -0.9247 -0.6217
 7679SOL    HW234497   1.387   4.369   4.618 -0.6213 -0.1534  3.8698
 7680SOL     OW34498   3.216   2.494  13.062 -1.0947 -0.0275 -0.2420
 7680SOL    HW134499   3.175   2.490  12.976  0.9247  2.5540 -1.3360
 7680SOL    HW234500   3.290   2.548  13.034 -1.1914  0.9709  1.4364
 7681SOL     OW34501   0.241   0.815   6.986 -0.2393  0.1879  0.0009
 7681SOL    HW134502   0.219   0.771   6.904 -2.7758 -0.6785  1.1428
 7681SOL    HW234503   0.320   0.864   6.963  1.0026  0.0276  3.9209
 7682SOL     OW34504   2.627   0.522   8.850  0.0250  0.1903  0.5455
 7682SOL    HW134505   2.692   0.455   8.872 -0.9315 -1.2753 -1.0618
 7682SOL    HW234506   2.550   0.465   8.850 -2.1678  3.2158 -2.4638
 7683SOL     OW34507   2.725   3.914   6.244 -0.1282  0.5916 -0.3418
 7683SOL    HW134508   2.792   3.850   6.220 -1.1604 -0.3232 -0.8199
 7683SOL    HW234509   2.762   3.987   6.194  2.4985 -0.3096  0.2731
 7684SOL     OW34510   0.312   1.251  14.802 -0.7844  0.2409  0.1814
 7684SOL    HW134511   0.390   1.271  14.750 -0.1764 -0.9660  0.6350
 7684SOL    HW234512   0.274   1.337  14.818  0.4615  0.7582  0.3488
 7685SOL     OW34513   0.502   1.747   3.037 -0.1786 -0.0018  0.4928
 7685SOL    HW134514   0.595   1.760   3.058 -0.1051 -0.9797  0.7480
 7685SOL    HW234515   0.501   1.652   3.025  0.0978  0.0443  0.0835
 7686SOL     OW34516   3.627   4.284   3.021 -0.2275  0.0846  0.9333
 7686SOL    HW134517   3.608   4.212   3.081  1.8636  0.0541  1.5444
 7686SOL    HW234518   3.713   4.308   3.055  0.8117 -1.9508 -0.2509
 7687SOL     OW34519   2.843   2.963   8.577  0.4388 -0.5011 -0.3534
 7687SOL    HW134520   2.907   3.005   8.635  0.1743  0.7975 -1.0163
 7687SOL    HW234521   2.906   2.950   8.505  0.7417 -0.8838 -0.0227
 7688SOL     OW34522   0.438   2.749  13.421 -0.0056  0.1438 -0.3752
 7688SOL    HW134523   0.488   2.678  13.381 -0.6342  0.3821 -1.5675
 7688SOL    HW234524   0.379   2.771  13.349  0.1073 -0.3654 -0.6173
 7689SOL     OW34525   3.449   1.601   4.828 -0.7734 -0.0079 -0.1453
 7689SOL    HW134526   3.537   1.566   4.819 -0.3569  1.2210 -0.9247
 7689SOL    HW234527   3.400   1.534   4.876  1.4042  0.7222  3.0732
 7690SOL     OW34528   3.898   0.644  13.648  0.1275 -0.4185 -0.3302
 7690SOL    HW134529   3.945   0.622  13.728  1.2352 -1.9213 -1.4044
 7690SOL    HW234530   3.963   0.675  13.585 -0.2327 -2.0587 -1.4964
 7691SOL     OW34531   3.920   1.371   9.544 -0.7175 -0.9415 -0.1249
 7691SOL    HW134532   3.853   1.313   9.509 -1.0260 -1.4034  1.2267
 7691SOL    HW234533   3.946   1.310   9.613  1.0614  1.1301  1.0260
 7692SOL     OW34534   1.156   1.523  13.190 -0.7416  0.0678 -0.1592
 7692SOL    HW134535   1.180   1.612  13.163 -1.5798  0.5838  0.8111
 7692SOL    HW234536   1.075   1.528  13.240 -1.9588  0.5128 -2.1619
 7693SOL     OW34537   4.678   1.550   9.530  0.0362 -0.1841  0.1418
 7693SOL    HW134538   4.631   1.519   9.607 -0.2357 -1.3889 -0.5072
 7693SOL    HW234539   4.644   1.634   9.500 -0.6503 -0.2287  0.7922
 7694SOL     OW34540   3.036   1.835   2.986  0.2283 -0.7133 -0.2338
 7694SOL    HW134541   3.043   1.903   3.053  3.2310  0.4069 -1.6540
 7694SOL    HW234542   2.968   1.779   3.023 -0.6852  0.8662  0.4945
 7695SOL     OW34543   3.600   0.363   8.082  0.0998 -0.7997  0.1585
 7695SOL    HW134544   3.660   0.295   8.051  0.3324 -0.7749  0.5385
 7695SOL    HW234545   3.637   0.439   8.037 -0.5390  0.5003  1.8192
 7696SOL     OW34546   4.699   1.428  16.477  0.1401 -0.1436  0.3391
 7696SOL    HW134547   4.693   1.369  16.552 -2.0700 -0.4690 -0.0785
 7696SOL    HW234548   4.606   1.448  16.462  0.8978  1.0630 -2.8164
 7697SOL     OW34549   0.415   3.671   7.504  0.1304 -0.1163 -0.1026
 7697SOL    HW134550   0.408   3.650   7.411 -1.6247 -1.4016  0.3015
 7697SOL    HW234551   0.323   3.674   7.533  0.1992  0.6207  0.0236
 7698SOL     OW34552   3.725   2.604   7.097  0.3880  0.0490  0.3847
 7698SOL    HW134553   3.663   2.531   7.090  1.5848 -1.0045  0.7495
 7698SOL    HW234554   3.726   2.623   7.003  0.5427 -1.3621  0.1035
 7699SOL     OW34555   3.211   1.204   3.817  0.0800 -0.0608 -0.1755
 7699SOL    HW134556   3.201   1.222   3.911  0.1172 -0.3856 -0.1104
 7699SOL    HW234557   3.303   1.223   3.797 -0.0490  1.8631  1.1195
 7700SOL     OW34558   3.503   2.297   9.030 -0.1983 -0.0968  0.3101
 7700SOL    HW134559   3.471   2.339   9.110 -2.2539 -0.6502 -0.2207
 7700SOL    HW234560   3.460   2.352   8.965 -2.8582 -0.2323  1.9476
 7701SOL     OW34561   4.292   0.306   6.453  0.1441 -0.1339  0.4810
 7701SOL    HW134562   4.375   0.355   6.457  0.1937 -0.1722 -0.0716
 7701SOL    HW234563   4.322   0.224   6.414  0.6167  0.1589  0.2346
 7702SOL     OW34564   2.953   0.802   5.710 -0.3025 -0.0125  0.1144
 7702SOL    HW134565   2.963   0.897   5.703 -0.4367 -0.0263 -0.2748
 7702SOL    HW234566   2.897   0.800   5.788 -1.1922 -2.2938 -0.5823
 7703SOL     OW34567   4.677   4.492   1.566  0.6950 -0.7427 -0.3045
 7703SOL    HW134568   4.591   4.527   1.541  0.5076 -1.8036 -1.1871
 7703SOL    HW234569   4.714   4.549   1.633 -0.8239  0.1117 -0.1737
 7704SOL     OW34570   4.538   0.192   8.029 -0.5322  0.4101  0.2269
 7704SOL    HW134571   4.464   0.150   8.072 -1.3044  0.2054 -1.2694
 7704SOL    HW234572   4.603   0.123   8.044 -2.6474 -1.6514  0.0569
 7705SOL     OW34573   0.175   3.470   6.934  0.4070  0.3465 -0.5595
 7705SOL    HW134574   0.193   3.419   6.855 -1.6522 -0.8695 -0.2165
 7705SOL    HW234575   0.177   3.400   6.999 -0.5552 -0.2883 -1.2220
 7706SOL     OW34576   3.523   2.783   3.138 -0.6985  0.6592 -0.4139
 7706SOL    HW134577   3.447   2.787   3.195  0.2420 -1.8869  1.0391
 7706SOL    HW234578   3.502   2.707   3.084 -2.4525  1.1722 -0.4297
 7707SOL     OW34579   1.472   3.530   2.352  0.0682 -0.0421 -0.1762
 7707SOL    HW134580   1.508   3.453   2.310 -0.8109  1.3912 -3.5689
 7707SOL    HW234581   1.383   3.530   2.316 -0.8514  1.9737  2.1373
 7708SOL     OW34582   0.006   1.034   3.285  0.1059  0.1302 -0.2740
 7708SOL    HW134583   0.008   1.124   3.250  0.1811 -0.2729 -1.3106
 7708SOL    HW234584   0.090   1.000   3.254  1.1346  0.1216  2.5541
 7709SOL     OW34585   2.061   3.357   6.436 -0.8854 -0.0962  0.2105
 7709SOL    HW134586   2.136   3.409   6.407 -0.5481  0.4027  1.9732
 7709SOL    HW234587   2.058   3.295   6.363  2.4445  1.6614 -1.4231
 7710SOL     OW34588   1.669   2.380   0.172 -0.4731  0.0113  0.0776
 7710SOL    HW134589   1.732   2.451   0.183 -0.3490 -0.3637  1.7742
 7710SOL    HW234590   1.725   2.305   0.154 -0.1713  0.0989  0.6376
 7711SOL     OW34591   1.123   1.112   7.926 -0.0802  0.8322  0.4064
 7711SOL    HW134592   1.209   1.086   7.891 -0.4912 -1.0330  0.7615
 7711SOL    HW234593   1.159   1.186   7.975 -0.9719  1.1530  0.5698
 7712SOL     OW34594   4.672   2.574  10.934  0.2630  0.3853 -0.3089
 7712SOL    HW134595   4.606   2.525  10.887 -0.6121  0.0509  1.2497
 7712SOL    HW234596   0.020   2.507  10.935 -0.2748 -0.1843 -1.9227
 7713SOL     OW34597   0.548   0.010   2.855  0.3119  0.5785 -0.3248
 7713SOL    HW134598   0.621   0.029   2.795  1.0466  4.6781  1.8789
 7713SOL    HW234599   0.490   0.081   2.829 -0.3319  1.9136  4.9459
 7714SOL     OW34600   1.961   3.301   3.294 -0.0805 -0.5377  0.0224
 7714SOL    HW134601   1.997   3.246   3.225  0.5296 -0.3626  0.2079
 7714SOL    HW234602   1.903   3.247   3.348  0.8864 -1.6457 -0.0402
 7715SOL     OW34603   1.413   0.459   0.100 -0.5480 -0.2213  0.2323
 7715SOL    HW134604   1.405   0.548   0.066 -0.3236  0.2427  1.3912
 7715SOL    HW234605   1.335   0.458   0.155  0.5288 -0.0066  1.7469
 7716SOL     OW34606   0.677   0.764   3.799  0.3014  0.3910 -0.0621
 7716SOL    HW134607   0.747   0.825   3.822 -0.5272  1.8789 -1.4941
 7716SOL    HW234608   0.644   0.791   3.713 -1.4706 -1.0103  0.1758
 7717SOL     OW34609   0.305   0.239   1.503  0.0607 -0.1941  0.2736
 7717SOL    HW134610   0.215   0.269   1.492  0.4412  0.7778 -0.2115
 7717SOL    HW234611   0.355   0.318   1.526 -0.3762 -0.3361  1.7085
 7718SOL     OW34612   4.467   2.761  10.334 -0.7457 -0.9964 -0.2297
 7718SOL    HW134613   4.376   2.759  10.307 -1.0658 -0.2946  0.8089
 7718SOL    HW234614   4.488   2.679  10.377 -1.0285 -1.6734 -1.3888
 7719SOL     OW34615   1.994   4.720   4.104  0.4041 -0.1184  0.2110
 7719SOL    HW134616   2.000   0.006   4.009  1.4865 -2.1550  0.1483
 7719SOL    HW234617   2.083   0.031   4.121 -0.1037  1.9291 -0.9920
 7720SOL     OW34618   0.210   3.373  16.955  0.2120 -0.9007  0.7559
 7720SOL    HW134619   0.300   3.349  16.973  1.2133  1.8163 -0.6511
 7720SOL    HW234620   0.171   3.289  16.930  3.1968 -1.0553 -3.3699
 7721SOL     OW34621   2.827   0.929  11.206  0.0599  0.5680 -0.3497
 7721SOL    HW134622   2.894   0.968  11.263 -0.2281 -0.6960  0.8687
 7721SOL    HW234623   2.874   0.899  11.128  0.3371 -0.7746  0.3153
 7722SOL     OW34624   3.904   0.328   6.670 -0.1570 -0.0274  0.7543
 7722SOL    HW134625   3.975   0.388   6.647  0.9326 -0.9554  1.6889
 7722SOL    HW234626   3.886   0.287   6.585 -0.6374 -0.7919  1.2211
 7723SOL     OW34627   1.299   1.006   6.502  0.1103 -0.1809  0.0130
 7723SOL    HW134628   1.292   0.910   6.500 -1.0497 -0.0859 -0.3075
 7723SOL    HW234629   1.223   1.023   6.446 -1.5485  0.9538  2.6486
 7724SOL     OW34630   3.947   2.325   1.640 -0.5583  0.6176 -0.1472
 7724SOL    HW134631   3.872   2.266   1.647  1.1530 -1.6265 -0.9410
 7724SOL    HW234632   4.020   2.264   1.641 -0.6110  0.5543 -0.1474
 7725SOL     OW34633   0.928   3.098   3.080 -0.1634 -0.5929  0.0605
 7725SOL    HW134634   0.971   3.132   3.002  0.3208 -0.9874  0.1583
 7725SOL    HW234635   0.980   3.119   3.157 -0.6768  0.7840  0.0384
 7726SOL     OW34636   4.598   2.473   6.332  0.8035 -0.7354 -0.0774
 7726SOL    HW134637   4.690   2.459   6.308  0.5258  0.7334 -1.9541
 7726SOL    HW234638   4.602   2.462   6.427  0.0638  1.3273  0.1845
 7727SOL     OW34639   4.072   2.556   1.241  0.5218 -0.5088  0.4351
 7727SOL    HW134640   4.070   2.651   1.226  0.6110 -0.2870  1.7903
 7727SOL    HW234641   4.061   2.561   1.336 -0.1558 -0.0411  0.3398
 7728SOL     OW34642   1.850   2.205   6.063  0.0635  0.1234  0.4996
 7728SOL    HW134643   1.849   2.293   6.025  0.4322 -0.1394 -0.1239
 7728SOL    HW234644   1.880   2.154   5.988  1.2748  0.1163  0.9885
 7729SOL     OW34645   4.141   0.301   3.554  0.4639  0.0273 -0.2747
 7729SOL    HW134646   4.215   0.295   3.615  0.7575 -0.2350 -0.6576
 7729SOL    HW234647   4.077   0.239   3.587  0.8545 -0.1942  0.0741
 7730SOL     OW34648   3.337   0.788   1.584  0.1623  0.5923  0.8213
 7730SOL    HW134649   3.271   0.823   1.644 -1.3148  2.3378 -1.8442
 7730SOL    HW234650   3.398   0.862   1.584 -1.8367  2.2370  2.2123
 7731SOL     OW34651   1.929   4.342   5.998 -0.0104 -0.0360  0.2445
 7731SOL    HW134652   1.972   4.263   5.967  0.4892 -1.0853  3.6588
 7731SOL    HW234653   1.854   4.344   5.937  0.2267  1.9962  0.0007
 7732SOL     OW34654   0.344   0.006   0.913 -0.6948 -0.0132  0.0015
 7732SOL    HW134655   0.262   0.037   0.952 -0.2398  0.3698  0.6632
 7732SOL    HW234656   0.409   0.072   0.936 -1.6936  0.1307  2.4720
 7733SOL     OW34657   1.455   4.448   6.190 -1.0050 -0.7148 -0.3132
 7733SOL    HW134658   1.497   4.379   6.241  2.4246  0.8059 -1.0515
 7733SOL    HW234659   1.527   4.512   6.187  0.6947 -2.6004  0.0531
 7734SOL     OW34660   0.807   0.634   1.323 -0.1379  0.2072  0.0424
 7734SOL    HW134661   0.807   0.541   1.302  2.1107  0.4471 -1.0148
 7734SOL    HW234662   0.844   0.630   1.412 -1.1798  1.3778  0.5236
 7735SOL     OW34663   1.793   1.174  11.831 -0.5943  0.0082  0.1237
 7735SOL    HW134664   1.735   1.099  11.818 -2.5321  1.7435 -1.4234
 7735SOL    HW234665   1.857   1.124  11.881 -0.6281 -0.0246  0.1345
 7736SOL     OW34666   2.035   1.416   9.095  0.2220 -0.4312 -0.6251
 7736SOL    HW134667   1.981   1.469   9.155  0.9138 -1.1718  0.6365
 7736SOL    HW234668   1.984   1.336   9.087 -3.3458  1.9673 -1.9589
 7737SOL     OW34669   2.641   2.600   9.124  0.1503 -0.5786  0.3843
 7737SOL    HW134670   2.689   2.539   9.180 -1.2148  0.9227  3.2388
 7737SOL    HW234671   2.711   2.666   9.115  0.2794 -0.6868  0.5951
 7738SOL     OW34672   4.387   0.308   3.140 -0.3882 -0.2223 -0.1838
 7738SOL    HW134673   4.311   0.336   3.192  1.7636  3.5689  0.9438
 7738SOL    HW234674   4.456   0.310   3.207 -1.6410 -0.1011  1.1187
 7739SOL     OW34675   2.641   0.775   4.143  0.1503 -0.4921  0.1405
 7739SOL    HW134676   2.638   0.866   4.172  1.4155  0.3367 -2.2806
 7739SOL    HW234677   2.729   0.765   4.106  0.4049 -0.2414  0.6807
 7740SOL     OW34678   2.756   4.645   6.292  0.5836  0.5724 -0.0743
 7740SOL    HW134679   2.692   4.623   6.224  1.5540 -0.3170 -0.7101
 7740SOL    HW234680   2.836   4.642   6.240 -0.0787  1.6042 -1.1462
 7741SOL     OW34681   2.003   1.281  10.195 -0.7278 -0.1734  0.2116
 7741SOL    HW134682   2.021   1.281  10.101  1.3012  1.3808  0.5849
 7741SOL    HW234683   1.915   1.244  10.193  0.0342 -1.9800  0.1486
 7742SOL     OW34684   0.948   2.906   6.210  0.1738 -0.4433  0.5194
 7742SOL    HW134685   0.939   2.999   6.188 -0.1044 -0.3696  0.9435
 7742SOL    HW234686   1.027   2.893   6.157 -1.0323 -1.0786 -1.0893
 7743SOL     OW34687   2.928   1.405   1.986 -0.0053 -0.2447 -0.0025
 7743SOL    HW134688   2.869   1.367   2.051 -0.3580 -0.7059 -0.5897
 7743SOL    HW234689   2.863   1.421   1.918 -1.0012 -4.5211 -0.0712
 7744SOL     OW34690   4.314   3.915   8.764  0.2324 -0.0312 -0.2113
 7744SOL    HW134691   4.316   3.947   8.854 -2.0982  1.5877 -0.7316
 7744SOL    HW234692   4.225   3.939   8.737  1.4130  3.3678 -1.1640
 7745SOL     OW34693   1.170   3.044  10.507 -0.3163  0.4302  0.4780
 7745SOL    HW134694   1.247   3.000  10.471 -0.3079  0.0037  1.0164
 7745SOL    HW234695   1.188   3.130  10.470  0.0041  0.5130  0.8314
 7746SOL     OW34696   3.784   4.391   0.871  0.4109 -0.3306  0.0057
 7746SOL    HW134697   3.813   4.358   0.786 -2.4720  1.3136 -1.6436
 7746SOL    HW234698   3.849   4.370   0.937 -2.3067 -2.3449  1.9823
 7747SOL     OW34699   4.527   2.615   4.868 -0.3225  0.2332 -0.4163
 7747SOL    HW134700   4.572   2.669   4.803 -0.9270 -1.5176 -2.2840
 7747SOL    HW234701   4.601   2.562   4.897 -0.4774  0.4836  0.4265
 7748SOL     OW34702   3.152   2.923   3.557 -0.4930 -0.0565 -0.2293
 7748SOL    HW134703   3.141   2.866   3.480 -2.3513 -1.7120  1.2706
 7748SOL    HW234704   3.236   2.965   3.540 -1.1133  2.3754  2.8018
 7749SOL     OW34705   2.909   2.491  10.455  0.4985 -0.2832  0.0326
 7749SOL    HW134706   2.854   2.564  10.484  0.9408  0.2441 -0.4612
 7749SOL    HW234707   2.931   2.449  10.538 -0.9570  1.1834  1.1543
 7750SOL     OW34708   2.978   4.331  11.632 -0.7109 -0.5604  0.0294
 7750SOL    HW134709   3.027   4.343  11.713 -2.1864  3.4894  0.3569
 7750SOL    HW234710   3.027   4.388  11.573 -3.2532  1.9304  0.3126
 7751SOL     OW34711   2.268   0.383   5.754 -0.1438  0.1086  0.1585
 7751SOL    HW134712   2.249   0.385   5.661 -1.9488  1.9412  0.5607
 7751SOL    HW234713   2.359   0.414   5.751  0.2902 -1.3043 -1.0679
 7752SOL     OW34714   4.181   2.950   2.596  0.4480  0.0117  0.7023
 7752SOL    HW134715   4.162   2.857   2.581  0.0833 -0.2239  2.6851
 7752SOL    HW234716   4.097   2.982   2.628 -0.0971 -1.3989  0.6810
 7753SOL     OW34717   3.007   0.361   5.677 -0.7558 -0.6236 -0.2056
 7753SOL    HW134718   2.950   0.413   5.620 -0.5707 -2.1003 -1.7346
 7753SOL    HW234719   2.969   0.383   5.762 -1.9598  1.4453 -1.2836
 7754SOL     OW34720   3.434   3.979   4.825 -0.1300  0.0286 -0.3223
 7754SOL    HW134721   3.433   3.917   4.753  1.1439  0.0714 -0.3781
 7754SOL    HW234722   3.493   3.929   4.882 -0.8061 -0.2363  0.1422
 7755SOL     OW34723   1.831   1.146   5.612 -0.1038 -0.4281 -0.0113
 7755SOL    HW134724   1.762   1.102   5.662  0.1997  0.6892  1.3855
 7755SOL    HW234725   1.858   1.067   5.565 -0.9256 -1.0237  0.5020
 7756SOL     OW34726   0.677   4.492  14.569 -0.2420  0.1367 -0.4070
 7756SOL    HW134727   0.634   4.407  14.558 -3.5983  1.8333 -0.4660
 7756SOL    HW234728   0.749   4.482  14.631 -1.2790 -0.4084  0.7158
 7757SOL     OW34729   1.039   0.512   7.370  0.2136  0.3711 -0.4559
 7757SOL    HW134730   0.951   0.497   7.333 -0.3432 -1.2105  1.5443
 7757SOL    HW234731   1.025   0.518   7.464 -3.2854  0.2911 -0.9534
 7758SOL     OW34732   2.143   4.486   6.359  0.3795 -0.2805  0.7871
 7758SOL    HW134733   2.219   4.519   6.312 -0.6307 -0.1277 -0.7312
 7758SOL    HW234734   2.188   4.449   6.435 -1.4902 -1.3509  1.3655
 7759SOL     OW34735   0.768   1.739   0.252  0.4477  0.1260 -0.1899
 7759SOL    HW134736   0.802   1.822   0.285 -2.0096 -0.1114  3.0245
 7759SOL    HW234737   0.678   1.769   0.238 -0.0188 -1.0999  0.2008
 7760SOL     OW34738   4.277   2.448   2.926 -0.1357  0.1551 -0.2002
 7760SOL    HW134739   4.347   2.472   2.988  1.8479 -2.1418 -1.5363
 7760SOL    HW234740   4.203   2.451   2.986  0.7700  0.0815  0.9347
 7761SOL     OW34741   3.726   1.798   0.682 -0.1512  0.3111 -0.3677
 7761SOL    HW134742   3.766   1.844   0.608  1.6288  1.3646  1.2317
 7761SOL    HW234743   3.805   1.781   0.735  1.4959 -0.3548 -3.0522
 7762SOL     OW34744   0.491   4.183   6.492 -0.1140  0.2273 -0.5216
 7762SOL    HW134745   0.408   4.136   6.502  0.0669 -0.2897 -1.5270
 7762SOL    HW234746   0.542   4.117   6.445  0.0467 -0.4570  0.6063
 7763SOL     OW34747   3.339   1.069   8.652 -0.0609 -0.0039  0.1225
 7763SOL    HW134748   3.295   1.030   8.728  0.0045 -3.7922 -1.8320
 7763SOL    HW234749   3.339   1.160   8.684 -1.5353  0.2720 -0.6333
 7764SOL     OW34750   2.679   3.603  11.209  0.2620 -0.9347 -0.2476
 7764SOL    HW134751   2.699   3.675  11.269  2.4692 -1.4296 -0.4214
 7764SOL    HW234752   2.740   3.539  11.246  0.6451  0.9027  2.3198
 7765SOL     OW34753   4.233   3.403  14.134 -0.0700 -0.1423  0.8063
 7765SOL    HW134754   4.212   3.375  14.223  1.2832  1.4736  1.6251
 7765SOL    HW234755   4.320   3.441  14.150  0.6864 -1.1306 -0.9032
 7766SOL     OW34756   3.501   0.647   1.867  0.5281 -0.5740  0.7443
 7766SOL    HW134757   3.410   0.618   1.875  0.1770  0.1485 -0.5753
 7766SOL    HW234758   3.503   0.695   1.784 -1.4098  0.5570  1.3424
 7767SOL     OW34759   1.949   1.644  12.204  0.2046 -0.2073  0.2669
 7767SOL    HW134760   1.937   1.677  12.115  0.2867 -1.6600 -0.2779
 7767SOL    HW234761   2.024   1.589  12.183  1.0408  1.5616 -1.3654
 7768SOL     OW34762   2.909   1.907   2.294  0.0536 -0.1570 -0.4907
 7768SOL    HW134763   2.855   1.841   2.252  1.1325 -0.1383 -1.8953
 7768SOL    HW234764   2.877   1.987   2.251 -0.2973 -0.0756 -0.0751
 7769SOL     OW34765   0.793   2.258   2.283 -0.2805  0.1549 -0.2668
 7769SOL    HW134766   0.730   2.304   2.228  0.4150  0.3111 -0.9321
 7769SOL    HW234767   0.746   2.272   2.365 -0.0489 -0.3189 -0.0553
 7770SOL     OW34768   2.775   4.432  14.164 -0.2242 -0.2973 -0.3126
 7770SOL    HW134769   2.799   4.524  14.150  0.7027 -0.5483 -0.4015
 7770SOL    HW234770   2.807   4.396  14.081  2.0732 -0.1448  0.5069
 7771SOL     OW34771   0.076   1.412  15.149 -0.7501 -0.4076  0.4138
 7771SOL    HW134772   0.024   1.439  15.073 -0.3774 -1.8659 -0.3552
 7771SOL    HW234773   0.033   1.329  15.169 -1.0302 -0.5684 -0.8753
 7772SOL     OW34774   1.419   2.733   5.420  0.7535 -0.0941 -0.0266
 7772SOL    HW134775   1.495   2.785   5.449 -0.3414  0.1676  2.3558
 7772SOL    HW234776   1.360   2.744   5.494 -1.3970  1.5796 -1.9848
 7773SOL     OW34777   0.542   3.134  13.773  0.8229  0.2498 -0.2377
 7773SOL    HW134778   0.491   3.125  13.692 -1.7551  1.4777  1.2344
 7773SOL    HW234779   0.602   3.060  13.772  1.9268  1.1539 -1.6862
 7774SOL     OW34780   0.087   4.169   2.120  0.1091  0.1212 -0.6433
 7774SOL    HW134781   0.121   4.221   2.046  1.7856 -0.0086  0.0336
 7774SOL    HW234782   0.140   4.214   2.186  0.8011 -4.1984  1.7393
 7775SOL     OW34783   2.394   0.779   1.785  0.1103 -0.3073 -0.4332
 7775SOL    HW134784   2.378   0.687   1.761 -0.3378 -0.6696  1.2700
 7775SOL    HW234785   2.433   0.809   1.703 -0.0275 -2.0439 -1.1554
 7776SOL     OW34786   3.756   0.177  11.901 -0.1216 -0.3386 -0.0975
 7776SOL    HW134787   3.849   0.167  11.880  0.6830  2.9395  1.8623
 7776SOL    HW234788   3.714   0.200  11.818 -1.1521  0.9887  0.7812
 7777SOL     OW34789   0.662   2.561   9.437 -0.1849 -0.0952  0.5276
 7777SOL    HW134790   0.648   2.604   9.353 -0.4819  0.5127  0.8860
 7777SOL    HW234791   0.744   2.518   9.414 -0.5584  0.1474 -1.2950
 7778SOL     OW34792   2.816   3.510  15.082  0.5384 -0.0353 -1.0321
 7778SOL    HW134793   2.892   3.474  15.127  2.1247  2.4520 -1.7068
 7778SOL    HW234794   2.769   3.431  15.055 -0.8124  1.4057 -2.8186
 7779SOL     OW34795   2.996   2.373   3.315  0.1403  1.0840  0.1344
 7779SOL    HW134796   2.989   2.288   3.360  1.0727  0.5414 -0.7402
 7779SOL    HW234797   2.962   2.347   3.230  0.0917  2.1747 -0.1667
 7780SOL     OW34798   3.444   4.641  13.043  0.2503  0.4233 -0.1410
 7780SOL    HW134799   3.500   4.699  13.094  0.2095  0.5246 -0.2130
 7780SOL    HW234800   3.505   4.629  12.971  0.4479 -1.5618  0.3391
 7781SOL     OW34801   1.008   1.376  14.877  0.3177  0.7042 -0.5280
 7781SOL    HW134802   1.082   1.320  14.852 -0.9399 -1.2932  0.2552
 7781SOL    HW234803   1.047   1.454  14.917  1.3606 -0.0997  0.0315
 7782SOL     OW34804   3.366   3.216   6.271  0.7292 -0.1536  0.3393
 7782SOL    HW134805   3.388   3.210   6.178  1.8672  1.1636  0.5161
 7782SOL    HW234806   3.453   3.195   6.305  0.7740  0.2856  0.4917
 7783SOL     OW34807   0.403   0.860   2.407  0.2611 -0.4427 -0.3346
 7783SOL    HW134808   0.398   0.955   2.397  0.5957 -0.5981 -1.8762
 7783SOL    HW234809   0.485   0.846   2.455 -2.1574 -1.3652  3.5818
 7784SOL     OW34810   1.558   1.516  16.017 -0.4695 -0.0916  0.0872
 7784SOL    HW134811   1.650   1.532  15.995  0.0181 -0.2042  1.9841
 7784SOL    HW234812   1.540   1.586  16.079 -2.2370 -1.7428  1.4278
 7785SOL     OW34813   3.636   1.271   2.558 -0.3869  0.4887  0.0698
 7785SOL    HW134814   3.647   1.183   2.594  1.4057  0.6995  0.0161
 7785SOL    HW234815   3.566   1.248   2.497 -0.3124  1.6992 -0.4691
 7786SOL     OW34816   0.366   3.439   1.467 -0.5269  0.1931 -0.2080
 7786SOL    HW134817   0.366   3.514   1.408  0.0498 -1.7786 -2.7142
 7786SOL    HW234818   0.451   3.444   1.509  1.6810 -0.6356 -4.5531
 7787SOL     OW34819   0.768   1.298   7.091 -0.7687  0.0196 -0.4338
 7787SOL    HW134820   0.775   1.385   7.131 -0.5167 -0.0483 -0.3275
 7787SOL    HW234821   0.730   1.246   7.162 -2.5174  2.7139  0.6107
 7788SOL     OW34822   1.467   2.689   3.663  0.0459 -0.5656 -0.7562
 7788SOL    HW134823   1.374   2.679   3.640 -0.6338 -0.3114  1.8656
 7788SOL    HW234824   1.486   2.613   3.719  0.5074  0.6782  0.7801
 7789SOL     OW34825   3.512   0.471   2.394  0.0675  0.2770 -0.1780
 7789SOL    HW134826   3.478   0.382   2.384  1.2146 -0.3513  1.7126
 7789SOL    HW234827   3.592   0.469   2.342 -0.5085 -2.7929 -0.9479
 7790SOL     OW34828   0.463   1.209   5.560  0.2481 -0.2290  0.0394
 7790SOL    HW134829   0.429   1.265   5.491 -0.8795 -0.5445  0.3400
 7790SOL    HW234830   0.397   1.141   5.550 -0.3841  0.7963 -2.7866
 7791SOL     OW34831   3.421   4.561   1.535 -0.1900 -0.2389  0.1311
 7791SOL    HW134832   3.471   4.593   1.610  0.4283  0.9192 -0.7695
 7791SOL    HW234833   3.331   4.548   1.564 -0.7750  0.9395 -1.1245
 7792SOL     OW34834   3.173   1.024   4.644 -0.6798  0.4989 -0.4334
 7792SOL    HW134835   3.216   0.946   4.678  0.7908  1.5475  0.0951
 7792SOL    HW234836   3.135   1.052   4.727 -1.6298  1.4033 -1.1644
 7793SOL     OW34837   3.885   4.030   8.051  0.0035 -0.0683  0.4148
 7793SOL    HW134838   3.841   4.027   8.136 -0.6133 -2.5933  0.0159
 7793SOL    HW234839   3.978   4.029   8.077  0.4776  0.5250 -1.2920
 7794SOL     OW34840   3.775   4.311   8.135  0.1378 -0.1400  0.2015
 7794SOL    HW134841   3.868   4.323   8.152  0.0122  0.4008  0.4874
 7794SOL    HW234842   3.760   4.390   8.083 -0.0922 -1.3753 -1.6191
 7795SOL     OW34843   1.052   2.675   9.479 -0.1089  0.0609 -0.3608
 7795SOL    HW134844   1.115   2.747   9.470 -0.0149 -0.0819 -0.8394
 7795SOL    HW234845   0.974   2.729   9.462 -0.8379 -0.5621  1.0202
 7796SOL     OW34846   4.207   0.278   2.277  0.7347 -0.2661 -0.6924
 7796SOL    HW134847   4.234   0.366   2.304 -1.1352 -0.0380  0.4573
 7796SOL    HW234848   4.121   0.291   2.318 -0.0887  0.9938 -2.7737
 7797SOL     OW34849   2.535   4.298  14.241 -0.2167 -0.2221 -0.5318
 7797SOL    HW134850   2.555   4.218  14.291 -1.8185  0.1680  0.7372
 7797SOL    HW234851   2.492   4.358  14.303  0.7395  0.0243 -0.1081
 7798SOL     OW34852   0.595   4.026  17.465  0.2629 -0.1235  0.4666
 7798SOL    HW134853   0.683   4.006  17.433  1.2934  1.8933  2.0690
 7798SOL    HW234854   0.594   4.093  17.533  1.0429 -1.0740  1.4097
 7799SOL     OW34855   3.013   1.217   6.221 -0.2072  0.2937  0.1020
 7799SOL    HW134856   2.962   1.150   6.266 -0.1969 -0.4886 -1.0740
 7799SOL    HW234857   3.039   1.282   6.288  1.4646 -0.7848  0.4970
 7800SOL     OW34858   0.545   2.556  14.145 -0.4149  0.3057  0.3289
 7800SOL    HW134859   0.557   2.512  14.229  0.8466  0.5334  0.2690
 7800SOL    HW234860   0.486   2.630  14.160 -2.0719 -1.0661  0.6088
 7801SOL     OW34861   1.917   3.988   4.464  0.6030  0.3817  0.0631
 7801SOL    HW134862   1.830   3.965   4.496  0.6721 -1.1259 -0.8323
 7801SOL    HW234863   1.901   4.078   4.438 -0.6566 -0.2575 -1.4198
 7802SOL     OW34864   3.676   2.506  16.102 -0.2671 -0.4891 -0.1246
 7802SOL    HW134865   3.718   2.592  16.099 -2.1762  0.5470  2.8111
 7802SOL    HW234866   3.598   2.540  16.057  1.1119  2.9826  0.0804
 7803SOL     OW34867   4.226   2.312  12.829  0.0640  0.5258  0.2991
 7803SOL    HW134868   4.285   2.236  12.826  0.8827  1.1576  0.2728
 7803SOL    HW234869   4.227   2.334  12.736 -3.1507  2.0128  0.6384
 7804SOL     OW34870   0.595   1.768   3.765  0.0093 -0.2813  0.5033
 7804SOL    HW134871   0.676   1.799   3.806  0.5774 -0.6177 -0.3657
 7804SOL    HW234872   0.571   1.842   3.710  0.5880 -1.6405 -1.5711
 7805SOL     OW34873   1.024   3.926  12.984  0.3829 -0.1460  0.2494
 7805SOL    HW134874   1.008   3.923  12.890 -1.4622  0.2517  0.5481
 7805SOL    HW234875   0.933   3.934  13.012  0.3406  0.7702 -0.1393
 7806SOL     OW34876   3.171   4.481   3.996  0.1801  0.0066  0.1645
 7806SOL    HW134877   3.149   4.424   3.922  0.5194  0.0822  0.0029
 7806SOL    HW234878   3.263   4.456   4.008 -0.4960 -2.5876 -0.1578
 7807SOL     OW34879   0.071   2.755   0.624 -0.2508  0.0838  0.4707
 7807SOL    HW134880   0.155   2.737   0.582  1.4797  1.2395  3.4595
 7807SOL    HW234881   0.035   2.831   0.579 -0.5149 -0.4452 -0.2241
 7808SOL     OW34882   4.446   0.666  11.056 -0.0488 -0.0719  0.2983
 7808SOL    HW134883   4.493   0.609  11.117 -1.5462  0.0236  1.5623
 7808SOL    HW234884   4.518   0.703  11.006 -0.5733 -1.8957 -1.7779
 7809SOL     OW34885   3.405   0.472  16.688  0.3926  0.1462  0.2316
 7809SOL    HW134886   3.423   0.530  16.614  0.1385  0.1195  0.1490
 7809SOL    HW234887   3.468   0.508  16.751 -0.8990  0.9105  1.1057
 7810SOL     OW34888   2.250   2.431  13.565  0.1311 -0.1044  0.2764
 7810SOL    HW134889   2.169   2.394  13.530 -0.0726  0.5496  0.0554
 7810SOL    HW234890   2.314   2.362  13.549 -1.0119 -0.8637 -1.1089
 7811SOL     OW34891   3.625   1.626   7.774 -0.3677  0.3588  0.8327
 7811SOL    HW134892   3.613   1.709   7.820 -0.5220  1.0231 -0.3924
 7811SOL    HW234893   3.582   1.649   7.691  0.4564  0.6569  0.4881
 7812SOL     OW34894   3.600   4.636   8.060 -0.0125 -0.5969 -0.3850
 7812SOL    HW134895   3.625   0.005   8.040 -0.6025 -0.5418 -0.8942
 7812SOL    HW234896   3.676   4.592   8.023  0.6392 -0.5821  0.9116
 7813SOL     OW34897   3.751   1.621   4.434 -0.2789 -0.3157  0.5232
 7813SOL    HW134898   3.755   1.619   4.339 -1.5807 -0.3597  0.4691
 7813SOL    HW234899   3.666   1.579   4.451 -0.5413  1.0984  2.6774
 7814SOL     OW34900   4.103   0.119   5.712 -0.3578  0.4174 -0.4292
 7814SOL    HW134901   4.127   0.202   5.672 -0.4941  0.3745 -0.6011
 7814SOL    HW234902   4.068   0.078   5.632 -1.3318  1.7169 -0.6739
 7815SOL     OW34903   3.831   4.534  16.957  0.1083  0.5257 -0.5399
 7815SOL    HW134904   3.754   4.510  16.905  0.5236 -1.4866 -0.2464
 7815SOL    HW234905   3.827   4.466  17.025 -1.9205  0.9968 -0.1993
 7816SOL     OW34906   4.502   0.309   2.612  0.4337  0.8128  0.1283
 7816SOL    HW134907   4.574   0.373   2.614  0.4203  0.8644 -1.2722
 7816SOL    HW234908   4.525   0.253   2.686 -1.7498  1.6266  1.4314
 7817SOL     OW34909   3.467   3.393   5.215  0.4189  0.1113 -0.2234
 7817SOL    HW134910   3.426   3.308   5.233  1.3345 -0.8109 -2.5832
 7817SOL    HW234911   3.557   3.377   5.187  0.4751  1.2755 -0.6772
 7818SOL     OW34912   3.645   2.272  16.205 -0.0600  0.1830 -0.2229
 7818SOL    HW134913   3.647   2.355  16.158  0.4724 -0.0276 -0.5781
 7818SOL    HW234914   3.606   2.296  16.289  1.7752 -0.8617  0.9260
 7819SOL     OW34915   3.244   2.063  14.622 -0.0818  0.5187  0.5526
 7819SOL    HW134916   3.196   2.009  14.559 -1.0290  1.0762  0.7983
 7819SOL    HW234917   3.193   2.061  14.703 -0.0291  0.4698  0.5847
 7820SOL     OW34918   2.438   1.852   3.661 -0.3653 -0.2081 -0.4700
 7820SOL    HW134919   2.362   1.833   3.607 -1.9568  1.5284  1.1174
 7820SOL    HW234920   2.512   1.870   3.603 -2.4696  2.7953 -2.2339
 7821SOL     OW34921   4.220   1.400   4.776  0.3315 -0.3952  0.3115
 7821SOL    HW134922   4.206   1.306   4.777  0.5859 -0.4205  1.1505
 7821SOL    HW234923   4.302   1.410   4.824  0.7415 -1.2884 -0.2074
 7822SOL     OW34924   1.709   2.533  10.774  0.1645 -0.0585 -0.8494
 7822SOL    HW134925   1.729   2.609  10.721  0.9597 -0.2549 -0.8279
 7822SOL    HW234926   1.620   2.516  10.743 -0.1372  1.0838 -0.6083
 7823SOL     OW34927   3.105   4.018   9.945 -0.2392  0.0359  0.2036
 7823SOL    HW134928   3.081   3.926   9.958 -0.7855  0.3922  1.7170
 7823SOL    HW234929   3.031   4.036   9.886  0.4973 -0.0442 -0.7534
 7824SOL     OW34930   4.121   0.826   2.748  0.5393 -0.4911 -0.8614
 7824SOL    HW134931   4.069   0.899   2.782  2.0547  0.1430  0.0749
 7824SOL    HW234932   4.212   0.850   2.764  0.4341  0.1942 -1.3037
 7825SOL     OW34933   4.477   0.454   5.468  0.1141  0.5488  0.8969
 7825SOL    HW134934   4.429   0.526   5.509 -1.2816 -1.2274  2.3539
 7825SOL    HW234935   4.547   0.505   5.425  0.2700 -0.7049 -0.3219
 7826SOL     OW34936   2.759   1.171   3.450  0.1635 -0.3512  0.2081
 7826SOL    HW134937   2.732   1.081   3.431 -1.0486  0.2876 -1.0465
 7826SOL    HW234938   2.850   1.179   3.477 -0.0868  0.3480  0.8271
 7827SOL     OW34939   0.689   0.869   3.542 -0.2111  0.0763  0.6766
 7827SOL    HW134940   0.638   0.820   3.478 -0.1925  3.8701 -2.2087
 7827SOL    HW234941   0.764   0.889   3.485  0.5118 -2.5913  0.6678
 7828SOL     OW34942   3.743   2.150   1.693 -0.2416  0.1255 -0.3715
 7828SOL    HW134943   3.657   2.114   1.671  0.5769 -0.9672 -1.8234
 7828SOL    HW234944   3.805   2.076   1.698  0.0942  0.3685 -0.9003
 7829SOL     OW34945   1.170   0.862   0.626 -0.0055 -1.1620  0.7627
 7829SOL    HW134946   1.118   0.919   0.682  1.3815  0.2877  0.5618
 7829SOL    HW234947   1.208   0.921   0.562 -1.8987 -2.4501 -1.5599
 7830SOL     OW34948   2.064   3.672   7.457  0.3842  0.7160 -0.3075
 7830SOL    HW134949   2.066   3.687   7.362  0.0344  2.7472 -0.0052
 7830SOL    HW234950   1.969   3.663   7.466  0.3005  1.1942 -0.6808
 7831SOL     OW34951   0.786   4.668   7.647  0.1561 -0.2765 -0.6295
 7831SOL    HW134952   0.742   0.020   7.691  1.8384  0.4185 -0.0884
 7831SOL    HW234953   0.773   4.600   7.714  0.7128 -0.1883 -0.4317
 7832SOL     OW34954   0.974   3.715   3.974  0.1846  0.2786  0.2068
 7832SOL    HW134955   1.018   3.793   3.943  0.1670 -0.8799 -2.6891
 7832SOL    HW234956   0.890   3.714   3.928 -1.0263  3.5657  2.3273
 7833SOL     OW34957   3.683   0.545   7.533 -0.0885  0.0271  0.1542
 7833SOL    HW134958   3.777   0.557   7.517 -0.0911  0.0886  0.1843
 7833SOL    HW234959   3.681   0.477   7.600  2.0658  0.3124  0.5024
 7834SOL     OW34960   1.424   2.706   9.234  0.0595  0.1592 -0.3751
 7834SOL    HW134961   1.460   2.766   9.169  1.5464 -2.1125 -1.6362
 7834SOL    HW234962   1.436   2.621   9.192  2.5849  0.2265  0.1851
 7835SOL     OW34963   4.237   0.149  10.964 -0.2344  0.1390 -0.1163
 7835SOL    HW134964   4.235   0.130  11.058  0.3722  0.0052 -0.1298
 7835SOL    HW234965   4.192   0.233  10.964  1.0305  0.8222  4.0017
 7836SOL     OW34966   1.395   2.525   0.678 -0.4532 -0.2972  0.0177
 7836SOL    HW134967   1.441   2.502   0.759  0.7994  0.4035 -0.4870
 7836SOL    HW234968   1.373   2.618   0.684 -0.8915 -0.2419 -2.3005
 7837SOL     OW34969   3.621   0.055   2.751  0.6033 -1.1255  0.6741
 7837SOL    HW134970   3.713   0.039   2.771  1.2142  1.7079  0.2169
 7837SOL    HW234971   3.608   0.018   2.664  2.3992 -0.0002 -0.0875
 7838SOL     OW34972   4.410   0.506  16.437 -1.0123 -0.6793  0.2056
 7838SOL    HW134973   4.481   0.464  16.485 -0.1582  2.0032  1.2869
 7838SOL    HW234974   4.365   0.434  16.393  0.5562 -2.2525  1.2041
 7839SOL     OW34975   4.444   0.069  16.598  0.0381  0.1771  0.7215
 7839SOL    HW134976   4.464   4.696  16.594  1.1640  0.4635 -0.6893
 7839SOL    HW234977   4.470   0.108  16.514 -1.5540  0.4836  0.3619
 7840SOL     OW34978   1.063   2.667  10.594  0.0178 -0.1346  0.3133
 7840SOL    HW134979   1.086   2.692  10.504 -0.5087  2.3645  0.8823
 7840SOL    HW234980   1.104   2.581  10.586 -1.3056 -0.6839 -0.7131
 7841SOL     OW34981   1.024   4.689  14.621 -0.1385  0.4341 -0.1092
 7841SOL    HW134982   0.951   4.649  14.575 -0.2879 -0.9984  1.3707
 7841SOL    HW234983   1.043   0.046  14.569 -0.2521  0.5591  0.0368
 7842SOL     OW34984   2.052   4.446   4.532 -0.1705 -0.8112 -0.1138
 7842SOL    HW134985   2.092   4.370   4.573  0.9132  0.3457  0.9335
 7842SOL    HW234986   2.097   4.463   4.449 -0.0920  0.8362  0.2606
 7843SOL     OW34987   1.895   2.615   1.754 -0.9106  0.2332 -0.1230
 7843SOL    HW134988   1.970   2.606   1.812  0.3060 -3.5377 -2.2613
 7843SOL    HW234989   1.928   2.647   1.670 -1.2768 -0.9993 -0.7416
 7844SOL     OW34990   0.183   1.823   2.435 -0.0784  0.0258  0.6942
 7844SOL    HW134991   0.241   1.816   2.360  1.5300 -1.1885  2.0359
 7844SOL    HW234992   0.110   1.879   2.408 -0.5450 -0.0008  1.9003
 7845SOL     OW34993   4.156   3.656  11.758 -0.1353 -0.3445  0.2257
 7845SOL    HW134994   4.127   3.614  11.839 -1.2224 -0.8776 -0.4428
 7845SOL    HW234995   4.085   3.671  11.696  0.0896  2.9105  0.7410
 7846SOL     OW34996   3.215   4.040   4.989 -0.1897 -0.2985  0.5167
 7846SOL    HW134997   3.293   4.009   4.944  0.1838 -1.6965  2.1206
 7846SOL    HW234998   3.251   4.023   5.076 -1.1374 -1.9609  0.5705
 7847SOL     OW34999   0.247   4.028   6.643  0.0696 -0.2427  0.0687
 7847SOL    HW135000   0.199   3.965   6.589  0.2398  0.0820 -0.4632
 7847SOL    HW235001   0.185   4.101   6.649  0.9977  0.6834 -1.5417
 7848SOL     OW35002   2.345   2.423   1.992 -0.0177  0.4540 -0.0641
 7848SOL    HW135003   2.330   2.341   2.040  0.4986  0.7255  0.5666
 7848SOL    HW235004   2.258   2.460   1.998 -1.1847 -1.5651 -4.3806
 7849SOL     OW35005   1.956   0.476   5.156 -0.8286 -0.3282  0.1135
 7849SOL    HW135006   1.868   0.506   5.176  0.3867  2.5459  1.1978
 7849SOL    HW235007   1.951   0.482   5.061  1.1087 -1.0501 -0.0432
 7850SOL     OW35008   2.616   0.152   5.352  0.4640 -0.1739 -0.0955
 7850SOL    HW135009   2.692   0.186   5.304  0.1901 -0.8196 -0.9834
 7850SOL    HW235010   2.555   0.141   5.279 -0.4254  0.8946  0.4893
 7851SOL     OW35011   1.047   1.734   7.840  0.4143 -0.5089  0.2082
 7851SOL    HW135012   1.089   1.813   7.875 -1.3889  0.7427 -0.4403
 7851SOL    HW235013   1.125   1.680   7.829 -0.3752 -1.6660  0.3513
 7852SOL     OW35014   4.592   2.500   6.621  0.1852 -0.0111  0.1599
 7852SOL    HW135015   4.611   2.577   6.674  0.2865 -0.3676  0.6455
 7852SOL    HW235016   4.564   2.438   6.689 -1.1285  0.0402 -0.3359
 7853SOL     OW35017   3.829   3.196   6.485  0.3453 -0.2579 -0.0606
 7853SOL    HW135018   3.901   3.257   6.467  0.3799 -0.4903 -0.7292
 7853SOL    HW235019   3.787   3.225   6.565  0.4238 -0.0517 -0.0946
 7854SOL     OW35020   3.904   0.223  10.903 -0.8676  0.0925  0.1023
 7854SOL    HW135021   3.911   0.160  10.832 -2.8162 -0.1474  0.1315
 7854SOL    HW235022   3.987   0.270  10.899  0.5212 -2.4030 -0.5310
 7855SOL     OW35023   4.044   2.187   5.700 -0.5223  0.2661 -0.2337
 7855SOL    HW135024   4.037   2.242   5.778  0.0426 -0.3939  0.2807
 7855SOL    HW235025   3.963   2.136   5.706  0.3747 -0.9580  1.4956
 7856SOL     OW35026   1.737   2.328   3.115  0.7937 -0.7521  0.1302
 7856SOL    HW135027   1.804   2.265   3.141 -0.5314 -1.7883  1.0547
 7856SOL    HW235028   1.793   2.396   3.078 -0.4798  1.2710  1.9624
 7857SOL     OW35029   1.754   1.122   4.651 -0.4300 -0.1290  0.1753
 7857SOL    HW135030   1.692   1.186   4.617 -0.0826  0.7672  1.2277
 7857SOL    HW235031   1.802   1.180   4.711  0.1311  1.2369 -1.5994
 7858SOL     OW35032   0.289   0.238  11.406  0.1365  0.1137 -0.4283
 7858SOL    HW135033   0.219   0.237  11.341 -1.2181 -1.4680  1.0475
 7858SOL    HW235034   0.366   0.210  11.358  0.4167 -1.0843  0.7209
 7859SOL     OW35035   0.617   1.044  12.440 -0.0477 -0.7395 -0.1839
 7859SOL    HW135036   0.659   1.074  12.360 -4.3801  2.9574 -1.0325
 7859SOL    HW235037   0.583   0.959  12.409 -1.9703  0.7129 -2.0432
 7860SOL     OW35038   1.446   0.622   7.360 -0.3072 -0.8073  0.0140
 7860SOL    HW135039   1.435   0.530   7.385 -0.7719 -0.4165  1.2192
 7860SOL    HW235040   1.354   0.645   7.346 -1.0835 -3.3002  1.0172
 7861SOL     OW35041   3.267   3.407   2.923  0.0928 -0.6839  0.3285
 7861SOL    HW135042   3.304   3.463   2.855 -1.2670 -2.1915 -1.6772
 7861SOL    HW235043   3.187   3.456   2.942  0.1328 -1.3150  2.1714
 7862SOL     OW35044   3.423   3.944   3.962  0.0996 -0.1404 -0.1004
 7862SOL    HW135045   3.495   3.944   4.025  0.5926 -1.6244 -0.6519
 7862SOL    HW235046   3.345   3.935   4.017  0.3032 -0.2944  0.1634
 7863SOL     OW35047   3.919   0.954   8.953 -1.1214  0.0794 -0.3912
 7863SOL    HW135048   3.971   1.030   8.928  1.1726 -1.3052  0.1850
 7863SOL    HW235049   3.841   1.006   8.971 -1.0794  0.2816 -0.8028
 7864SOL     OW35050   3.681   2.002   4.310 -0.8586  0.2632  0.5471
 7864SOL    HW135051   3.687   2.096   4.293  0.2448 -0.5263 -3.5135
 7864SOL    HW235052   3.713   1.971   4.225 -0.5873  0.0879  0.7145
 7865SOL     OW35053   3.318   0.228   0.113 -0.1317 -0.2893 -0.3773
 7865SOL    HW135054   3.276   0.231   0.199 -0.3653  0.8570 -0.5326
 7865SOL    HW235055   3.247   0.240   0.050 -0.5634  0.3055  0.2304
 7866SOL     OW35056   1.425   4.304  12.188  0.2117  0.0062  0.3837
 7866SOL    HW135057   1.368   4.379  12.207  1.5121  0.7573  1.2644
 7866SOL    HW235058   1.511   4.343  12.175 -1.2580  2.6029 -1.6061
 7867SOL     OW35059   4.089   2.824   1.220  0.0994  0.3800  0.0943
 7867SOL    HW135060   4.122   2.912   1.240  0.5995  0.1442  0.3198
 7867SOL    HW235061   4.017   2.823   1.284  0.9676  0.2837  1.0712
 7868SOL     OW35062   2.100   0.694   8.755  0.4853 -0.0783  0.1215
 7868SOL    HW135063   2.153   0.631   8.706  0.4661  0.1561 -0.2025
 7868SOL    HW235064   2.164   0.754   8.793 -1.0321  1.5191  0.1038
 7869SOL     OW35065   2.179   0.986   1.194  0.3390  0.8153 -0.5256
 7869SOL    HW135066   2.162   0.912   1.136 -2.2013 -0.0113  1.2773
 7869SOL    HW235067   2.139   1.061   1.149 -1.3806 -0.5901 -1.3544
 7870SOL     OW35068   1.470   2.806   0.784 -0.3804  0.4201 -0.4634
 7870SOL    HW135069   1.454   2.900   0.793 -0.0217  0.5557 -1.2875
 7870SOL    HW235070   1.463   2.773   0.874 -3.7213  1.5707 -0.3126
 7871SOL     OW35071   1.431   0.067   7.694 -0.4113 -0.6851 -0.1097
 7871SOL    HW135072   1.508   0.123   7.694  0.0232 -1.2733 -0.5100
 7871SOL    HW235073   1.427   0.046   7.787 -0.9694 -0.8816 -0.1763
 7872SOL     OW35074   2.008   0.064   3.214 -0.2390  0.1898 -0.0204
 7872SOL    HW135075   1.978   0.137   3.160 -2.3969 -0.4971  0.2543
 7872SOL    HW235076   1.925   0.034   3.252 -0.8014 -2.0365 -3.0464
 7873SOL     OW35077   0.905   0.941   6.776 -0.7515 -0.3422 -0.0134
 7873SOL    HW135078   0.922   1.035   6.786 -0.8683 -0.0883 -2.0809
 7873SOL    HW235079   0.917   0.929   6.681  0.0441  0.8396 -0.0634
 7874SOL     OW35080   3.020   1.417   6.651  0.0803 -0.3879 -0.2226
 7874SOL    HW135081   2.959   1.480   6.610 -1.8131 -1.9034  0.2845
 7874SOL    HW235082   3.070   1.396   6.572  0.0339 -0.1448 -0.3177
 7875SOL     OW35083   1.815   4.606   1.053  0.3810  0.1200 -0.3650
 7875SOL    HW135084   1.789   4.639   1.139  0.8040  1.2749 -0.6703
 7875SOL    HW235085   1.893   4.553   1.068  1.5570  0.9858 -3.2806
 7876SOL     OW35086   0.731   3.229   8.217 -0.1882  0.9831  0.7728
 7876SOL    HW135087   0.702   3.292   8.151  1.0109  0.7577  0.0279
 7876SOL    HW235088   0.648   3.181   8.217  0.9827 -1.0708 -2.0049
 7877SOL     OW35089   2.931   2.879  13.110  0.1733 -0.8081  0.0492
 7877SOL    HW135090   3.021   2.896  13.140  0.1152 -0.4038 -0.0073
 7877SOL    HW235091   2.884   2.895  13.192  0.8615  2.5769 -0.2099
 7878SOL     OW35092   1.024   0.322   5.430 -0.3497 -0.3187 -0.4725
 7878SOL    HW135093   1.039   0.248   5.372 -0.1475 -0.5062 -0.1783
 7878SOL    HW235094   1.027   0.393   5.366 -0.5726  0.9623  0.9444
 7879SOL     OW35095   2.831   4.165   0.880  0.1835 -0.2357 -0.0546
 7879SOL    HW135096   2.775   4.109   0.934 -0.0883  0.7908  0.7367
 7879SOL    HW235097   2.770   4.215   0.826 -1.0810 -0.9934  0.6751
 7880SOL     OW35098   3.949   2.069  16.214 -0.5124  0.2758 -0.9188
 7880SOL    HW135099   3.881   2.123  16.255  0.6202 -0.5402  2.0266
 7880SOL    HW235100   3.956   1.998  16.278  1.3820 -0.8189 -2.3306
 7881SOL     OW35101   0.851   3.240  14.146 -0.0650 -0.1328  0.3016
 7881SOL    HW135102   0.823   3.309  14.085 -0.2793 -0.5753 -0.0984
 7881SOL    HW235103   0.797   3.273  14.218  0.7449  1.6520  0.1023
 7882SOL     OW35104   3.764   1.726   3.371  0.5227  0.6126 -0.4547
 7882SOL    HW135105   3.802   1.642   3.396  0.7520  2.0220  3.9278
 7882SOL    HW235106   3.684   1.707   3.321  0.4487  1.1451 -0.5320
 7883SOL     OW35107   2.035   3.137   5.076  0.2479  0.2550 -0.7717
 7883SOL    HW135108   2.128   3.155   5.088  0.0571  0.7239  0.0225
 7883SOL    HW235109   2.004   3.227   5.078  0.7859  0.3955  0.9940
 7884SOL     OW35110   1.747   4.528   9.156 -0.6362 -0.4123  0.2186
 7884SOL    HW135111   1.669   4.498   9.109  0.1591 -1.4009 -0.4532
 7884SOL    HW235112   1.787   4.450   9.194 -0.8134 -0.3308  0.5702
 7885SOL     OW35113   3.948   2.986   9.018 -0.3708  0.0928  0.3797
 7885SOL    HW135114   3.917   3.043   9.088 -2.1427  0.3648 -0.6317
 7885SOL    HW235115   3.856   2.966   9.004  0.3299 -1.8360 -1.4988
 7886SOL     OW35116   0.037   3.495  11.883 -0.4447 -0.4822  0.6805
 7886SOL    HW135117   4.707   3.559  11.932 -0.2371 -0.0376  0.3181
 7886SOL    HW235118   0.021   3.408  11.918 -0.3355 -1.8246 -2.6308
 7887SOL     OW35119   1.090   0.233  13.657  0.8449  0.6287  0.0729
 7887SOL    HW135120   1.099   0.138  13.657 -1.4392  0.4081  0.3130
 7887SOL    HW235121   1.020   0.249  13.720  0.7836 -3.0096  0.9147
 7888SOL     OW35122   3.738   4.456   2.585  0.4551 -0.3959 -0.3094
 7888SOL    HW135123   3.819   4.453   2.533 -0.8268 -0.0587 -2.3324
 7888SOL    HW235124   3.688   4.521   2.536  2.1077 -0.0162 -1.4914
 7889SOL     OW35125   2.137   3.899   4.979  0.5175  0.2465  0.2227
 7889SOL    HW135126   2.082   3.861   4.911 -1.1192  2.3103  0.3840
 7889SOL    HW235127   2.130   3.832   5.046  2.7466  0.3842  0.5812
 7890SOL     OW35128   1.143   2.360   0.768 -0.3281  0.3506 -0.2480
 7890SOL    HW135129   1.104   2.372   0.681  0.1860 -0.1877 -0.5489
 7890SOL    HW235130   1.218   2.418   0.751 -0.0180  0.0968  0.2722
 7891SOL     OW35131   0.603   3.216   5.049  0.2805 -0.1465  0.0220
 7891SOL    HW135132   0.522   3.185   5.008  0.5243  1.3615 -1.5897
 7891SOL    HW235133   0.570   3.260   5.127 -1.2995 -1.6718  0.2362
 7892SOL     OW35134   2.798   4.696   4.138  0.1692  0.1561 -0.4470
 7892SOL    HW135135   2.804   0.069   4.158 -0.4405  0.0469  0.2344
 7892SOL    HW235136   2.874   4.699   4.080 -0.2648 -1.7175 -1.0966
 7893SOL     OW35137   2.000   1.074   9.682 -0.6536 -0.3120  0.3092
 7893SOL    HW135138   2.013   1.128   9.760 -3.4289  0.3717  0.3096
 7893SOL    HW235139   2.041   0.993   9.711 -1.6187 -0.6117  0.8173
 7894SOL     OW35140   1.068   0.187   2.392  0.3967  0.2416 -0.4376
 7894SOL    HW135141   1.095   0.098   2.370 -0.4828 -0.6004  1.8777
 7894SOL    HW235142   1.154   0.229   2.402  1.4522 -2.0025  0.0139
 7895SOL     OW35143   3.184   3.493  11.662 -0.5993 -0.0955 -0.6010
 7895SOL    HW135144   3.164   3.566  11.603 -1.7938 -0.2799 -0.4342
 7895SOL    HW235145   3.258   3.531  11.710 -1.5871 -0.8615  1.5304
 7896SOL     OW35146   3.660   0.077   4.651  0.0356  0.1515  0.2586
 7896SOL    HW135147   3.691   0.155   4.605  0.5754  0.4899  1.1982
 7896SOL    HW235148   3.732   0.014   4.646 -1.1759 -1.0450 -2.1467
 7897SOL     OW35149   0.076   2.769   4.366  0.4567 -0.1399 -0.0309
 7897SOL    HW135150   0.095   2.692   4.313  0.5226 -0.4654  0.4706
 7897SOL    HW235151   0.145   2.759   4.432  2.0606 -1.0960 -1.8588
 7898SOL     OW35152   1.056   4.146  16.895 -0.3649  0.6045  0.2691
 7898SOL    HW135153   1.019   4.136  16.983 -0.1203  0.7218  0.3866
 7898SOL    HW235154   1.101   4.064  16.875  1.7276  2.1364 -1.2616
 7899SOL     OW35155   2.199   0.990   5.424  0.3080 -0.2827  0.0782
 7899SOL    HW135156   2.251   0.963   5.500  2.0328 -1.0138 -1.3316
 7899SOL    HW235157   2.132   0.921   5.423 -0.9397  0.9526 -0.4832
 7900SOL     OW35158   1.401   4.178   6.959 -0.3469 -0.3753 -0.0869
 7900SOL    HW135159   1.483   4.228   6.965  0.4517 -1.6674 -0.3339
 7900SOL    HW235160   1.436   4.109   7.014 -1.5021 -0.4234  0.5807
 7901SOL     OW35161   2.073   1.436  14.667 -0.0302 -0.2224 -0.8935
 7901SOL    HW135162   2.087   1.403  14.756 -0.4224 -1.5493 -1.3322
 7901SOL    HW235163   2.108   1.524  14.683  1.7304 -0.8735 -1.1474
 7902SOL     OW35164   1.720   0.013   2.548  0.2246  0.3035 -0.7445
 7902SOL    HW135165   1.738   4.675   2.475  0.3575 -1.2098  0.4999
 7902SOL    HW235166   1.783   4.704   2.614  3.2661  1.2412 -3.2183
 7903SOL     OW35167   1.188   4.565   1.562 -0.0353 -0.1153  0.4550
 7903SOL    HW135168   1.142   4.611   1.632 -1.2809 -0.7412  0.0266
 7903SOL    HW235169   1.270   4.615   1.557 -1.6214  2.5437  1.0043
 7904SOL     OW35170   2.554   4.644   4.918 -0.0325  0.3858 -0.1292
 7904SOL    HW135171   2.542   4.672   4.828 -1.3977  0.1671 -0.0160
 7904SOL    HW235172   2.615   4.714   4.942  0.7483 -0.0897 -0.7202
 7905SOL     OW35173   0.864   1.066   8.256 -0.5957 -0.6366 -0.2028
 7905SOL    HW135174   0.838   1.139   8.313  1.1280 -0.6001  0.5212
 7905SOL    HW235175   0.774   1.041   8.234  0.5469 -4.5365 -0.4150
 7906SOL     OW35176   1.301   0.051   6.625  0.0702  0.5414  0.3582
 7906SOL    HW135177   1.284   0.012   6.539  1.0373 -2.4175  1.5005
 7906SOL    HW235178   1.237   0.008   6.682  0.3383  0.9043  0.9308
 7907SOL     OW35179   2.951   1.782   1.647  0.3946 -0.4591 -0.2005
 7907SOL    HW135180   3.001   1.718   1.697  3.1475  3.1012  1.6737
 7907SOL    HW235181   2.959   1.861   1.700 -0.6556 -1.7539  1.8541
 7908SOL     OW35182   2.854   0.974   4.681  0.3764 -0.0006  0.5791
 7908SOL    HW135183   2.883   1.015   4.762  0.0392  2.1009 -0.3773
 7908SOL    HW235184   2.913   0.898   4.685  1.7347  1.0427  0.4423
 7909SOL     OW35185   3.789   3.643   7.252 -0.7585  0.2243  0.0097
 7909SOL    HW135186   3.873   3.663   7.211 -0.4901 -2.2915 -0.6725
 7909SOL    HW235187   3.757   3.579   7.188 -0.9328  0.6342 -0.3093
 7910SOL     OW35188   3.852   2.391   2.614 -0.4051  0.3853 -0.2249
 7910SOL    HW135189   3.888   2.308   2.581  0.3637  1.0722 -1.0968
 7910SOL    HW235190   3.838   2.367   2.705 -0.8394  3.2553  0.4543
 7911SOL     OW35191   3.148   4.652   0.242 -0.0880  0.9487  0.2640
 7911SOL    HW135192   3.067   4.703   0.235 -2.0104 -2.2070 -0.7297
 7911SOL    HW235193   3.125   4.589   0.310 -0.9502 -1.5309 -2.3456
 7912SOL     OW35194   4.298   2.493  17.393 -0.1231  0.3435  1.1369
 7912SOL    HW135195   4.312   2.582  17.360  0.2760 -0.2671 -0.3437
 7912SOL    HW235196   4.360   2.483  17.465  0.1557  1.0675  0.9914
 7913SOL     OW35197   4.482   1.189  12.875 -0.1004 -0.2264  0.3228
 7913SOL    HW135198   4.553   1.243  12.909  1.0369 -1.2701 -0.4354
 7913SOL    HW235199   4.518   1.101  12.872 -1.2865 -0.7715  1.8597
 7914SOL     OW35200   2.960   3.441   1.067  0.2578  0.0943  0.5688
 7914SOL    HW135201   2.888   3.445   1.003 -0.2361  2.8465  1.3106
 7914SOL    HW235202   2.920   3.504   1.126 -2.2488 -1.9612  1.0814
 7915SOL     OW35203   2.100   1.156  13.518 -0.0921 -0.3387  0.6141
 7915SOL    HW135204   2.192   1.134  13.511  0.2085  0.7598  1.0818
 7915SOL    HW235205   2.092   1.179  13.611 -1.9963  1.4072  0.0267
 7916SOL     OW35206   3.951   3.486   3.139 -0.0196  0.4664 -0.2811
 7916SOL    HW135207   3.921   3.496   3.049 -0.6078 -2.6364 -0.4294
 7916SOL    HW235208   3.934   3.572   3.178  1.0072  0.7848 -0.5360
 7917SOL     OW35209   0.678   2.973   2.940  0.2432  0.0678  0.5271
 7917SOL    HW135210   0.637   3.032   2.878  0.5477 -1.7279 -1.3827
 7917SOL    HW235211   0.767   3.006   2.945 -0.3205  1.7599 -0.7666
 7918SOL     OW35212   2.927   1.081   8.502 -0.3279  0.1103  0.5214
 7918SOL    HW135213   2.966   1.157   8.546 -0.0346  1.0838 -1.4181
 7918SOL    HW235214   2.887   1.047   8.582  0.7140 -0.4682  0.7997
 7919SOL     OW35215   4.686   2.801   7.519 -0.0239  0.1886 -0.2406
 7919SOL    HW135216   4.705   2.891   7.492  1.5547  0.6239  2.2724
 7919SOL    HW235217   4.600   2.781   7.482 -0.3772  0.9109  0.1829
 7920SOL     OW35218   3.993   1.556   3.279 -0.0103  0.1659  0.1761
 7920SOL    HW135219   3.959   1.504   3.352 -1.8141  1.5465  0.3283
 7920SOL    HW235220   3.929   1.548   3.208  0.0377  0.2435  0.1246
 7921SOL     OW35221   0.457   3.506   5.099 -0.2203 -0.0958  0.4371
 7921SOL    HW135222   0.526   3.553   5.145  1.0877  0.1323 -1.7505
 7921SOL    HW235223   0.400   3.480   5.171 -2.4161 -0.1331 -1.2717
 7922SOL     OW35224   0.845   3.038   9.256  0.1955 -0.3658 -0.0181
 7922SOL    HW135225   0.756   3.051   9.225  0.9171  0.0801 -1.9117
 7922SOL    HW235226   0.883   3.077   9.177 -1.7594 -0.3306 -0.9492
 7923SOL     OW35227   0.443   3.335   7.432 -0.1177  0.8346 -0.4650
 7923SOL    HW135228   0.439   3.343   7.527  1.4354 -0.8336 -0.2734
 7923SOL    HW235229   0.514   3.390   7.402 -0.4091  2.1206  1.1947
 7924SOL     OW35230   0.727   4.287  11.015  0.1811  0.4450  0.1064
 7924SOL    HW135231   0.692   4.297  11.104 -3.0013  0.5904 -1.1709
 7924SOL    HW235232   0.697   4.202  10.984 -0.6993  1.5808 -2.2084
 7925SOL     OW35233   2.706   3.720   3.588 -0.1296 -0.4308 -0.4676
 7925SOL    HW135234   2.723   3.740   3.681  0.3977  2.2169 -1.1317
 7925SOL    HW235235   2.794   3.716   3.551  0.7777  1.3205  1.4678
 7926SOL     OW35236   2.828   1.188   9.962 -0.2518 -0.1021  0.2903
 7926SOL    HW135237   2.837   1.271  10.010  2.2605  0.6718 -1.4792
 7926SOL    HW235238   2.834   1.118  10.027 -1.7734  0.7700  1.3633
 7927SOL     OW35239   3.183   0.670  12.135  0.5515  0.4580 -0.1705
 7927SOL    HW135240   3.223   0.583  12.135 -3.3398 -1.3245  0.4973
 7927SOL    HW235241   3.256   0.716  12.177  0.7526  0.6537 -0.7315
 7928SOL     OW35242   3.464   2.172   1.823 -0.2442 -0.6719  0.1000
 7928SOL    HW135243   3.402   2.242   1.801 -1.2312 -1.1429  1.3781
 7928SOL    HW235244   3.483   2.146   1.733  0.7923 -1.3413  0.5094
 7929SOL     OW35245   1.656   1.803   8.274  0.0994 -0.4061  0.0652
 7929SOL    HW135246   1.743   1.766   8.281 -0.0727 -0.9057 -0.4996
 7929SOL    HW235247   1.625   1.780   8.362  1.1227  0.0736  0.5501
 7930SOL     OW35248   0.253   0.457  16.405  0.7821  0.3827  0.2419
 7930SOL    HW135249   0.300   0.456  16.321  0.0475 -1.8971 -0.1265
 7930SOL    HW235250   0.271   0.545  16.440 -3.2032  0.4676  2.0005
 7931SOL     OW35251   2.180   4.603  17.520 -0.3447 -0.2100  0.0980
 7931SOL    HW135252   2.153   4.568  17.605 -0.1795  0.3057  0.3636
 7931SOL    HW235253   2.272   4.576  17.517  0.2650  1.7818  1.1264
 7932SOL     OW35254   0.830   3.133   7.798  0.0407 -0.6135 -0.4125
 7932SOL    HW135255   0.853   3.080   7.874 -2.3514 -1.1342 -0.0462
 7932SOL    HW235256   0.867   3.215   7.828  1.9848 -0.4807 -3.1322
 7933SOL     OW35257   3.019   2.669   4.826  0.4546  0.5179 -0.0574
 7933SOL    HW135258   2.994   2.626   4.744 -0.7852  0.7247  0.2172
 7933SOL    HW235259   3.095   2.618   4.852 -0.6643 -0.6956  0.8036
 7934SOL     OW35260   2.215   1.174  15.879  0.5025 -0.0971  0.1260
 7934SOL    HW135261   2.262   1.257  15.870 -0.9137  0.4964 -1.8552
 7934SOL    HW235262   2.161   1.182  15.800  2.3409  1.5817 -0.9819
 7935SOL     OW35263   2.937   1.604   8.072 -0.0868  0.6083  0.5739
 7935SOL    HW135264   2.854   1.559   8.056 -0.8259  2.3298 -0.4182
 7935SOL    HW235265   2.972   1.538   8.133 -1.0771 -0.0251  0.4603
 7936SOL     OW35266   4.221   2.347   3.715  0.1351  0.4141 -0.2315
 7936SOL    HW135267   4.147   2.289   3.734 -0.5067  1.4664  0.4469
 7936SOL    HW235268   4.211   2.403   3.792  0.6217 -1.4935  1.2234
 7937SOL     OW35269   4.509   1.203  11.997 -0.1000 -0.1644  0.4164
 7937SOL    HW135270   4.431   1.254  11.974 -0.4864 -0.6870  0.5577
 7937SOL    HW235271   4.573   1.271  12.018 -0.9420  0.3466  1.3081
 7938SOL     OW35272   1.285   2.802   5.629 -0.2624  0.2572 -0.1762
 7938SOL    HW135273   1.202   2.754   5.630  0.6353 -1.3382 -1.4745
 7938SOL    HW235274   1.273   2.876   5.689  0.1502  1.1311 -1.1717
 7939SOL     OW35275   3.576   0.235  16.989  0.2496  0.1162  0.2149
 7939SOL    HW135276   3.570   0.328  16.967 -2.1337 -0.2211 -0.6284
 7939SOL    HW235277   3.633   0.237  17.066 -0.9533  1.8996  1.0541
 7940SOL     OW35278   1.162   0.017   1.352  0.4604 -0.0199 -0.0371
 7940SOL    HW135279   1.098   0.033   1.282  1.0621 -0.7795 -0.7689
 7940SOL    HW235280   1.131   4.653   1.383 -1.8518  0.8898  0.1549
 7941SOL     OW35281   2.334   0.950   7.965 -0.2143 -0.3837 -0.1565
 7941SOL    HW135282   2.399   0.895   8.010 -0.5198 -0.0368  0.7185
 7941SOL    HW235283   2.269   0.939   8.035 -0.7466 -0.2871 -0.6399
 7942SOL     OW35284   2.180   4.577   0.328  0.1142  0.3181  0.3130
 7942SOL    HW135285   2.214   4.630   0.256 -0.2209 -0.5572 -0.4869
 7942SOL    HW235286   2.259   4.557   0.378  0.4014  1.9989  0.5097
 7943SOL     OW35287   2.175   1.383  12.610 -0.4566 -0.1235 -0.5051
 7943SOL    HW135288   2.202   1.365  12.520 -1.2529 -1.0918 -0.5435
 7943SOL    HW235289   2.111   1.453  12.599 -0.5426  0.2335  2.2460
 7944SOL     OW35290   2.255   2.470   2.484  0.0909 -0.5641  0.0033
 7944SOL    HW135291   2.206   2.506   2.410  3.7237  2.0079 -1.1378
 7944SOL    HW235292   2.320   2.422   2.433  1.0444  2.5676 -1.7224
 7945SOL     OW35293   3.037   4.602   7.996 -0.1686  0.9161  0.0574
 7945SOL    HW135294   2.955   4.575   8.038  1.3863 -1.6915  1.4186
 7945SOL    HW235295   2.997   4.651   7.925 -1.3859 -1.2156 -0.7473
 7946SOL     OW35296   4.410   1.113   5.501 -0.1574 -0.6761  0.0936
 7946SOL    HW135297   4.393   1.206   5.483 -0.7028 -0.6617  0.6623
 7946SOL    HW235298   4.456   1.124   5.584 -1.4296  2.0996  0.4334
 7947SOL     OW35299   2.509   2.991   9.449 -0.3771  0.3196 -0.0492
 7947SOL    HW135300   2.581   3.051   9.465  0.5255 -0.6148 -0.5969
 7947SOL    HW235301   2.429   3.044   9.442 -1.7076 -2.0918 -3.5263
 7948SOL     OW35302   4.467   4.122  17.419 -0.0191 -0.3632  0.2134
 7948SOL    HW135303   4.425   4.107  17.334 -1.2421 -1.8230  1.0919
 7948SOL    HW235304   4.439   4.213  17.425  1.0912  0.0026 -0.0514
 7949SOL     OW35305   4.262   1.428   5.229  0.7711 -0.1907  0.0387
 7949SOL    HW135306   4.295   1.502   5.180  0.4278 -0.5002 -0.6567
 7949SOL    HW235307   4.169   1.453   5.236  1.1034  0.5037  2.0251
 7950SOL     OW35308   0.343   4.043   9.200 -0.2414  0.1869 -0.8477
 7950SOL    HW135309   0.353   3.967   9.143  1.5662 -0.0315 -0.2289
 7950SOL    HW235310   0.357   3.997   9.282 -0.1318 -0.9089 -1.4733
 7951SOL     OW35311   0.257   3.166  13.870 -0.2441  0.2310 -0.1471
 7951SOL    HW135312   0.274   3.196  13.960  1.5685 -1.5912  0.1187
 7951SOL    HW235313   0.192   3.100  13.892  0.1864 -0.7437 -1.8233
 7952SOL     OW35314   1.179   0.898   9.409 -0.5798  0.7223  0.0815
 7952SOL    HW135315   1.219   0.909   9.495 -0.0188 -1.6162  0.1140
 7952SOL    HW235316   1.247   0.927   9.349  0.2725  1.2204  1.2891
 7953SOL     OW35317   3.729   0.839   1.672 -0.0158 -0.0389  0.3074
 7953SOL    HW135318   3.825   0.838   1.681  0.0156 -1.6813 -0.1326
 7953SOL    HW235319   3.708   0.757   1.627  0.2299  1.3231 -2.2782
 7954SOL     OW35320   2.146   1.047  10.027 -0.1243  0.0060 -0.4368
 7954SOL    HW135321   2.124   1.132   9.989 -1.0838  0.1956  0.5681
 7954SOL    HW235322   2.058   1.009  10.034  0.5858 -1.7872 -1.2334
 7955SOL     OW35323   4.496   4.272   4.496  0.2222  0.3760  0.4991
 7955SOL    HW135324   4.457   4.196   4.454  2.6343 -1.4553  1.5428
 7955SOL    HW235325   4.527   4.235   4.579 -0.3175 -0.4800  0.3093
 7956SOL     OW35326   4.070   3.427  14.795 -0.2790 -0.2301 -0.0986
 7956SOL    HW135327   4.071   3.515  14.833  1.3603 -0.5366  0.5469
 7956SOL    HW235328   4.096   3.393  14.880 -2.1200  1.6050  1.1992
 7957SOL     OW35329   3.558   0.685  14.976 -0.2759 -0.0072  0.2610
 7957SOL    HW135330   3.505   0.745  14.923 -0.6252 -3.2600 -3.0934
 7957SOL    HW235331   3.541   0.733  15.056  1.1653 -0.4539  0.8373
 7958SOL     OW35332   2.471   2.170   5.963  0.3292  0.1552  0.6344
 7958SOL    HW135333   2.416   2.242   5.932  1.6086  2.5199  3.8409
 7958SOL    HW235334   2.442   2.166   6.054 -0.1324 -1.4919  0.4286
 7959SOL     OW35335   1.003   2.734  10.330  0.4423  0.2798 -0.1755
 7959SOL    HW135336   0.987   2.641  10.347 -2.3502  0.9955  1.2658
 7959SOL    HW235337   0.943   2.749  10.257 -0.1608 -0.9769  0.0649
 7960SOL     OW35338   0.046   0.812   6.569  0.1266  0.2516 -0.4756
 7960SOL    HW135339   0.092   0.895   6.558  0.2964  0.1724 -0.3865
 7960SOL    HW235340   0.102   0.767   6.505 -1.2409  1.5633 -2.5518
 7961SOL     OW35341   1.157   3.931  15.043  0.1234  0.0179  0.1323
 7961SOL    HW135342   1.104   3.937  14.963  2.0875 -0.1459 -1.1796
 7961SOL    HW235343   1.239   3.956  15.002 -0.5605  1.4533 -0.3785
 7962SOL     OW35344   0.850   4.439   8.565 -0.2813  0.4927 -0.2468
 7962SOL    HW135345   0.862   4.441   8.470 -1.3117 -2.3552 -0.4418
 7962SOL    HW235346   0.941   4.464   8.580  0.2445 -1.9557  0.6288
 7963SOL     OW35347   4.277   4.078   1.164 -0.2832  0.4383  0.4692
 7963SOL    HW135348   4.327   4.112   1.238 -0.1971 -1.1833  1.1615
 7963SOL    HW235349   4.191   4.073   1.206  0.3697 -0.8127  1.6522
 7964SOL     OW35350   2.759   3.064   1.176 -0.0638  0.4002  0.4492
 7964SOL    HW135351   2.789   3.023   1.258  0.1688  2.2995  1.3210
 7964SOL    HW235352   2.846   3.094   1.148 -0.1606  0.2967  0.0346
 7965SOL     OW35353   1.148   0.273   3.955 -0.1534  0.3605  0.8360
 7965SOL    HW135354   1.243   0.272   3.967 -0.1313 -0.3027  0.5789
 7965SOL    HW235355   1.132   0.179   3.947  0.8409 -0.0222  3.3293
 7966SOL     OW35356   3.922   2.882   5.663 -0.0117  0.2538  0.0787
 7966SOL    HW135357   3.975   2.864   5.586  1.6543  1.8068  0.8677
 7966SOL    HW235358   3.896   2.795   5.693  2.5510 -0.0415  1.5085
 7967SOL     OW35359   3.328   0.392   4.114 -0.7611 -0.0879  0.2144
 7967SOL    HW135360   3.262   0.398   4.045 -0.3134 -2.6430 -0.4151
 7967SOL    HW235361   3.279   0.430   4.187  2.1741  0.7622  1.7464
 7968SOL     OW35362   2.785   2.503   7.425  0.3903 -0.2805 -0.2460
 7968SOL    HW135363   2.755   2.588   7.458 -0.0847 -0.5797  0.0898
 7968SOL    HW235364   2.784   2.525   7.332  2.0321 -2.5416 -0.7886
 7969SOL     OW35365   3.518   1.433  12.020  0.2408  0.3388  0.0198
 7969SOL    HW135366   3.532   1.453  12.113 -0.3107  0.1027  0.1531
 7969SOL    HW235367   3.551   1.344  12.027 -0.4341  0.2247  1.7966
 7970SOL     OW35368   3.247   3.555   7.508  0.0913  0.0642 -0.4612
 7970SOL    HW135369   3.211   3.473   7.540  0.9949  0.5037  1.6375
 7970SOL    HW235370   3.199   3.620   7.560  1.1310  0.6272 -0.2184
 7971SOL     OW35371   3.044   0.682   8.268 -0.3853  0.6605  0.1286
 7971SOL    HW135372   3.021   0.660   8.358 -1.3586 -0.7832 -0.4718
 7971SOL    HW235373   2.967   0.647   8.223 -1.5118  2.8564  0.3172
 7972SOL     OW35374   1.344   4.214   2.858 -0.0914 -0.4657  0.5871
 7972SOL    HW135375   1.323   4.290   2.912  0.4588 -0.3571  0.6492
 7972SOL    HW235376   1.311   4.141   2.910  3.1143 -2.0361  0.4630
 7973SOL     OW35377   0.341   0.805   6.158  0.3923 -0.2169  0.7894
 7973SOL    HW135378   0.373   0.865   6.091  1.1676 -2.8893 -1.2611
 7973SOL    HW235379   0.393   0.829   6.234  2.5228 -2.2881 -0.0423
 7974SOL     OW35380   0.438   3.890   8.474 -0.0678 -0.9035  0.1587
 7974SOL    HW135381   0.381   3.910   8.399  0.4128  0.9727  0.2807
 7974SOL    HW235382   0.516   3.931   8.434 -1.5316 -0.3795 -2.1891
 7975SOL     OW35383   1.306   2.926   1.381 -0.4480 -0.3657  0.0134
 7975SOL    HW135384   1.357   2.881   1.314 -1.5843 -2.5954  0.6605
 7975SOL    HW235385   1.232   2.867   1.392  1.0384 -2.4063 -0.9283
 7976SOL     OW35386   1.864   4.485  15.904  0.0814 -0.1723 -0.2034
 7976SOL    HW135387   1.863   4.437  15.987 -0.5231  0.5299  0.2095
 7976SOL    HW235388   1.772   4.481  15.878  0.1250 -0.5760 -0.2792
 7977SOL     OW35389   3.092   1.008   7.565 -0.4107  0.4929 -0.0225
 7977SOL    HW135390   3.110   1.090   7.518 -2.2152  0.8715 -0.0672
 7977SOL    HW235391   3.122   1.043   7.649  0.9123  1.7714 -1.0245
 7978SOL     OW35392   3.183   3.291   1.630 -0.1783  0.3191 -0.1806
 7978SOL    HW135393   3.215   3.325   1.714 -1.3920  0.6574  0.1415
 7978SOL    HW235394   3.266   3.257   1.597  0.9271  2.1646  0.6609
 7979SOL     OW35395   0.402   2.482   3.227 -0.0904  0.3694 -0.1922
 7979SOL    HW135396   0.373   2.430   3.301  2.7058  0.8340  1.2203
 7979SOL    HW235397   0.368   2.567   3.256 -0.2194  0.8380 -1.6915
 7980SOL     OW35398   3.362   2.090   4.649  0.3091 -0.6334 -0.1498
 7980SOL    HW135399   3.299   2.052   4.588 -0.2941 -0.9875  0.6943
 7980SOL    HW235400   3.431   2.024   4.657 -0.1521 -1.2814 -1.5118
 7981SOL     OW35401   1.871   0.598   8.192  0.6002 -0.3338  0.0501
 7981SOL    HW135402   1.850   0.508   8.166 -0.6335  0.7818 -2.8021
 7981SOL    HW235403   1.788   0.641   8.171  0.7471 -0.4860 -0.8632
 7982SOL     OW35404   4.261   0.427  14.478 -0.3214 -0.0398  0.0412
 7982SOL    HW135405   4.172   0.438  14.510 -0.3186 -0.6988  0.2848
 7982SOL    HW235406   4.281   0.511  14.438 -2.3984 -0.3844 -1.6862
 7983SOL     OW35407   1.670   0.983   8.415 -0.2813  0.5907  0.2109
 7983SOL    HW135408   1.696   1.007   8.505  2.4107 -2.3120  0.1959
 7983SOL    HW235409   1.599   1.041   8.386 -2.8093 -2.1785  0.9191
 7984SOL     OW35410   2.198   3.038   6.025  0.1379 -0.0511 -0.1550
 7984SOL    HW135411   2.248   2.978   6.079  0.8062 -1.0844 -1.9106
 7984SOL    HW235412   2.132   2.973   5.999  1.3139 -2.4364  2.8199
 7985SOL     OW35413   2.836   1.096  12.151  0.0081 -0.2410  0.0322
 7985SOL    HW135414   2.894   1.022  12.133 -2.8784 -2.8260  1.3208
 7985SOL    HW235415   2.752   1.050  12.156  0.0979 -0.4130 -0.0314
 7986SOL     OW35416   2.493   1.036  13.067 -0.4202 -0.8136 -0.0893
 7986SOL    HW135417   2.527   1.003  12.983  0.0442 -1.6954  0.4466
 7986SOL    HW235418   2.401   1.053  13.050  0.0304  0.4600 -1.2547
 7987SOL     OW35419   3.613   4.259  15.621  0.3371 -0.1944  0.2648
 7987SOL    HW135420   3.586   4.173  15.654  0.5937 -0.3077  0.1861
 7987SOL    HW235421   3.702   4.266  15.656  0.4704  4.9545 -1.1570
 7988SOL     OW35422   2.341   2.716   5.443  0.2437  0.2021  0.3667
 7988SOL    HW135423   2.277   2.716   5.515 -1.7330  1.2738 -1.3976
 7988SOL    HW235424   2.287   2.701   5.365  0.1974 -2.7682  0.9695
 7989SOL     OW35425   3.731   4.655   3.024  0.6372 -0.6515  0.2941
 7989SOL    HW135426   3.688   4.592   2.965 -1.0891  1.9994 -1.3225
 7989SOL    HW235427   3.819   4.619   3.026  0.5352 -1.1176 -3.0197
 7990SOL     OW35428   4.361   3.462   1.886 -0.3783  0.2661 -0.2660
 7990SOL    HW135429   4.286   3.433   1.937 -0.2026  1.8884  0.9030
 7990SOL    HW235430   4.407   3.525   1.942 -0.3145  0.4971 -0.5773
 7991SOL     OW35431   2.421   3.232   9.145 -0.0784 -0.7545 -0.2241
 7991SOL    HW135432   2.440   3.144   9.112  1.1221 -0.6709  0.2579
 7991SOL    HW235433   2.347   3.245   9.085  1.2621 -2.0866 -2.1589
 7992SOL     OW35434   1.206   4.423   7.737  0.3120  0.0786 -0.3634
 7992SOL    HW135435   1.203   4.519   7.729 -0.2851 -0.0150 -1.3298
 7992SOL    HW235436   1.159   4.394   7.659  1.8995  0.0214 -1.2818
 7993SOL     OW35437   4.682   2.648   5.258  0.3112  0.0458 -0.5225
 7993SOL    HW135438   4.598   2.673   5.219 -0.6704 -2.7862 -0.1999
 7993SOL    HW235439   4.692   2.564   5.214  0.4628 -0.5452  0.6282
 7994SOL     OW35440   1.365   1.441   5.117 -0.6556 -0.0842  0.3164
 7994SOL    HW135441   1.336   1.354   5.087  0.0469 -0.7879  1.6802
 7994SOL    HW235442   1.357   1.486   5.033  0.4891 -0.6738 -0.1112
 7995SOL     OW35443   3.629   3.012   1.862  0.3714 -0.0713 -0.4842
 7995SOL    HW135444   3.663   3.083   1.808 -0.6101 -0.4241 -1.5743
 7995SOL    HW235445   3.635   2.933   1.807 -1.8578 -0.7786  0.2759
 7996SOL     OW35446   3.581   2.445  16.980  0.5280 -0.6049  0.2295
 7996SOL    HW135447   3.506   2.504  16.987  0.4867 -0.4563 -1.5480
 7996SOL    HW235448   3.629   2.473  17.058  2.2794  1.2837 -1.5173
 7997SOL     OW35449   0.444   0.169  11.213 -0.1666  0.7085  0.3634
 7997SOL    HW135450   0.511   0.102  11.197 -0.1964  0.2982  1.9450
 7997SOL    HW235451   0.460   0.228  11.139 -0.0578 -0.5017 -0.5867
 7998SOL     OW35452   4.007   2.751   8.008  0.2973  0.0417  0.2266
 7998SOL    HW135453   4.066   2.824   7.991 -0.1042  0.1992 -0.5124
 7998SOL    HW235454   3.931   2.778   7.956  0.9993 -0.7735 -1.2193
 7999SOL     OW35455   2.262   3.126   7.693  0.0113 -0.4378 -0.2678
 7999SOL    HW135456   2.196   3.143   7.761  0.6246 -2.2480  0.7715
 7999SOL    HW235457   2.207   3.112   7.615  0.6611 -3.3251 -0.1935
 8000SOL     OW35458   1.177   1.632  14.235  0.7446 -0.1773  0.0884
 8000SOL    HW135459   1.272   1.640  14.242  0.9275 -1.6012 -0.5928
 8000SOL    HW235460   1.169   1.536  14.235  2.8620 -0.3485  0.8524
 8001SOL     OW35461   0.785   0.220   5.189  0.5411  0.0960  0.1807
 8001SOL    HW135462   0.865   0.205   5.240  0.0372  1.4275  1.3621
 8001SOL    HW235463   0.791   0.315   5.181  2.2390 -0.1732 -1.6027
 8002SOL     OW35464   1.714   1.792   5.698 -0.0231  0.1498 -0.6919
 8002SOL    HW135465   1.776   1.756   5.634  0.0367 -0.0566 -0.5182
 8002SOL    HW235466   1.663   1.716   5.726  0.1064  0.7340  1.1260
 8003SOL     OW35467   3.344   3.512   7.851 -0.0656  0.1835 -0.0149
 8003SOL    HW135468   3.376   3.508   7.760 -0.6574  1.9132 -0.3094
 8003SOL    HW235469   3.418   3.475   7.898 -0.1479  0.1754  0.1084
 8004SOL     OW35470   4.506   3.740  17.483 -0.2344  0.4685 -0.1185
 8004SOL    HW135471   4.509   3.808  17.415 -2.0620  0.2450 -0.4162
 8004SOL    HW235472   4.471   3.667  17.432 -0.2087  1.5716 -1.7356
 8005SOL     OW35473   4.525   3.911  11.059  0.2333  0.0060  0.6754
 8005SOL    HW135474   4.443   3.863  11.069  0.7055 -0.7890  0.7647
 8005SOL    HW235475   4.533   3.937  10.968 -0.2208  0.2918  0.7205
 8006SOL     OW35476   0.965   1.844  11.710  0.0318 -0.3444  0.2207
 8006SOL    HW135477   0.952   1.899  11.788  1.2925 -0.5264  0.5650
 8006SOL    HW235478   1.060   1.843  11.696 -0.1145 -0.9883 -0.6983
 8007SOL     OW35479   0.225   4.595   3.345 -0.1345  0.5014 -0.0864
 8007SOL    HW135480   0.272   4.639   3.416  0.9451 -1.0673  0.1466
 8007SOL    HW235481   0.286   4.601   3.272 -0.3312  0.6559 -0.2388
 8008SOL     OW35482   1.910   2.979  15.942  0.7462  0.0250  0.1509
 8008SOL    HW135483   1.999   2.982  15.907  0.9802  1.2820  0.8511
 8008SOL    HW235484   1.903   3.071  15.967  2.3039  0.2761 -0.2879
 8009SOL     OW35485   2.484   4.408   0.158 -0.0844  0.4699 -0.6425
 8009SOL    HW135486   2.412   4.400   0.097  0.0172  0.8638 -0.8168
 8009SOL    HW235487   2.525   4.483   0.114  1.1883 -0.9385 -1.8411
 8010SOL     OW35488   3.970   3.744   3.183  0.4253 -0.0915 -0.2151
 8010SOL    HW135489   3.987   3.788   3.266  0.7555 -0.3647 -0.1350
 8010SOL    HW235490   4.036   3.790   3.131 -0.0902  1.2919  0.3789
 8011SOL     OW35491   4.222   0.316  14.082 -0.0619  0.0353  0.0789
 8011SOL    HW135492   4.139   0.303  14.035 -0.5500  1.9699  0.3704
 8011SOL    HW235493   4.210   0.410  14.096  0.5827  0.6891 -3.6076
 8012SOL     OW35494   2.998   2.439  13.203 -0.2878 -0.6271  0.4291
 8012SOL    HW135495   3.087   2.464  13.178 -0.5052 -1.0755 -0.7929
 8012SOL    HW235496   2.992   2.462  13.296 -0.9601 -1.9576  0.7019
 8013SOL     OW35497   2.507   0.784   1.526 -0.1706 -0.1898 -0.4268
 8013SOL    HW135498   2.505   0.813   1.435  1.7676 -1.8818 -1.0172
 8013SOL    HW235499   2.545   0.697   1.521 -1.8084 -0.8378 -1.6387
 8014SOL     OW35500   1.489   0.481   6.653 -0.7637  0.6290  0.2632
 8014SOL    HW135501   1.525   0.432   6.727 -2.8410 -0.2623  0.7002
 8014SOL    HW235502   1.454   0.415   6.594  0.3756  0.7063 -0.4921
 8015SOL     OW35503   1.729   0.006   1.291  0.2085 -0.0113  0.1420
 8015SOL    HW135504   1.710   4.641   1.328  1.1838 -0.8029 -1.1612
 8015SOL    HW235505   1.678   0.065   1.347  0.5245 -0.1634  0.5871
 8016SOL     OW35506   0.043   3.558   9.118  0.2606 -0.2646 -0.1380
 8016SOL    HW135507   0.068   3.627   9.179  2.3094 -0.6383 -0.5460
 8016SOL    HW235508   0.078   3.482   9.165 -1.1907 -0.5403  0.4883
 8017SOL     OW35509   0.434   2.546   5.286  0.0538  0.1053  0.0692
 8017SOL    HW135510   0.356   2.496   5.262  0.3262 -0.2581 -0.0582
 8017SOL    HW235511   0.479   2.538   5.202  1.1648  2.8787  0.4045
 8018SOL     OW35512   3.229   1.828  16.727 -0.2560  0.0544 -0.6559
 8018SOL    HW135513   3.182   1.891  16.782  0.7683  0.2934 -0.0369
 8018SOL    HW235514   3.279   1.786  16.797 -1.1308  0.9372  0.5117
 8019SOL     OW35515   4.020   0.750   4.771  0.5071 -0.3783 -0.2684
 8019SOL    HW135516   3.926   0.752   4.790  0.7716  2.7228  0.6971
 8019SOL    HW235517   4.058   0.753   4.859 -0.6929  2.4747  0.1303
 8020SOL     OW35518   0.507   3.235   6.054 -0.5855  0.0679  0.7888
 8020SOL    HW135519   0.546   3.317   6.085  1.1508 -0.1110 -0.8893
 8020SOL    HW235520   0.461   3.196   6.128  2.9955 -2.6111  1.6326
 8021SOL     OW35521   1.075   0.921   7.569  0.1885  0.1195  0.0176
 8021SOL    HW135522   1.047   0.914   7.660  0.2634  0.7595  0.0911
 8021SOL    HW235523   1.036   0.840   7.535 -1.0430  0.8957 -0.3968
 8022SOL     OW35524   0.886   1.955   7.786 -0.1897 -0.2282  0.0081
 8022SOL    HW135525   0.939   1.877   7.770 -1.3816 -0.9811 -0.2623
 8022SOL    HW235526   0.805   1.916   7.819  0.1578 -0.9389  0.0039
 8023SOL     OW35527   3.240   0.350   6.695 -0.2278  0.3216  0.1547
 8023SOL    HW135528   3.279   0.288   6.756  1.5129  1.4835  0.2234
 8023SOL    HW235529   3.159   0.371   6.741 -0.8107 -0.3128 -0.5887
 8024SOL     OW35530   3.016   0.674   7.283 -0.0147  0.4066 -0.4136
 8024SOL    HW135531   3.080   0.670   7.353  1.0296 -2.9015 -1.5427
 8024SOL    HW235532   2.938   0.705   7.329 -1.1698 -0.2542 -1.9358
 8025SOL     OW35533   1.618   0.347   1.913 -0.0552  0.1858  0.0855
 8025SOL    HW135534   1.690   0.405   1.885 -0.7174  1.6551  1.3853
 8025SOL    HW235535   1.667   0.265   1.911 -1.5162 -0.6397 -1.3648
 8026SOL     OW35536   2.736   2.425   8.862 -0.4508  0.3010  0.1136
 8026SOL    HW135537   2.681   2.385   8.930  1.9402 -0.3284  1.6435
 8026SOL    HW235538   2.816   2.407   8.911 -0.7063 -2.1359 -0.3351
 8027SOL     OW35539   2.023   0.640  17.348 -0.1545  0.7344 -0.1169
 8027SOL    HW135540   1.957   0.620  17.282 -0.5659 -0.5863  0.6985
 8027SOL    HW235541   2.032   0.550  17.379 -1.4943  0.6563  0.0294
 8028SOL     OW35542   0.288   3.295   1.144  0.5109 -0.1498 -0.8916
 8028SOL    HW135543   0.273   3.389   1.155  0.0918 -0.3046 -0.1657
 8028SOL    HW235544   0.338   3.296   1.062 -0.5144 -0.5199 -1.5313
 8029SOL     OW35545   3.354   4.126   3.715  0.9671 -0.1504  0.1826
 8029SOL    HW135546   3.357   4.071   3.794  0.5768 -2.8236 -1.6623
 8029SOL    HW235547   3.412   4.195   3.746 -0.4141  0.1197  2.1365
 8030SOL     OW35548   0.683   4.249   7.100  0.2566  0.0417  0.4356
 8030SOL    HW135549   0.744   4.197   7.153 -1.7726 -2.8208 -0.0398
 8030SOL    HW235550   0.625   4.287   7.166  0.6400 -0.3767  1.0177
 8031SOL     OW35551   1.310   3.227   8.196  0.1622 -0.2096  0.1829
 8031SOL    HW135552   1.299   3.137   8.165 -1.1078 -0.5120  1.5282
 8031SOL    HW235553   1.310   3.217   8.291 -3.3634  2.6615  0.4931
 8032SOL     OW35554   0.713   0.531  11.780  0.1647 -0.0329  0.1054
 8032SOL    HW135555   0.694   0.487  11.697 -2.5073  0.7851  0.2911
 8032SOL    HW235556   0.792   0.490  11.816  1.2553  3.3737  1.6015
 8033SOL     OW35557   2.052   2.225  13.967  0.0778  0.0049 -0.2792
 8033SOL    HW135558   2.074   2.288  14.035 -0.7438 -0.0005 -0.0019
 8033SOL    HW235559   2.139   2.190  13.952 -1.0079 -1.6298 -2.7090
 8034SOL     OW35560   2.294   0.737  17.342 -0.2853 -0.7737 -0.4276
 8034SOL    HW135561   2.213   0.686  17.338 -1.2628  0.6295  1.2717
 8034SOL    HW235562   2.291   0.782  17.258 -0.2794  0.3454  0.1734
 8035SOL     OW35563   0.268   3.755  16.905 -0.0561  0.0890 -0.4143
 8035SOL    HW135564   0.251   3.683  16.843  0.8865  0.4185 -1.0509
 8035SOL    HW235565   0.184   3.749  16.950 -0.7008  2.1801 -1.3340
 8036SOL     OW35566   1.415   0.689  12.549 -0.4333 -0.6970 -0.1178
 8036SOL    HW135567   1.408   0.596  12.531 -2.3635 -0.2590 -1.6925
 8036SOL    HW235568   1.496   0.683  12.599 -0.0252  2.8855 -0.2959
 8037SOL     OW35569   4.548   2.609   2.304  0.1738 -0.0107 -0.0843
 8037SOL    HW135570   4.524   2.555   2.379  2.1396  0.9941  1.2639
 8037SOL    HW235571   4.457   2.625   2.278 -0.7195 -2.7037  1.3632
 8038SOL     OW35572   3.639   3.298   5.908  0.4469  0.5454  0.1761
 8038SOL    HW135573   3.558   3.342   5.882 -0.5326 -2.2798 -1.5953
 8038SOL    HW235574   3.689   3.309   5.826 -1.2222  0.1345 -0.9007
 8039SOL     OW35575   4.059   1.763  15.843 -0.6947  0.1930 -0.3271
 8039SOL    HW135576   4.071   1.811  15.925 -0.7210  1.3427 -0.9831
 8039SOL    HW235577   4.127   1.698  15.858 -2.6420 -2.4530 -2.9856
 8040SOL     OW35578   0.187   0.754   8.526  0.5728  0.1084  0.0033
 8040SOL    HW135579   0.186   0.822   8.593  2.9180  0.4123 -0.2429
 8040SOL    HW235580   0.273   0.713   8.532  1.9625  2.7956 -1.4416
 8041SOL     OW35581   3.345   1.428   6.270  0.7874 -0.3785 -0.6585
 8041SOL    HW135582   3.336   1.506   6.325  0.2322 -1.1610  0.3731
 8041SOL    HW235583   3.371   1.460   6.184 -1.6783 -0.4520 -1.4270
 8042SOL     OW35584   3.564   4.065   6.162 -0.4375  0.5549  0.4676
 8042SOL    HW135585   3.485   4.113   6.134 -0.7987  1.4242  2.9824
 8042SOL    HW235586   3.637   4.102   6.111 -1.1958 -0.5609 -1.4158
 8043SOL     OW35587   0.369   3.823  11.628 -0.0703  0.8072  0.0879
 8043SOL    HW135588   0.379   3.905  11.677 -0.0638  1.5984 -1.2552
 8043SOL    HW235589   0.401   3.762  11.695  0.8539 -0.0993 -1.2011
 8044SOL     OW35590   4.541   0.954   5.311  0.0826  0.2218 -0.1133
 8044SOL    HW135591   4.462   0.983   5.356  2.3913  0.7048  3.6132
 8044SOL    HW235592   4.520   0.985   5.223  1.1675 -3.4155 -1.6350
 8045SOL     OW35593   1.150   3.935   6.499  0.7788 -0.6688 -0.3202
 8045SOL    HW135594   1.134   3.847   6.533  1.1177 -0.3339  0.6893
 8045SOL    HW235595   1.102   3.979   6.569  3.5372  3.0294 -0.7823
 8046SOL     OW35596   0.207   0.429   4.361  0.0171  0.5820  0.1233
 8046SOL    HW135597   0.297   0.459   4.357  0.1022  0.5068  1.2598
 8046SOL    HW235598   0.222   0.340   4.393 -0.0864 -0.0630 -1.6271
 8047SOL     OW35599   2.478   1.441   0.683  0.0477 -0.1412  0.4018
 8047SOL    HW135600   2.560   1.404   0.648  0.4378 -0.2037  1.3993
 8047SOL    HW235601   2.429   1.361   0.696  2.6214 -1.9053 -0.7446
 8048SOL     OW35602   0.044   3.193  10.411 -0.4150  0.7870 -0.1931
 8048SOL    HW135603   4.714   3.115  10.389 -0.0013  0.5981 -0.4797
 8048SOL    HW235604   0.107   3.161  10.476 -1.1460  1.9927  1.1138
 8049SOL     OW35605   3.194   1.307   0.729 -0.0796  0.3156 -0.5625
 8049SOL    HW135606   3.264   1.241   0.730  0.0726  0.4994  0.4848
 8049SOL    HW235607   3.220   1.364   0.801 -1.5266 -0.2194  0.3769
 8050SOL     OW35608   3.671   3.921   4.113 -0.3947  0.1911 -0.3823
 8050SOL    HW135609   3.702   3.975   4.185 -1.0583  1.8700 -1.3620
 8050SOL    HW235610   3.708   3.958   4.033  1.5557 -0.9192 -0.0062
 8051SOL     OW35611   3.716   1.461   9.758 -0.0106 -0.7160 -0.1398
 8051SOL    HW135612   3.799   1.509   9.754 -1.2280  1.2570 -2.6685
 8051SOL    HW235613   3.752   1.373   9.757 -0.4335 -0.8888 -0.0146
 8052SOL     OW35614   3.716   4.149   0.013 -0.0199  0.0702  0.4122
 8052SOL    HW135615   3.766   4.212  17.645  1.2040  0.2153  1.7492
 8052SOL    HW235616   3.776   4.133   0.085 -0.8470  0.8452  1.2807
 8053SOL     OW35617   1.017   3.103   5.282 -0.1174  0.1499  0.0729
 8053SOL    HW135618   0.950   3.154   5.327 -1.0532 -0.7122 -0.3288
 8053SOL    HW235619   0.977   3.016   5.277 -0.0293  0.0577  0.9202
 8054SOL     OW35620   0.683   2.702   3.540 -0.0070  0.0085 -0.1847
 8054SOL    HW135621   0.680   2.785   3.587  0.0486  0.6426 -1.2915
 8054SOL    HW235622   0.606   2.706   3.483  1.6042 -1.5562 -2.4886
 8055SOL     OW35623   3.492   2.235   1.052 -0.2061 -0.0810 -0.0063
 8055SOL    HW135624   3.555   2.218   0.982 -0.3863  0.0143 -0.1918
 8055SOL    HW235625   3.494   2.331   1.061  3.7725 -0.3147  1.8329
 8056SOL     OW35626   1.117   0.780   8.490 -0.1593 -0.5294 -0.7287
 8056SOL    HW135627   1.192   0.834   8.514  0.1762 -0.5583 -1.7103
 8056SOL    HW235628   1.123   0.714   8.558  1.8313  0.2302 -0.1465
 8057SOL     OW35629   3.966   3.337   7.194  0.5144 -0.2461 -0.1005
 8057SOL    HW135630   3.954   3.303   7.283 -3.5415  1.0043 -0.1436
 8057SOL    HW235631   3.872   3.348   7.176  0.6521  1.3423  0.0866
 8058SOL     OW35632   1.951   2.728   7.938 -0.6453 -0.1038 -0.6410
 8058SOL    HW135633   1.904   2.648   7.917 -1.4918  0.5930 -1.4380
 8058SOL    HW235634   1.880   2.794   7.938 -1.3979 -0.9165  1.2244
 8059SOL     OW35635   2.921   3.515   3.948 -0.2644  0.1268  0.1882
 8059SOL    HW135636   2.873   3.563   4.015 -0.4137 -0.4910  0.5318
 8059SOL    HW235637   2.985   3.581   3.924 -0.5908 -0.7704 -3.1074
 8060SOL     OW35638   4.061   3.240   4.017  0.3321  0.3937 -0.4550
 8060SOL    HW135639   4.075   3.277   3.930  2.1701  2.8397  0.8854
 8060SOL    HW235640   3.971   3.271   4.019  0.3781  0.4591  0.6712
 8061SOL     OW35641   0.856   1.881   8.495 -0.1674 -0.1558 -0.3642
 8061SOL    HW135642   0.923   1.943   8.521 -0.2146 -0.3452  0.2061
 8061SOL    HW235643   0.793   1.930   8.443 -2.2371 -1.5643  0.7867
 8062SOL     OW35644   3.695   1.360  10.487  0.3850 -0.4996 -0.6730
 8062SOL    HW135645   3.743   1.441  10.507  0.7553 -0.7162 -0.6884
 8062SOL    HW235646   3.687   1.364  10.392  0.6480 -0.7251 -0.7070
 8063SOL     OW35647   0.750   2.127   6.569  0.2275  0.4213  0.6465
 8063SOL    HW135648   0.785   2.079   6.644  0.6692 -0.3864 -0.0677
 8063SOL    HW235649   0.671   2.075   6.556 -0.7017  2.3575 -1.3381
 8064SOL     OW35650   3.180   1.602   9.457  0.0788  0.0738 -0.0084
 8064SOL    HW135651   3.105   1.568   9.506  0.5304  2.9081  2.6463
 8064SOL    HW235652   3.165   1.563   9.371  0.4191 -0.1027  0.0121
 8065SOL     OW35653   4.415   0.078  14.562 -0.4365 -0.6620 -0.3872
 8065SOL    HW135654   4.473   0.151  14.585 -0.5064 -0.9010  0.5432
 8065SOL    HW235655   4.385   0.053  14.649 -0.5878  4.3280  0.9922
 8066SOL     OW35656   2.808   3.462  14.618 -0.3825 -0.0608 -0.0724
 8066SOL    HW135657   2.841   3.533  14.673  2.9142 -1.0114 -0.8420
 8066SOL    HW235658   2.847   3.477  14.532  1.5459  0.2257  0.8517
 8067SOL     OW35659   0.730   1.331  12.025 -0.0281 -0.0544  0.1559
 8067SOL    HW135660   0.798   1.382  12.068 -0.0685 -0.5728  0.8358
 8067SOL    HW235661   0.696   1.402  11.971 -0.7735 -0.6967 -0.2171
 8068SOL     OW35662   1.674   1.634   7.861  0.0690  0.4924 -0.0115
 8068SOL    HW135663   1.727   1.608   7.937 -2.0127  2.0991  2.0222
 8068SOL    HW235664   1.658   1.726   7.881  0.2332  0.0868  2.0759
 8069SOL     OW35665   4.476   2.110  14.074 -0.1555 -0.4733 -0.6340
 8069SOL    HW135666   4.472   2.198  14.112  0.2802 -0.8561  0.2996
 8069SOL    HW235667   4.551   2.078  14.125  0.1438 -0.2124 -0.9074
 8070SOL     OW35668   4.410   3.991   4.166 -0.0534 -0.2408 -0.1447
 8070SOL    HW135669   4.428   4.050   4.094  0.3115 -0.8028 -0.5199
 8070SOL    HW235670   4.498   3.954   4.175  0.7551  2.2611  2.3594
 8071SOL     OW35671   4.423   4.213   3.987 -0.1110  0.1961 -0.6952
 8071SOL    HW135672   4.505   4.262   3.991 -0.7508  1.3291 -1.1664
 8071SOL    HW235673   4.397   4.249   3.902  0.5793  0.4090 -0.8164
 8072SOL     OW35674   2.140   4.326  12.479 -0.1683 -0.5868  0.0561
 8072SOL    HW135675   2.128   4.231  12.483 -0.1781 -0.5861  0.0438
 8072SOL    HW235676   2.088   4.357  12.553  0.4413  1.7768 -0.5192
 8073SOL     OW35677   3.472   3.126   8.454 -0.0227  0.0664 -0.3214
 8073SOL    HW135678   3.413   3.178   8.509 -0.2616 -1.6927  1.1088
 8073SOL    HW235679   3.555   3.134   8.500 -0.4304 -2.0305  0.7594
 8074SOL     OW35680   0.311   3.497   0.941 -0.6827  0.3967 -0.2716
 8074SOL    HW135681   0.339   3.436   0.873 -1.8095 -0.9318  0.4572
 8074SOL    HW235682   0.261   3.555   0.883 -0.7704  0.2342 -0.3591
 8075SOL     OW35683   4.308   1.360   3.742 -0.4073 -0.2230 -0.0081
 8075SOL    HW135684   4.394   1.362   3.784  0.6752  2.1486 -2.3558
 8075SOL    HW235685   4.344   1.326   3.660 -2.6914 -0.2860 -0.9824
 8076SOL     OW35686   3.692   2.710  15.058 -0.0132  0.0080 -0.4106
 8076SOL    HW135687   3.781   2.723  15.024  0.2701  1.0041  0.6885
 8076SOL    HW235688   3.649   2.719  14.973 -2.7895 -0.3610  0.9646
 8077SOL     OW35689   1.984   0.326   7.513 -0.2537 -0.0377  0.1826
 8077SOL    HW135690   1.978   0.327   7.609 -2.4507  0.6871  0.0258
 8077SOL    HW235691   2.025   0.241   7.494  0.1123  0.6994 -2.3495
 8078SOL     OW35692   2.947   2.271   2.378 -0.3755  0.0950  0.4403
 8078SOL    HW135693   2.961   2.234   2.465  0.0366 -0.3270  0.1873
 8078SOL    HW235694   2.939   2.197   2.319 -0.1772 -0.9141  1.6861
 8079SOL     OW35695   2.485   3.617   1.161 -0.8503 -0.7062  0.5039
 8079SOL    HW135696   2.432   3.546   1.124 -0.4360 -1.6442  1.6878
 8079SOL    HW235697   2.439   3.695   1.130 -0.3406 -0.7318 -0.3155
 8080SOL     OW35698   1.311   3.835   8.677 -0.0309  0.3386 -0.2173
 8080SOL    HW135699   1.225   3.801   8.651 -0.6546  1.3152  0.5175
 8080SOL    HW235700   1.382   3.774   8.658  0.0923  0.7218 -1.0065
 8081SOL     OW35701   4.612   1.083   4.456  0.0597 -0.3091 -0.7370
 8081SOL    HW135702   4.698   1.043   4.468  0.1535  0.3299  0.7758
 8081SOL    HW235703   4.568   1.033   4.524  0.9694  0.0101  0.0997
 8082SOL     OW35704   0.490   1.796  11.271  0.5462  0.3251  0.3233
 8082SOL    HW135705   0.515   1.888  11.266  2.7257 -0.3048 -0.8979
 8082SOL    HW235706   0.579   1.764  11.255  0.4280  0.7417 -1.2089
 8083SOL     OW35707   0.176   2.579   1.365  0.5567 -0.5910 -0.3531
 8083SOL    HW135708   0.177   2.671   1.337  1.4586 -0.3784  0.3664
 8083SOL    HW235709   0.206   2.586   1.456  1.4666 -1.1711 -0.6058
 8084SOL     OW35710   2.424   0.821   4.538 -0.1547 -0.2850 -0.3666
 8084SOL    HW135711   2.491   0.879   4.576 -0.6570  1.1246 -1.6171
 8084SOL    HW235712   2.460   0.766   4.468  1.7981  1.3097 -0.6405
 8085SOL     OW35713   1.012   0.210   7.600 -0.5880 -0.6677  0.4515
 8085SOL    HW135714   1.048   0.228   7.687 -1.4918 -2.2216  1.1390
 8085SOL    HW235715   1.068   0.138   7.574  1.0841  0.6332  0.4802
 8086SOL     OW35716   1.966   1.740   2.594 -0.0330  0.0614  0.0318
 8086SOL    HW135717   2.031   1.696   2.650  0.0450 -0.5828 -0.5683
 8086SOL    HW235718   2.022   1.798   2.542  0.6764 -0.4771  0.1877
 8087SOL     OW35719   2.422   3.832   4.961 -0.6883 -0.0154 -0.0512
 8087SOL    HW135720   2.484   3.865   4.895 -0.2819 -1.2793 -0.3073
 8087SOL    HW235721   2.340   3.852   4.915 -0.0444  1.2153 -0.6690
 8088SOL     OW35722   4.242   0.739   8.715 -0.3766  0.1446  0.2782
 8088SOL    HW135723   4.325   0.699   8.740 -0.9755 -0.4030  1.3820
 8088SOL    HW235724   4.204   0.749   8.802  0.4340 -0.4329  0.6992
 8089SOL     OW35725   4.633   2.301   8.287  0.4291  0.3819 -0.4824
 8089SOL    HW135726   4.547   2.260   8.280  0.5792 -0.6094  3.1753
 8089SOL    HW235727   4.638   2.334   8.377  2.1142 -0.5948 -0.2184
 8090SOL     OW35728   0.170   1.286   6.618  0.4220 -0.1245 -0.9574
 8090SOL    HW135729   0.236   1.351   6.593 -0.0088  0.6967  0.0505
 8090SOL    HW235730   0.202   1.267   6.706  0.9978  2.0601 -0.6992
 8091SOL     OW35731   0.276   0.478   1.727 -0.1197  0.3105  0.0408
 8091SOL    HW135732   0.308   0.553   1.777  1.9102 -0.8311  0.4492
 8091SOL    HW235733   0.225   0.528   1.663  0.0669 -0.1743 -0.4849
 8092SOL     OW35734   2.658   1.859   5.513  0.6502 -0.1931 -0.1764
 8092SOL    HW135735   2.637   1.862   5.607 -1.3754  1.0295 -0.6667
 8092SOL    HW235736   2.645   1.953   5.498 -1.6756 -0.7080 -1.2928
 8093SOL     OW35737   3.311   1.525   6.933 -0.5409 -1.2107  0.0808
 8093SOL    HW135738   3.357   1.446   6.902  1.3620 -0.0113 -0.1804
 8093SOL    HW235739   3.304   1.497   7.024 -0.6121  1.6673  0.9626
 8094SOL     OW35740   2.411   2.577   2.189 -0.6210 -0.0619 -0.2506
 8094SOL    HW135741   2.476   2.533   2.243 -1.3987  0.4231  1.1024
 8094SOL    HW235742   2.404   2.523   2.110 -1.0186 -1.3366  0.6636
 8095SOL     OW35743   3.752   4.125   1.452  0.0582  0.7700 -0.1818
 8095SOL    HW135744   3.660   4.130   1.424  0.1582 -1.2007 -0.8429
 8095SOL    HW235745   3.764   4.031   1.444  0.8194  0.8743 -0.2086
 8096SOL     OW35746   1.376   3.809  17.428 -0.0599 -0.4251 -0.1291
 8096SOL    HW135747   1.369   3.859  17.510 -1.2449  0.6917 -0.9024
 8096SOL    HW235748   1.426   3.732  17.453  2.8272  1.5853  0.2573
 8097SOL     OW35749   2.358   3.374   3.916 -1.0377  0.1424  0.8531
 8097SOL    HW135750   2.307   3.295   3.937 -0.6992 -0.3508 -0.1955
 8097SOL    HW235751   2.448   3.344   3.906 -1.6754 -0.3044 -3.3176
 8098SOL     OW35752   2.670   0.654  15.413 -0.0483  0.2084 -0.2448
 8098SOL    HW135753   2.587   0.607  15.403  1.6553 -3.1373  1.3017
 8098SOL    HW235754   2.643   0.732  15.462  0.4904 -0.6833  1.5084
 8099SOL     OW35755   2.554   0.380   8.070 -0.0444  0.3165 -0.3661
 8099SOL    HW135756   2.610   0.321   8.119  0.3481 -0.8232 -2.2087
 8099SOL    HW235757   2.466   0.370   8.106  0.5275  2.5922  1.7507
 8100SOL     OW35758   0.215   1.832   7.394 -0.0772 -0.0888  0.0978
 8100SOL    HW135759   0.244   1.744   7.369  1.2248  0.3363  0.1274
 8100SOL    HW235760   0.290   1.880   7.429 -1.3849  1.2224  1.1017
 8101SOL     OW35761   2.654   3.288   6.135  0.5843 -0.0958  0.0972
 8101SOL    HW135762   2.684   3.366   6.181  1.1811  0.9019 -1.9995
 8101SOL    HW235763   2.610   3.321   6.058  1.4091  0.5851 -0.0843
 8102SOL     OW35764   0.743   0.016  15.366  0.0161  0.1315  0.3944
 8102SOL    HW135765   0.791   0.017  15.284  0.8940  1.4052  0.9169
 8102SOL    HW235766   0.776   4.651  15.391 -1.1222 -0.0759  1.2046
 8103SOL     OW35767   3.527   2.484   7.682 -0.0666  0.2854  0.1866
 8103SOL    HW135768   3.469   2.436   7.741  1.2785  1.3045  2.3774
 8103SOL    HW235769   3.459   2.543   7.650  0.6538 -0.9286 -3.4955
 8104SOL     OW35770   3.214   3.554   8.695 -0.5403 -0.4291  0.2089
 8104SOL    HW135771   3.201   3.538   8.789  0.2229 -1.0063  0.2195
 8104SOL    HW235772   3.303   3.590   8.697 -0.8594  0.3684  0.1529
 8105SOL     OW35773   4.718   3.724   7.989 -0.0323 -0.1198  0.5929
 8105SOL    HW135774   4.691   3.724   8.081  0.0773  0.2838  0.6233
 8105SOL    HW235775   4.698   3.633   7.965  0.6568  0.4076 -1.9567
 8106SOL     OW35776   4.056   2.705   5.210 -0.1143 -0.7860  0.0053
 8106SOL    HW135777   4.019   2.647   5.144  0.4996 -1.5653  0.3332
 8106SOL    HW235778   4.129   2.658   5.251 -0.1974 -2.2658 -1.5632
 8107SOL     OW35779   3.563   2.815   4.319 -0.6453  0.0635 -0.2224
 8107SOL    HW135780   3.477   2.827   4.280 -0.5973  0.5192 -0.1841
 8107SOL    HW235781   3.529   2.770   4.397  2.3479  0.3291  1.2722
 8108SOL     OW35782   4.054   4.533   6.189  0.0229 -0.0382 -0.0578
 8108SOL    HW135783   4.142   4.562   6.168  0.2533  0.4229  1.5738
 8108SOL    HW235784   4.005   4.607   6.154 -0.2224 -0.1765 -0.0069
 8109SOL     OW35785   2.352   1.861   4.140  0.5741 -0.2974  0.1561
 8109SOL    HW135786   2.287   1.815   4.087  1.1506 -2.0070  0.9350
 8109SOL    HW235787   2.419   1.869   4.071  0.0370 -0.2649 -0.3619
 8110SOL     OW35788   1.724   1.365  13.445  0.0081 -0.6181 -0.3610
 8110SOL    HW135789   1.671   1.435  13.406  2.4182  1.4541  0.0377
 8110SOL    HW235790   1.657   1.337  13.507 -1.7313 -1.9683 -2.8560
 8111SOL     OW35791   3.253   3.264   8.588 -0.1354 -0.6812  0.1377
 8111SOL    HW135792   3.294   3.327   8.528 -0.7641  1.2582  1.7162
 8111SOL    HW235793   3.244   3.319   8.666 -0.2502 -0.6248  0.0857
 8112SOL     OW35794   0.533   1.425  14.902  0.1172 -0.2855  0.4289
 8112SOL    HW135795   0.613   1.452  14.857 -0.7815  0.7417 -0.5760
 8112SOL    HW235796   0.570   1.410  14.989  0.2591 -0.8464  0.2730
 8113SOL     OW35797   2.688   4.605   5.262 -0.1980 -0.0106 -0.5913
 8113SOL    HW135798   2.763   4.602   5.202  1.7863  1.2083  1.7936
 8113SOL    HW235799   2.700   4.693   5.299  1.5084  0.0240 -1.1915
 8114SOL     OW35800   0.719   0.007   4.591 -0.4453 -0.3565  0.2152
 8114SOL    HW135801   0.728   4.632   4.593  1.6397 -0.1452  0.4845
 8114SOL    HW235802   0.630   0.019   4.556 -0.7922  0.4812  1.3907
 8115SOL     OW35803   4.380   1.891   4.651 -0.3820 -0.3215 -0.0369
 8115SOL    HW135804   4.449   1.857   4.594 -0.5724 -0.7704  0.0034
 8115SOL    HW235805   4.425   1.880   4.735  1.1217  1.6378 -0.5588
 8116SOL     OW35806   1.093   3.949   0.935  0.2783 -0.4028  0.1656
 8116SOL    HW135807   1.012   3.923   0.891  0.3534 -0.1490 -0.1181
 8116SOL    HW235808   1.133   4.007   0.871 -1.8905 -0.7942 -1.5296
 8117SOL     OW35809   3.064   3.393   3.369  0.6094 -0.2370 -0.2992
 8117SOL    HW135810   3.111   3.318   3.331 -0.6139 -1.3685  0.4116
 8117SOL    HW235811   3.118   3.463   3.332  0.7631  0.8394  2.0006
 8118SOL     OW35812   0.242   1.507  14.852 -0.1197  0.3953 -0.1286
 8118SOL    HW135813   0.300   1.536  14.922  0.9356 -1.0991 -0.3854
 8118SOL    HW235814   0.159   1.481  14.892  0.9183 -3.1592 -0.2630
 8119SOL     OW35815   2.371   2.793   3.502  0.3160  0.4585  0.0634
 8119SOL    HW135816   2.276   2.799   3.511 -0.2199 -2.4815 -3.8529
 8119SOL    HW235817   2.409   2.838   3.577 -1.1346 -0.5866  1.4351
 8120SOL     OW35818   0.642   0.390   8.145 -0.2436  0.0405 -0.1368
 8120SOL    HW135819   0.554   0.359   8.123  0.2462  0.9664 -3.3678
 8120SOL    HW235820   0.675   0.331   8.213 -0.0500  0.5688  0.2303
 8121SOL     OW35821   1.003   3.927   2.281 -0.3496  0.2493 -0.4252
 8121SOL    HW135822   1.076   3.899   2.225  1.5063  1.2312  1.4939
 8121SOL    HW235823   0.997   3.853   2.342 -1.4440  0.2229 -0.5693
 8122SOL     OW35824   1.252   2.880   6.616  0.4414  0.0423  0.6270
 8122SOL    HW135825   1.193   2.932   6.670  1.1690  2.0532 -0.5377
 8122SOL    HW235826   1.187   2.825   6.573  0.8388 -0.0959  0.2088
 8123SOL     OW35827   3.351   3.778   3.722  0.4334 -0.7190 -0.0328
 8123SOL    HW135828   3.287   3.716   3.756  0.8519 -0.9005  0.4295
 8123SOL    HW235829   3.371   3.828   3.802  1.9662 -0.0444 -0.8200
 8124SOL     OW35830   0.234   4.335   5.096  0.0988  0.0124  0.4649
 8124SOL    HW135831   0.265   4.404   5.154  3.0410 -0.5153 -0.4528
 8124SOL    HW235832   0.307   4.327   5.034  0.2943 -2.4735  1.0059
 8125SOL     OW35833   1.427   3.475   6.325  0.1431  1.1194  0.1498
 8125SOL    HW135834   1.521   3.457   6.318  0.8972  4.5848  1.4901
 8125SOL    HW235835   1.429   3.524   6.406  1.2435 -0.2660  0.9792
 8126SOL     OW35836   0.359   2.258  14.567 -0.3779 -0.1974 -0.2005
 8126SOL    HW135837   0.450   2.233  14.552  0.3956  1.5185  1.5401
 8126SOL    HW235838   0.319   2.221  14.488 -1.9645  1.0482  0.0149
 8127SOL     OW35839   1.234   0.822   4.334  0.6169  0.0764  0.4344
 8127SOL    HW135840   1.193   0.739   4.357  1.3141  0.2396  2.2840
 8127SOL    HW235841   1.175   0.883   4.379  2.3795  0.6810  1.9075
 8128SOL     OW35842   4.429   2.006   8.097 -0.0676  0.2254 -0.3255
 8128SOL    HW135843   4.506   1.966   8.057  0.6724  1.5687 -0.2086
 8128SOL    HW235844   4.395   2.049   8.018  0.8695 -0.0897 -0.9047
 8129SOL     OW35845   4.629   2.607   2.731 -0.0655  0.0486 -0.4716
 8129SOL    HW135846   4.651   2.514   2.725  1.0565  0.2290  1.0193
 8129SOL    HW235847   4.707   2.647   2.692  0.0554 -1.4056 -1.7008
 8130SOL     OW35848   0.734   2.852  12.295 -0.3382  0.1799 -1.0425
 8130SOL    HW135849   0.813   2.893  12.329 -0.3735 -0.2348 -0.4596
 8130SOL    HW235850   0.737   2.900  12.212 -2.1135  0.0930 -1.1602
 8131SOL     OW35851   3.630   3.864   2.646  0.3377 -0.2144  0.1008
 8131SOL    HW135852   3.672   3.779   2.658  0.9712  0.5938  3.6604
 8131SOL    HW235853   3.614   3.856   2.552 -1.0564  0.0741  0.3187
 8132SOL     OW35854   4.316   4.450   9.472  0.3369 -0.2353  0.4096
 8132SOL    HW135855   4.343   4.362   9.498  0.9740 -0.1103  0.1729
 8132SOL    HW235856   4.260   4.433   9.396  2.6118 -0.6306 -1.1851
 8133SOL     OW35857   2.026   2.516   9.825  0.7580 -0.1028  0.0526
 8133SOL    HW135858   2.109   2.475   9.798  0.4513 -0.0154 -1.0186
 8133SOL    HW235859   2.069   2.584   9.878 -0.5500  0.6957  0.0803
 8134SOL     OW35860   4.697   1.486   4.958 -0.1017  0.4922 -0.5433
 8134SOL    HW135861   4.640   1.554   4.994  1.3197  1.6208 -0.4359
 8134SOL    HW235862   4.705   1.439   5.041 -1.6244  1.0591 -0.0693
 8135SOL     OW35863   4.231   3.514   3.247  0.4068 -0.5289  0.6116
 8135SOL    HW135864   4.292   3.454   3.204 -0.5000 -0.0690 -1.3210
 8135SOL    HW235865   4.168   3.542   3.181 -0.5048  2.1409  2.6087
 8136SOL     OW35866   0.877   2.487   5.190  0.0968 -0.6625 -0.2551
 8136SOL    HW135867   0.880   2.510   5.282 -0.0299 -2.4268  0.1839
 8136SOL    HW235868   0.969   2.470   5.168  0.7330  3.0796 -0.4514
 8137SOL     OW35869   0.702   1.860  12.645  0.4546  0.0344 -0.1077
 8137SOL    HW135870   0.643   1.867  12.720  1.5392  1.2600  0.6439
 8137SOL    HW235871   0.641   1.814  12.588  1.1897 -1.9547  0.7246
 8138SOL     OW35872   4.461   0.253  13.416  0.3392 -0.3979 -0.7442
 8138SOL    HW135873   4.422   0.298  13.341  0.2163  0.8340  0.0622
 8138SOL    HW235874   4.555   0.253  13.399  0.3677 -1.0058 -0.5711
 8139SOL     OW35875   3.370   1.927   7.401 -0.4069 -0.1197 -0.0387
 8139SOL    HW135876   3.377   1.894   7.311  1.5799  1.0302 -0.3139
 8139SOL    HW235877   3.277   1.950   7.400 -0.1259  0.9927 -1.2805
 8140SOL     OW35878   1.679   3.759   8.109 -0.3824  0.3990  0.0996
 8140SOL    HW135879   1.685   3.754   8.205 -0.1522  0.1045  0.0717
 8140SOL    HW235880   1.735   3.687   8.082 -0.2668  0.3002  0.5943
 8141SOL     OW35881   1.688   0.546   5.150 -0.3038 -0.0857  0.4496
 8141SOL    HW135882   1.638   0.474   5.111 -2.9741  2.4195 -0.8284
 8141SOL    HW235883   1.692   0.616   5.085 -0.9407 -0.2877  0.1956
 8142SOL     OW35884   1.705   2.136   2.354 -0.2925 -0.4131 -0.0058
 8142SOL    HW135885   1.736   2.089   2.431 -0.3087  0.5513  0.5884
 8142SOL    HW235886   1.767   2.121   2.282  0.4069  0.4073  0.4181
 8143SOL     OW35887   0.306   0.674   1.229 -0.2119  0.2189 -0.1010
 8143SOL    HW135888   0.279   0.629   1.149  0.3430  0.3373 -0.3566
 8143SOL    HW235889   0.400   0.679   1.212  0.2507 -2.4991  1.5899
 8144SOL     OW35890   2.937   0.987  15.480  0.2576  0.3381  0.2623
 8144SOL    HW135891   2.916   0.996  15.387  2.1795  1.6715 -0.0342
 8144SOL    HW235892   2.984   0.905  15.494  0.4862  0.6753  1.5137
 8145SOL     OW35893   0.368   1.430   4.177 -0.5172 -0.1671 -0.5411
 8145SOL    HW135894   0.383   1.522   4.158  1.1174 -0.3739 -0.2394
 8145SOL    HW235895   0.451   1.390   4.152 -1.4166 -3.3769  1.5543
 8146SOL     OW35896   4.499   2.118   5.724 -0.1749 -0.2351  0.2247
 8146SOL    HW135897   4.412   2.079   5.716 -1.2688  1.9740  1.2387
 8146SOL    HW235898   4.544   2.053   5.671  1.2815  0.2898  0.8372
 8147SOL     OW35899   1.685   3.202   0.995 -0.3074  0.1673  0.4847
 8147SOL    HW135900   1.660   3.282   1.041 -0.6725  0.4253 -0.1513
 8147SOL    HW235901   1.599   3.160   1.000 -0.5849  0.6808  0.1322
 8148SOL     OW35902   4.589   0.193   5.455 -0.4730 -0.5039 -0.0445
 8148SOL    HW135903   4.554   0.280   5.473  2.1048  0.4604  0.1706
 8148SOL    HW235904   4.584   0.161   5.545 -0.7717 -0.4206 -0.0305
 8149SOL     OW35905   0.470   0.340   4.964  0.2382  0.2671 -0.2770
 8149SOL    HW135906   0.527   0.277   4.919  0.4864  0.6808 -0.5413
 8149SOL    HW235907   0.388   0.317   4.921 -1.1263  0.0109  2.4804
 8150SOL     OW35908   1.679   3.570  11.962  0.3280  0.4592  0.2122
 8150SOL    HW135909   1.771   3.587  11.984 -0.2008  2.7367  0.7035
 8150SOL    HW235910   1.641   3.585  12.049 -1.1451 -0.9476 -0.1910
 8151SOL     OW35911   3.318   3.831   6.860 -0.2724  0.2756 -0.2223
 8151SOL    HW135912   3.393   3.803   6.912  2.1231  2.5653 -2.4321
 8151SOL    HW235913   3.349   3.910   6.815 -0.0342  0.8634  0.9693
 8152SOL     OW35914   0.452   3.552  14.584  0.4266 -0.8467  0.7045
 8152SOL    HW135915   0.375   3.496  14.576 -0.6005  1.0369 -2.4756
 8152SOL    HW235916   0.447   3.584  14.494  2.8780 -0.4617  0.6974
 8153SOL     OW35917   2.746   0.943  13.405  0.1392 -0.5835 -0.5227
 8153SOL    HW135918   2.800   0.869  13.378  1.9892  0.7760 -0.5591
 8153SOL    HW235919   2.759   0.995  13.325 -3.0289  1.9458  0.6126
 8154SOL     OW35920   0.987   4.070   3.379  1.0871 -0.0622  0.1488
 8154SOL    HW135921   0.956   3.983   3.405  0.0501  0.1661 -0.3522
 8154SOL    HW235922   0.972   4.077   3.285 -2.4374  1.4408  0.8433
 8155SOL     OW35923   2.532   1.380   6.461  0.2285 -0.1629  0.0631
 8155SOL    HW135924   2.464   1.348   6.520  0.1915  0.4426  0.3556
 8155SOL    HW235925   2.601   1.315   6.477  0.6111 -0.3684 -2.3953
 8156SOL     OW35926   3.161   0.221   8.508 -0.0261 -0.8860  0.0627
 8156SOL    HW135927   3.217   0.292   8.474  0.0988 -1.5400 -1.0939
 8156SOL    HW235928   3.100   0.266   8.566 -0.3141  0.1224 -1.0138
 8157SOL     OW35929   4.561   3.108   0.952 -0.1617  0.2653  0.6583
 8157SOL    HW135930   4.528   3.110   1.042 -0.5184 -1.3137  0.5701
 8157SOL    HW235931   4.509   3.037   0.913 -1.3657  1.5833 -0.1003
 8158SOL     OW35932   2.174   1.307  13.243  1.1197 -0.2875 -0.1994
 8158SOL    HW135933   2.138   1.240  13.302 -1.9798  0.4709 -1.2485
 8158SOL    HW235934   2.218   1.357  13.311  0.7284 -0.4482  0.1753
 8159SOL     OW35935   2.859   2.983   5.393  0.0017  0.3229 -0.0072
 8159SOL    HW135936   2.808   2.952   5.468  2.9743 -3.2605  0.5295
 8159SOL    HW235937   2.873   2.897   5.354 -1.1313  0.3032 -0.3594
 8160SOL     OW35938   1.551   2.777   6.896 -0.1402 -0.0420 -0.0085
 8160SOL    HW135939   1.509   2.696   6.925 -2.0333  2.1214  3.3453
 8160SOL    HW235940   1.472   2.830   6.911  0.4201  1.3683 -2.0667
 8161SOL     OW35941   1.516   2.095  14.695 -1.0158 -0.2042  0.1134
 8161SOL    HW135942   1.444   2.097  14.631 -0.8085  4.2129  0.0278
 8161SOL    HW235943   1.474   2.092  14.781 -1.9991  1.9580 -0.2838
 8162SOL     OW35944   1.374   4.075  16.206 -0.3803  0.3003 -0.2924
 8162SOL    HW135945   1.285   4.046  16.185  0.0446 -0.5768 -0.8983
 8162SOL    HW235946   1.403   4.116  16.125  0.0414  1.1808  0.3056
 8163SOL     OW35947   1.818   1.862   3.093  0.6632 -0.1553 -0.3628
 8163SOL    HW135948   1.850   1.777   3.063  2.7325  0.2684  0.6031
 8163SOL    HW235949   1.757   1.827   3.159 -0.2802 -0.1052 -1.2124
 8164SOL     OW35950   1.414   1.944  10.530  1.3113 -0.3211 -0.1503
 8164SOL    HW135951   1.483   1.878  10.539  1.3616 -0.2468  0.0123
 8164SOL    HW235952   1.355   1.899  10.591 -0.9267  3.1586  0.2566
 8165SOL     OW35953   0.706   2.847  14.710  0.4662  0.1682  0.3467
 8165SOL    HW135954   0.764   2.870  14.783  0.4258  0.1520  0.3838
 8165SOL    HW235955   0.750   2.768  14.676  1.4018  0.8679 -0.0612
 8166SOL     OW35956   2.116   2.965  12.910 -0.3782 -0.1881  0.5473
 8166SOL    HW135957   2.051   2.904  12.944  0.2691 -1.1548  0.0771
 8166SOL    HW235958   2.126   3.030  12.979  0.2017  0.4660 -0.1529
 8167SOL     OW35959   3.286   4.119  10.202  0.0431 -0.5503 -0.2593
 8167SOL    HW135960   3.326   4.053  10.145 -1.2616 -1.0076 -0.6602
 8167SOL    HW235961   3.220   4.147  10.138 -0.7960 -2.1634 -0.1297
 8168SOL     OW35962   4.277   3.289  16.901 -0.0297  0.0394 -0.1904
 8168SOL    HW135963   4.261   3.281  16.807  1.2498  0.2290 -0.4337
 8168SOL    HW235964   4.277   3.194  16.911  0.6578 -0.0827 -1.3585
 8169SOL     OW35965   0.441   1.065   5.064  0.2158  0.0252  0.8309
 8169SOL    HW135966   0.438   1.093   4.972 -0.2576  0.4405  0.9759
 8169SOL    HW235967   0.361   1.111   5.089 -0.0026  0.0196  0.1343
 8170SOL     OW35968   3.674   4.583  14.224  0.2290  0.6462  0.7266
 8170SOL    HW135969   3.634   4.518  14.282  1.4962 -1.4762 -0.7814
 8170SOL    HW235970   3.655   4.545  14.138  0.4800  0.2625  0.8435
 8171SOL     OW35971   3.508   1.440   9.540  0.5790 -0.3341 -0.3792
 8171SOL    HW135972   3.520   1.446   9.635  2.3630 -0.0195 -0.6217
 8171SOL    HW235973   3.593   1.404   9.515  0.5173 -1.6762  1.3067
 8172SOL     OW35974   0.266   1.414   8.169 -0.3302 -0.0912 -0.0083
 8172SOL    HW135975   0.323   1.485   8.138 -1.4635  0.7401 -0.1918
 8172SOL    HW235976   0.267   1.409   8.264  1.6311  1.6316  0.0791
 8173SOL     OW35977   0.870   4.249  17.161 -0.1485  0.0201 -0.1135
 8173SOL    HW135978   0.787   4.210  17.188 -0.3096  0.5028  0.0947
 8173SOL    HW235979   0.916   4.167  17.143  0.1899 -0.2438  2.0039
 8174SOL     OW35980   4.318   4.405   1.781  0.2331 -0.8737 -0.3060
 8174SOL    HW135981   4.270   4.368   1.706 -0.0564  0.2566 -0.6752
 8174SOL    HW235982   4.331   4.491   1.742 -1.3303  0.4182  2.0446
 8175SOL     OW35983   4.699   2.414   5.898 -0.3939 -0.3631  0.1193
 8175SOL    HW135984   4.606   2.400   5.914 -0.2120 -2.8272 -0.9688
 8175SOL    HW235985   0.002   2.343   5.839 -0.7223  0.8999 -1.5294
 8176SOL     OW35986   0.414   1.543   4.461 -0.2807 -0.1094 -0.0496
 8176SOL    HW135987   0.432   1.528   4.554 -0.8724  0.0492  0.0907
 8176SOL    HW235988   0.341   1.484   4.438 -1.6128  0.2757  3.1749
 8177SOL     OW35989   0.889   2.039   2.874  0.5470  0.4211 -0.7025
 8177SOL    HW135990   0.813   2.038   2.931  1.4246 -0.4151  0.4622
 8177SOL    HW235991   0.963   2.043   2.936 -0.7951 -0.1638  0.9436
 8178SOL     OW35992   1.686   3.897   8.654  0.1480 -0.6351 -0.6593
 8178SOL    HW135993   1.630   3.819   8.652 -0.2683 -0.3663  1.0099
 8178SOL    HW235994   1.713   3.894   8.746 -2.1810  0.1430  0.0179
 8179SOL     OW35995   2.288   3.516   0.818  0.0522  0.1072 -0.0334
 8179SOL    HW135996   2.307   3.549   0.731 -2.3773 -0.8574 -0.9211
 8179SOL    HW235997   2.246   3.436   0.787  1.8734 -0.4012 -1.1582
 8180SOL     OW35998   3.906   3.775  17.498  0.0295 -0.0344 -0.9739
 8180SOL    HW135999   3.816   3.791  17.529  0.5464  0.5344  0.2514
 8180SOL    HW236000   3.907   3.834  17.423  0.0007  0.3219 -0.6965
 8181SOL     OW36001   0.749   1.461   6.180  0.6517  0.1878 -0.2361
 8181SOL    HW136002   0.816   1.482   6.244 -1.4651 -1.6499  2.5378
 8181SOL    HW236003   0.783   1.503   6.101 -0.1533 -1.0695 -1.2583
 8182SOL     OW36004   1.173   3.441   7.242 -0.7715  0.3453 -0.5165
 8182SOL    HW136005   1.192   3.420   7.151 -0.5695 -0.8590 -0.1853
 8182SOL    HW236006   1.081   3.468   7.243 -0.5510  1.1413 -1.3974
 8183SOL     OW36007   3.059   0.847   9.099  0.1465 -0.4592  0.2607
 8183SOL    HW136008   3.060   0.757   9.133  0.9323 -1.0997 -1.4312
 8183SOL    HW236009   3.131   0.873   9.157  0.5203  1.9342 -1.2966
 8184SOL     OW36010   4.078   1.628   6.198 -0.1565 -0.1244  0.0675
 8184SOL    HW136011   4.074   1.724   6.199 -0.0067 -0.1144 -0.5500
 8184SOL    HW236012   3.988   1.611   6.228 -0.3110 -1.3926 -1.1474
 8185SOL     OW36013   4.479   4.528   3.509  0.0185  0.7217 -0.2994
 8185SOL    HW136014   4.453   4.585   3.436  1.0002  0.1527 -1.0938
 8185SOL    HW236015   4.562   4.492   3.478 -1.1624 -1.0483 -1.4621
 8186SOL     OW36016   4.557   2.744  13.675  0.3051  0.4885  0.2570
 8186SOL    HW136017   4.637   2.786  13.709 -0.1583  0.3573  1.4945
 8186SOL    HW236018   4.513   2.714  13.755  0.5059  0.5940  0.4098
 8187SOL     OW36019   0.216   0.463   7.751 -0.0508  0.0723  0.4038
 8187SOL    HW136020   0.167   0.482   7.831  0.1749 -0.2049  0.6023
 8187SOL    HW236021   0.150   0.495   7.688  0.1835  1.5833  0.9236
 8188SOL     OW36022   1.850   1.446   6.388  0.0463 -0.5540  0.1476
 8188SOL    HW136023   1.825   1.373   6.445 -0.1847 -0.9212 -0.4245
 8188SOL    HW236024   1.946   1.455   6.390 -0.0039 -0.0117 -0.1483
 8189SOL     OW36025   1.587   3.274  16.148  0.2218 -0.2167 -0.0324
 8189SOL    HW136026   1.564   3.320  16.229 -0.7870  0.6855 -0.8511
 8189SOL    HW236027   1.546   3.188  16.159 -0.4023  0.0918  0.0324
 8190SOL     OW36028   1.269   3.738   2.740 -0.3063  0.4353 -0.4718
 8190SOL    HW136029   1.345   3.795   2.729  0.0006  0.0843 -0.1536
 8190SOL    HW236030   1.255   3.699   2.654  1.3867  2.8271 -1.8176
 8191SOL     OW36031   4.597   3.928  10.792  0.5977  0.7520  0.6593
 8191SOL    HW136032   4.661   3.921  10.721 -1.8008 -0.5887 -1.3648
 8191SOL    HW236033   4.517   3.917  10.742  1.5381 -0.1399 -0.6374
 8192SOL     OW36034   3.301   1.715   9.678  0.4894 -0.0988  0.6478
 8192SOL    HW136035   3.258   1.703   9.593 -0.0878  0.7175  0.8236
 8192SOL    HW236036   3.303   1.625   9.711  2.2864 -0.1220  0.4243
 8193SOL     OW36037   4.710   0.621  16.574 -0.1887 -0.6824  0.3973
 8193SOL    HW136038   4.653   0.636  16.649 -1.0568  3.3182 -1.0469
 8193SOL    HW236039   0.024   0.538  16.606 -1.7574 -1.4011  0.2137
 8194SOL     OW36040   3.663   1.983  13.850  0.5749  0.3898  0.0310
 8194SOL    HW136041   3.616   1.904  13.877  2.2105 -1.7653 -3.4271
 8194SOL    HW236042   3.754   1.952  13.858 -0.6279 -2.9898  0.5446
 8195SOL     OW36043   3.052   2.580   3.070 -0.3182 -0.1274 -0.2802
 8195SOL    HW136044   2.964   2.609   3.091 -1.2764 -1.4610 -2.4161
 8195SOL    HW236045   3.056   2.485   3.082 -3.1728 -0.3147 -0.9760
 8196SOL     OW36046   0.460   4.526  10.968 -0.1360 -0.0576  0.8369
 8196SOL    HW136047   0.523   4.596  10.983 -0.6088 -0.0285  2.6345
 8196SOL    HW236048   0.376   4.567  10.990  1.9109  4.2970  0.5332
 8197SOL     OW36049   0.146   0.556   9.055  0.3077 -0.4932  0.4900
 8197SOL    HW136050   0.166   0.632   9.111  0.5226 -0.9115  0.9866
 8197SOL    HW236051   0.119   0.493   9.122  2.4594 -0.6759  1.2008
 8198SOL     OW36052   1.957   4.619   4.773 -0.7809 -0.9735 -0.1513
 8198SOL    HW136053   1.906   4.541   4.795  1.5164 -2.4493 -0.1029
 8198SOL    HW236054   2.044   4.580   4.768 -0.4481 -0.4028  1.0618
 8199SOL     OW36055   0.814   0.612   5.340  0.4648  0.0755 -0.5191
 8199SOL    HW136056   0.831   0.626   5.433 -0.6373  1.6683 -0.5425
 8199SOL    HW236057   0.843   0.701   5.318  0.8569  0.3830  1.2495
 8200SOL     OW36058   0.160   0.205   3.680 -0.2823 -0.3244  0.2801
 8200SOL    HW136059   0.078   0.243   3.712 -1.1145 -2.9686  1.2769
 8200SOL    HW236060   0.225   0.243   3.740  0.5964  2.7023 -2.5862
 8201SOL     OW36061   2.612   2.791   0.340  0.6728 -0.0514  0.0745
 8201SOL    HW136062   2.574   2.879   0.344 -1.2290 -0.9018  0.4564
 8201SOL    HW236063   2.534   2.736   0.333  1.7486 -1.6863  0.8982
 8202SOL     OW36064   4.549   2.953   8.578  0.4964  0.6560 -0.3781
 8202SOL    HW136065   4.485   2.998   8.523  0.8267  0.6946 -0.7345
 8202SOL    HW236066   4.511   2.929   8.662  1.3074 -2.4893 -0.9046
 8203SOL     OW36067   3.347   3.586  11.310  0.4478  0.4531 -0.5973
 8203SOL    HW136068   3.318   3.496  11.322  0.5777  0.2914 -1.4818
 8203SOL    HW236069   3.340   3.595  11.215 -0.3982  0.0180 -0.5723
 8204SOL     OW36070   1.530   2.852   9.033  0.6048 -0.4036  0.2943
 8204SOL    HW136071   1.590   2.923   9.055  1.5963 -1.7189  1.8813
 8204SOL    HW236072   1.587   2.806   8.971  0.1124 -0.0641 -0.4193
 8205SOL     OW36073   2.266   3.496   6.347  0.0930  0.2747  0.2440
 8205SOL    HW136074   2.350   3.536   6.369  0.0173  0.2742  0.5362
 8205SOL    HW236075   2.230   3.553   6.279  1.1559  0.7161  0.0503
 8206SOL     OW36076   4.599   4.416  10.229 -0.9733  0.0547  0.5025
 8206SOL    HW136077   4.619   4.323  10.240  3.5618  1.1458  1.2725
 8206SOL    HW236078   4.686   4.450  10.250 -0.8860  0.2542 -0.1953
 8207SOL     OW36079   0.922   4.701   5.619 -0.1881  0.3235  0.5652
 8207SOL    HW136080   0.884   4.660   5.697  2.5846  0.4432  1.9797
 8207SOL    HW236081   0.868   0.058   5.606  0.1643  0.2582 -1.3461
 8208SOL     OW36082   0.889   3.400  11.596  0.3902  0.5136  0.5645
 8208SOL    HW136083   0.838   3.432  11.670  1.2792 -0.6791  1.7037
 8208SOL    HW236084   0.942   3.338  11.646 -0.8677 -1.4506 -0.5397
 8209SOL     OW36085   0.459   4.138   7.726  0.4537 -0.0076 -0.5003
 8209SOL    HW136086   0.433   4.061   7.777  1.1915  0.7680  1.0521
 8209SOL    HW236087   0.386   4.199   7.732  0.8593  0.2712  1.6694
 8210SOL     OW36088   3.925   3.022   3.446 -0.0901 -0.1620  0.1185
 8210SOL    HW136089   3.867   2.954   3.410 -0.7167  0.2150  0.4175
 8210SOL    HW236090   3.899   3.093   3.387 -1.0377 -0.9665 -0.4478
 8211SOL     OW36091   3.894   4.715   2.753 -0.1575 -0.7910 -0.3274
 8211SOL    HW136092   3.918   4.655   2.824  0.3859 -0.5739 -0.3272
 8211SOL    HW236093   3.983   4.720   2.718  0.0279  0.1156  0.2830
 8212SOL     OW36094   2.638   1.910   6.833 -0.5491  0.3679  1.1876
 8212SOL    HW136095   2.591   1.864   6.763  2.0077  1.9247 -1.5691
 8212SOL    HW236096   2.663   1.833   6.884  2.9424  0.9678  0.3732
 8213SOL     OW36097   0.943   4.263  15.159 -0.9063 -0.0842  0.1950
 8213SOL    HW136098   1.036   4.288  15.163 -1.3194  1.5824 -0.3397
 8213SOL    HW236099   0.913   4.271  15.249 -2.3783 -2.5214 -0.0887
 8214SOL     OW36100   2.370   0.240   2.540 -0.3199  0.2775  0.2745
 8214SOL    HW136101   2.453   0.288   2.537  0.2524 -0.5734  2.9363
 8214SOL    HW236102   2.398   0.152   2.563  1.3376  0.4036 -1.2886
 8215SOL     OW36103   2.494   2.702   6.115 -0.2600 -0.4024  0.3538
 8215SOL    HW136104   2.530   2.649   6.044 -0.7985 -1.5569  0.9442
 8215SOL    HW236105   2.571   2.714   6.170  1.9780 -1.8449 -2.4869
 8216SOL     OW36106   1.687   3.717   7.797  0.1983 -0.3154  0.0722
 8216SOL    HW136107   1.775   3.702   7.831  0.5177  0.5150 -0.3862
 8216SOL    HW236108   1.678   3.639   7.741  0.6707 -0.2444 -0.1003
 8217SOL     OW36109   0.703   2.462   6.673  0.0368  0.0780 -0.7457
 8217SOL    HW136110   0.773   2.399   6.688 -0.2928 -0.1065  0.0230
 8217SOL    HW236111   0.707   2.478   6.578 -1.7866  3.4460 -0.2828
 8218SOL     OW36112   0.617   2.024  11.239 -0.7740 -0.8342  0.0549
 8218SOL    HW136113   0.676   2.071  11.179 -0.5396 -1.4847 -0.2232
 8218SOL    HW236114   0.661   2.026  11.324 -1.3381 -1.5284  0.3604
 8219SOL     OW36115   4.340   2.096   8.543 -0.1499  0.2409 -0.5980
 8219SOL    HW136116   4.407   2.127   8.605 -2.0935 -1.7443  2.4960
 8219SOL    HW236117   4.361   2.003   8.540 -0.9329  0.0752 -0.8922
 8220SOL     OW36118   0.359   3.429   7.865 -0.2213 -0.3863 -0.7144
 8220SOL    HW136119   0.267   3.410   7.848 -0.3553  0.5540 -1.0202
 8220SOL    HW236120   0.354   3.496   7.933  0.0491 -1.3852  0.2977
 8221SOL     OW36121   1.236   4.711   7.939  0.0314  0.0341 -0.1743
 8221SOL    HW136122   1.283   4.697   8.021  0.6110 -0.5321 -0.5997
 8221SOL    HW236123   1.162   4.653   7.957 -0.2255  0.5825  0.5110
 8222SOL     OW36124   2.255   0.808   6.529 -0.1176  0.2711 -0.3049
 8222SOL    HW136125   2.248   0.830   6.436  1.1233  0.6858 -0.3027
 8222SOL    HW236126   2.348   0.810   6.551 -0.1252 -0.9977 -0.1704
 8223SOL     OW36127   1.731   1.107   6.345  0.2645  0.1763 -0.0364
 8223SOL    HW136128   1.766   1.152   6.422 -1.9235 -0.6141  1.4213
 8223SOL    HW236129   1.815   1.075   6.310  0.1748  1.3222 -1.2771
 8224SOL     OW36130   3.774   2.311   4.681  0.1725 -0.0603  1.0087
 8224SOL    HW136131   3.789   2.217   4.689  1.6013  0.1737  0.9402
 8224SOL    HW236132   3.765   2.325   4.587  0.9227 -2.0258  0.6426
 8225SOL     OW36133   4.532   3.063   4.709  0.2907 -0.0276  0.0371
 8225SOL    HW136134   4.601   3.038   4.770  0.7647  0.9032 -0.1268
 8225SOL    HW236135   4.559   3.004   4.639 -2.2109  0.9437 -1.7424
 8226SOL     OW36136   2.056   0.185   5.670  0.1211  0.0694 -0.8502
 8226SOL    HW136137   2.114   0.162   5.597 -0.5529 -0.2551 -1.2811
 8226SOL    HW236138   2.115   0.168   5.743 -0.1373  0.9472 -0.4397
 8227SOL     OW36139   2.993   0.456   2.059  0.5161 -0.8391 -0.0359
 8227SOL    HW136140   3.006   0.455   2.153  1.8230 -0.9181 -0.2248
 8227SOL    HW236141   2.972   0.366   2.035  1.6415 -0.7886 -1.2108
 8228SOL     OW36142   3.446   4.320   2.574  0.2946  0.5355 -0.2554
 8228SOL    HW136143   3.532   4.336   2.534 -0.4782  0.2049 -2.0266
 8228SOL    HW236144   3.413   4.410   2.581 -1.4318 -0.0241 -1.4700
 8229SOL     OW36145   1.634   2.353   6.868  0.5896 -0.6577  0.7593
 8229SOL    HW136146   1.626   2.415   6.940  0.1944 -0.5187  0.5946
 8229SOL    HW236147   1.729   2.337   6.874  1.2474  3.1302  0.3304
 8230SOL     OW36148   0.737   1.135   5.236  0.3210  0.2789  0.2890
 8230SOL    HW136149   0.790   1.100   5.308  2.1812 -0.5136 -1.4530
 8230SOL    HW236150   0.662   1.076   5.226  0.5405  0.3311 -1.6992
 8231SOL     OW36151   0.080   0.672   8.260  0.0286  0.2511  0.3175
 8231SOL    HW136152   0.108   0.749   8.210 -0.9223 -0.3736 -1.1847
 8231SOL    HW236153   0.110   0.703   8.345 -0.5218 -1.6217  1.1920
 8232SOL     OW36154   2.839   1.657   2.558 -0.2871  0.6724 -0.3128
 8232SOL    HW136155   2.903   1.673   2.627  0.1730 -0.1047 -0.5616
 8232SOL    HW236156   2.807   1.747   2.562 -0.8137  0.5651 -2.1910
 8233SOL     OW36157   3.694   4.057   2.204 -0.4451 -0.1766 -0.3341
 8233SOL    HW136158   3.620   4.022   2.155  0.1262  0.8751 -1.9196
 8233SOL    HW236159   3.661   4.145   2.222 -0.3567 -0.5316  1.5685
 8234SOL     OW36160   2.978   4.457   4.842  0.2553 -0.4745  0.2826
 8234SOL    HW136161   2.885   4.434   4.839 -0.1432  1.5230 -2.6579
 8234SOL    HW236162   2.981   4.550   4.820  0.5063 -0.4509  0.4154
 8235SOL     OW36163   0.352   1.499  12.061  0.3166 -0.8533 -0.6312
 8235SOL    HW136164   0.299   1.420  12.066 -0.0642 -0.4671  1.4442
 8235SOL    HW236165   0.422   1.466  12.005 -1.1821 -2.3465 -1.5954
 8236SOL     OW36166   1.501   0.284  17.587  0.1756  0.1763  0.6620
 8236SOL    HW136167   1.474   0.354  17.527  2.9228 -0.9676 -1.8833
 8236SOL    HW236168   1.496   0.337  17.667 -2.1849  0.6205  0.2154
 8237SOL     OW36169   1.899   3.286   5.469 -0.2088 -0.7238 -0.6884
 8237SOL    HW136170   1.965   3.354   5.483 -0.8281 -0.3430  0.3710
 8237SOL    HW236171   1.823   3.320   5.516  0.0600 -1.7991  0.5114
 8238SOL     OW36172   3.567   3.663   3.597 -0.1022  0.2099  0.2704
 8238SOL    HW136173   3.587   3.747   3.555 -2.4405  0.6481  0.0606
 8238SOL    HW236174   3.500   3.705   3.652 -0.3455  0.3862 -0.1628
 8239SOL     OW36175   1.021   1.265   7.732  0.3813 -0.2700 -0.2665
 8239SOL    HW136176   1.080   1.212   7.785 -0.1827 -1.6113 -1.0017
 8239SOL    HW236177   0.983   1.208   7.665  0.6549 -0.1760 -0.5016
 8240SOL     OW36178   1.651   3.223   2.386  0.8268  0.2610 -0.3007
 8240SOL    HW136179   1.611   3.174   2.458  0.5656  1.8207  0.6078
 8240SOL    HW236180   1.657   3.308   2.430 -0.6664 -1.4175  3.1330
 8241SOL     OW36181   4.150   1.920   5.977 -0.3714  0.4655  0.1126
 8241SOL    HW136182   4.122   1.921   6.069  0.1049 -0.6176  0.2661
 8241SOL    HW236183   4.241   1.893   5.982 -1.1350 -1.9057  1.2669
 8242SOL     OW36184   3.977   3.376   6.762  0.4635 -0.6481 -0.3442
 8242SOL    HW136185   3.895   3.327   6.769  0.2801  0.2089  3.2661
 8242SOL    HW236186   3.942   3.461   6.790 -0.3961 -0.9906 -0.3730
 8243SOL     OW36187   0.811   3.399   3.895  0.3727 -0.4146 -0.3723
 8243SOL    HW136188   0.867   3.322   3.885  0.4765 -0.6425  1.9195
 8243SOL    HW236189   0.815   3.406   3.991  1.6138 -0.8273 -0.3953
 8244SOL     OW36190   2.919   2.707  16.480  0.1608 -0.5054  0.2598
 8244SOL    HW136191   2.975   2.746  16.547  1.1440  0.0318 -0.8795
 8244SOL    HW236192   2.869   2.786  16.459  1.5308 -0.0269 -1.1617
 8245SOL     OW36193   2.792   2.258  16.703  0.7394  0.5123  0.1355
 8245SOL    HW136194   2.878   2.278  16.740 -0.5518 -0.6993  3.7913
 8245SOL    HW236195   2.781   2.347  16.670  0.5292  0.7133  0.7408
 8246SOL     OW36196   1.923   3.332   9.148 -0.5938 -0.5007  0.2509
 8246SOL    HW136197   1.880   3.417   9.159 -1.6116 -1.0373  0.4174
 8246SOL    HW236198   1.904   3.295   9.234  0.4835 -1.4797  0.0660
 8247SOL     OW36199   1.960   3.857   5.665  0.3766  0.3736 -0.6911
 8247SOL    HW136200   1.977   3.777   5.714  1.5356  1.8583  1.3731
 8247SOL    HW236201   1.986   3.823   5.580  0.0713 -0.4728 -0.4396
 8248SOL     OW36202   1.915   2.103   3.125 -0.2544 -0.4978 -0.1801
 8248SOL    HW136203   1.866   2.023   3.106 -1.3391  0.4358 -1.3143
 8248SOL    HW236204   1.979   2.104   3.054 -0.3602  4.1118 -0.1844
 8249SOL     OW36205   4.718   1.912   5.726 -0.3909  0.0551 -0.4705
 8249SOL    HW136206   0.068   1.926   5.663  0.2699  1.4841  0.5877
 8249SOL    HW236207   0.049   1.881   5.800  0.8539  2.5850 -0.2752
 8250SOL     OW36208   0.854   4.420   8.268 -0.5774  0.2960  0.4093
 8250SOL    HW136209   0.767   4.426   8.228  0.1866  0.1210 -1.3083
 8250SOL    HW236210   0.911   4.444   8.194 -0.7450 -0.4000  0.0593
 8251SOL     OW36211   0.135   1.353   3.516 -0.6745 -0.5823  0.2948
 8251SOL    HW136212   0.080   1.417   3.471 -0.5661 -0.6729  0.0276
 8251SOL    HW236213   0.209   1.409   3.539 -2.6084  2.5914 -1.2910
 8252SOL     OW36214   2.961   0.187  12.751 -0.0160 -0.2988 -0.1706
 8252SOL    HW136215   2.876   0.226  12.767  0.3953  0.5013  0.0463
 8252SOL    HW236216   2.946   0.104  12.796  0.4201  1.2042  2.7380
 8253SOL     OW36217   3.652   4.619   0.852 -0.6595  0.3858 -0.0979
 8253SOL    HW136218   3.724   4.669   0.891 -0.3760 -0.2795  0.2399
 8253SOL    HW236219   3.692   4.533   0.864 -1.4573 -0.0819 -0.8093
 8254SOL     OW36220   0.106   3.878   7.793  0.3101  0.1139  0.1046
 8254SOL    HW136221   0.063   3.810   7.845 -0.8316  1.2480  0.6761
 8254SOL    HW236222   0.032   3.935   7.816  0.0757 -1.3162  2.8753
 8255SOL     OW36223   0.827   1.252   9.366 -0.1580 -0.3001  0.2544
 8255SOL    HW136224   0.798   1.198   9.292  0.1509 -1.4273  0.9457
 8255SOL    HW236225   0.881   1.193   9.418  0.8010  0.0643 -0.3462
 8256SOL     OW36226   3.960   1.850   2.396  0.0350 -0.1948  0.0229
 8256SOL    HW136227   3.916   1.934   2.381 -4.0511 -2.0051  1.9713
 8256SOL    HW236228   4.048   1.882   2.374 -0.7947  1.0371 -1.5125
 8257SOL     OW36229   3.278   3.051   4.700  0.2449  0.1834  0.8515
 8257SOL    HW136230   3.245   2.995   4.770 -1.0949 -2.1029 -1.6006
 8257SOL    HW236231   3.372   3.037   4.705  0.3920  0.8587 -0.2571
 8258SOL     OW36232   0.912   0.881   7.243  0.4578 -0.6336 -0.1663
 8258SOL    HW136233   0.972   0.945   7.205  0.1708 -0.6142 -0.5754
 8258SOL    HW236234   0.923   0.803   7.190  0.4640 -2.0805  1.9698
 8259SOL     OW36235   1.264   3.260   4.493  0.1331 -0.2128  0.2907
 8259SOL    HW136236   1.271   3.173   4.455  0.7511 -0.6556  1.4153
 8259SOL    HW236237   1.241   3.235   4.582 -0.5792  1.1802  0.4949
 8260SOL     OW36238   2.414   3.841   5.605  0.2335  0.4945 -0.3312
 8260SOL    HW136239   2.429   3.772   5.539 -3.0262  0.7433 -1.3483
 8260SOL    HW236240   2.380   3.910   5.547 -1.6123 -0.6328 -0.6121
 8261SOL     OW36241   4.367   0.570   4.612  0.3495  0.2569 -0.5166
 8261SOL    HW136242   4.381   0.631   4.539 -1.1331 -0.0859 -1.0847
 8261SOL    HW236243   4.366   0.487   4.565  0.4085 -0.0219 -0.0272
 8262SOL     OW36244   4.294   2.305   1.294  0.0896 -0.2833  0.0101
 8262SOL    HW136245   4.298   2.394   1.328 -1.4429 -0.7772  1.4709
 8262SOL    HW236246   4.269   2.257   1.373  0.4347  0.6487  0.6826
 8263SOL     OW36247   1.989   0.895   8.587 -0.2639  0.2112 -0.5051
 8263SOL    HW136248   1.958   0.841   8.514  1.5911  0.0018 -1.1373
 8263SOL    HW236249   2.038   0.834   8.643  1.0127  0.4425 -1.3696
 8264SOL     OW36250   0.064   3.293  10.135 -0.0557  0.2400  0.0614
 8264SOL    HW136251   0.088   3.240  10.059 -1.2019  0.6725 -0.6139
 8264SOL    HW236252   0.054   3.224  10.200 -0.0698 -0.5523 -0.7777
 8265SOL     OW36253   3.767   0.619   3.942  0.1883 -0.5845 -0.0132
 8265SOL    HW136254   3.717   0.700   3.932 -1.6145 -1.7139 -0.1490
 8265SOL    HW236255   3.721   0.562   4.003  0.5070 -0.2963  0.4995
 8266SOL     OW36256   1.302   1.480   9.656 -0.0309  0.4578 -0.0568
 8266SOL    HW136257   1.390   1.444   9.664  0.2171  1.2131  0.5373
 8266SOL    HW236258   1.327   1.555   9.602  0.0337 -0.0448 -0.7317
 8267SOL     OW36259   3.057   1.098   5.649  0.1697 -0.2948  0.0298
 8267SOL    HW136260   3.127   1.154   5.616 -0.0770 -0.0895 -0.1482
 8267SOL    HW236261   3.056   1.136   5.737 -0.7580 -0.8475  0.2561
 8268SOL     OW36262   3.381   3.811   1.841 -0.4374  0.5309  1.0237
 8268SOL    HW136263   3.429   3.854   1.771 -0.5876 -0.6252  0.1980
 8268SOL    HW236264   3.293   3.839   1.814 -0.7740  0.1547  1.7159
 8269SOL     OW36265   1.599   4.430   0.625 -0.1514 -0.5136  0.1202
 8269SOL    HW136266   1.584   4.514   0.581 -2.1688  0.5689  2.9086
 8269SOL    HW236267   1.590   4.465   0.713  2.2609  0.3365  0.0277
 8270SOL     OW36268   3.947   0.664   2.474 -0.4358 -0.0794  0.0577
 8270SOL    HW136269   4.034   0.703   2.463  0.2281 -2.0006 -1.5436
 8270SOL    HW236270   3.957   0.586   2.529  0.0441 -1.7573 -2.4320
 8271SOL     OW36271   0.553   4.039   3.499  0.6754 -0.4878 -0.4978
 8271SOL    HW136272   0.565   3.975   3.429 -0.0181  0.8919 -1.8803
 8271SOL    HW236273   0.485   4.095   3.460 -0.3397 -1.4408 -0.1167
 8272SOL     OW36274   0.593   1.095   8.841  0.2865  0.1766 -0.1084
 8272SOL    HW136275   0.515   1.148   8.828 -0.3010 -0.0980  2.5047
 8272SOL    HW236276   0.596   1.038   8.764  0.4347  0.9132 -0.6561
 8273SOL     OW36277   0.420   2.137  10.025  1.1354  0.1621 -0.0820
 8273SOL    HW136278   0.510   2.107  10.014  1.0129  1.6694 -5.1598
 8273SOL    HW236279   0.401   2.166   9.935 -1.2412 -1.4064 -0.0967
 8274SOL     OW36280   2.527   3.799   8.681 -0.0872  0.1921 -0.6345
 8274SOL    HW136281   2.510   3.844   8.764  1.4696 -0.7941  0.2172
 8274SOL    HW236282   2.461   3.842   8.626 -0.8079  2.0013  1.6146
 8275SOL     OW36283   4.153   2.385  16.178 -0.1785 -0.4086 -0.0584
 8275SOL    HW136284   4.060   2.399  16.195 -0.3992 -1.7275 -0.2073
 8275SOL    HW236285   4.182   2.322  16.244  1.7223 -0.2344 -0.7014
 8276SOL     OW36286   3.277   1.208   8.096 -0.5944 -0.3923  0.1417
 8276SOL    HW136287   3.279   1.231   8.004  3.6550  1.2755  0.6458
 8276SOL    HW236288   3.351   1.147   8.093 -0.0387  0.3448 -0.9195
 8277SOL     OW36289   4.299   3.439  10.596  0.2286  0.0600  0.1168
 8277SOL    HW136290   4.205   3.454  10.595  0.0107 -1.3189 -0.0121
 8277SOL    HW236291   4.301   3.380  10.520  2.5895  2.3811 -1.6126
 8278SOL     OW36292   0.255   3.920   8.266 -0.5833 -0.4372 -0.3231
 8278SOL    HW136293   0.304   3.886   8.191 -0.8100  0.0488 -0.6960
 8278SOL    HW236294   0.259   4.015   8.252 -1.4378 -0.5171 -1.0974
 8279SOL     OW36295   4.667   0.346  17.211 -0.0186  0.5661 -0.4017
 8279SOL    HW136296   4.716   0.341  17.129  0.2682 -0.7150 -0.1599
 8279SOL    HW236297   4.717   0.414  17.256 -0.8976  1.8657 -1.4040
 8280SOL     OW36298   0.197   3.800   7.114 -0.1403  0.8581  0.6994
 8280SOL    HW136299   0.248   3.837   7.042 -1.6422  0.5353 -0.5261
 8280SOL    HW236300   0.244   3.837   7.189 -1.4322 -0.0158  1.9449
 8281SOL     OW36301   2.442   2.735  14.356  0.3442  0.3593 -0.8508
 8281SOL    HW136302   2.358   2.779  14.342  0.1505  0.1851 -0.2343
 8281SOL    HW236303   2.501   2.798  14.315  0.1416  0.4147 -1.0599
 8282SOL     OW36304   0.715   1.118   3.894 -0.6266 -0.2312  0.5137
 8282SOL    HW136305   0.651   1.109   3.823 -1.2665 -1.4087  1.2435
 8282SOL    HW236306   0.773   1.047   3.869  0.7096  2.1907 -3.2686
 8283SOL     OW36307   1.757   2.370   4.801 -0.0310 -0.2464  0.0512
 8283SOL    HW136308   1.814   2.443   4.824  0.9026 -0.5185 -1.3842
 8283SOL    HW236309   1.824   2.319   4.756 -1.5634 -0.5626 -1.8904
 8284SOL     OW36310   3.656   3.832   8.416 -0.4696 -0.3732  0.2089
 8284SOL    HW136311   3.564   3.857   8.408  0.2856  2.1858 -0.3688
 8284SOL    HW236312   3.669   3.825   8.511 -0.3525 -2.4407  0.0397
 8285SOL     OW36313   0.844   4.501   5.434  0.1299 -0.0504 -0.0568
 8285SOL    HW136314   0.876   4.571   5.490  1.9243  0.1616 -1.3761
 8285SOL    HW236315   0.757   4.485   5.471  0.5742 -1.2766  0.4666
 8286SOL     OW36316   3.170   1.984   1.846 -0.6693  0.2888 -0.1112
 8286SOL    HW136317   3.187   2.058   1.906 -0.2890 -0.4492  0.6971
 8286SOL    HW236318   3.075   1.978   1.852 -0.4083 -2.3032  1.0677
 8287SOL     OW36319   1.057   4.344  17.353 -0.5674 -0.0158  0.5988
 8287SOL    HW136320   0.977   4.312  17.312 -1.2135  1.1727  0.9139
 8287SOL    HW236321   1.030   4.419  17.407  2.5439  1.4247  0.1557
 8288SOL     OW36322   1.812   1.325   1.275 -0.1518  0.4278 -0.2639
 8288SOL    HW136323   1.772   1.397   1.226  1.6898  0.4352 -1.7494
 8288SOL    HW236324   1.784   1.251   1.222  0.6757 -0.5040  0.6024
 8289SOL     OW36325   0.346   3.889   6.874 -0.0432  0.1047  0.5817
 8289SOL    HW136326   0.322   3.931   6.791 -1.6377 -1.3609  0.3171
 8289SOL    HW236327   0.391   3.959   6.923 -0.0251  1.0942 -0.8512
 8290SOL     OW36328   0.349   3.058   9.127 -0.0847  0.0811  0.2678
 8290SOL    HW136329   0.355   3.145   9.086 -1.9527 -1.0173 -2.3324
 8290SOL    HW236330   0.394   3.079   9.209 -0.5082 -1.0824  0.7981
 8291SOL     OW36331   3.944   1.418   6.893  0.2133  0.2558 -0.3534
 8291SOL    HW136332   4.033   1.450   6.879 -0.3458  2.2896  0.7027
 8291SOL    HW236333   3.921   1.432   6.985 -3.7447  1.0444 -1.4537
 8292SOL     OW36334   1.137   3.217   3.540  0.1588 -0.4222 -0.6340
 8292SOL    HW136335   1.226   3.248   3.558 -0.1563 -1.4184  2.7585
 8292SOL    HW236336   1.103   3.255   3.621  1.9772 -0.1714  0.0137
 8293SOL     OW36337   3.221   4.455   1.033  0.1760 -0.2280 -0.1970
 8293SOL    HW136338   3.305   4.496   1.054 -1.3837  2.8560  0.0609
 8293SOL    HW236339   3.250   4.425   0.947 -0.3596 -2.0143  0.2556
 8294SOL     OW36340   0.740   0.311   4.325 -0.4991  0.1208  0.0133
 8294SOL    HW136341   0.730   0.225   4.283  1.7604  0.0908 -0.4668
 8294SOL    HW236342   0.827   0.341   4.298 -0.2693 -1.1200 -0.6180
 8295SOL     OW36343   4.401   2.634  17.035  0.1696  0.1215  0.3216
 8295SOL    HW136344   4.366   2.610  16.949  0.5005 -1.8793  0.7487
 8295SOL    HW236345   4.380   2.727  17.043 -1.7583 -0.2086 -0.8955
 8296SOL     OW36346   1.369   1.596   4.286  0.1038  0.3497 -0.3275
 8296SOL    HW136347   1.320   1.665   4.241  0.9842  2.3695  1.7735
 8296SOL    HW236348   1.457   1.634   4.287  0.2902 -0.0727 -1.3353
 8297SOL     OW36349   0.622   0.681   8.682  0.6649  0.4254  0.1120
 8297SOL    HW136350   0.701   0.674   8.628 -1.7630  0.6219 -3.4610
 8297SOL    HW236351   0.595   0.767   8.652  1.1892  0.6633  0.3128
 8298SOL     OW36352   2.372   2.685   5.816  0.2442  0.3092 -0.4642
 8298SOL    HW136353   2.354   2.775   5.788 -3.3836  0.1750  1.4784
 8298SOL    HW236354   2.438   2.707   5.882  0.3131 -1.4440  0.0426
 8299SOL     OW36355   0.017   0.725   4.387  0.5323 -0.0347 -0.3664
 8299SOL    HW136356   4.649   0.699   4.362 -0.5411  0.4180  3.0542
 8299SOL    HW236357   0.049   0.650   4.435  1.9711  1.1541  0.5272
 8300SOL     OW36358   0.098   4.234   4.089 -0.1985 -0.6059 -0.1559
 8300SOL    HW136359   0.096   4.157   4.146 -2.3723 -0.5457 -0.1627
 8300SOL    HW236360   0.178   4.281   4.114 -0.2576 -0.7592  0.3220
 8301SOL     OW36361   1.568   4.443   3.334  0.0825 -0.0291 -0.0754
 8301SOL    HW136362   1.475   4.459   3.347 -0.6071 -2.8234 -1.6724
 8301SOL    HW236363   1.572   4.391   3.254  1.6697  1.2687 -0.8361
 8302SOL     OW36364   3.682   4.462   2.260  0.4697  0.4786 -0.0500
 8302SOL    HW136365   3.638   4.390   2.215 -0.7423  0.3552  1.3394
 8302SOL    HW236366   3.622   4.537   2.253 -1.9342 -1.4855 -0.5850
 8303SOL     OW36367   2.170   0.329   4.991 -0.1070 -0.0003 -0.1123
 8303SOL    HW136368   2.151   0.254   4.934 -1.5491 -1.9105  2.8279
 8303SOL    HW236369   2.113   0.395   4.954 -0.5763 -0.9613 -1.1126
 8304SOL     OW36370   4.051   1.038   6.834  0.0585  0.1508  0.2778
 8304SOL    HW136371   4.016   1.005   6.917  2.3355  0.0836  1.1938
 8304SOL    HW236372   4.048   0.954   6.788 -0.0989  0.0609  0.4509
 8305SOL     OW36373   0.814   2.380  14.008 -0.5235  0.4188  0.0143
 8305SOL    HW136374   0.897   2.410  13.971  0.7121 -0.2733  2.2301
 8305SOL    HW236375   0.793   2.331  13.928  0.6868  0.0933 -0.1164
 8306SOL     OW36376   4.685   2.234   7.624  0.1469  0.3876  0.3155
 8306SOL    HW136377   4.644   2.303   7.676  0.9449  1.9588 -1.1577
 8306SOL    HW236378   4.661   2.263   7.536 -0.7120  2.3227  1.1940
 8307SOL     OW36379   3.377   2.401   6.731  0.7204 -0.1990 -0.2025
 8307SOL    HW136380   3.365   2.375   6.822  1.5981 -0.8920 -0.2790
 8307SOL    HW236381   3.404   2.322   6.685 -2.1596 -0.7759 -0.8686
 8308SOL     OW36382   3.670   3.902  11.381 -0.5427  0.1121 -0.1468
 8308SOL    HW136383   3.720   3.913  11.300  0.7020  1.6947  0.8320
 8308SOL    HW236384   3.653   3.808  11.380  0.2636 -0.0321 -0.2258
 8309SOL     OW36385   1.132   3.390  12.715  0.6002 -0.5276 -0.5041
 8309SOL    HW136386   1.080   3.427  12.786 -2.0341 -4.1904 -0.5332
 8309SOL    HW236387   1.131   3.461  12.651 -0.7664 -2.0890 -2.2079
 8310SOL     OW36388   4.208   2.150  16.341  0.3414 -0.3794 -0.0117
 8310SOL    HW136389   4.122   2.130  16.377  0.9427  1.5052  2.5033
 8310SOL    HW236390   4.266   2.160  16.417 -0.5810 -0.3118  0.6900
 8311SOL     OW36391   3.909   3.973   2.018  0.5146 -0.0526 -0.2302
 8311SOL    HW136392   3.887   4.049   2.071  2.6074  0.3821  0.0168
 8311SOL    HW236393   3.829   3.921   2.026 -0.0951  1.1167  1.2653
 8312SOL     OW36394   1.637   0.729   4.243 -0.3327 -0.3845 -0.5734
 8312SOL    HW136395   1.587   0.809   4.259  1.0121  0.6653 -1.5763
 8312SOL    HW236396   1.692   0.735   4.165  0.1953 -1.2809 -0.2691
 8313SOL     OW36397   1.310   4.394   0.614  0.5172  0.2462 -0.2799
 8313SOL    HW136398   1.343   4.477   0.579  0.3605  0.8002  0.9035
 8313SOL    HW236399   1.395   4.353   0.630  0.3888 -0.4489 -1.3519
 8314SOL     OW36400   3.460   4.077  16.945  0.7016 -0.3814  0.3832
 8314SOL    HW136401   3.484   4.158  16.991 -0.8571  0.7598 -0.8536
 8314SOL    HW236402   3.366   4.086  16.937  1.1395  2.0671 -2.0000
 8315SOL     OW36403   3.992   1.623   2.596 -0.5051 -0.1107  0.6099
 8315SOL    HW136404   3.982   1.685   2.668 -0.5705 -0.1857  0.6655
 8315SOL    HW236405   3.949   1.669   2.524  1.7535  1.7269  0.4377
 8316SOL     OW36406   4.528   3.066   6.023  0.3266 -0.0642  0.2582
 8316SOL    HW136407   4.561   3.156   6.014  1.6923 -0.6554 -0.5640
 8316SOL    HW236408   4.484   3.068   5.938  1.9720  1.0665 -0.5589
 8317SOL     OW36409   0.162   0.086   5.511  0.1183 -0.1846  0.5652
 8317SOL    HW136410   0.089   0.140   5.539 -0.4347  0.6579 -2.4388
 8317SOL    HW236411   0.105   0.027   5.461  1.7880 -2.3220  1.1790
 8318SOL     OW36412   2.861   3.386  15.822 -0.3056  0.2027  0.0916
 8318SOL    HW136413   2.847   3.466  15.873  0.1307 -0.6882  1.6156
 8318SOL    HW236414   2.856   3.423  15.734  4.4013 -1.6681 -0.9633
 8319SOL     OW36415   3.563   1.695  17.644 -0.0857 -0.5107  0.5839
 8319SOL    HW136416   3.588   1.632   0.027  0.2685 -0.9852  0.0137
 8319SOL    HW236417   3.648   1.727  17.614  0.3565 -0.5091  1.8510
 8320SOL     OW36418   0.148   2.645   7.929 -0.4147  0.0555 -0.8060
 8320SOL    HW136419   0.067   2.691   7.909  1.0684  2.6701 -0.8383
 8320SOL    HW236420   0.108   2.561   7.908  0.5236 -0.9221  1.3085
 8321SOL     OW36421   2.287   1.557   1.446  0.4462 -0.1251  0.0025
 8321SOL    HW136422   2.254   1.563   1.356  0.9395 -0.7905 -0.2283
 8321SOL    HW236423   2.359   1.494   1.435  0.3234  0.2495 -2.9558
 8322SOL     OW36424   3.597   1.818   1.839 -0.0660  0.3375 -0.3123
 8322SOL    HW136425   3.573   1.838   1.749 -0.9204  0.2136 -0.1050
 8322SOL    HW236426   3.532   1.749   1.854  0.3937  0.0386  0.3271
 8323SOL     OW36427   3.728   2.865   3.313 -0.2609 -0.1793 -0.4051
 8323SOL    HW136428   3.775   2.782   3.322 -0.2362 -0.0261  0.9898
 8323SOL    HW236429   3.674   2.851   3.236 -2.7113  2.6746  0.7782
 8324SOL     OW36430   4.488   3.354  11.833  0.1154 -0.1813 -0.2720
 8324SOL    HW136431   4.459   3.445  11.824  0.2256 -0.0483  0.7407
 8324SOL    HW236432   4.412   3.306  11.865  0.2009 -0.6283 -0.7275
 8325SOL     OW36433   2.301   4.652  11.842  0.1299  0.2435  0.4584
 8325SOL    HW136434   2.390   4.683  11.860  0.5834 -0.5231 -0.4840
 8325SOL    HW236435   2.290   4.581  11.906  2.2713 -1.1112 -0.6752
 8326SOL     OW36436   0.776   3.236  12.258  0.2411 -0.2441  0.1992
 8326SOL    HW136437   0.841   3.169  12.233  0.5368  0.6302 -1.4299
 8326SOL    HW236438   0.725   3.263  12.181  2.1300 -0.4881 -1.1538
 8327SOL     OW36439   1.102   2.385   3.773 -0.0514 -0.1426 -0.0105
 8327SOL    HW136440   1.119   2.291   3.773  1.5327  0.1362 -0.4419
 8327SOL    HW236441   1.009   2.391   3.792 -1.1135 -0.4247 -5.0986
 8328SOL     OW36442   4.629   0.940  14.266 -0.3047 -0.3638 -0.5775
 8328SOL    HW136443   4.546   0.987  14.258  1.0985  2.1774 -0.2370
 8328SOL    HW236444   4.684   1.016  14.248 -0.7508 -0.4393 -2.2335
 8329SOL     OW36445   3.249   0.593   6.096 -0.7607 -0.1777 -0.1693
 8329SOL    HW136446   3.305   0.577   6.172 -2.3171  0.3169  1.1057
 8329SOL    HW236447   3.213   0.679   6.121  3.0304  2.2713 -3.2246
 8330SOL     OW36448   3.916   1.610   5.460 -0.6925 -0.9008  0.2462
 8330SOL    HW136449   3.839   1.613   5.516 -0.5944  0.1733  0.3233
 8330SOL    HW236450   3.969   1.549   5.511  0.1115  1.3541  2.1474
 8331SOL     OW36451   0.223   2.439   1.757  0.0082 -0.2982  0.1219
 8331SOL    HW136452   0.236   2.511   1.695 -0.6702  0.0501  0.3796
 8331SOL    HW236453   0.136   2.458   1.792  1.2746 -0.0717  3.0932
 8332SOL     OW36454   2.243   2.128  11.164  0.1816 -0.2649  0.5888
 8332SOL    HW136455   2.307   2.106  11.096  1.1680 -0.1164  1.4709
 8332SOL    HW236456   2.271   2.218  11.175  0.1151 -0.2316  0.4819
 8333SOL     OW36457   0.068   0.263  16.400 -0.2020 -0.4252  0.8745
 8333SOL    HW136458   0.028   0.289  16.483  0.4247  3.9761 -0.2062
 8333SOL    HW236459   0.154   0.306  16.409 -0.5584  0.3964  0.3818
 8334SOL     OW36460   3.679   2.753   8.362  0.3328  0.2948 -0.4852
 8334SOL    HW136461   3.747   2.821   8.355 -0.9231  1.7838  1.6512
 8334SOL    HW236462   3.652   2.743   8.271  0.5192  2.4004 -0.7859
 8335SOL     OW36463   1.094   2.087   3.074 -0.3308  0.1511  0.2279
 8335SOL    HW136464   1.176   2.040   3.057 -0.2918 -0.1792  1.3023
 8335SOL    HW236465   1.111   2.176   3.042 -1.5092 -0.3000 -1.6302
 8336SOL     OW36466   2.393   2.419   4.428  0.0810  0.3265 -0.9378
 8336SOL    HW136467   2.431   2.506   4.426 -0.2978  0.4899 -0.8915
 8336SOL    HW236468   2.352   2.422   4.514  0.0853 -0.2861 -0.9117
 8337SOL     OW36469   2.558   0.423  13.494 -0.0092 -0.4074  0.2696
 8337SOL    HW136470   2.558   0.344  13.548 -1.7482 -0.7773 -0.2610
 8337SOL    HW236471   2.637   0.409  13.442  0.9498  3.4155  0.6821
 8338SOL     OW36472   2.568   3.192   0.212 -0.2637  0.1481 -0.0738
 8338SOL    HW136473   2.582   3.234   0.127 -0.4586  2.7848  1.1751
 8338SOL    HW236474   2.657   3.205   0.246 -0.4554  1.3347 -0.0073
 8339SOL     OW36475   3.183   1.664   1.158 -0.1975 -0.0078  0.1472
 8339SOL    HW136476   3.108   1.698   1.207  2.7304  0.8737  4.0671
 8339SOL    HW236477   3.246   1.733   1.178 -0.0350 -0.3207  0.7453
 8340SOL     OW36478   2.183   4.565   1.467  0.4459  0.2582 -0.0278
 8340SOL    HW136479   2.165   4.481   1.509  1.9513  0.0123  0.1209
 8340SOL    HW236480   2.175   4.628   1.538  1.4305 -0.7711  0.9952
 8341SOL     OW36481   1.057   2.382   8.569 -0.4950  0.4876 -0.2126
 8341SOL    HW136482   0.985   2.428   8.612 -0.4637  3.2196 -3.1107
 8341SOL    HW236483   1.041   2.368   8.476  0.4433  0.4675 -0.3726
 8342SOL     OW36484   3.587   0.687  14.563 -0.5609  0.4798  1.1052
 8342SOL    HW136485   3.622   0.642  14.486 -0.9052 -0.6098  1.5895
 8342SOL    HW236486   3.635   0.641  14.632 -0.2266 -0.6673  0.1076
 8343SOL     OW36487   3.815   3.882   7.049  0.4186  0.1014 -0.3635
 8343SOL    HW136488   3.886   3.819   7.039 -0.7381 -1.3284  0.4218
 8343SOL    HW236489   3.871   3.956   7.075 -1.0961  0.5617  1.6028
 8344SOL     OW36490   3.206   0.624   0.973 -0.1299 -0.0108  0.7541
 8344SOL    HW136491   3.150   0.700   0.979 -1.4816 -1.0850  1.5994
 8344SOL    HW236492   3.245   0.639   0.887  1.4377 -3.8551  0.7879
 8345SOL     OW36493   3.491   1.813   6.093  1.1305  0.0710 -0.8445
 8345SOL    HW136494   3.487   1.843   6.002  1.9229 -1.3855 -1.3650
 8345SOL    HW236495   3.576   1.845   6.124  1.0303  0.7351 -1.2515
 8346SOL     OW36496   2.676   2.788  12.842 -0.8808  0.0040  0.4295
 8346SOL    HW136497   2.657   2.724  12.773 -2.7616  0.1786  0.7656
 8346SOL    HW236498   2.591   2.815  12.877 -0.9797  0.5718 -0.2666
 8347SOL     OW36499   2.711   2.836   7.076  0.0546 -0.5255  0.1190
 8347SOL    HW136500   2.649   2.838   7.150  0.9012  1.0688  0.7801
 8347SOL    HW236501   2.673   2.770   7.017 -0.7759 -1.1408  1.3407
 8348SOL     OW36502   1.768   3.982  11.945 -0.8070 -0.0822 -0.2556
 8348SOL    HW136503   1.731   3.904  11.904  0.3026 -1.3927  1.2262
 8348SOL    HW236504   1.760   3.960  12.037  1.4576  0.5852  0.1104
 8349SOL     OW36505   1.088   3.506   3.513  0.3475  0.3611  0.8459
 8349SOL    HW136506   1.074   3.432   3.572  0.7611  1.0455  1.7932
 8349SOL    HW236507   1.073   3.577   3.576 -2.0366 -0.5005  1.2569
 8350SOL     OW36508   2.008   1.177   8.503 -0.3262  1.1193  0.7202
 8350SOL    HW136509   2.089   1.176   8.555  0.9164  0.7989 -1.2427
 8350SOL    HW236510   1.975   1.088   8.510  1.5946  0.3019 -0.5873
 8351SOL     OW36511   4.246   4.572   5.016 -0.0233  0.1318  0.4537
 8351SOL    HW136512   4.242   4.654   4.966 -1.0033 -0.0631  0.2076
 8351SOL    HW236513   4.164   4.573   5.065  0.6444  1.2136  1.5369
 8352SOL     OW36514   3.019   4.706  10.666  0.7673 -0.1005 -0.1903
 8352SOL    HW136515   3.059   4.625  10.632  0.5280  0.3803 -1.6020
 8352SOL    HW236516   2.931   4.706  10.631  0.3819 -2.1718  0.7520
 8353SOL     OW36517   0.296   4.694   3.593 -0.3603  1.1574  0.5098
 8353SOL    HW136518   0.252   0.048   3.634 -0.1814  2.3552 -1.4904
 8353SOL    HW236519   0.231   4.626   3.609 -1.2724  2.5402  2.6518
 8354SOL     OW36520   1.628   3.407   9.235 -0.5847 -0.7019  0.0879
 8354SOL    HW136521   1.661   3.347   9.302 -0.0890  0.4930  0.9002
 8354SOL    HW236522   1.696   3.474   9.238  0.1403 -1.4934  1.6321
 8355SOL     OW36523   1.249   3.672  17.096  0.6407 -0.7127 -0.5532
 8355SOL    HW136524   1.330   3.721  17.082 -0.8425  2.1053  0.7040
 8355SOL    HW236525   1.281   3.586  17.122  2.2329 -0.1412 -0.6514
 8356SOL     OW36526   2.639   4.195  10.367  0.0786 -0.5598  0.2505
 8356SOL    HW136527   2.712   4.204  10.428  0.6440 -1.4856 -0.2763
 8356SOL    HW236528   2.564   4.168  10.418 -0.5816  0.7806 -0.0030
 8357SOL     OW36529   2.468   0.337   7.399  0.5137  0.4611  0.2027
 8357SOL    HW136530   2.497   0.296   7.481 -2.3614 -0.4180  0.7456
 8357SOL    HW236531   2.407   0.405   7.426  0.0864  0.4942 -0.8538
 8358SOL     OW36532   4.330   0.695  16.855  0.1574  0.3822 -0.4250
 8358SOL    HW136533   4.319   0.778  16.900  3.7791 -0.3427  1.7780
 8358SOL    HW236534   4.242   0.657  16.863  0.5511 -0.5368 -0.5308
 8359SOL     OW36535   1.729   2.783   8.799  0.4257  0.2482  0.3281
 8359SOL    HW136536   1.728   2.848   8.730 -1.7934  1.9364  1.9239
 8359SOL    HW236537   1.804   2.814   8.849  0.0667  2.3483 -0.4550
 8360SOL     OW36538   2.509   1.302   3.363 -0.2411 -0.6590  0.5604
 8360SOL    HW136539   2.583   1.256   3.403  1.7409  1.9669 -0.0841
 8360SOL    HW236540   2.518   1.389   3.401  1.2332 -0.0572 -1.1935
 8361SOL     OW36541   2.535   1.643  13.859  0.1849 -0.1369 -0.1237
 8361SOL    HW136542   2.597   1.605  13.797 -0.3295 -1.4946  0.2003
 8361SOL    HW236543   2.566   1.615  13.945 -0.8907  3.4183  1.4558
 8362SOL     OW36544   4.658   0.390   8.383  0.2815  0.1931  0.1350
 8362SOL    HW136545   4.598   0.394   8.309 -1.9109 -1.7797  1.8140
 8362SOL    HW236546   4.715   0.465   8.363 -1.0243  1.0681 -0.3495
 8363SOL     OW36547   1.093   2.256   2.644  0.4506  0.0265  1.4196
 8363SOL    HW136548   1.161   2.190   2.648  1.7723  1.4279  2.0193
 8363SOL    HW236549   1.135   2.318   2.584  1.9388 -2.0118  0.3414
 8364SOL     OW36550   2.010   2.065   6.421 -0.2178  0.6023  0.0597
 8364SOL    HW136551   2.051   1.988   6.460  0.2732  0.9397  0.2098
 8364SOL    HW236552   1.962   2.035   6.345 -1.0900 -1.4683  1.4265
 8365SOL     OW36553   3.231   3.181   3.952  0.3658  0.0982 -0.1372
 8365SOL    HW136554   3.201   3.164   3.863 -1.1875  2.1302  0.0067
 8365SOL    HW236555   3.151   3.217   3.989 -0.3957 -0.7397 -0.9668
 8366SOL     OW36556   0.057   4.294   0.411  0.4647 -0.5266  0.0547
 8366SOL    HW136557   0.002   4.340   0.346  0.6306 -0.4393 -0.0249
 8366SOL    HW236558   0.032   4.338   0.492  0.3067 -3.3960  1.5306
 8367SOL     OW36559   0.545   2.044   9.692 -0.1215  0.5430 -0.2468
 8367SOL    HW136560   0.523   1.952   9.679  2.1128 -0.1658  0.8901
 8367SOL    HW236561   0.588   2.062   9.608 -1.5328 -0.8029 -1.2597
 8368SOL     OW36562   1.227   4.039  10.684 -0.2726  0.1814  0.1212
 8368SOL    HW136563   1.219   3.944  10.678 -0.5407  0.0159  2.7692
 8368SOL    HW236564   1.192   4.057  10.772  0.0776  0.3458  0.2271
 8369SOL     OW36565   1.945   4.220   8.533  0.1711  0.1389  0.3167
 8369SOL    HW136566   1.931   4.297   8.589  1.7857  1.5489 -1.2338
 8369SOL    HW236567   1.857   4.186   8.517  0.1608  0.4540 -0.2687
 8370SOL     OW36568   1.302   0.152   0.353 -0.6613 -0.5344 -0.4281
 8370SOL    HW136569   1.290   0.157   0.258 -0.7280  1.3139 -0.3279
 8370SOL    HW236570   1.271   0.239   0.379 -0.7719 -2.0867  4.6462
 8371SOL     OW36571   4.127   4.497   1.957  0.0609  0.2439  0.4783
 8371SOL    HW136572   4.069   4.455   1.893 -0.1916  0.9949  0.2203
 8371SOL    HW236573   4.214   4.467   1.929 -0.6162 -0.4760 -0.8807
 8372SOL     OW36574   4.155   3.801  13.274  0.2015 -0.1596  0.4023
 8372SOL    HW136575   4.154   3.774  13.182  1.2949 -2.3842  1.0600
 8372SOL    HW236576   4.251   3.794  13.268  0.5988  0.8679  5.4842
 8373SOL     OW36577   3.171   2.579  10.580  1.1044  0.2124  0.0283
 8373SOL    HW136578   3.250   2.558  10.630 -0.0206 -0.5394  1.5112
 8373SOL    HW236579   3.106   2.533  10.634  1.1373 -0.2227 -0.3051
 8374SOL     OW36580   1.626   4.262   2.751  0.0626 -0.5717 -0.2919
 8374SOL    HW136581   1.642   4.357   2.753  2.6965 -1.0385  1.1391
 8374SOL    HW236582   1.555   4.251   2.814 -0.4721 -1.5177 -1.0551
 8375SOL     OW36583   4.308   1.391   7.693  0.0989  0.0156  0.4234
 8375SOL    HW136584   4.243   1.424   7.631 -0.0863  1.1915  1.2520
 8375SOL    HW236585   4.323   1.464   7.753  0.6975  0.3246 -0.1043
 8376SOL     OW36586   3.714   0.282   3.409  0.6874 -0.5525  0.5273
 8376SOL    HW136587   3.659   0.249   3.337  2.3107 -4.5678  1.1349
 8376SOL    HW236588   3.799   0.275   3.367  0.3782 -0.9429 -0.0430
 8377SOL     OW36589   1.662   4.210  14.777 -0.0899 -0.2138  0.5547
 8377SOL    HW136590   1.637   4.187  14.867 -0.2297  1.0986  0.8427
 8377SOL    HW236591   1.636   4.302  14.780 -0.6269 -0.4618  2.9701
 8378SOL     OW36592   0.031   2.116   3.318 -0.1429 -0.0451 -0.1691
 8378SOL    HW136593   4.665   2.084   3.297 -0.2877  0.5180 -0.4237
 8378SOL    HW236594   0.022   2.185   3.384  0.2358  0.4819 -0.6716
 8379SOL     OW36595   4.633   3.046  15.047 -0.6520 -0.0252  0.5490
 8379SOL    HW136596   4.674   2.961  15.033  0.8310  0.5381  1.4254
 8379SOL    HW236597   4.624   3.052  15.142  0.0456 -2.1438  0.7445
 8380SOL     OW36598   3.365   2.947   3.885  0.6581 -0.4859  0.6494
 8380SOL    HW136599   3.296   2.881   3.880  1.0551 -0.9988  2.1319
 8380SOL    HW236600   3.314   3.020   3.921  3.2748  1.5151  0.2431
 8381SOL     OW36601   1.667   1.574   7.419 -0.3337  0.6739  0.4199
 8381SOL    HW136602   1.699   1.531   7.498  2.4387 -0.5595 -1.3545
 8381SOL    HW236603   1.659   1.496   7.363 -3.1273 -0.2627  2.1366
 8382SOL     OW36604   3.122   2.465   0.333  0.2858  0.0096  0.1986
 8382SOL    HW136605   3.034   2.494   0.309  1.0284 -0.1424 -2.7234
 8382SOL    HW236606   3.144   2.416   0.254 -0.5417  2.0009 -1.2775
 8383SOL     OW36607   0.921   2.832   5.291  0.3970  0.6187 -0.5268
 8383SOL    HW136608   0.990   2.767   5.304 -1.5158 -1.6700 -1.7438
 8383SOL    HW236609   0.866   2.821   5.368  1.2209 -0.5678 -0.1076
 8384SOL     OW36610   4.333   4.599   3.007  0.3105  0.1615  0.2753
 8384SOL    HW136611   4.406   4.571   3.061  0.3755 -0.0848  0.0592
 8384SOL    HW236612   4.350   4.690   2.982  3.4323 -0.6496 -0.5902
 8385SOL     OW36613   2.353   2.423   5.146 -0.1550  0.3821  0.2489
 8385SOL    HW136614   2.413   2.497   5.153  0.4099 -0.3441  3.1197
 8385SOL    HW236615   2.273   2.475   5.139 -0.3071 -0.0074 -0.9221
 8386SOL     OW36616   2.661   0.832   5.524 -0.2532  0.3794  0.4924
 8386SOL    HW136617   2.647   0.859   5.433  0.3964 -1.1900 -0.0756
 8386SOL    HW236618   2.742   0.881   5.539  1.1136 -1.5769 -0.4179
 8387SOL     OW36619   4.435   4.602   1.501 -0.6081 -0.6598  0.0992
 8387SOL    HW136620   4.393   4.554   1.430 -2.7363  1.1043  0.1573
 8387SOL    HW236621   4.375   4.676   1.510 -2.7219 -2.1316 -1.7335
 8388SOL     OW36622   3.531   1.992   2.214  0.3179 -0.0319 -0.7840
 8388SOL    HW136623   3.545   1.898   2.212 -0.0909 -0.1174  0.0704
 8388SOL    HW236624   3.565   2.017   2.128  0.2378  1.4530 -0.3862
 8389SOL     OW36625   4.310   4.250   2.278  0.5035  0.2537  0.1071
 8389SOL    HW136626   4.398   4.224   2.307 -0.4274 -2.9604  0.1027
 8389SOL    HW236627   4.317   4.345   2.271  0.5132  0.2731  0.3710
 8390SOL     OW36628   2.300   3.181   5.091  0.1510  0.1230  1.0622
 8390SOL    HW136629   2.331   3.226   5.012 -1.4749 -1.7052 -0.6227
 8390SOL    HW236630   2.358   3.217   5.158  1.2941 -2.4769  1.4443
 8391SOL     OW36631   0.784   3.470   2.398 -0.3441  0.2316 -0.0412
 8391SOL    HW136632   0.698   3.430   2.385  0.4660 -1.1453 -1.1068
 8391SOL    HW236633   0.831   3.458   2.316 -1.4275  2.3214 -0.9753
 8392SOL     OW36634   4.381   0.377   3.702  0.1027 -0.0091 -0.3763
 8392SOL    HW136635   4.359   0.458   3.748 -1.1375 -0.1404 -0.7530
 8392SOL    HW236636   4.383   0.319   3.778 -0.4506 -0.3767 -0.6439
 8393SOL     OW36637   1.223   4.155   1.409  0.3920 -0.2433  0.4061
 8393SOL    HW136638   1.199   4.064   1.392 -3.0377  0.5152  1.0147
 8393SOL    HW236639   1.163   4.206   1.354  1.5631  1.0018  0.2747
 8394SOL     OW36640   0.444   4.257   2.727  0.1262  0.4768  0.7587
 8394SOL    HW136641   0.436   4.323   2.795 -1.3635 -0.2519  1.3015
 8394SOL    HW236642   0.531   4.219   2.735 -0.6271 -1.2121  1.0175
 8395SOL     OW36643   3.366   3.650   4.813  0.0143 -0.4582  0.8621
 8395SOL    HW136644   3.458   3.673   4.802  0.1934 -1.6052 -0.1415
 8395SOL    HW236645   3.354   3.650   4.908  1.4681 -0.0865  1.0431
 8396SOL     OW36646   4.241   3.621  15.429  0.5878  0.5293 -0.6043
 8396SOL    HW136647   4.254   3.560  15.501  0.6141  0.6529 -0.5039
 8396SOL    HW236648   4.146   3.632  15.437  0.6501  1.1414 -0.6565
 8397SOL     OW36649   0.926   2.392   9.527  0.0466  0.5531 -0.2512
 8397SOL    HW136650   0.933   2.427   9.438  0.3481 -1.6163 -1.0782
 8397SOL    HW236651   0.928   2.475   9.574  2.1236  2.7477 -4.1334
 8398SOL     OW36652   3.710   2.142   5.465  0.2733 -0.9178 -0.4853
 8398SOL    HW136653   3.722   2.231   5.431  0.7859 -0.0195  2.1209
 8398SOL    HW236654   3.649   2.102   5.403 -1.6459 -1.0401  1.5275
 8399SOL     OW36655   1.400   3.694  14.986  0.1577 -0.9974 -0.1581
 8399SOL    HW136656   1.428   3.615  15.034 -0.8236 -3.2177 -3.2195
 8399SOL    HW236657   1.466   3.756  15.017 -1.0570  0.7739 -1.1363
 8400SOL     OW36658   3.954   1.904  16.428 -0.2060  0.4167  0.0409
 8400SOL    HW136659   3.914   1.959  16.496  1.2426  0.6081  0.7411
 8400SOL    HW236660   3.917   1.817  16.443 -0.0592  0.3679  0.1223
 8401SOL     OW36661   1.348   1.061   7.765 -0.2564  0.2245  0.5625
 8401SOL    HW136662   1.441   1.074   7.748  0.1118 -0.0011  2.4773
 8401SOL    HW236663   1.339   0.968   7.742  1.5524 -0.2262  1.7441
 8402SOL     OW36664   2.045   1.141   6.067 -0.4224 -0.2059 -0.1620
 8402SOL    HW136665   2.115   1.131   6.002 -1.0905  3.0863 -1.3704
 8402SOL    HW236666   1.968   1.120   6.015 -0.6213 -0.2549  0.1478
 8403SOL     OW36667   3.533   3.080  12.074 -0.1537  0.0355  0.1287
 8403SOL    HW136668   3.453   3.129  12.092 -1.1870 -1.4137 -0.4903
 8403SOL    HW236669   3.561   3.067  12.165  1.3034  0.6768 -0.2334
 8404SOL     OW36670   1.244   1.699   3.063 -0.4228  0.2256 -0.4548
 8404SOL    HW136671   1.249   1.649   2.981 -0.3286  0.6875 -0.7357
 8404SOL    HW236672   1.322   1.677   3.114 -0.8799 -0.9361 -0.2445
 8405SOL     OW36673   1.072   4.704   4.280  0.3796  0.8333  0.0416
 8405SOL    HW136674   1.037   4.718   4.367  2.5361 -0.3533  1.1083
 8405SOL    HW236675   0.991   4.672   4.241 -0.5770  1.7790  1.2708
 8406SOL     OW36676   0.797   1.232   2.136 -0.2158  0.2450  0.1882
 8406SOL    HW136677   0.765   1.180   2.210  1.6818  0.0066  0.8558
 8406SOL    HW236678   0.762   1.321   2.141 -0.9204 -0.0701  0.7268
 8407SOL     OW36679   2.528   3.593   6.420 -0.3955 -0.6320  0.2890
 8407SOL    HW136680   2.524   3.676   6.372  0.4484 -1.5935 -1.4775
 8407SOL    HW236681   2.514   3.637   6.504 -2.1799  1.2738 -0.9916
 8408SOL     OW36682   3.251   1.104   0.146  0.1420  0.0117  0.2289
 8408SOL    HW136683   3.255   1.190   0.188  0.4095  0.3324 -0.4530
 8408SOL    HW236684   3.344   1.104   0.123  0.3288  1.8532  0.9825
 8409SOL     OW36685   0.208   0.736   2.229  0.0458  0.1191  0.7434
 8409SOL    HW136686   0.248   0.653   2.203  0.4596  1.0966 -1.7295
 8409SOL    HW236687   0.272   0.766   2.294  1.9788 -1.5528 -0.3814
 8410SOL     OW36688   0.174   0.922   9.942  0.0623  0.5586 -0.1169
 8410SOL    HW136689   0.169   0.902  10.035  0.7531 -1.4836 -0.5231
 8410SOL    HW236690   0.166   0.832   9.913  0.5824  1.0072 -1.6559
 8411SOL     OW36691   1.111   0.192   8.757  0.3881 -0.0277  0.5428
 8411SOL    HW136692   1.038   0.199   8.695 -0.4831 -0.7358  1.4808
 8411SOL    HW236693   1.061   0.169   8.836 -0.1350 -2.2587 -0.4378
 8412SOL     OW36694   1.086   2.002   6.949  0.6116 -0.3451  0.4530
 8412SOL    HW136695   1.067   1.909   6.957 -0.4561 -0.0735  1.0191
 8412SOL    HW236696   1.021   2.030   7.014 -1.0657 -0.7593 -1.0533
 8413SOL     OW36697   0.043   2.766   8.780 -0.2798 -0.1629  0.3279
 8413SOL    HW136698   0.083   2.722   8.856  0.1129 -1.4956 -0.6517
 8413SOL    HW236699   4.692   2.814   8.821 -0.0400  2.0158 -1.8727
 8414SOL     OW36700   3.459   1.451  16.972  0.3745  0.1632 -0.5838
 8414SOL    HW136701   3.419   1.448  17.059  1.8030  0.9958  0.0886
 8414SOL    HW236702   3.478   1.361  16.945 -0.2463 -0.2534  0.3599
 8415SOL     OW36703   1.396   3.145   4.132 -0.1166  0.7707 -0.0631
 8415SOL    HW136704   1.487   3.125   4.154  0.0003  1.9492  0.5159
 8415SOL    HW236705   1.351   3.113   4.211  1.5457 -1.7644 -0.1384
 8416SOL     OW36706   1.281   0.822   4.881 -0.0756 -0.0277  0.2256
 8416SOL    HW136707   1.268   0.777   4.798 -2.3053  0.5943  0.2384
 8416SOL    HW236708   1.299   0.910   4.847 -1.8597 -0.0077 -0.6596
 8417SOL     OW36709   2.540   2.227   8.308  0.2043 -0.1829 -0.6731
 8417SOL    HW136710   2.591   2.226   8.388 -1.2867 -1.6315  0.2490
 8417SOL    HW236711   2.594   2.178   8.246  0.9521 -1.6496  1.1676
 8418SOL     OW36712   3.866   2.660   4.454 -0.1569 -0.0561 -0.0770
 8418SOL    HW136713   3.894   2.620   4.373  0.6952 -2.1609  1.2644
 8418SOL    HW236714   3.812   2.596   4.500 -1.3557 -0.7808 -2.5408
 8419SOL     OW36715   0.734   1.570   4.925  0.1243  0.7406 -0.1350
 8419SOL    HW136716   0.750   1.554   4.832 -1.1611  0.3795 -0.2853
 8419SOL    HW236717   0.696   1.484   4.945  2.6979 -0.6419 -1.1894
 8420SOL     OW36718   0.372   3.118  16.697 -0.4581 -0.2123  0.4781
 8420SOL    HW136719   0.345   3.089  16.784  2.9267 -3.3323  0.4601
 8420SOL    HW236720   0.288   3.148  16.660  0.3540  0.6080 -0.7218
 8421SOL     OW36721   0.938   2.049   2.166 -0.3871 -0.1237  1.1131
 8421SOL    HW136722   0.872   2.112   2.194 -1.7482  0.3166 -3.1259
 8421SOL    HW236723   0.896   1.968   2.195 -0.2942 -1.2743 -1.9980
 8422SOL     OW36724   3.200   2.994  10.002  0.5529 -0.1492  0.5395
 8422SOL    HW136725   3.290   3.027  10.005 -0.0512  1.6041 -0.6854
 8422SOL    HW236726   3.184   3.027   9.913  3.7118  0.6426  0.2471
 8423SOL     OW36727   3.586   2.146   8.074 -0.1305 -0.0317 -0.2366
 8423SOL    HW136728   3.640   2.120   8.149 -1.3914  2.2643  1.4475
 8423SOL    HW236729   3.619   2.235   8.064  1.2767 -0.9070 -3.3268
 8424SOL     OW36730   3.881   4.238  12.214  0.0532  0.7254 -0.3723
 8424SOL    HW136731   3.900   4.181  12.290 -0.5381 -0.5313 -1.1608
 8424SOL    HW236732   3.893   4.329  12.242 -2.8281  0.8211  0.5398
 8425SOL     OW36733   2.694   4.345   4.550 -0.0562 -0.2314  0.5468
 8425SOL    HW136734   2.694   4.373   4.642  1.6367 -0.1727  0.5183
 8425SOL    HW236735   2.761   4.277   4.557  0.3900  0.1242 -0.2134
 8426SOL     OW36736   1.468   1.909   3.692 -0.5597 -0.5810  0.1382
 8426SOL    HW136737   1.541   1.863   3.650 -1.7141 -0.4826 -1.9894
 8426SOL    HW236738   1.405   1.836   3.692 -0.4064 -0.7113  0.2670
 8427SOL     OW36739   1.157   3.573  15.089  0.2540 -0.0275 -0.7260
 8427SOL    HW136740   1.211   3.517  15.145 -0.8016  0.4226  0.7407
 8427SOL    HW236741   1.225   3.621  15.041 -1.3881  1.9577 -1.0793
 8428SOL     OW36742   2.390   4.058   4.508 -0.6867  0.2589 -0.4049
 8428SOL    HW136743   2.304   4.022   4.531 -0.0114 -1.2762 -0.2896
 8428SOL    HW236744   2.388   4.069   4.413  0.7939 -0.9566 -0.5815
 8429SOL     OW36745   2.859   1.632   6.413  0.2486  0.6374  0.2343
 8429SOL    HW136746   2.828   1.628   6.503 -0.4460 -0.6049 -0.0639
 8429SOL    HW236747   2.788   1.599   6.359  1.2623 -0.0017 -0.7114
 8430SOL     OW36748   3.953   2.611   5.538  0.0911  0.3766 -0.1446
 8430SOL    HW136749   3.906   2.545   5.589  1.4124 -0.5568 -0.1675
 8430SOL    HW236750   3.880   2.629   5.478 -0.4121 -2.0787 -0.2728
 8431SOL     OW36751   2.796   2.587   3.737 -0.3158  0.4357  0.0163
 8431SOL    HW136752   2.765   2.645   3.668  0.7254  1.6054  0.5343
 8431SOL    HW236753   2.869   2.545   3.692  0.1834  1.3184  0.0007
 8432SOL     OW36754   2.230   4.215   8.888  0.1346 -0.3698 -0.0365
 8432SOL    HW136755   2.169   4.252   8.952 -0.1887 -0.0712 -0.5124
 8432SOL    HW236756   2.309   4.269   8.897 -0.8309  1.2911 -1.5233
 8433SOL     OW36757   1.518   3.582   3.518 -0.4206  0.2471  0.6760
 8433SOL    HW136758   1.589   3.621   3.568  1.7229 -0.9135 -1.4752
 8433SOL    HW236759   1.558   3.580   3.431  0.8401  0.4966  1.2586
 8434SOL     OW36760   0.435   1.615  16.907  0.8035 -0.0586  0.1571
 8434SOL    HW136761   0.422   1.710  16.910 -1.0923 -0.2892 -0.3767
 8434SOL    HW236762   0.431   1.587  16.815  1.1186 -1.1218  0.4761
 8435SOL     OW36763   1.146   2.934   5.831 -0.3764  0.2190  0.1928
 8435SOL    HW136764   1.149   2.966   5.921  0.0621 -1.3254  0.7325
 8435SOL    HW236765   1.056   2.906   5.812  0.3936 -1.4520 -1.0211
 8436SOL     OW36766   2.219   1.478  11.797  0.0838 -0.4980  0.0817
 8436SOL    HW136767   2.234   1.384  11.796  0.3225 -0.4567 -0.3670
 8436SOL    HW236768   2.309   1.504  11.819 -0.8395  0.8943  2.1953
 8437SOL     OW36769   1.570   2.962  13.456  0.0204  0.5694  0.0810
 8437SOL    HW136770   1.531   2.888  13.502  1.6773  0.6293  1.5654
 8437SOL    HW236771   1.642   2.984  13.515  1.1721  0.7183 -1.3633
 8438SOL     OW36772   1.732   0.836  12.719  0.0669 -0.7417  0.4151
 8438SOL    HW136773   1.715   0.744  12.701 -1.4526 -0.2120 -0.7740
 8438SOL    HW236774   1.681   0.873  12.791 -0.2176  0.6738 -0.5200
 8439SOL     OW36775   0.765   3.194   3.652  0.4888  0.0459  0.0843
 8439SOL    HW136776   0.671   3.211   3.641  0.3751 -1.4148 -1.2281
 8439SOL    HW236777   0.800   3.232   3.571 -1.6490  2.3025  0.1936
 8440SOL     OW36778   1.830   2.408   9.239  0.2896 -0.2750  0.1465
 8440SOL    HW136779   1.803   2.357   9.315  0.1802 -0.1514  0.1905
 8440SOL    HW236780   1.769   2.376   9.172  1.3063 -2.2260  0.1414
 8441SOL     OW36781   1.059   4.333   1.627  0.1096 -0.1650  0.4532
 8441SOL    HW136782   1.011   4.310   1.547 -3.5306  0.6822  2.3634
 8441SOL    HW236783   1.117   4.401   1.592 -1.4122 -0.2429 -2.2375
 8442SOL     OW36784   2.420   0.596   4.902  0.5609 -0.5407 -0.4135
 8442SOL    HW136785   2.430   0.685   4.869  0.0578 -0.4170 -0.2377
 8442SOL    HW236786   2.360   0.606   4.976 -1.2571 -1.6362 -1.7418
 8443SOL     OW36787   2.678   1.140   6.504 -0.5832  0.5390 -0.5138
 8443SOL    HW136788   2.685   1.122   6.597  1.2138  1.4904 -0.4507
 8443SOL    HW236789   2.770   1.120   6.483 -0.5606  0.2155 -0.1129
 8444SOL     OW36790   0.030   2.320   8.053  0.4478 -0.9220 -0.4118
 8444SOL    HW136791   0.052   2.412   8.063 -2.5942 -0.1912 -0.3932
 8444SOL    HW236792   4.704   2.302   8.135 -1.6896  0.7870 -1.2886
 8445SOL     OW36793   3.509   4.293   2.145  0.0684  0.0985  0.6829
 8445SOL    HW136794   3.434   4.234   2.149  0.4283 -0.4352 -0.4377
 8445SOL    HW236795   3.471   4.372   2.105 -2.8169 -2.1497 -1.0410
 8446SOL     OW36796   4.201   0.806   5.830  0.6929 -0.5043 -0.0364
 8446SOL    HW136797   4.184   0.799   5.736  2.1154  0.6705 -0.3907
 8446SOL    HW236798   4.216   0.715   5.853  0.2175 -1.0676 -1.9496
 8447SOL     OW36799   4.161   0.972   6.068 -0.3005  0.5509 -0.5998
 8447SOL    HW136800   4.176   0.951   5.976 -1.5500 -2.8317 -0.0278
 8447SOL    HW236801   4.219   1.043   6.098 -1.0098 -0.2719  2.7271
 8448SOL     OW36802   2.363   1.710   6.902 -0.1619  0.4801  0.2219
 8448SOL    HW136803   2.279   1.754   6.888 -2.3034 -2.9833  2.1949
 8448SOL    HW236804   2.319   1.649   6.961 -1.8614  1.9668  0.4891
 8449SOL     OW36805   3.267   3.239  12.216  0.0908 -0.4957 -0.4578
 8449SOL    HW136806   3.195   3.213  12.273  0.4984  1.4565  0.9585
 8449SOL    HW236807   3.300   3.307  12.274 -0.7792 -2.0517  1.8540
 8450SOL     OW36808   2.814   3.415   8.919  0.4295  0.0087 -1.0788
 8450SOL    HW136809   2.729   3.395   8.880 -0.1005 -1.0988  0.6328
 8450SOL    HW236810   2.871   3.342   8.896  0.6126 -1.5363  4.3151
 8451SOL     OW36811   3.940   4.590  14.083  0.2515 -0.2222 -0.3120
 8451SOL    HW136812   3.996   4.515  14.063  0.3233 -1.3727  4.1254
 8451SOL    HW236813   3.946   4.649  14.008  0.2787  0.9231  0.5744
 8452SOL     OW36814   3.420   0.755  12.245 -0.2173  0.0421 -0.2113
 8452SOL    HW136815   3.488   0.803  12.293  0.0595 -0.1796 -0.3851
 8452SOL    HW236816   3.437   0.673  12.291  0.5150  0.7253  0.7477
 8453SOL     OW36817   2.522   4.532   6.549  0.0853 -0.1697  0.6557
 8453SOL    HW136818   2.438   4.487   6.560  0.1716 -1.3159 -3.1932
 8453SOL    HW236819   2.578   4.455   6.561 -1.8358 -1.5495  0.8702
 8454SOL     OW36820   3.154   0.644   7.976 -0.2042 -0.4321  0.6881
 8454SOL    HW136821   3.248   0.637   7.958 -0.5234 -4.2563  0.4382
 8454SOL    HW236822   3.118   0.629   7.888  0.2291 -0.0189  0.4401
 8455SOL     OW36823   2.076   3.750  13.307  0.0576  0.5605  0.1570
 8455SOL    HW136824   2.097   3.807  13.381  0.6140 -0.9653  1.1869
 8455SOL    HW236825   2.145   3.683  13.314  1.1765  1.7975  1.0305
 8456SOL     OW36826   1.528   1.547  12.997 -0.1322  0.4121 -0.3204
 8456SOL    HW136827   1.460   1.551  12.930  0.5100  2.5569 -0.8389
 8456SOL    HW236828   1.585   1.477  12.965  0.5538  0.7329  0.1816
 8457SOL     OW36829   4.592   1.515   7.046 -0.4744 -0.4784  0.2223
 8457SOL    HW136830   4.620   1.430   7.010 -1.3522 -0.7483  0.1844
 8457SOL    HW236831   4.668   1.554   7.089 -1.2370  1.3303 -0.0736
 8458SOL     OW36832   3.334   0.504   2.668 -0.5638 -0.1336 -0.2297
 8458SOL    HW136833   3.410   0.550   2.633 -0.3547 -1.2221 -1.2092
 8458SOL    HW236834   3.276   0.576   2.691 -0.2915  0.9478 -2.9890
 8459SOL     OW36835   0.367   0.546  11.808 -0.1969 -0.1545  0.0805
 8459SOL    HW136836   0.356   0.553  11.903 -0.3119  3.1642 -0.1754
 8459SOL    HW236837   0.434   0.479  11.799  1.1367  1.3611 -1.1489
 8460SOL     OW36838   0.810   2.742   3.228 -0.2416  0.7652 -0.3443
 8460SOL    HW136839   0.728   2.702   3.199  0.9174 -2.7790  1.2672
 8460SOL    HW236840   0.769   2.795   3.296 -0.3133  1.4562 -0.9175
 8461SOL     OW36841   4.362   1.102   7.110 -0.6973 -0.0766  0.3824
 8461SOL    HW136842   4.372   1.118   7.204 -1.6767  2.7341 -0.0038
 8461SOL    HW236843   4.385   1.009   7.115 -0.5957 -0.0044  1.2967
 8462SOL     OW36844   3.912   3.310   5.769 -0.2815 -0.2394 -0.1384
 8462SOL    HW136845   3.869   3.342   5.690  1.0672 -0.9866 -1.1769
 8462SOL    HW236846   3.963   3.235   5.738  2.9678  1.9829 -0.1433
 8463SOL     OW36847   4.046   0.296   1.881 -0.7760 -0.2368 -0.1206
 8463SOL    HW136848   4.073   0.227   1.820  0.8253 -0.7299  1.1448
 8463SOL    HW236849   4.077   0.252   1.960 -2.7034 -1.2662  0.0491
 8464SOL     OW36850   2.230   1.159   5.029 -0.4466 -0.3446 -0.5285
 8464SOL    HW136851   2.178   1.087   5.066  0.7108 -0.7079  0.3934
 8464SOL    HW236852   2.201   1.147   4.938 -0.2957 -1.9427 -0.3745
 8465SOL     OW36853   0.280   1.755  14.279 -0.2259 -0.0067  0.4124
 8465SOL    HW136854   0.300   1.770  14.372 -3.3332 -0.6375  1.1923
 8465SOL    HW236855   0.324   1.671  14.265  0.4259  0.4085 -0.0026
 8466SOL     OW36856   3.309   0.813   4.752 -0.6446  0.2307  0.2944
 8466SOL    HW136857   3.369   0.763   4.696  0.2370  1.4054  0.1909
 8466SOL    HW236858   3.282   0.738   4.804 -0.0687  0.3040  0.6983
 8467SOL     OW36859   4.187   3.111   1.220  0.4951 -0.1083 -0.3641
 8467SOL    HW136860   4.270   3.086   1.180  1.8130  2.7239  0.5965
 8467SOL    HW236861   4.221   3.175   1.283 -1.9908  1.0523 -0.1969
 8468SOL     OW36862   2.948   2.274   3.070  0.1001 -0.0009 -0.5795
 8468SOL    HW136863   3.011   2.202   3.068 -1.0314 -0.9513 -1.7477
 8468SOL    HW236864   2.872   2.234   3.028 -0.3094 -0.1521  0.3169
 8469SOL     OW36865   4.358   3.079  10.062  0.1630 -0.4820  0.4533
 8469SOL    HW136866   4.280   3.024  10.064 -0.8689  1.0753  2.4071
 8469SOL    HW236867   4.315   3.161  10.087  0.5379 -0.9356  2.5485
 8470SOL     OW36868   3.120   1.066   3.504  0.0496  0.0616 -0.2327
 8470SOL    HW136869   3.132   1.025   3.589 -1.6350  0.8118  0.3701
 8470SOL    HW236870   3.089   1.153   3.528 -0.4452  0.1466 -1.1601
 8471SOL     OW36871   1.216   1.694   6.908 -0.0316 -0.0226  0.1303
 8471SOL    HW136872   1.287   1.657   6.856 -0.2838 -1.6284  0.9537
 8471SOL    HW236873   1.230   1.785   6.882  0.0905 -0.1024 -0.0829
 8472SOL     OW36874   1.788   2.421   4.433  1.0156 -0.0567  0.0602
 8472SOL    HW136875   1.858   2.373   4.388  0.4748  0.7481 -1.6371
 8472SOL    HW236876   1.809   2.512   4.417  0.5968 -0.1290 -0.8944
 8473SOL     OW36877   3.185   3.800  10.203  0.7507 -0.4140  0.1045
 8473SOL    HW136878   3.126   3.780  10.130 -0.9057 -0.0444  1.3286
 8473SOL    HW236879   3.262   3.819  10.150  0.2040  0.7704 -0.2698
 8474SOL     OW36880   1.030   4.366   0.664  0.3201  0.2233  0.5162
 8474SOL    HW136881   1.126   4.360   0.665  0.5692  4.0669 -0.7382
 8474SOL    HW236882   1.020   4.297   0.599  2.3402 -0.2835  0.7373
 8475SOL     OW36883   0.466   2.860   6.123 -0.0389 -0.7899 -0.2206
 8475SOL    HW136884   0.526   2.826   6.056 -0.3024 -2.2023  0.2627
 8475SOL    HW236885   0.466   2.795   6.194 -0.2905 -0.8768 -0.3017
 8476SOL     OW36886   4.348   0.626   7.769 -0.0404 -0.7008  0.6036
 8476SOL    HW136887   4.436   0.593   7.790 -0.9835 -2.1059  2.3836
 8476SOL    HW236888   4.313   0.645   7.856  0.2342 -0.3438  0.6372
 8477SOL     OW36889   2.049   2.386   5.311 -0.7365  0.2433  0.1744
 8477SOL    HW136890   2.046   2.469   5.359  2.3741  0.4034  0.0955
 8477SOL    HW236891   1.984   2.406   5.243 -3.9980 -1.6132  2.7584
 8478SOL     OW36892   4.660   1.469   5.524 -0.1982 -0.6503  0.0949
 8478SOL    HW136893   4.584   1.415   5.502 -0.0996 -0.6459 -0.2604
 8478SOL    HW236894   4.621   1.552   5.550 -0.8037 -1.2599  1.1139
 8479SOL     OW36895   2.493   1.983   7.089  0.0085 -0.2826  0.0690
 8479SOL    HW136896   2.517   1.925   7.017  0.8780 -0.4986  0.5353
 8479SOL    HW236897   2.577   2.026   7.104  0.0458 -0.4899  0.4515
 8480SOL     OW36898   0.353   1.514   3.557  0.0277  0.3189 -0.0206
 8480SOL    HW136899   0.403   1.521   3.638  1.5158  0.2050 -0.9251
 8480SOL    HW236900   0.356   1.608   3.537  0.6909  0.2261 -0.3617
 8481SOL     OW36901   1.730   1.214  10.189 -0.7368  0.3981 -0.7281
 8481SOL    HW136902   1.642   1.193  10.221  0.4023 -0.6053  1.7174
 8481SOL    HW236903   1.746   1.295  10.237 -0.5759 -0.8479  1.3381
 8482SOL     OW36904   1.106   3.781   7.495 -0.0325  0.0779  0.7251
 8482SOL    HW136905   1.038   3.773   7.428 -0.6865  1.7999  1.1796
 8482SOL    HW236906   1.179   3.742   7.447  0.6451  0.8779  1.1052
 8483SOL     OW36907   3.111   0.290   7.700 -0.6403  0.0674 -0.5204
 8483SOL    HW136908   3.093   0.383   7.688 -0.1435  0.3776  1.1217
 8483SOL    HW236909   3.070   0.241   7.629 -0.7609 -0.9207  0.2214
 8484SOL     OW36910   2.192   1.968   8.261  0.5215 -0.7205 -0.7373
 8484SOL    HW136911   2.162   1.888   8.217 -1.0068 -1.3099  1.3860
 8484SOL    HW236912   2.283   1.937   8.264  0.0716 -2.0436 -0.9622
 8485SOL     OW36913   3.847   4.241   3.966  0.4975  0.1608 -0.3642
 8485SOL    HW136914   3.895   4.166   3.931 -0.6473 -1.9116  2.5383
 8485SOL    HW236915   3.908   4.311   3.944 -0.3552  0.6521 -1.1581
 8486SOL     OW36916   2.598   1.262   4.611  0.0413 -0.1183 -0.1274
 8486SOL    HW136917   2.600   1.351   4.577 -3.6954  0.3500  0.8693
 8486SOL    HW236918   2.602   1.282   4.704 -0.4396 -0.6538  0.0103
 8487SOL     OW36919   1.523   2.372  12.654 -0.0108 -0.0739  0.1287
 8487SOL    HW136920   1.588   2.377  12.583 -0.9671 -0.4029 -0.7769
 8487SOL    HW236921   1.463   2.310  12.612 -0.5237 -0.7022  1.7942
 8488SOL     OW36922   4.021   3.421   6.508  0.5323 -0.3148 -0.0657
 8488SOL    HW136923   4.021   3.400   6.601 -2.7995  0.6750  0.1432
 8488SOL    HW236924   4.115   3.432   6.490  0.3495  1.7388  0.2622
 8489SOL     OW36925   2.027   2.731  10.209  0.0162 -0.6127 -0.5803
 8489SOL    HW136926   2.082   2.805  10.234 -0.7664  0.1044 -0.9545
 8489SOL    HW236927   2.059   2.720  10.119 -0.9330 -1.2747 -0.8360
 8490SOL     OW36928   2.826   2.293  11.475  0.0914 -0.2030  0.5125
 8490SOL    HW136929   2.873   2.258  11.400  2.0798 -0.9448  2.1210
 8490SOL    HW236930   2.889   2.283  11.547  1.9394  0.8692 -0.9634
 8491SOL     OW36931   0.692   2.883   6.656 -0.8573 -0.2582  0.7706
 8491SOL    HW136932   0.600   2.855   6.662 -0.2948 -1.8428  1.8450
 8491SOL    HW236933   0.695   2.962   6.601  1.2004 -1.0782 -0.2661
 8492SOL     OW36934   3.745   0.473   1.803 -0.1071 -0.0018 -0.0282
 8492SOL    HW136935   3.662   0.512   1.776  0.1990  1.7720  1.5927
 8492SOL    HW236936   3.755   0.409   1.733 -0.4247  0.1232 -0.1878
 8493SOL     OW36937   3.453   0.642   4.618  0.3584  0.0748  0.3152
 8493SOL    HW136938   3.444   0.547   4.609 -3.1180  0.2365  2.0355
 8493SOL    HW236939   3.546   0.645   4.640 -0.1897 -0.8801  2.6824
 8494SOL     OW36940   2.596   3.765   7.734 -0.3529  0.3727  0.4121
 8494SOL    HW136941   2.576   3.672   7.750 -0.3772  0.7493  2.5426
 8494SOL    HW236942   2.677   3.754   7.684 -0.8275  0.0109 -0.2772
 8495SOL     OW36943   0.448   1.492   7.586 -0.1664  0.1185 -0.1854
 8495SOL    HW136944   0.444   1.413   7.639  0.0301  1.1393  1.3818
 8495SOL    HW236945   0.385   1.547   7.633 -0.8846 -0.6402 -0.2657
 8496SOL     OW36946   3.578   4.127   8.050  0.4319  0.5271  0.0245
 8496SOL    HW136947   3.503   4.185   8.056 -0.4377 -0.6642  0.5441
 8496SOL    HW236948   3.656   4.179   8.070  1.3606 -0.1316 -1.8467
 8497SOL     OW36949   3.694   1.295   5.713  0.2941 -0.5574  0.9308
 8497SOL    HW136950   3.622   1.262   5.660 -0.7247  1.6107  0.9728
 8497SOL    HW236951   3.758   1.224   5.722  0.7309 -0.3945 -1.0089
 8498SOL     OW36952   3.410   2.166   5.096 -0.3090  0.0138 -0.3875
 8498SOL    HW136953   3.386   2.198   5.183  3.0478  2.1565 -0.2550
 8498SOL    HW236954   3.331   2.119   5.068 -0.4701  0.4218 -0.6158
 8499SOL     OW36955   3.208   3.767   0.855  0.2361 -0.5860 -0.2638
 8499SOL    HW136956   3.176   3.850   0.822 -2.0993 -2.3749 -2.4982
 8499SOL    HW236957   3.303   3.784   0.858  0.1315 -0.1121  0.2759
 8500SOL     OW36958   2.851   1.480  15.502  0.3529 -0.6402  0.5281
 8500SOL    HW136959   2.892   1.393  15.497  0.4048 -0.4960 -1.7517
 8500SOL    HW236960   2.778   1.457  15.559 -1.1382  0.7789 -0.8419
 8501SOL     OW36961   2.683   1.438   3.597  0.1548 -0.4182 -0.2383
 8501SOL    HW136962   2.641   1.510   3.550 -1.0298 -0.3588  0.9073
 8501SOL    HW236963   2.773   1.442   3.566  0.1119  0.6368 -0.2286
 8502SOL     OW36964   3.089   1.920   7.462  0.3298  0.0818  0.5598
 8502SOL    HW136965   3.009   1.945   7.509 -0.2011  0.9181 -0.7673
 8502SOL    HW236966   3.093   1.825   7.462  0.7081  0.1009  1.9516
 8503SOL     OW36967   3.359   4.508   2.024 -0.4055  0.3828  0.5702
 8503SOL    HW136968   3.276   4.473   1.992 -0.6055 -0.2009  1.7240
 8503SOL    HW236969   3.390   4.566   1.955 -0.5831 -2.9575 -2.3299
 8504SOL     OW36970   4.713   2.498   1.873  0.1963 -0.1362  0.0100
 8504SOL    HW136971   4.665   2.579   1.854  1.7516  0.7395 -0.1492
 8504SOL    HW236972   4.645   2.446   1.830  0.0458 -1.5020  1.9295
 8505SOL     OW36973   3.339   4.312   8.451 -0.0633  0.2095  0.5863
 8505SOL    HW136974   3.281   4.323   8.376 -1.2048  1.4986  1.6597
 8505SOL    HW236975   3.374   4.226   8.425  0.2276  0.8039 -0.9569
 8506SOL     OW36976   3.103   0.792  14.415  0.0059  0.1253  0.4523
 8506SOL    HW136977   3.109   0.732  14.489 -1.1964 -2.0251 -1.2055
 8506SOL    HW236978   3.190   0.776  14.378 -0.2903 -1.4375  0.4390
 8507SOL     OW36979   4.331   3.319   4.763 -0.1129 -0.2973 -0.1728
 8507SOL    HW136980   4.359   3.369   4.686 -0.7696 -0.7223 -0.6964
 8507SOL    HW236981   4.400   3.254   4.771 -1.7486 -1.6193  3.1409
 8508SOL     OW36982   1.019   1.468   4.279  0.4678  0.2920 -0.4361
 8508SOL    HW136983   1.027   1.546   4.333  0.7957  0.3665 -0.5993
 8508SOL    HW236984   1.098   1.422   4.306  0.5366  0.7753  0.1685
 8509SOL     OW36985   3.689   3.711   4.797  0.0199  0.0336 -0.4109
 8509SOL    HW136986   3.699   3.658   4.876  3.7612 -0.9999 -1.5825
 8509SOL    HW236987   3.668   3.636   4.741  1.7917  0.1592 -1.2107
 8510SOL     OW36988   2.697   1.795   6.130 -0.1045 -0.8592  0.2695
 8510SOL    HW136989   2.656   1.719   6.172  2.2209 -0.6537  2.9312
 8510SOL    HW236990   2.642   1.863   6.169 -1.8160 -2.6327  1.0216
 8511SOL     OW36991   1.177   4.633   8.445  0.0446  0.4795 -0.2223
 8511SOL    HW136992   1.240   4.667   8.508 -0.0862  3.1302 -1.5374
 8511SOL    HW236993   1.101   4.691   8.449 -0.3314 -0.1405  1.5622
 8512SOL     OW36994   3.922   0.171   7.126 -0.3734 -0.1175  0.2805
 8512SOL    HW136995   3.970   0.222   7.192  0.1937 -0.8806  0.4567
 8512SOL    HW236996   3.965   0.207   7.049  0.3015  0.8115  1.0929
 8513SOL     OW36997   3.993   2.975   0.229 -0.4243 -0.3230 -0.1196
 8513SOL    HW136998   4.045   3.001   0.153 -1.5712  1.4023 -0.3195
 8513SOL    HW236999   4.060   2.972   0.297  0.3901 -0.6704 -0.9336
 8514SOL     OW37000   0.357   1.214   3.420  0.2506 -0.5771 -0.1265
 8514SOL    HW137001   0.281   1.243   3.469  1.8775  3.4346 -0.0071
 8514SOL    HW237002   0.364   1.285   3.356 -1.7081 -1.2013 -1.0282
 8515SOL     OW37003   0.591   4.647   3.481  0.1480 -0.4863 -0.0213
 8515SOL    HW137004   0.582   4.563   3.437  0.0765  1.4168 -3.6393
 8515SOL    HW237005   0.513   4.656   3.535 -0.6559  1.8930 -1.5950
 8516SOL     OW37006   2.008   2.305  10.246  0.1626  0.2264 -0.0925
 8516SOL    HW137007   1.937   2.346  10.295  0.0227  1.3446 -1.2439
 8516SOL    HW237008   2.082   2.364  10.261  2.4533 -1.6507 -4.2123
 8517SOL     OW37009   3.634   2.449   2.448  0.4245 -0.1373 -0.0220
 8517SOL    HW137010   3.669   2.379   2.393  1.6911  3.0709 -3.3382
 8517SOL    HW237011   3.699   2.438   2.517 -0.5293 -2.0123  0.5821
 8518SOL     OW37012   4.699   4.010   2.760  0.0847 -0.2630  0.0983
 8518SOL    HW137013   4.669   3.941   2.701 -2.4772  2.0857 -1.3348
 8518SOL    HW237014   0.030   4.061   2.698 -0.8704 -1.3717 -1.6265
 8519SOL     OW37015   3.916   2.075  10.062 -0.0659 -0.3429 -0.1750
 8519SOL    HW137016   3.864   2.003  10.027  2.0477 -1.7218 -0.5141
 8519SOL    HW237017   4.002   2.033  10.066 -0.2714 -0.6792  0.9764
 8520SOL     OW37018   3.699   2.205   3.664 -0.0042  0.0758  0.1936
 8520SOL    HW137019   3.722   2.297   3.653 -1.9272  0.4418 -0.9243
 8520SOL    HW237020   3.620   2.200   3.610  0.0785 -2.5295  0.2940
 8521SOL     OW37021   4.200   4.272   0.086 -0.4135 -0.0878  0.0369
 8521SOL    HW137022   4.278   4.309   0.046 -0.0259 -0.1060  0.7726
 8521SOL    HW237023   4.138   4.345   0.078  0.6970  0.8110 -0.2961
 8522SOL     OW37024   0.084   0.457   8.009 -0.4569 -0.1912  0.1370
 8522SOL    HW137025   0.086   0.362   8.019 -0.9447 -0.1342  0.7646
 8522SOL    HW237026   0.034   0.483   8.087 -0.9606 -0.5800 -0.0628
 8523SOL     OW37027   1.356   2.263   5.296  0.2723  0.4460  0.1956
 8523SOL    HW137028   1.304   2.185   5.316  1.5233 -0.6369 -0.7756
 8523SOL    HW237029   1.374   2.259   5.202 -1.1734 -0.7633 -0.0298
 8524SOL     OW37030   1.833   2.939   6.229  0.0082 -0.3777 -0.6187
 8524SOL    HW137031   1.877   2.864   6.188 -2.5757 -2.7821  1.0271
 8524SOL    HW237032   1.751   2.898   6.257 -0.6994  0.0273 -2.0939
 8525SOL     OW37033   4.339   1.754  14.070  0.1056  0.0590 -0.2745
 8525SOL    HW137034   4.413   1.777  14.014  0.5115 -2.1289 -0.6084
 8525SOL    HW237035   4.379   1.684  14.121  0.5825  0.4385 -0.1306
 8526SOL     OW37036   3.285   2.468   0.577 -0.0160  0.2937 -0.0537
 8526SOL    HW137037   3.208   2.471   0.520 -0.7828 -0.6340  0.9249
 8526SOL    HW237038   3.291   2.561   0.597 -1.9468  0.2910  0.6464
 8527SOL     OW37039   3.752   2.076   5.741 -0.3907  0.0023  0.0705
 8527SOL    HW137040   3.741   2.132   5.664 -0.2127 -1.6249 -1.1405
 8527SOL    HW237041   3.673   2.082   5.794  0.0471 -0.8237  0.8224
 8528SOL     OW37042   0.866   3.785  15.880  0.0513 -0.1371  0.6951
 8528SOL    HW137043   0.844   3.754  15.792  0.9928 -1.5661  0.9629
 8528SOL    HW237044   0.876   3.881  15.875 -0.8133 -0.2150 -2.7433
 8529SOL     OW37045   4.143   2.334   5.500  0.4467 -0.3013  0.4354
 8529SOL    HW137046   4.108   2.271   5.562  2.6232  0.1953  2.1332
 8529SOL    HW237047   4.136   2.420   5.541  2.9413 -1.1222  2.5521
 8530SOL     OW37048   3.789   1.701   6.286 -0.0003  0.1103  0.0616
 8530SOL    HW137049   3.747   1.633   6.339 -0.5010 -0.2709 -0.8434
 8530SOL    HW237050   3.732   1.771   6.320 -0.7961 -0.5227  0.0128
 8531SOL     OW37051   0.995   3.796   2.762  0.2692 -0.2636 -0.2355
 8531SOL    HW137052   1.088   3.773   2.765  1.1772  3.6885  1.1099
 8531SOL    HW237053   0.962   3.715   2.803  1.7866 -0.8551 -0.1923
 8532SOL     OW37054   0.802   4.234  16.377 -0.0859  0.0215 -0.1659
 8532SOL    HW137055   0.779   4.315  16.331  0.0560  0.5461  0.6958
 8532SOL    HW237056   0.810   4.272  16.464 -3.2997  0.2183  0.0132
 8533SOL     OW37057   1.682   1.463   4.325  0.1064 -0.1877  0.2800
 8533SOL    HW137058   1.677   1.521   4.248  1.2366 -0.4995 -0.0367
 8533SOL    HW237059   1.654   1.519   4.397 -3.8632 -0.5311 -0.9815
 8534SOL     OW37060   1.415   2.693   6.255 -0.0832  0.1526  0.4462
 8534SOL    HW137061   1.351   2.638   6.210 -0.3130  0.1205  0.8151
 8534SOL    HW237062   1.425   2.651   6.341 -1.3557 -0.3862  0.3325
 8535SOL     OW37063   1.440   4.562   7.208 -0.0840  0.3863 -0.0748
 8535SOL    HW137064   1.376   4.632   7.195  1.2298  1.4338 -0.9560
 8535SOL    HW237065   1.390   4.498   7.258 -0.6403  0.7596 -0.1503
 8536SOL     OW37066   0.269   4.575   5.228 -0.1292  0.3401 -0.2907
 8536SOL    HW137067   0.334   4.631   5.270  2.0240 -2.1909 -0.2646
 8536SOL    HW237068   0.224   4.640   5.174  0.8016 -0.4716 -2.0463
 8537SOL     OW37069   4.425   4.101   2.689 -0.4390  0.5777 -0.0105
 8537SOL    HW137070   4.347   4.130   2.641 -0.3852  2.2566  0.9045
 8537SOL    HW237071   4.426   4.011   2.657  2.4968  0.4533  0.4395
 8538SOL     OW37072   0.932   3.339   6.396  0.1013 -0.4026  0.4898
 8538SOL    HW137073   1.015   3.383   6.378  0.5150 -0.3825  2.4419
 8538SOL    HW237074   0.900   3.315   6.309  1.0054 -0.1234  0.0804
 8539SOL     OW37075   3.672   1.003  15.271  0.1639  0.5454 -0.0642
 8539SOL    HW137076   3.717   1.025  15.189  0.6585  1.4280  0.4419
 8539SOL    HW237077   3.752   1.019  15.321  1.1068 -0.2284 -1.3259
 8540SOL     OW37078   0.152   4.539   0.790  0.6434  0.3777 -0.6050
 8540SOL    HW137079   0.197   4.622   0.802  2.4246 -0.8062  0.9276
 8540SOL    HW237080   0.177   4.485   0.865 -1.6472  0.8561  0.4837
 8541SOL     OW37081   0.237   0.788   5.395  0.6731 -0.1344  0.0369
 8541SOL    HW137082   0.277   0.873   5.417  2.9733 -0.8363 -1.3988
 8541SOL    HW237083   0.154   0.812   5.437  2.1011  0.6644  2.4382
 8542SOL     OW37084   1.490   4.700  14.819  0.7600 -0.2163 -0.4252
 8542SOL    HW137085   1.431   4.698  14.744  0.3382 -1.3309 -0.0602
 8542SOL    HW237086   1.443   0.027  14.887  2.1274 -1.8579  1.6401
 8543SOL     OW37087   0.271   0.595   3.706 -0.0713  0.0373 -0.1487
 8543SOL    HW137088   0.290   0.652   3.781 -0.8628  0.0981 -0.0020
 8543SOL    HW237089   0.285   0.512   3.751 -0.4926 -0.6051 -1.1959
 8544SOL     OW37090   3.885   4.358  17.581 -0.0671 -0.2095  0.1915
 8544SOL    HW137091   3.947   4.406  17.637  1.1049 -0.6822 -0.7000
 8544SOL    HW237092   3.946   4.316  17.520 -0.5365  0.9697 -1.0711
 8545SOL     OW37093   4.088   3.422   3.464  0.0723 -0.3918 -0.8076
 8545SOL    HW137094   4.160   3.377   3.508  1.1181 -0.3703 -2.4924
 8545SOL    HW237095   4.137   3.470   3.397 -1.6255 -1.2327 -2.6423
 8546SOL     OW37096   0.308   3.799   2.384  0.0191 -0.3077  0.0772
 8546SOL    HW137097   0.267   3.813   2.298 -1.1584  1.0816  0.8635
 8546SOL    HW237098   0.229   3.785   2.436  2.0347 -0.7606  2.9949
 8547SOL     OW37099   1.065   2.495   8.021  0.2146  0.4653 -0.0935
 8547SOL    HW137100   1.139   2.490   8.082  1.9685  2.4600 -2.0608
 8547SOL    HW237101   1.104   2.447   7.948  0.9636  0.2408  0.4575
 8548SOL     OW37102   4.663   2.105   4.576 -0.1543 -0.0561 -0.1440
 8548SOL    HW137103   4.575   2.142   4.573  0.7691  2.2619  0.9148
 8548SOL    HW237104   4.640   2.012   4.577  0.6797 -0.2685 -0.5662
 8549SOL     OW37105   2.521   3.078   6.780  0.3061 -0.7425 -0.2149
 8549SOL    HW137106   2.488   3.164   6.806 -2.3971 -0.9660 -2.8461
 8549SOL    HW237107   2.485   3.036   6.858  1.4420  1.0888  1.3158
 8550SOL     OW37108   3.597   3.384   2.198  0.2695 -0.2702 -0.1855
 8550SOL    HW137109   3.670   3.367   2.258  1.0607  1.5942 -0.6470
 8550SOL    HW237110   3.563   3.468   2.228  4.1918  0.0298  3.4391
 8551SOL     OW37111   0.245   2.280   1.991 -0.2153 -0.3780  0.2642
 8551SOL    HW137112   0.208   2.288   1.903 -1.9756 -1.9059  0.8618
 8551SOL    HW237113   0.323   2.227   1.971  2.5230  3.8824 -0.3395
 8552SOL     OW37114   0.559   4.613   5.024 -0.0701 -0.6485 -0.4691
 8552SOL    HW137115   0.529   4.632   5.113  0.6420 -0.8313 -0.1887
 8552SOL    HW237116   0.655   4.610   5.035  0.0951  0.1768 -1.7036
 8553SOL     OW37117   3.462   3.004   5.048  0.2534 -0.0427  0.1861
 8553SOL    HW137118   3.512   3.037   5.122  2.1842  0.6694 -1.4617
 8553SOL    HW237119   3.530   2.984   4.984 -0.1367  0.6981 -0.4495
 8554SOL     OW37120   2.538   3.062   6.264  0.4693 -0.3111  0.0216
 8554SOL    HW137121   2.607   3.003   6.234  1.7286  1.2625 -0.1341
 8554SOL    HW237122   2.573   3.149   6.248 -1.7607 -0.0019 -3.0809
 8555SOL     OW37123   0.313   0.229  16.201 -0.0843 -0.0292  0.2643
 8555SOL    HW137124   0.380   0.207  16.266 -0.6407 -2.8847 -0.1306
 8555SOL    HW237125   0.348   0.173  16.132  1.7679  0.3930  0.8448
 8556SOL     OW37126   3.209   2.636   9.248 -0.6977  0.1827 -0.9406
 8556SOL    HW137127   3.205   2.651   9.153  3.5743  1.3253 -0.9653
 8556SOL    HW237128   3.118   2.652   9.271 -1.1817  1.3363 -3.5886
 8557SOL     OW37129   0.252   0.755   1.507  0.3093 -0.1422 -0.2712
 8557SOL    HW137130   0.252   0.722   1.417 -0.4654 -1.7374  0.3249
 8557SOL    HW237131   0.320   0.822   1.511  0.8363 -0.7042  0.1373
 8558SOL     OW37132   3.019   1.776  15.741  0.1557  0.0307  0.5707
 8558SOL    HW137133   2.988   1.830  15.668  0.4908  0.5757  0.8329
 8558SOL    HW237134   3.040   1.847  15.801  0.8851 -1.0362  1.5800
 8559SOL     OW37135   4.031   1.769   2.136  0.3255  0.1174  0.4958
 8559SOL    HW137136   3.946   1.753   2.095 -0.2571  3.2012  0.5036
 8559SOL    HW237137   4.007   1.749   2.226 -0.3151  1.9125  0.7296
 8560SOL     OW37138   3.367   0.278  10.007 -0.0851  0.3242  0.2778
 8560SOL    HW137139   3.445   0.330  10.023  0.9194 -0.8661 -0.7435
 8560SOL    HW237140   3.308   0.316  10.072 -0.1504  1.9180 -0.7074
 8561SOL     OW37141   0.398   3.682  14.822 -0.3432 -0.5075 -0.3190
 8561SOL    HW137142   0.470   3.659  14.880 -2.2534 -1.5405  1.6424
 8561SOL    HW237143   0.427   3.635  14.743  0.2160 -0.4710 -0.1307
 8562SOL     OW37144   4.395   4.560   4.138 -0.5567 -0.2433 -0.5709
 8562SOL    HW137145   4.396   4.543   4.232 -1.9934 -1.7683 -0.8342
 8562SOL    HW237146   4.451   4.489   4.107  2.0102  2.0128 -1.1171
 8563SOL     OW37147   2.339   0.833  16.457  0.2981  0.2813 -1.2463
 8563SOL    HW137148   2.363   0.901  16.394  1.3202  0.0770 -1.0784
 8563SOL    HW237149   2.244   0.832  16.459  0.2842  0.6276 -1.9086
 8564SOL     OW37150   0.822   0.684   8.497  0.3576  0.1717  0.1142
 8564SOL    HW137151   0.783   0.684   8.410  2.0535  1.8491 -0.6271
 8564SOL    HW237152   0.913   0.702   8.474  0.6710  1.4401  2.2823
 8565SOL     OW37153   2.820   2.663   0.054 -0.1444 -0.3477  0.1305
 8565SOL    HW137154   2.729   2.641   0.076 -0.4376 -2.8449 -3.5365
 8565SOL    HW237155   2.817   2.756   0.034 -2.0176 -0.5740 -0.6957
 8566SOL     OW37156   3.305   3.750  13.240 -0.4136 -0.1145 -0.2193
 8566SOL    HW137157   3.251   3.743  13.319 -0.5548  1.5952 -0.1674
 8566SOL    HW237158   3.301   3.657  13.219 -0.7332  0.1567 -1.3561
 8567SOL     OW37159   1.359   2.417   8.379  0.6354 -0.2939 -0.0147
 8567SOL    HW137160   1.297   2.353   8.344  0.4448 -0.0393 -0.1316
 8567SOL    HW237161   1.343   2.489   8.319  2.2023  0.6644  0.7161
 8568SOL     OW37162   0.031   0.672  16.326 -0.0986  0.2209  0.2232
 8568SOL    HW137163   0.017   0.658  16.419 -0.9298  2.0203  0.3773
 8568SOL    HW237164   0.118   0.713  16.331 -0.4380  0.9382  0.2801
 8569SOL     OW37165   1.109   2.843   6.991 -0.0294 -0.3553  0.4498
 8569SOL    HW137166   1.199   2.876   6.985 -0.4956  0.7896 -0.2807
 8569SOL    HW237167   1.077   2.880   6.909 -2.0738  2.1377  2.4131
 8570SOL     OW37168   2.567   3.613  15.684 -0.3435  0.0830 -0.1603
 8570SOL    HW137169   2.501   3.681  15.671 -0.5916 -0.5030 -1.8800
 8570SOL    HW237170   2.633   3.662  15.734 -1.0513 -2.0514  2.8610
 8571SOL     OW37171   0.245   2.597   3.853  0.1027 -0.0386  0.0889
 8571SOL    HW137172   0.182   2.572   3.785  0.5725  0.5372 -0.5559
 8571SOL    HW237173   0.188   2.611   3.928  1.2034 -0.1554  0.9375
 8572SOL     OW37174   1.815   1.045   5.955 -0.0179 -0.2396 -0.3496
 8572SOL    HW137175   1.822   0.949   5.947 -2.0887 -0.3042 -1.4484
 8572SOL    HW237176   1.773   1.061   5.870  0.5319 -2.1162 -0.9894
 8573SOL     OW37177   0.641   2.120   7.642 -0.4835  0.2937 -0.8003
 8573SOL    HW137178   0.651   2.049   7.705 -1.7125  0.4460 -0.4325
 8573SOL    HW237179   0.613   2.203   7.681 -1.2513 -1.9178  3.3711
 8574SOL     OW37180   1.331   4.438   1.325 -0.1985  0.1424 -0.3433
 8574SOL    HW137181   1.387   4.421   1.400  1.8274  2.1015 -1.4379
 8574SOL    HW237182   1.248   4.444   1.373  0.3416  1.6249  0.4121
 8575SOL     OW37183   4.456   4.690  11.069 -0.4256  0.2549 -0.2490
 8575SOL    HW137184   4.416   0.021  10.999 -0.6466  0.9842  0.4078
 8575SOL    HW237185   4.420   0.018  11.143  2.2359  1.9473 -0.1094
 8576SOL     OW37186   1.476   3.998  17.270  0.2756  0.2217  0.6875
 8576SOL    HW137187   1.499   4.071  17.328  1.9943  1.0821 -1.0497
 8576SOL    HW237188   1.403   3.959  17.318  0.8028  0.8783  2.0188
 8577SOL     OW37189   1.531   4.182  17.037 -0.4909 -0.6354  0.0926
 8577SOL    HW137190   1.482   4.145  17.111 -0.4071 -0.9571 -0.0098
 8577SOL    HW237191   1.614   4.136  17.027 -0.5682 -1.5505  3.6407
 8578SOL     OW37192   0.420   3.125   3.281  0.0715  0.3555 -0.5312
 8578SOL    HW137193   0.438   3.041   3.238  1.5789 -1.2445  3.2403
 8578SOL    HW237194   0.508   3.161   3.287  0.6457 -1.1083 -0.0234
 8579SOL     OW37195   4.679   0.469  16.167 -0.3337 -0.1872  0.0601
 8579SOL    HW137196   4.708   0.541  16.223  0.9977  0.0635 -0.9592
 8579SOL    HW237197   4.593   0.501  16.142 -0.3030 -0.1411  0.0132
 8580SOL     OW37198   2.742   0.947   0.866 -0.2078  0.7798  0.6992
 8580SOL    HW137199   2.654   0.912   0.857 -0.7902  2.1807  0.9231
 8580SOL    HW237200   2.770   0.910   0.950  0.1322  1.1057  0.7315
 8581SOL     OW37201   2.555   0.683   7.378  0.3686 -0.5512 -0.3264
 8581SOL    HW137202   2.537   0.744   7.306  2.2220 -0.5829 -0.8122
 8581SOL    HW237203   2.539   0.732   7.459  2.3507  0.5315 -0.5945
 8582SOL     OW37204   2.321   0.892  16.802  0.6580 -0.9079 -0.6723
 8582SOL    HW137205   2.262   0.903  16.728  1.2811  0.8754 -0.9209
 8582SOL    HW237206   2.305   0.802  16.828  2.1555 -1.0295 -0.1496
 8583SOL     OW37207   4.169   0.390   3.294 -0.2786 -0.2328  0.3512
 8583SOL    HW137208   4.102   0.324   3.275 -0.9827  0.4009  0.6847
 8583SOL    HW237209   4.165   0.382   3.389 -2.2633 -1.3680  0.1582
 8584SOL     OW37210   3.143   4.023  10.421 -0.6047  0.0033 -0.3666
 8584SOL    HW137211   3.107   4.110  10.401  1.1110  0.8068 -0.0018
 8584SOL    HW237212   3.193   4.031  10.340  0.9141  2.2977  0.7862
 8585SOL     OW37213   1.596   4.638   1.598  0.3802 -0.3984 -0.1840
 8585SOL    HW137214   1.624   0.008   1.598  1.0967 -0.6247  0.9728
 8585SOL    HW237215   1.531   4.638   1.528 -2.3744  0.3789  2.3732
 8586SOL     OW37216   0.110   0.467  10.773 -0.0035  0.0336 -0.1879
 8586SOL    HW137217   0.045   0.529  10.740 -0.0286  0.1807  0.1392
 8586SOL    HW237218   0.179   0.470  10.706 -0.2975 -0.4058 -0.5099
 8587SOL     OW37219   2.833   0.591   0.022 -0.1363 -0.0252  0.1020
 8587SOL    HW137220   2.815   0.621  17.618 -1.8477 -0.5735  0.2584
 8587SOL    HW237221   2.760   0.638   0.063  1.5326  1.6394  1.1837
 8588SOL     OW37222   4.661   0.022   1.263 -0.2341 -0.1317  0.0743
 8588SOL    HW137223   4.656   4.672   1.198 -1.1095 -0.3116  0.3323
 8588SOL    HW237224   4.585   0.000   1.317  0.0253  0.1228  0.5361
 8589SOL     OW37225   4.326   3.918   6.916  0.9798  0.1362 -0.4975
 8589SOL    HW137226   4.240   3.945   6.887  0.2269 -2.9861 -1.2089
 8589SOL    HW237227   4.360   4.005   6.937  1.7016 -0.6130  1.4834
 8590SOL     OW37228   4.431   1.797   7.525  0.3788  0.2383 -0.4943
 8590SOL    HW137229   4.415   1.836   7.611 -0.1503  0.2986 -0.6191
 8590SOL    HW237230   4.511   1.833   7.487 -0.0210  3.7078  1.9377
 8591SOL     OW37231   2.641   0.390   4.923 -0.0425 -0.0861  0.3174
 8591SOL    HW137232   2.677   0.430   5.002  1.7623  0.1026 -0.6061
 8591SOL    HW237233   2.583   0.461   4.896 -1.9226 -1.7758 -0.0389
 8592SOL     OW37234   3.519   3.317   2.819  0.8361 -0.7915  0.0711
 8592SOL    HW137235   3.451   3.335   2.884 -0.3125 -1.5283 -0.9100
 8592SOL    HW237236   3.504   3.225   2.799  0.6424 -0.7482  0.0206
 8593SOL     OW37237   0.534   3.275   2.314 -0.7454  0.5209  0.4829
 8593SOL    HW137238   0.470   3.344   2.295  0.2672  1.6025  0.9883
 8593SOL    HW237239   0.542   3.253   2.222  2.2562  2.6357  0.2186
 8594SOL     OW37240   4.216   1.746   0.527 -0.3195 -0.6277 -0.1669
 8594SOL    HW137241   4.294   1.759   0.580 -0.8180 -0.0587  0.4228
 8594SOL    HW237242   4.145   1.726   0.588  0.1531  1.7212  1.1270
 8595SOL     OW37243   3.471   1.741  14.320  0.4307  0.2655 -0.3536
 8595SOL    HW137244   3.443   1.725  14.230 -2.7263  0.0076  0.6867
 8595SOL    HW237245   3.395   1.781  14.360  1.9381  2.5774  0.2164
 8596SOL     OW37246   4.489   2.062   2.351  0.4093 -0.4440 -0.3740
 8596SOL    HW137247   4.551   2.086   2.421  0.4419  2.3933 -1.3620
 8596SOL    HW237248   4.548   2.053   2.276 -0.1256 -0.2691 -0.8151
 8597SOL     OW37249   1.318   2.632   6.946 -0.0906  0.1595  0.3664
 8597SOL    HW137250   1.259   2.662   7.015  0.6084  1.8428  0.2169
 8597SOL    HW237251   1.315   2.538   6.966  1.0431  0.3210  1.2971
 8598SOL     OW37252   1.168   0.867  15.713  0.2208  0.0022  0.0532
 8598SOL    HW137253   1.184   0.944  15.659  2.2068 -0.4710 -0.0246
 8598SOL    HW237254   1.256   0.859  15.750  0.1618  1.1063  0.4170
 8599SOL     OW37255   3.375   4.144   0.221  0.1181 -0.2120  0.2632
 8599SOL    HW137256   3.410   4.152   0.132 -1.6885 -0.0264 -0.4393
 8599SOL    HW237257   3.448   4.113   0.274  1.5786  0.5220 -1.3136
 8600SOL     OW37258   4.533   2.559  12.845 -0.2546  0.8924 -0.0964
 8600SOL    HW137259   4.564   2.646  12.820 -3.4252  1.7158 -1.1966
 8600SOL    HW237260   4.481   2.542  12.766  1.0762 -0.0756 -0.7624
 8601SOL     OW37261   3.041   3.826   2.230 -0.2751  0.0588 -0.0954
 8601SOL    HW137262   2.946   3.816   2.218 -0.2690 -1.7228  1.1742
 8601SOL    HW237263   3.079   3.825   2.142 -0.1065  0.9124 -0.0295
 8602SOL     OW37264   2.781   2.692  10.596 -0.3971  0.3926  0.3007
 8602SOL    HW137265   2.774   2.632  10.670  2.7911 -1.8639 -1.2301
 8602SOL    HW237266   2.723   2.757  10.636  0.6687  1.6060 -0.1489
 8603SOL     OW37267   3.917   2.547   5.026  0.4582 -0.2695 -0.5211
 8603SOL    HW137268   3.845   2.566   4.966 -0.4505  3.7717  1.8872
 8603SOL    HW237269   3.988   2.590   4.978  0.9192 -1.0047 -0.4972
 8604SOL     OW37270   3.578   0.957   1.921 -0.0049 -0.7514  0.3400
 8604SOL    HW137271   3.561   1.046   1.892  1.9766 -0.2826  0.6631
 8604SOL    HW237272   3.625   0.919   1.847 -1.3304 -1.6840 -0.0241
 8605SOL     OW37273   4.617   3.716   0.299 -0.6128 -0.1442  0.0278
 8605SOL    HW137274   4.556   3.784   0.269  1.0138  1.4399  0.2757
 8605SOL    HW237275   4.678   3.698   0.228 -0.9223  0.3294 -0.3595
 8606SOL     OW37276   1.324   2.942   2.384 -0.0990 -0.4592 -0.7346
 8606SOL    HW137277   1.242   2.983   2.410  0.8002 -0.0589  1.4784
 8606SOL    HW237278   1.378   2.967   2.459  0.4632  0.7485 -1.5457
 8607SOL     OW37279   0.924   3.168   5.851 -0.7642  0.0947  0.5966
 8607SOL    HW137280   0.857   3.197   5.789 -1.0338 -0.1380  0.7786
 8607SOL    HW237281   0.990   3.233   5.828  1.7090 -3.0068 -0.9874
 8608SOL     OW37282   1.258   1.965  14.286  0.2022 -0.6217 -0.3254
 8608SOL    HW137283   1.260   1.882  14.239  0.8417  0.2415 -1.8087
 8608SOL    HW237284   1.345   1.972  14.324  0.2597 -0.1732 -0.5410
 8609SOL     OW37285   0.373   3.901  17.386 -0.4319  0.1906 -0.4459
 8609SOL    HW137286   0.374   3.917  17.292  0.5860  1.1615 -0.2681
 8609SOL    HW237287   0.452   3.951  17.407  0.9944 -1.2288 -2.4024
 8610SOL     OW37288   0.673   2.052   3.048  0.5815 -0.1142  0.0893
 8610SOL    HW137289   0.699   1.980   3.106 -1.0312 -0.9960 -0.2746
 8610SOL    HW237290   0.586   2.020   3.026  0.2644 -0.4346  1.8503
 8611SOL     OW37291   4.715   0.550   4.639  0.2459  0.6036  0.2757
 8611SOL    HW137292   4.717   0.458   4.612  1.1573  1.1931 -1.6688
 8611SOL    HW237293   0.079   0.570   4.678  0.7932  0.3067 -0.7687
 8612SOL     OW37294   2.162   1.697   0.727  0.2277 -0.6050 -0.1518
 8612SOL    HW137295   2.125   1.613   0.754  0.3823 -0.5612  0.2006
 8612SOL    HW237296   2.099   1.726   0.662  0.3309 -0.1245 -0.0372
 8613SOL     OW37297   0.233   3.450   6.310  0.3852 -0.0615  0.1581
 8613SOL    HW137298   0.279   3.371   6.282 -0.8968 -1.7967  2.9304
 8613SOL    HW237299   0.279   3.462   6.393  2.6675  0.6907 -1.2029
 8614SOL     OW37300   1.441   3.682   7.947 -0.4605 -0.6159  0.0100
 8614SOL    HW137301   1.468   3.713   8.033 -1.2628 -0.3028  0.1502
 8614SOL    HW237302   1.505   3.727   7.892 -1.0618 -0.2192 -0.3580
 8615SOL     OW37303   4.391   2.226   4.595  0.2695 -0.1140 -0.1213
 8615SOL    HW137304   4.402   2.314   4.631  1.6912  0.1612 -1.2109
 8615SOL    HW237305   4.416   2.166   4.665 -2.4243  1.2194  1.9470
 8616SOL     OW37306   4.355   3.830  12.853  0.5584  0.0799 -0.2860
 8616SOL    HW137307   4.427   3.846  12.792  0.9361 -2.6496 -0.5335
 8616SOL    HW237308   4.338   3.918  12.886 -0.0226 -0.0446 -0.2497
 8617SOL     OW37309   0.494   1.894  15.679 -0.7198 -0.6447  0.2240
 8617SOL    HW137310   0.485   1.865  15.588  1.4502  2.9119 -1.1027
 8617SOL    HW237311   0.534   1.817  15.721  0.4162 -0.9229 -1.3805
 8618SOL     OW37312   0.869   4.160   8.588 -0.1426  0.3427 -0.3822
 8618SOL    HW137313   0.878   4.255   8.592  2.1057  0.1686 -1.2103
 8618SOL    HW237314   0.794   4.142   8.531 -0.5542 -2.0517  0.9262
 8619SOL     OW37315   4.626   4.631   0.482  0.4015  0.1730  0.3657
 8619SOL    HW137316   4.642   4.606   0.391 -1.8546  3.0060 -0.7909
 8619SOL    HW237317   4.716   4.619   0.511  0.2961 -0.5712  0.3886
 8620SOL     OW37318   3.090   4.372   6.145 -0.5478  0.2589  0.2285
 8620SOL    HW137319   3.065   4.354   6.235 -1.6624  0.1183 -0.0986
 8620SOL    HW237320   3.179   4.404   6.160  0.1524 -2.2940  1.6151
 8621SOL     OW37321   4.036   2.781   2.353 -0.6248  0.3017  0.5277
 8621SOL    HW137322   3.990   2.809   2.432 -1.2379 -0.8445  0.5721
 8621SOL    HW237323   4.002   2.846   2.290  1.4214 -1.1490 -2.0764
 8622SOL     OW37324   2.385   3.408   7.105 -0.3006 -0.1622 -0.1661
 8622SOL    HW137325   2.405   3.475   7.171 -0.6457  0.0676 -0.2946
 8622SOL    HW237326   2.439   3.437   7.031  0.0240  1.6423  0.7609
 8623SOL     OW37327   1.357   0.455   5.150  0.5755  0.8684 -0.7197
 8623SOL    HW137328   1.370   0.360   5.146 -1.9260  0.4612  0.6810
 8623SOL    HW237329   1.361   0.460   5.054 -0.7075  3.2759 -0.6335
 8624SOL     OW37330   2.498   3.540   5.722 -0.2300  0.1683  0.5301
 8624SOL    HW137331   2.554   3.616   5.737  2.4360 -1.5188 -0.9596
 8624SOL    HW237332   2.425   3.581   5.675  0.3405  0.3183 -0.2312
 8625SOL     OW37333   4.291   2.541   1.516  0.2423  0.2724 -0.2135
 8625SOL    HW137334   4.352   2.614   1.510 -0.1787  0.7135  0.8011
 8625SOL    HW237335   4.350   2.482   1.562  1.3320  0.4119 -1.4598
 8626SOL     OW37336   0.517   3.345   2.587  0.1847 -0.2463  0.0056
 8626SOL    HW137337   0.529   3.311   2.498  2.1005 -0.6840  0.4229
 8626SOL    HW237338   0.515   3.436   2.558  2.1164 -0.3567 -0.5199
 8627SOL     OW37339   3.141   3.173   3.700 -0.3000  0.5277 -0.2257
 8627SOL    HW137340   3.073   3.193   3.636 -1.6026 -2.6658  0.1984
 8627SOL    HW237341   3.141   3.080   3.678  1.2711  0.3660  0.4043
 8628SOL     OW37342   1.039   3.139   7.303  0.4824 -0.2610  0.0925
 8628SOL    HW137343   1.030   3.048   7.276 -2.7519  0.5659 -1.6144
 8628SOL    HW237344   0.964   3.180   7.260  1.0106  1.1958  0.5319
 8629SOL     OW37345   2.473   3.952   5.218 -0.4747  0.4390 -0.3781
 8629SOL    HW137346   2.482   3.918   5.129 -1.0087 -0.2917 -0.1536
 8629SOL    HW237347   2.506   4.040   5.198 -1.7396  1.1016  0.4276
 8630SOL     OW37348   0.615   3.510   1.558  0.5518 -0.4156 -1.0103
 8630SOL    HW137349   0.671   3.444   1.518  0.4847 -1.0616 -0.0435
 8630SOL    HW237350   0.673   3.583   1.577 -0.9496 -0.1284  2.6038
 8631SOL     OW37351   0.469   0.425  13.388  0.0490 -0.5227 -0.3972
 8631SOL    HW137352   0.528   0.392  13.321  0.8300 -1.8281  0.9304
 8631SOL    HW237353   0.463   0.518  13.365 -3.1003 -0.0510  2.3559
 8632SOL     OW37354   1.031   3.025  11.768 -0.1012  0.3026  0.2216
 8632SOL    HW137355   1.006   3.114  11.792  0.1207  0.4649 -0.1415
 8632SOL    HW237356   1.123   3.031  11.742  0.1420  0.2354  1.0572
 8633SOL     OW37357   0.510   4.603  17.376 -0.2373  0.4196 -0.6722
 8633SOL    HW137358   0.598   4.568  17.363 -0.2123  0.5472 -0.8327
 8633SOL    HW237359   0.468   4.589  17.291  2.0644  2.0323 -2.0676
 8634SOL     OW37360   3.407   1.893   5.835  0.3602 -0.2648 -0.1866
 8634SOL    HW137361   3.499   1.887   5.809 -0.3653  0.8576 -3.0117
 8634SOL    HW237362   3.376   1.977   5.799 -1.5710 -0.6513  0.5853
 8635SOL     OW37363   3.404   3.092   7.073 -1.0241  0.6620 -0.2499
 8635SOL    HW137364   3.483   3.038   7.069 -1.0426  0.7027 -1.3394
 8635SOL    HW237365   3.342   3.035   7.120 -0.1710 -0.0085  0.0669
 8636SOL     OW37366   2.282   2.134   8.464  0.0104 -0.9020  0.3937
 8636SOL    HW137367   2.241   2.098   8.385  0.0999  2.2272 -1.1002
 8636SOL    HW237368   2.284   2.228   8.443  0.1175 -1.1171 -0.5589
 8637SOL     OW37369   3.870   4.321   3.133  0.8374  0.2220  0.4231
 8637SOL    HW137370   3.901   4.365   3.213 -0.7007  0.5508  0.8281
 8637SOL    HW237371   3.934   4.250   3.124  1.3236  0.7172 -0.0912
 8638SOL     OW37372   2.757   3.192   6.950  0.4951  0.0183  0.1475
 8638SOL    HW137373   2.691   3.213   7.016 -0.3404 -2.4861  0.1119
 8638SOL    HW237374   2.832   3.242   6.981  0.2848  1.2895 -1.3923
 8639SOL     OW37375   0.351   2.286   3.809 -0.0400 -0.1034 -0.3807
 8639SOL    HW137376   0.303   2.369   3.813 -1.2507 -0.7320 -1.9060
 8639SOL    HW237377   0.343   2.266   3.902 -0.3833  0.2371 -0.3371
 8640SOL     OW37378   0.045   1.162  14.216 -0.7161 -0.6612  0.5812
 8640SOL    HW137379   0.016   1.246  14.251  2.7818  1.6380 -2.1242
 8640SOL    HW237380   0.084   1.203  14.139 -3.3736  0.6659 -0.0821
 8641SOL     OW37381   2.220   3.673   1.016 -0.3492 -0.0143  0.3164
 8641SOL    HW137382   2.236   3.759   0.978 -2.4237 -0.1840 -0.9765
 8641SOL    HW237383   2.235   3.610   0.945 -0.2107 -0.4356  0.7207
 8642SOL     OW37384   1.125   1.061   8.282  0.1679  0.4145 -0.1175
 8642SOL    HW137385   1.037   1.055   8.243  0.1774  1.0859 -0.2395
 8642SOL    HW237386   1.149   1.141   8.235 -0.9779  0.9689  0.2285
 8643SOL     OW37387   0.257   3.110   8.769  0.1469  0.2096 -0.4913
 8643SOL    HW137388   0.325   3.125   8.835  0.5975  1.0518 -1.1494
 8643SOL    HW237389   0.223   3.199   8.772  0.8125  0.3706  2.7885
 8644SOL     OW37390   3.356   0.794   3.959  0.4809 -0.2448 -0.0065
 8644SOL    HW137391   3.292   0.743   4.008  0.8996 -1.2337 -0.4757
 8644SOL    HW237392   3.420   0.814   4.027 -1.5270  2.0688  1.1835
 8645SOL     OW37393   1.007   4.185   7.882  0.4547 -0.2190  0.2237
 8645SOL    HW137394   1.021   4.096   7.850 -0.6987  0.2421 -1.5437
 8645SOL    HW237395   0.923   4.209   7.843  1.1600  1.0029 -0.5483
 8646SOL     OW37396   3.905   2.231   4.288 -0.2490  0.3660 -0.3485
 8646SOL    HW137397   3.920   2.279   4.207  0.3049 -0.9109 -1.0230
 8646SOL    HW237398   3.953   2.149   4.273  1.4330  1.7521 -2.5178
 8647SOL     OW37399   2.403   1.327   7.042  0.1990 -0.4512 -0.1032
 8647SOL    HW137400   2.356   1.259   6.993 -1.0621  0.3516 -0.0306
 8647SOL    HW237401   2.361   1.409   7.016  2.5543  1.2295  1.4250
 8648SOL     OW37402   0.970   2.395   3.056 -0.0507 -0.5742 -0.0883
 8648SOL    HW137403   0.963   2.475   3.003  1.9252 -0.5611 -0.3530
 8648SOL    HW237404   1.058   2.372   3.026 -0.6776 -1.4180 -1.2774
 8649SOL     OW37405   3.157   1.931   4.515 -0.1906  0.1283  0.4979
 8649SOL    HW137406   3.166   1.835   4.517  0.1322  0.1272 -0.9743
 8649SOL    HW237407   3.115   1.941   4.601 -1.0521 -1.7395  0.3163
 8650SOL     OW37408   3.811   2.755   4.175  0.1680 -0.1569  0.6913
 8650SOL    HW137409   3.889   2.783   4.223 -0.5041  0.9404  1.1235
 8650SOL    HW237410   3.745   2.784   4.238  0.8735 -1.7187  2.1679
 8651SOL     OW37411   3.183   4.528   2.908 -0.3393  0.4107 -0.0240
 8651SOL    HW137412   3.103   4.578   2.893  0.5682  1.7102 -0.5332
 8651SOL    HW237413   3.251   4.553   2.846  0.3459 -0.0470  0.5301
 8652SOL     OW37414   3.063   0.003   5.865 -0.0108  0.1774  0.4044
 8652SOL    HW137415   3.114   0.083   5.865  0.9070 -0.4087  0.1878
 8652SOL    HW237416   2.983   0.042   5.831  1.7170  2.6266 -0.8221
 8653SOL     OW37417   1.500   0.392   8.900  0.0958  0.3428  0.1258
 8653SOL    HW137418   1.418   0.394   8.950 -0.9955 -0.5880 -1.5947
 8653SOL    HW237419   1.531   0.304   8.921 -1.3154  0.1339  1.3190
 8654SOL     OW37420   2.430   0.717   8.502  0.3844 -0.4565 -0.5577
 8654SOL    HW137421   2.511   0.667   8.497 -0.0881 -1.1120 -1.5421
 8654SOL    HW237422   2.457   0.784   8.565  0.5268 -0.7119 -0.3461
 8655SOL     OW37423   2.166   2.048   1.709  1.0869 -0.1725 -0.2824
 8655SOL    HW137424   2.103   2.088   1.769 -2.1611 -2.1974 -2.3535
 8655SOL    HW237425   2.120   1.965   1.717 -0.4460  0.6999 -0.0308
 8656SOL     OW37426   2.662   3.871  10.895 -0.3158 -0.3947  1.0071
 8656SOL    HW137427   2.580   3.882  10.944  0.0994  0.6906  1.4629
 8656SOL    HW237428   2.671   3.777  10.911  0.7625 -0.5403 -0.4946
 8657SOL     OW37429   0.315   2.414   5.855 -0.2103 -0.0579  0.2582
 8657SOL    HW137430   0.312   2.483   5.921 -0.3305  1.2436 -1.1214
 8657SOL    HW237431   0.231   2.373   5.876 -0.8958  0.5716 -1.2457
 8658SOL     OW37432   3.340   4.033   5.546  0.8831 -0.2848 -0.1126
 8658SOL    HW137433   3.428   4.010   5.574  1.7918  1.1671 -1.8012
 8658SOL    HW237434   3.291   3.956   5.575 -1.5997  1.0023 -0.8764
 8659SOL     OW37435   3.508   3.115  12.359  0.0221 -0.4570 -0.4470
 8659SOL    HW137436   3.577   3.179  12.381 -0.0364 -0.1960 -1.0368
 8659SOL    HW237437   3.537   3.041  12.412  1.9306  1.4371  1.1994
 8660SOL     OW37438   3.809   1.587  10.531 -0.2598  0.0363  0.0555
 8660SOL    HW137439   3.895   1.626  10.515 -0.1086 -0.3439 -0.0580
 8660SOL    HW237440   3.785   1.621  10.617 -1.6835  1.3068 -0.8351
 8661SOL     OW37441   2.009   4.073  10.270  0.1475  0.1204  0.4813
 8661SOL    HW137442   2.083   4.060  10.210  1.1443  4.4554  0.7721
 8661SOL    HW237443   2.034   4.163  10.291  2.3548 -1.0179  2.8736
 8662SOL     OW37444   4.589   2.761   6.381  0.2935 -0.2555 -0.1448
 8662SOL    HW137445   4.554   2.680   6.419  1.2608 -0.1308  0.9828
 8662SOL    HW237446   4.511   2.811   6.356  0.4470 -0.2500 -0.6030
 8663SOL     OW37447   4.443   3.001   1.184 -0.1171 -0.0785  0.4194
 8663SOL    HW137448   4.429   2.919   1.136 -1.0718  0.3615 -0.0467
 8663SOL    HW237449   4.508   2.984   1.252  0.0318  0.2521  0.3642
 8664SOL     OW37450   4.624   0.739  16.873 -0.2987 -0.4157  0.3118
 8664SOL    HW137451   4.529   0.729  16.877 -0.6169  1.9288 -1.3713
 8664SOL    HW237452   4.642   0.711  16.963  0.7172  0.5313  0.3998
 8665SOL     OW37453   0.466   3.240  17.001 -0.2529  0.0842 -0.5729
 8665SOL    HW137454   0.548   3.262  17.047 -0.0720 -1.7738 -0.0172
 8665SOL    HW237455   0.491   3.155  16.965 -0.5142 -1.9115  3.9689
 8666SOL     OW37456   4.659   1.153   4.781 -0.2049 -0.5612 -0.2129
 8666SOL    HW137457   4.610   1.076   4.754 -0.9907  0.1408 -0.7962
 8666SOL    HW237458   4.597   1.225   4.770  0.3160  0.2453  2.1751
 8667SOL     OW37459   2.887   1.310   3.987 -0.6045  0.2199 -0.4817
 8667SOL    HW137460   2.958   1.260   4.027 -1.2884 -0.3614 -0.0007
 8667SOL    HW237461   2.910   1.403   3.986 -3.3926  0.9540  1.7012
 8668SOL     OW37462   2.289   1.379   2.026 -0.2311  0.4829 -0.3829
 8668SOL    HW137463   2.275   1.333   2.108  0.3520 -1.1284 -1.1820
 8668SOL    HW237464   2.298   1.301   1.971 -0.3251 -0.4887  0.9918
 8669SOL     OW37465   0.959   0.721   4.660 -0.1133 -0.0921  0.2867
 8669SOL    HW137466   1.054   0.708   4.653  0.0270  1.8057 -1.3602
 8669SOL    HW237467   0.936   0.660   4.590 -0.4743 -0.6427  0.8932
 8670SOL     OW37468   0.671   1.482   4.332 -0.2454  0.1863  0.9087
 8670SOL    HW137469   0.584   1.504   4.367 -0.5824 -0.9943  0.8086
 8670SOL    HW237470   0.713   1.568   4.333  0.8970 -0.3837  1.6294
 8671SOL     OW37471   1.606   3.926   1.357  0.2401 -0.0677  0.0641
 8671SOL    HW137472   1.668   3.931   1.430 -1.4141  1.3972  1.3656
 8671SOL    HW237473   1.541   3.996   1.366  0.4224  0.0058  0.8385
 8672SOL     OW37474   2.810   1.481   5.808  0.7529 -0.0644  0.3407
 8672SOL    HW137475   2.793   1.401   5.758 -0.8672  1.0412 -0.9034
 8672SOL    HW237476   2.834   1.443   5.892 -1.3841 -1.3772  0.3554
 8673SOL     OW37477   1.730   0.965   5.237  0.0234  0.0935  0.0352
 8673SOL    HW137478   1.675   0.935   5.309  1.3795 -1.0954  0.5802
 8673SOL    HW237479   1.675   1.035   5.202  0.5455  0.1178 -0.7416
 8674SOL     OW37480   2.108   0.439   2.785  0.3238  0.3515  0.8939
 8674SOL    HW137481   2.129   0.346   2.792 -0.6603  0.1596  1.3272
 8674SOL    HW237482   2.030   0.422   2.732  0.6579 -0.5580  0.6805
 8675SOL     OW37483   2.077   3.375   7.551 -0.2503  0.1403 -0.2771
 8675SOL    HW137484   1.986   3.350   7.539 -0.3466  0.4098 -0.1152
 8675SOL    HW237485   2.079   3.426   7.470 -1.0458  0.1404 -0.2960
 8676SOL     OW37486   2.209   1.164   9.202  0.1497 -0.7310 -0.7185
 8676SOL    HW137487   2.146   1.094   9.214 -0.3236 -0.1290  0.2293
 8676SOL    HW237488   2.198   1.208   9.286 -1.7359 -1.2679 -0.6866
 8677SOL     OW37489   2.284   2.872   1.683  0.5063  0.7558 -0.2478
 8677SOL    HW137490   2.248   2.912   1.604  1.3605 -0.2092 -1.1178
 8677SOL    HW237491   2.345   2.809   1.645 -0.8277 -0.8613  0.3101
 8678SOL     OW37492   0.036   1.671  16.358 -0.1085  0.0724  0.1921
 8678SOL    HW137493   4.679   1.725  16.370  0.1201  0.2629  0.7844
 8678SOL    HW237494   0.032   1.588  16.405  0.1670 -0.3329 -0.4969
 8679SOL     OW37495   2.540   3.588   4.055  0.4433 -0.2947 -0.3479
 8679SOL    HW137496   2.490   3.535   3.993  0.9776 -1.1568 -0.0334
 8679SOL    HW237497   2.482   3.661   4.077  2.5058  0.7925  1.4897
 8680SOL     OW37498   1.447   0.746  11.545 -0.1075  0.1772 -0.3977
 8680SOL    HW137499   1.538   0.724  11.566 -0.4686  1.3798  2.3831
 8680SOL    HW237500   1.446   0.722  11.452 -0.1783  0.7692 -0.5457
 8681SOL     OW37501   3.214   3.577   3.235 -0.6593 -0.5983 -1.0820
 8681SOL    HW137502   3.210   3.659   3.285  0.0699 -0.4706 -1.2433
 8681SOL    HW237503   3.299   3.538   3.253 -0.7427 -0.5032 -0.4601
 8682SOL     OW37504   0.900   1.831   9.913 -0.1898 -0.2689  0.4382
 8682SOL    HW137505   0.936   1.902   9.860 -2.1194 -0.5426 -1.2414
 8682SOL    HW237506   0.981   1.806   9.957  0.3306 -0.0518 -0.3921
 8683SOL     OW37507   1.859   1.978   4.438 -0.0744  0.0263  0.3123
 8683SOL    HW137508   1.777   2.028   4.439 -1.1094 -1.6026 -1.3421
 8683SOL    HW237509   1.842   1.911   4.371 -0.8125 -1.0032  1.5318
 8684SOL     OW37510   0.181   1.742   6.657 -0.3328  0.1131 -0.0613
 8684SOL    HW137511   0.183   1.678   6.728  1.4884 -0.4514 -0.6047
 8684SOL    HW237512   0.168   1.689   6.578  1.2448 -1.2049  0.5529
 8685SOL     OW37513   0.694   4.689   8.590  0.2780 -0.6834 -0.5130
 8685SOL    HW137514   0.656   4.637   8.520 -0.3011 -0.3329 -0.4633
 8685SOL    HW237515   0.769   0.005   8.544 -0.3412  1.6762  0.3465
 8686SOL     OW37516   4.501   3.632   2.045 -0.2795 -0.5847  0.1668
 8686SOL    HW137517   4.588   3.593   2.048  0.9566  2.2396  1.0671
 8686SOL    HW237518   4.521   3.718   2.081 -1.8711 -0.0988 -0.0913
 8687SOL     OW37519   4.445   3.138   9.793  0.2482 -0.1822 -0.3012
 8687SOL    HW137520   4.472   3.226   9.818 -0.2459 -0.2070  0.3292
 8687SOL    HW237521   4.433   3.101   9.880  3.2856 -3.8625 -1.4535
 8688SOL     OW37522   3.961   1.635   8.411 -0.2253  0.1095  0.0380
 8688SOL    HW137523   3.981   1.543   8.395 -1.4411 -0.1015 -0.2755
 8688SOL    HW237524   3.875   1.627   8.452 -0.1852  1.1477  0.3237
 8689SOL     OW37525   0.672   1.503  16.354 -0.4917  0.3150 -0.0484
 8689SOL    HW137526   0.710   1.508  16.442  2.5939 -2.3057 -1.2582
 8689SOL    HW237527   0.614   1.580  16.354 -2.0815 -0.8939 -0.7101
 8690SOL     OW37528   3.096   2.275   4.500 -0.2474  0.3186 -0.5492
 8690SOL    HW137529   3.142   2.266   4.583 -0.3997  2.0779 -0.2782
 8690SOL    HW237530   3.044   2.354   4.514 -0.6187  0.7838 -4.4974
 8691SOL     OW37531   2.388   0.713   8.045 -0.1483 -0.1270 -0.9189
 8691SOL    HW137532   2.412   0.635   7.995 -0.2178  0.2347 -1.5086
 8691SOL    HW237533   2.351   0.668   8.121  0.7169  2.0969  0.8250
 8692SOL     OW37534   0.742   0.390   1.219 -0.2102  0.0393  0.4673
 8692SOL    HW137535   0.649   0.407   1.206  0.2137  0.5638 -1.8513
 8692SOL    HW237536   0.763   0.298   1.200 -1.7560  0.1944 -2.0008
 8693SOL     OW37537   2.583   3.480  15.381  0.0936  0.1474  0.6374
 8693SOL    HW137538   2.585   3.555  15.322  1.0915  0.0698  0.5704
 8693SOL    HW237539   2.533   3.426  15.321 -0.3918  0.1346  1.0531
 8694SOL     OW37540   1.021   3.847  12.293 -0.0410 -0.1976  0.1425
 8694SOL    HW137541   1.061   3.869  12.377  0.4998  0.6336 -0.3360
 8694SOL    HW237542   1.091   3.793  12.256  0.0091  0.3207 -0.5247
 8695SOL     OW37543   0.998   4.262   5.287 -0.9290 -0.3951 -0.2442
 8695SOL    HW137544   0.973   4.337   5.341  1.3503  1.7422 -2.1272
 8695SOL    HW237545   1.093   4.277   5.290 -0.9810 -0.4156  1.8367
 8696SOL     OW37546   0.926   4.050   0.239  0.0603  0.2015 -0.4893
 8696SOL    HW137547   0.957   4.101   0.314 -0.1506 -2.6599  1.5340
 8696SOL    HW237548   0.875   3.977   0.275 -0.2370  1.0716  0.8395
 8697SOL     OW37549   0.728   3.813   8.706 -0.3876 -0.3598  0.1706
 8697SOL    HW137550   0.728   3.731   8.657  1.2579 -1.2212  1.6081
 8697SOL    HW237551   0.639   3.822   8.740 -1.2637 -2.6529 -1.5272
 8698SOL     OW37552   4.024   2.844   2.976 -0.7492 -0.0153  0.2738
 8698SOL    HW137553   3.974   2.801   2.906 -1.0822 -0.6908  0.9356
 8698SOL    HW237554   3.972   2.924   2.986 -1.2755 -0.1465 -1.2988
 8699SOL     OW37555   4.356   0.608   3.835 -0.1751 -0.5839 -0.8359
 8699SOL    HW137556   4.401   0.665   3.897 -2.3979  0.7951 -0.4914
 8699SOL    HW237557   4.377   0.652   3.753 -0.5004  2.0057  0.4648
 8700SOL     OW37558   1.355   1.430  10.530 -0.7177 -0.0993  0.3831
 8700SOL    HW137559   1.386   1.407  10.618  0.9749  3.0731  0.5898
 8700SOL    HW237560   1.262   1.411  10.522 -0.7282 -0.0261  0.3362
 8701SOL     OW37561   3.217   2.167   9.952 -0.5238  0.5515 -0.5029
 8701SOL    HW137562   3.306   2.170   9.988 -0.4373  1.1422 -0.7720
 8701SOL    HW237563   3.199   2.260   9.968 -1.5528  0.6934 -2.5535
 8702SOL     OW37564   4.527   3.468  14.167 -0.1170  0.0588  0.2127
 8702SOL    HW137565   4.500   3.533  14.102  0.9998 -0.9166 -1.2604
 8702SOL    HW237566   4.613   3.444  14.131 -0.3424  0.1445 -0.3863
 8703SOL     OW37567   1.653   4.603  11.746 -0.5592  0.0256 -0.2649
 8703SOL    HW137568   1.718   4.608  11.676 -0.4899  0.9045 -0.1380
 8703SOL    HW237569   1.708   4.611  11.824  1.4609 -2.8826 -1.4086
 8704SOL     OW37570   4.058   2.869   5.422 -0.4489 -0.2034 -1.0777
 8704SOL    HW137571   4.029   2.803   5.358 -0.0845 -0.1384 -1.3101
 8704SOL    HW237572   4.094   2.938   5.366 -1.1967  0.8177 -0.3014
 8705SOL     OW37573   3.704   2.486   8.314  0.0258  0.5376 -0.1734
 8705SOL    HW137574   3.754   2.421   8.364 -1.1287 -1.0369 -1.0862
 8705SOL    HW237575   3.733   2.565   8.359 -0.2720 -0.1737  1.2846
 8706SOL     OW37576   1.735   1.829   3.914  0.2771  0.2675  0.2700
 8706SOL    HW137577   1.744   1.778   3.834 -1.7884  0.7355 -0.2545
 8706SOL    HW237578   1.766   1.917   3.892  2.4102 -0.4789  0.2691
 8707SOL     OW37579   0.183   3.948   3.411 -0.1759 -0.4548 -0.1935
 8707SOL    HW137580   0.246   4.011   3.375  1.0425 -1.9964 -0.7486
 8707SOL    HW237581   0.100   3.996   3.406  0.3380  0.5678  0.8885
 8708SOL     OW37582   0.336   1.401   2.659  0.2686  0.3337 -0.0188
 8708SOL    HW137583   0.324   1.339   2.587  3.5637 -1.3448  0.8836
 8708SOL    HW237584   0.252   1.397   2.704 -0.5650 -0.1148 -1.6396
 8709SOL     OW37585   2.863   4.644   4.491 -0.8158  0.4285 -0.2305
 8709SOL    HW137586   2.835   4.643   4.583 -2.8677  2.9228 -0.8328
 8709SOL    HW237587   2.842   0.016   4.479  0.9906  0.4367 -3.3655
 8710SOL     OW37588   2.596   2.243   2.065 -0.5923 -0.2329 -0.0640
 8710SOL    HW137589   2.538   2.223   1.992 -1.8686 -0.1812  0.9304
 8710SOL    HW237590   2.649   2.311   2.024 -2.7269  1.0723 -0.6711
 8711SOL     OW37591   0.699   1.775  15.296  0.0143 -0.3926  0.4741
 8711SOL    HW137592   0.714   1.765  15.202 -2.2356 -3.3558  0.4166
 8711SOL    HW237593   0.785   1.748  15.327  0.3302 -0.0795 -0.1213
 8712SOL     OW37594   2.156   3.599   4.129 -0.6744 -0.3820 -0.1347
 8712SOL    HW137595   2.220   3.668   4.149 -1.5853  0.6919 -0.9771
 8712SOL    HW237596   2.149   3.593   4.034  2.8223 -0.0625 -0.4220
 8713SOL     OW37597   4.700   3.940   4.996  0.0746  0.0405  0.3701
 8713SOL    HW137598   4.669   4.029   5.013  0.7522  0.2546  0.4901
 8713SOL    HW237599   0.050   3.972   4.939 -0.4245 -0.5801 -0.5978
 8714SOL     OW37600   2.486   2.962  16.480 -0.2732  0.1146 -0.0856
 8714SOL    HW137601   2.413   2.911  16.515 -0.0990  1.2349  1.9424
 8714SOL    HW237602   2.542   2.894  16.444 -0.5071 -1.0701  1.7660
 8715SOL     OW37603   0.628   4.116   5.403 -0.0663 -0.5041  0.1848
 8715SOL    HW137604   0.569   4.190   5.388 -0.1931 -0.7580 -0.5364
 8715SOL    HW237605   0.570   4.054   5.448  0.9669 -0.7087  1.2440
 8716SOL     OW37606   2.000   0.579  12.545 -0.2771 -0.1228  0.0997
 8716SOL    HW137607   1.954   0.549  12.623  2.4208  0.5431  1.9452
 8716SOL    HW237608   2.016   0.669  12.574  1.8272 -0.6538  0.5577
 8717SOL     OW37609   1.809   1.072   8.729  0.0817 -0.3412  0.0145
 8717SOL    HW137610   1.867   0.998   8.714 -0.1008 -0.0411 -2.0987
 8717SOL    HW237611   1.834   1.097   8.818  0.1596 -1.6312  0.3573
 8718SOL     OW37612   0.763   2.473  14.534 -0.4793  0.6626  0.0180
 8718SOL    HW137613   0.819   2.477  14.456  1.4746  0.6222  1.4026
 8718SOL    HW237614   0.693   2.534  14.513 -0.6987 -0.2911 -2.0451
 8719SOL     OW37615   3.742   4.178  15.959  0.1304 -0.6805  0.2296
 8719SOL    HW137616   3.783   4.172  15.873 -1.1745  0.6884 -0.4912
 8719SOL    HW237617   3.787   4.253  15.999 -0.6019  1.2986 -2.6824
 8720SOL     OW37618   0.512   2.646   6.396  0.0784  0.1139 -0.2674
 8720SOL    HW137619   0.452   2.578   6.367  0.1971  0.5748 -1.5823
 8720SOL    HW237620   0.597   2.602   6.389 -0.9890 -1.5829 -2.3374
 8721SOL     OW37621   3.702   0.915   6.293  0.5503  0.3065  0.4012
 8721SOL    HW137622   3.679   0.921   6.385 -0.4044 -1.0044  0.2356
 8721SOL    HW237623   3.797   0.910   6.302  0.8079  4.4881  0.2476
 8722SOL     OW37624   1.396   1.429  13.213  0.2595 -0.4358  0.1523
 8722SOL    HW137625   1.304   1.454  13.222  0.5826  0.1328  1.6849
 8722SOL    HW237626   1.432   1.494  13.153 -0.1567 -0.4080 -0.0664
 8723SOL     OW37627   2.001   2.766   2.360  0.0502 -0.2795  0.0401
 8723SOL    HW137628   1.975   2.779   2.269  0.0114 -0.5460  0.0125
 8723SOL    HW237629   2.094   2.784   2.345  0.3541 -1.3882  0.5916
 8724SOL     OW37630   3.972   0.592   1.916  0.3301 -0.6090  0.0037
 8724SOL    HW137631   4.039   0.525   1.920  1.4730  0.6049  1.3776
 8724SOL    HW237632   3.908   0.558   1.853 -2.4374  3.2943  0.7027
 8725SOL     OW37633   4.664   0.065  11.330  0.2746 -0.2043 -0.4700
 8725SOL    HW137634   4.624   0.116  11.260  1.1420  0.5703 -0.4113
 8725SOL    HW237635   4.593   0.077  11.393 -0.2163 -2.1267 -0.6756
 8726SOL     OW37636   0.250   4.215   2.341  0.3524 -0.3194  0.1027
 8726SOL    HW137637   0.319   4.153   2.366  1.7409  0.8230 -0.9205
 8726SOL    HW237638   0.312   4.288   2.349  0.8460 -0.7149 -0.0505
 8727SOL     OW37639   0.873   3.798   1.818  0.2977 -0.8893  0.1461
 8727SOL    HW137640   0.882   3.883   1.774  0.4543 -1.2757 -0.5598
 8727SOL    HW237641   0.807   3.757   1.762 -1.8157  0.2538  1.7969
 8728SOL     OW37642   3.737   1.566   4.163 -0.4327  0.7222  0.2283
 8728SOL    HW137643   3.817   1.569   4.110  0.6936  3.9704  2.1560
 8728SOL    HW237644   3.672   1.603   4.104 -0.1995 -1.7594 -1.6105
 8729SOL     OW37645   0.982   4.368  12.789  0.4602 -0.1602 -0.6471
 8729SOL    HW137646   0.906   4.309  12.783  1.1593 -1.2243  0.8771
 8729SOL    HW237647   1.040   4.322  12.729  0.7364  0.2930 -0.7259
 8730SOL     OW37648   2.329   1.696   7.883 -0.1805  0.3389  0.8143
 8730SOL    HW137649   2.420   1.671   7.903 -0.9424 -1.6498  1.7821
 8730SOL    HW237650   2.294   1.607   7.882  0.4789  0.0879  0.1025
 8731SOL     OW37651   3.063   1.137   6.771 -0.3481 -0.2199 -0.1858
 8731SOL    HW137652   3.147   1.155   6.728  0.5044  1.2845  2.0738
 8731SOL    HW237653   3.039   1.228   6.789  3.4182  0.9092 -0.8951
 8732SOL     OW37654   2.359   4.569   6.199 -0.0544 -0.4207  0.3463
 8732SOL    HW137655   2.436   4.554   6.146 -0.1678 -1.0602  0.3708
 8732SOL    HW237656   2.295   4.516   6.152 -0.0785 -1.6849  1.8182
 8733SOL     OW37657   2.760   3.881   2.539  0.5945  0.2358 -0.1391
 8733SOL    HW137658   2.725   3.818   2.602 -2.3588  1.5049 -0.5234
 8733SOL    HW237659   2.689   3.869   2.475  0.8008  1.4213 -0.5797
 8734SOL     OW37660   2.973   4.546  13.284  0.1810  0.0909  0.2316
 8734SOL    HW137661   3.008   4.476  13.339  0.7739  0.3342  0.1664
 8734SOL    HW237662   3.053   4.584  13.248 -0.3737  1.0865  0.0741
 8735SOL     OW37663   2.320   0.231   2.931 -0.2689 -0.2505 -0.1567
 8735SOL    HW137664   2.380   0.158   2.917  0.1725  0.4586 -1.9401
 8735SOL    HW237665   2.263   0.214   2.856  1.6414 -0.4966 -1.5523
 8736SOL     OW37666   3.144   2.999   2.488 -0.0058  0.5971  0.6270
 8736SOL    HW137667   3.111   2.985   2.400 -0.4171  0.5259  0.7936
 8736SOL    HW237668   3.063   3.036   2.522 -1.9479 -1.3120 -1.9892
 8737SOL     OW37669   4.005   0.345  14.525  0.4036 -0.1606  0.2368
 8737SOL    HW137670   3.950   0.347  14.603 -2.2524 -3.0949 -1.5515
 8737SOL    HW237671   4.033   0.255  14.542  1.4741  0.3222  1.0304
 8738SOL     OW37672   2.147   1.576   8.558  0.7403 -0.5131  1.2087
 8738SOL    HW137673   2.065   1.625   8.557 -1.0167 -3.5318  0.1367
 8738SOL    HW237674   2.148   1.535   8.645 -0.3029 -2.7139  0.1796
 8739SOL     OW37675   1.597   1.073   5.764 -0.2491 -0.0402 -0.1521
 8739SOL    HW137676   1.546   1.134   5.817 -0.6399  1.1813 -1.9375
 8739SOL    HW237677   1.532   1.003   5.763 -1.7377  1.3536 -0.7141
 8740SOL     OW37678   2.979   1.568   4.017 -0.2782  0.1077  0.0071
 8740SOL    HW137679   2.992   1.627   4.092 -0.5815  0.2756 -0.0725
 8740SOL    HW237680   2.902   1.607   3.975 -0.1518  2.0703  1.5855
 8741SOL     OW37681   2.732   2.343   7.838 -0.0276  0.1626  0.2404
 8741SOL    HW137682   2.637   2.355   7.837 -0.1331 -0.6562  0.2539
 8741SOL    HW237683   2.758   2.308   7.753 -0.4101 -0.7339  0.4943
 8742SOL     OW37684   2.993   0.197   0.219 -0.0258 -0.4004 -0.0300
 8742SOL    HW137685   3.017   0.192   0.312 -1.0839  0.3920  0.2873
 8742SOL    HW237686   2.904   0.230   0.232  0.7138  1.2905  0.6657
 8743SOL     OW37687   2.319   1.674   6.397  0.5702  0.1993 -0.2325
 8743SOL    HW137688   2.385   1.617   6.356 -0.4704 -0.7713 -0.5461
 8743SOL    HW237689   2.376   1.748   6.417 -0.2938  0.9662 -0.6105
 8744SOL     OW37690   4.506   0.103  13.620  0.3093 -0.0099 -0.6637
 8744SOL    HW137691   4.463   0.019  13.606  1.5973 -0.6838 -0.5724
 8744SOL    HW237692   4.472   0.141  13.539 -0.9458  2.5132  1.0763
 8745SOL     OW37693   4.520   1.849   4.884  0.1919 -0.4561  0.1198
 8745SOL    HW137694   4.530   1.770   4.937 -0.0845 -0.4752  0.1482
 8745SOL    HW237695   4.602   1.856   4.837 -0.6079  2.3455 -0.8936
 8746SOL     OW37696   4.080   1.908  15.268 -0.4370  0.0487  0.2083
 8746SOL    HW137697   4.140   1.873  15.334  0.1157 -0.8721 -0.7684
 8746SOL    HW237698   4.023   1.969  15.315 -1.5469 -0.9856  0.1977
 8747SOL     OW37699   3.676   3.811  11.861  0.6887  0.1406 -0.1479
 8747SOL    HW137700   3.753   3.839  11.909  2.4770 -2.0944 -1.7195
 8747SOL    HW237701   3.687   3.720  11.834 -0.4166  0.8265 -2.9432
 8748SOL     OW37702   3.152   0.660   4.090  0.4341  0.2923 -0.0469
 8748SOL    HW137703   3.078   0.600   4.092  0.8083 -0.1825 -0.4905
 8748SOL    HW237704   3.178   0.665   4.182  0.8981 -0.0032 -0.1612
 8749SOL     OW37705   2.431   4.666   4.620 -0.0928  0.4298  0.2686
 8749SOL    HW137706   2.440   4.587   4.567  0.3299  0.2330  0.6407
 8749SOL    HW237707   2.347   4.704   4.595 -0.5658 -0.4903  0.4622
 8750SOL     OW37708   3.645   4.630   5.002  0.0744  0.0172  0.8116
 8750SOL    HW137709   3.634   4.555   5.060  0.5676  0.0388  0.9340
 8750SOL    HW237710   3.624   4.589   4.919  1.6016  0.9502 -0.0386
 8751SOL     OW37711   1.342   3.390   2.562 -0.2641  0.3559  0.1922
 8751SOL    HW137712   1.389   3.405   2.645  0.9156 -0.9375 -0.2320
 8751SOL    HW237713   1.377   3.460   2.508 -1.5538  0.4743 -0.4761
 8752SOL     OW37714   0.916   2.159   1.906 -0.2056 -0.4338  0.1745
 8752SOL    HW137715   0.943   2.113   1.986  0.4732 -0.7455 -0.2288
 8752SOL    HW237716   0.821   2.165   1.911 -0.1462  1.2388 -1.2020
 8753SOL     OW37717   1.387   3.106   5.701  0.0200  0.7183 -0.4239
 8753SOL    HW137718   1.389   3.192   5.659  1.2635  0.2359 -1.3603
 8753SOL    HW237719   1.305   3.116   5.749  0.5912  0.5742  0.5691
 8754SOL     OW37720   2.069   1.859   0.542 -0.6705 -0.4056  0.8434
 8754SOL    HW137721   2.118   1.935   0.574  0.5529 -0.1868 -1.5376
 8754SOL    HW237722   2.126   1.827   0.472 -0.4960  0.9133  0.3810
 8755SOL     OW37723   3.881   1.356  15.199 -0.1249  0.1584  0.0814
 8755SOL    HW137724   3.792   1.385  15.179  0.3966  1.3041 -0.6091
 8755SOL    HW237725   3.914   1.431  15.249  1.3321 -1.8455  2.1425
 8756SOL     OW37726   1.562   3.061   7.113 -0.0749 -0.4281 -0.1327
 8756SOL    HW137727   1.625   2.990   7.098 -0.3674 -0.5164 -0.9510
 8756SOL    HW237728   1.535   3.038   7.202 -1.6907  1.1304 -0.2272
 8757SOL     OW37729   3.094   1.526  15.699  0.6161 -0.3296 -0.1456
 8757SOL    HW137730   3.053   1.608  15.727 -1.2817 -0.9325 -1.1973
 8757SOL    HW237731   3.026   1.497  15.639 -0.0490  1.3134 -0.1993
 8758SOL     OW37732   3.762   1.331   3.868 -0.0307  0.4438  0.1741
 8758SOL    HW137733   3.833   1.299   3.924  0.3533  2.0339  0.6155
 8758SOL    HW237734   3.797   1.417   3.845 -0.1863  0.4068 -0.1966
 8759SOL     OW37735   0.501   0.264  17.154  0.0861  0.6653 -0.2994
 8759SOL    HW137736   0.501   0.197  17.222  2.4251  1.0189  0.0706
 8759SOL    HW237737   0.416   0.244  17.115  0.7961  1.1613 -2.1221
 8760SOL     OW37738   3.318   2.506  15.312  0.1932  0.3763 -0.8300
 8760SOL    HW137739   3.413   2.517  15.316  0.2888  0.0175 -2.1943
 8760SOL    HW237740   3.295   2.589  15.271  1.2532  0.4860 -1.2058
 8761SOL     OW37741   1.715   2.219   7.944  0.1819 -0.2497  0.0416
 8761SOL    HW137742   1.695   2.196   7.853 -2.4636  0.7963  0.3835
 8761SOL    HW237743   1.808   2.196   7.951  0.3027  0.4795  0.7982
 8762SOL     OW37744   3.105   3.030   4.300 -0.3779  0.2891 -0.2529
 8762SOL    HW137745   3.113   3.098   4.366  0.2523 -0.8750  0.8757
 8762SOL    HW237746   3.140   2.957   4.351 -0.1777 -0.2037 -1.0840
 8763SOL     OW37747   4.209   1.560   2.794  0.6888 -0.1601  0.3285
 8763SOL    HW137748   4.136   1.502   2.772  0.2704  0.6467 -0.4087
 8763SOL    HW237749   4.284   1.500   2.788  1.8060  1.1281  1.4004
 8764SOL     OW37750   0.252   1.915   3.281 -0.4597 -0.1604  0.1556
 8764SOL    HW137751   0.172   1.963   3.301 -1.4036 -1.5017 -0.3995
 8764SOL    HW237752   0.314   1.988   3.272 -1.3722  0.5670 -0.1600
 8765SOL     OW37753   2.497   0.802   6.674  0.3067  0.0515  0.0210
 8765SOL    HW137754   2.468   0.753   6.751 -0.7955 -0.2108 -0.5718
 8765SOL    HW237755   2.556   0.866   6.714  0.8155 -1.0460  1.0436
 8766SOL     OW37756   4.058   1.119   2.554  0.8042  0.0454 -0.0726
 8766SOL    HW137757   3.980   1.137   2.502  1.4753  1.5197 -0.5908
 8766SOL    HW237758   4.021   1.119   2.642  3.3802  0.3906  1.0090
 8767SOL     OW37759   0.059   0.205   6.434 -0.0769 -0.0164  0.0164
 8767SOL    HW137760   0.083   0.208   6.342 -0.8312  1.2298 -0.1444
 8767SOL    HW237761   4.695   0.161   6.426 -0.4021  0.8046 -0.9319
 8768SOL     OW37762   0.844   2.481   5.798 -0.6297  0.0183  0.3797
 8768SOL    HW137763   0.752   2.505   5.792 -0.5187  0.8224  1.8789
 8768SOL    HW237764   0.870   2.486   5.890  2.7536 -0.9076 -0.5379
 8769SOL     OW37765   3.065   1.007  11.298  0.4313  0.0258 -0.1269
 8769SOL    HW137766   3.068   0.957  11.380 -1.3195 -0.9791 -0.6837
 8769SOL    HW237767   3.158   1.010  11.273  0.5097  1.1255  0.2720
 8770SOL     OW37768   2.570   0.860  15.568  0.2178 -0.6994 -0.2541
 8770SOL    HW137769   2.484   0.884  15.603 -0.2080  1.1218 -2.5200
 8770SOL    HW237770   2.641   0.898  15.619  1.0345 -2.0361 -0.4044
 8771SOL     OW37771   1.888   2.833   3.452  0.4658 -0.0527 -0.3956
 8771SOL    HW137772   1.817   2.855   3.513 -0.7747  1.3163 -2.3329
 8771SOL    HW237773   1.856   2.750   3.417  3.2525 -1.2316 -0.1640
 8772SOL     OW37774   2.227   1.666   2.669 -0.0013 -0.2990 -0.0300
 8772SOL    HW137775   2.196   1.576   2.655 -0.8275 -0.2466  1.5486
 8772SOL    HW237776   2.311   1.667   2.622  0.8931  1.5975  1.5826
 8773SOL     OW37777   1.346   3.827   8.332 -0.4342 -0.1025 -0.3035
 8773SOL    HW137778   1.351   3.732   8.324 -2.2999 -0.0926 -1.6845
 8773SOL    HW237779   1.255   3.840   8.362 -1.2560 -0.9422 -2.4590
 8774SOL     OW37780   1.327   2.886   5.159 -0.4945  0.2916 -0.1116
 8774SOL    HW137781   1.293   2.799   5.178 -0.8281  0.0159 -2.0430
 8774SOL    HW237782   1.335   2.926   5.246 -0.1684  1.3966 -0.6499
 8775SOL     OW37783   4.056   0.083   6.549  0.2821 -0.6862  0.4602
 8775SOL    HW137784   3.980   0.040   6.511 -0.1536  0.8512 -0.4039
 8775SOL    HW237785   4.061   0.149   6.480 -1.3306  0.2427  1.2348
 8776SOL     OW37786   3.481   1.700   6.350  0.3683  0.1575  0.1233
 8776SOL    HW137787   3.486   1.776   6.406  2.4937  0.1162  0.0279
 8776SOL    HW237788   3.484   1.739   6.262  0.7149  0.2392  0.1690
 8777SOL     OW37789   3.987   0.773   3.466  0.2547  0.2796  0.4887
 8777SOL    HW137790   3.972   0.681   3.488 -3.0409  1.0221  1.2179
 8777SOL    HW237791   4.007   0.768   3.373  0.8236 -0.7597  0.6625
 8778SOL     OW37792   0.269   2.154   4.638 -0.1338 -0.0134  0.2577
 8778SOL    HW137793   0.298   2.095   4.707  1.6539 -1.2971 -1.5670
 8778SOL    HW237794   0.206   2.198   4.695  0.9446 -0.0904  1.4837
 8779SOL     OW37795   0.205   0.874   8.124 -0.1356  0.5025  0.1357
 8779SOL    HW137796   0.166   0.928   8.056  1.1686 -0.5097 -1.4231
 8779SOL    HW237797   0.245   0.943   8.177 -1.0325  0.8344  0.3762
 8780SOL     OW37798   1.183   3.439   8.360 -0.0845  0.5718  0.0203
 8780SOL    HW137799   1.102   3.425   8.409 -0.5577 -3.0637 -1.8422
 8780SOL    HW237800   1.164   3.422   8.268 -1.2900  0.6009  0.2533
 8781SOL     OW37801   2.599   2.174   2.546  0.0023  0.4089  0.0557
 8781SOL    HW137802   2.598   2.245   2.610  1.5102  1.4915 -1.1348
 8781SOL    HW237803   2.532   2.122   2.591  0.7036 -0.0508  0.5725
 8782SOL     OW37804   1.604   2.096   8.584  0.6798  0.8053  0.6247
 8782SOL    HW137805   1.528   2.126   8.634  0.8379  4.9432 -1.5829
 8782SOL    HW237806   1.624   2.174   8.531 -5.2286  2.0829  0.3096
 8783SOL     OW37807   4.250   1.508   8.437 -0.2712  0.1265 -0.4162
 8783SOL    HW137808   4.256   1.527   8.343 -0.4067 -2.4542 -0.9498
 8783SOL    HW237809   4.159   1.477   8.442  0.3860 -1.0489  4.6922
 8784SOL     OW37810   1.826   1.210   3.326 -0.6928  0.4626 -0.1516
 8784SOL    HW137811   1.800   1.143   3.262  0.4841 -0.6673  0.5597
 8784SOL    HW237812   1.900   1.164   3.364  0.2688  1.3842 -0.9262
 8785SOL     OW37813   4.426   0.306   1.481  0.4900  0.0411  0.1031
 8785SOL    HW137814   4.382   0.223   1.460 -2.4583  1.7039 -0.2304
 8785SOL    HW237815   4.469   0.282   1.563 -2.4166 -0.3502  1.5142
 8786SOL     OW37816   0.472   0.102   7.117 -0.2478 -0.2166 -0.6417
 8786SOL    HW137817   0.550   0.158   7.122 -1.1043  0.9558 -0.5703
 8786SOL    HW237818   0.498   0.032   7.056 -0.8050 -0.3861 -0.6781
 8787SOL     OW37819   1.697   0.064   7.348 -0.0465 -0.0768 -0.0966
 8787SOL    HW137820   1.745   0.147   7.351  0.0992 -0.2255  1.5499
 8787SOL    HW237821   1.606   0.094   7.345 -0.6565 -1.6553  2.0102
 8788SOL     OW37822   3.523   3.914   3.509  0.2201  0.5975  0.2959
 8788SOL    HW137823   3.445   3.954   3.547  0.0070  1.4883 -1.0694
 8788SOL    HW237824   3.494   3.876   3.426  2.0292  2.5124 -1.2140
 8789SOL     OW37825   3.794   0.147   7.568  0.2630  0.0259 -0.7341
 8789SOL    HW137826   3.849   0.220   7.540 -1.1518  2.2841  2.3689
 8789SOL    HW237827   3.726   0.192   7.619  0.6657  0.3793 -0.5126
 8790SOL     OW37828   1.642   0.678   9.682 -0.3142 -0.0588 -0.4509
 8790SOL    HW137829   1.724   0.653   9.726  1.0327  1.3761 -2.1142
 8790SOL    HW237830   1.663   0.627   9.604  0.0389  0.2068 -0.5290
 8791SOL     OW37831   1.528   4.474   4.506 -0.2451 -0.9919 -0.1381
 8791SOL    HW137832   1.462   4.536   4.476 -0.6038 -0.5520  1.5721
 8791SOL    HW237833   1.573   4.531   4.568 -2.8630 -0.0556  0.8944
 8792SOL     OW37834   2.896   2.843   2.715 -0.1331  0.3173 -0.0028
 8792SOL    HW137835   2.898   2.924   2.665 -0.1809  1.7249  2.2911
 8792SOL    HW237836   2.805   2.815   2.703 -0.4882  0.9736  1.2224
 8793SOL     OW37837   2.090   2.304  17.396 -0.2098  0.1908 -0.1882
 8793SOL    HW137838   2.136   2.371  17.346  0.8239 -1.3192 -1.2716
 8793SOL    HW237839   2.022   2.283  17.331  0.9504 -0.3453 -1.2360
 8794SOL     OW37840   0.378   3.589   7.250  0.3787 -0.1205 -0.4791
 8794SOL    HW137841   0.326   3.619   7.175  0.8240  0.2753 -0.6326
 8794SOL    HW237842   0.332   3.510   7.280 -0.7349  0.8036  0.2730
 8795SOL     OW37843   2.753   3.322  13.472 -0.0847 -0.0967  0.2389
 8795SOL    HW137844   2.737   3.390  13.537 -0.3433 -0.1799  0.2619
 8795SOL    HW237845   2.847   3.340  13.468  0.2489 -1.6253  1.0718
 8796SOL     OW37846   2.274   0.076   7.529 -1.0026  0.0506 -0.2304
 8796SOL    HW137847   2.319   0.084   7.612  0.6713 -1.5582 -1.0104
 8796SOL    HW237848   2.352   0.070   7.474  0.8025  1.3997  2.2257
 8797SOL     OW37849   4.153   4.515  16.164  0.2516  0.0225  0.4393
 8797SOL    HW137850   4.059   4.533  16.162  0.0041 -1.5420 -1.1470
 8797SOL    HW237851   4.142   4.441  16.223  1.5429 -0.1887  0.4266
 8798SOL     OW37852   1.290   1.357   4.057 -0.2732 -0.1651 -0.1719
 8798SOL    HW137853   1.384   1.340   4.048 -0.1307  0.8536 -0.5703
 8798SOL    HW237854   1.269   1.434   4.004 -0.3206 -0.0557  0.0092
 8799SOL     OW37855   0.808   0.627  15.081 -0.4064 -0.2801 -0.5877
 8799SOL    HW137856   0.857   0.548  15.107 -0.9071 -0.5263 -0.3894
 8799SOL    HW237857   0.757   0.596  15.006 -2.2806 -1.8553  1.3514
 8800SOL     OW37858   1.919   2.111   7.545  0.1807 -0.3429  0.1608
 8800SOL    HW137859   1.928   2.198   7.506  1.4244 -1.2582 -1.6077
 8800SOL    HW237860   1.842   2.078   7.498 -0.3362 -1.1297  1.5650
 8801SOL     OW37861   2.707   1.334   3.011 -0.2760  0.2820 -0.1813
 8801SOL    HW137862   2.646   1.373   3.073  0.7704  1.2967  0.2234
 8801SOL    HW237863   2.794   1.341   3.051 -0.9132 -3.7669  1.9534
 8802SOL     OW37864   4.712   2.147   2.108 -0.3642  0.4535  0.0813
 8802SOL    HW137865   0.000   2.208   2.182 -2.3178  2.0090 -0.9673
 8802SOL    HW237866   0.073   2.161   2.061 -0.6790 -0.7396 -0.8195
 8803SOL     OW37867   2.465   3.269  10.493  0.3447 -0.3464  0.3765
 8803SOL    HW137868   2.440   3.205  10.559 -1.1614 -0.7411 -0.5883
 8803SOL    HW237869   2.506   3.333  10.552 -0.4969  0.6447 -0.1084
 8804SOL     OW37870   2.538   0.961  17.483  0.1557  0.5414  0.3703
 8804SOL    HW137871   2.563   0.986  17.394  1.7155 -1.6487  0.1908
 8804SOL    HW237872   2.460   0.905  17.471  1.7499 -1.1026 -2.3510
 8805SOL     OW37873   3.322   2.049   3.733 -0.0387  0.4711  0.6872
 8805SOL    HW137874   3.405   2.054   3.781  1.3025 -0.8036 -1.5342
 8805SOL    HW237875   3.271   2.019   3.809  1.5761 -2.6305  0.5361
 8806SOL     OW37876   2.394   3.383   1.051 -0.3714  0.0517  0.1921
 8806SOL    HW137877   2.350   3.298   1.047  1.2971 -0.8744  1.6538
 8806SOL    HW237878   2.387   3.416   0.961 -0.6604 -0.2007  0.1206
 8807SOL     OW37879   0.215   3.998   5.693 -0.3949  0.3488  0.7606
 8807SOL    HW137880   0.140   4.053   5.717  0.2628  1.2598  0.7326
 8807SOL    HW237881   0.178   3.937   5.629  4.1615 -2.2472  0.6117
 8808SOL     OW37882   0.831   0.102  16.392  0.2192  0.1931  0.3443
 8808SOL    HW137883   0.781   0.172  16.349 -0.3127 -1.0734 -1.0675
 8808SOL    HW237884   0.791   0.024  16.354 -1.0884  2.0176 -2.0174
 8809SOL     OW37885   1.313   4.589   8.197 -1.0463  0.1268  0.0935
 8809SOL    HW137886   1.269   4.566   8.279  0.1874  1.6526  1.1846
 8809SOL    HW237887   1.361   4.667   8.224 -0.3218  0.3050 -1.7478
 8810SOL     OW37888   0.447   1.066   6.624  0.2770 -0.1828 -0.0747
 8810SOL    HW137889   0.438   1.043   6.716  0.5631 -1.4585 -0.3541
 8810SOL    HW237890   0.519   1.128   6.634 -0.5098  0.7512 -0.1886
 8811SOL     OW37891   1.668   3.068   9.159 -0.1716 -0.1524  0.4600
 8811SOL    HW137892   1.676   3.122   9.238  0.8809  1.4909 -0.7604
 8811SOL    HW237893   1.747   3.097   9.114 -1.4330 -1.1145 -2.4138
 8812SOL     OW37894   4.246   3.758  10.682  0.6544 -0.2594  0.3186
 8812SOL    HW137895   4.180   3.715  10.736  0.2167 -0.8090 -0.6497
 8812SOL    HW237896   4.319   3.720  10.730  2.0121  0.8657 -0.8519
 8813SOL     OW37897   2.125   2.592   5.582 -0.6951  0.5941  0.7791
 8813SOL    HW137898   2.048   2.541   5.609 -2.5781  2.2308 -1.4647
 8813SOL    HW237899   2.196   2.550   5.630 -1.2332 -1.1408  0.0755
 8814SOL     OW37900   4.622   3.420   1.698  0.1256 -0.3926  0.6593
 8814SOL    HW137901   4.614   3.503   1.651  1.7276 -1.9909 -2.4202
 8814SOL    HW237902   4.718   3.411   1.698  0.2033  0.4006 -1.2784
 8815SOL     OW37903   4.014   3.846   5.951  0.3753  0.1156 -0.0629
 8815SOL    HW137904   4.067   3.889   5.883  1.2053  1.0639  1.1953
 8815SOL    HW237905   4.057   3.760   5.956 -1.6295 -0.9395 -0.7605
 8816SOL     OW37906   1.177   1.377  14.239  0.2152 -0.1302  0.1051
 8816SOL    HW137907   1.257   1.343  14.278  0.4058  1.6893  1.2986
 8816SOL    HW237908   1.140   1.305  14.188  2.4802 -0.0969 -1.5489
 8817SOL     OW37909   2.922   4.201   3.388  0.1207 -0.1457  0.1101
 8817SOL    HW137910   2.870   4.233   3.314 -1.9593 -0.2934  1.5171
 8817SOL    HW237911   2.852   4.170   3.445 -1.4324 -0.5666 -2.0129
 8818SOL     OW37912   1.744   3.472  16.344  0.6160 -0.3590  0.1874
 8818SOL    HW137913   1.770   3.475  16.252  0.4331 -0.8022  0.1225
 8818SOL    HW237914   1.827   3.497  16.386  0.2001  0.7684  0.3173
 8819SOL     OW37915   1.667   2.702   6.113 -0.5557 -0.0666  0.0424
 8819SOL    HW137916   1.710   2.670   6.192 -0.0212  1.9984  0.6109
 8819SOL    HW237917   1.576   2.685   6.136  0.2074 -0.6891  2.5583
 8820SOL     OW37918   4.304   2.239   5.105 -0.3613  0.0623  0.6028
 8820SOL    HW137919   4.304   2.195   5.020  1.8969  0.5693  0.3551
 8820SOL    HW237920   4.283   2.171   5.169  0.1441  1.0842  1.8398
 8821SOL     OW37921   4.572   2.367   3.798 -0.4489  0.0112  0.1555
 8821SOL    HW137922   4.584   2.288   3.851 -1.5806  0.5598  1.2473
 8821SOL    HW237923   4.483   2.398   3.811 -0.1531  0.4104  1.2805
 8822SOL     OW37924   2.561   0.300  17.291  0.7762 -0.2271 -0.7335
 8822SOL    HW137925   2.546   0.394  17.300  0.7123 -0.3034 -0.0750
 8822SOL    HW237926   2.656   0.299  17.305  0.4735 -0.1733  1.3422
 8823SOL     OW37927   0.639   2.930   9.060  0.5428  0.1812 -0.4292
 8823SOL    HW137928   0.670   3.014   9.026  0.3410 -0.0484 -1.1757
 8823SOL    HW237929   0.559   2.919   9.008  0.9293 -0.1872 -0.9565
 8824SOL     OW37930   2.199   4.072   3.196  0.1625  0.4398 -0.0181
 8824SOL    HW137931   2.104   4.082   3.189  0.2101  1.6107  1.0799
 8824SOL    HW237932   2.213   4.153   3.245 -1.2245  1.4308 -1.2539
 8825SOL     OW37933   0.640   3.362  14.316  0.0372  0.4727 -0.3556
 8825SOL    HW137934   0.568   3.299  14.317 -0.7474  1.3466 -1.9220
 8825SOL    HW237935   0.601   3.442  14.280  0.1613  1.0259  0.7097
 8826SOL     OW37936   3.452   2.319  14.210  0.2602 -0.2775  0.0022
 8826SOL    HW137937   3.430   2.375  14.284 -0.6080 -1.6819  0.8033
 8826SOL    HW237938   3.456   2.234  14.253 -0.4246 -0.7247 -0.8227
 8827SOL     OW37939   2.804   2.566   6.694  0.1903 -0.1113  0.2212
 8827SOL    HW137940   2.874   2.568   6.759  0.3083  1.0036  0.0704
 8827SOL    HW237941   2.822   2.651   6.654  2.9832  0.5877  2.9051
 8828SOL     OW37942   1.697   1.917  16.537 -0.1036  0.1199  0.1251
 8828SOL    HW137943   1.653   1.994  16.498  0.2222  0.1471 -0.1854
 8828SOL    HW237944   1.749   1.881  16.465 -1.6488 -1.3718 -0.2344
 8829SOL     OW37945   3.109   2.263   9.291  0.1674 -0.6529 -0.1279
 8829SOL    HW137946   3.142   2.196   9.351 -0.4149  1.1000  2.1146
 8829SOL    HW237947   3.130   2.227   9.204 -1.4344 -2.7565  0.3662
 8830SOL     OW37948   4.341   1.888  16.353 -0.2277 -0.1903 -0.2094
 8830SOL    HW137949   4.416   1.933  16.315  1.0725 -0.8520  1.5597
 8830SOL    HW237950   4.282   1.962  16.367  0.3956 -0.3726  3.3759
 8831SOL     OW37951   2.555   0.728   5.968 -0.0492 -0.2837 -0.0920
 8831SOL    HW137952   2.523   0.653   5.917  0.6700 -2.2544  2.3542
 8831SOL    HW237953   2.509   0.709   6.049 -0.6441  1.6739  0.0150
 8832SOL     OW37954   4.350   4.280  15.670  0.6016  0.0056 -0.7778
 8832SOL    HW137955   4.438   4.274  15.706  0.0777 -0.4941  0.3987
 8832SOL    HW237956   4.313   4.358  15.711  1.7152 -0.1315  0.4576
 8833SOL     OW37957   3.156   3.689  12.786 -0.1342  0.6158 -0.6053
 8833SOL    HW137958   3.164   3.784  12.798  1.1504  0.2478  1.4525
 8833SOL    HW237959   3.108   3.685  12.703  0.7233  0.7578 -1.1046
 8834SOL     OW37960   1.886   1.837  17.157 -0.1478  0.4565  0.2357
 8834SOL    HW137961   1.896   1.873  17.245 -1.4820  0.7529  0.2687
 8834SOL    HW237962   1.968   1.860  17.114  0.2547  1.8977  1.7659
 8835SOL     OW37963   0.209   1.037   8.700  0.1181  0.3910 -0.8663
 8835SOL    HW137964   0.264   0.993   8.765  0.0216 -0.7651 -1.5640
 8835SOL    HW237965   0.131   1.062   8.749  2.9251  1.7251  2.9481
 8836SOL     OW37966   1.592   4.163   2.492 -0.0869  0.5111  0.0476
 8836SOL    HW137967   1.606   4.206   2.576  0.0884 -0.2566  0.4090
 8836SOL    HW237968   1.511   4.114   2.510  1.2612 -1.3227  1.0435
 8837SOL     OW37969   4.027   2.720  17.235 -0.1517 -0.0025 -0.4889
 8837SOL    HW137970   4.035   2.648  17.172 -0.7209 -1.7418  1.4135
 8837SOL    HW237971   4.000   2.675  17.316 -0.4879 -0.4678 -0.8588
 8838SOL     OW37972   0.795   3.036   6.870 -0.2233  0.0476  0.1037
 8838SOL    HW137973   0.762   2.981   6.799  0.4299 -0.8328  0.4727
 8838SOL    HW237974   0.782   2.972   6.940 -2.0037 -1.1187 -1.2815
 8839SOL     OW37975   3.308   0.928  11.292  0.4910  0.2925 -0.1634
 8839SOL    HW137976   3.389   0.933  11.240  0.7361 -0.3818  0.1526
 8839SOL    HW237977   3.343   0.950  11.378  0.0153  1.8070 -0.3621
 8840SOL     OW37978   0.639   2.979  15.400  0.0126 -0.1281 -0.0492
 8840SOL    HW137979   0.630   2.889  15.372  1.8306 -0.3316 -0.0124
 8840SOL    HW237980   0.613   3.024  15.320  1.3424 -2.1151 -1.5801
 8841SOL     OW37981   1.766   3.913   1.863  0.2604  0.3471  0.2494
 8841SOL    HW137982   1.772   3.943   1.772  1.4531  0.4565  0.3596
 8841SOL    HW237983   1.681   3.873   1.845 -0.2468  0.9644  1.2831
 8842SOL     OW37984   0.389   3.363   8.179 -0.4254 -0.1764 -0.1658
 8842SOL    HW137985   0.391   3.273   8.210 -1.0975 -0.6266 -1.4317
 8842SOL    HW237986   0.300   3.387   8.203 -0.0869  0.3269  0.5973
 8843SOL     OW37987   0.709   3.366   2.936 -0.0595  0.7720  0.4116
 8843SOL    HW137988   0.786   3.398   2.890  1.3381  0.9606  2.8931
 8843SOL    HW237989   0.696   3.279   2.899 -1.0070  0.6111  1.1216
 8844SOL     OW37990   2.625   3.284   3.213  0.5927  0.1029  0.1427
 8844SOL    HW137991   2.648   3.207   3.265 -1.7987  0.4568  1.6917
 8844SOL    HW237992   2.546   3.319   3.254  1.1515  1.3457  0.1880
 8845SOL     OW37993   1.968   4.618   5.525  0.3994  0.2912 -0.0875
 8845SOL    HW137994   2.009   4.560   5.590 -1.5631  0.9022  1.6877
 8845SOL    HW237995   2.032   4.686   5.505 -0.8946  1.8731  1.2209
 8846SOL     OW37996   2.478   2.469   8.188 -0.4395  0.0321  0.1384
 8846SOL    HW137997   2.472   2.404   8.259  0.0994  0.5506  0.6631
 8846SOL    HW237998   2.547   2.526   8.221 -0.5823  0.4359 -0.2740
 8847SOL     OW37999   0.871   2.462   6.059 -0.4924 -0.3162 -0.5073
 8847SOL    HW138000   0.918   2.505   6.130 -2.7153 -0.1176  0.8566
 8847SOL    HW238001   0.787   2.444   6.102  0.9262 -1.9734  1.5590
 8848SOL     OW38002   2.708   2.422  15.054 -0.2884 -0.6207 -0.2071
 8848SOL    HW138003   2.696   2.390  14.964 -0.9104  0.9695 -0.6855
 8848SOL    HW238004   2.783   2.368  15.079 -0.1694 -0.9492 -1.2488
 8849SOL     OW38005   1.564   4.373   3.037 -0.0556 -0.3967  0.2695
 8849SOL    HW138006   1.563   4.462   3.001 -1.0933 -1.1249 -1.4650
 8849SOL    HW238007   1.471   4.360   3.050 -0.1060 -0.8397 -0.5788
 8850SOL     OW38008   1.709   0.380  13.982  0.2427 -0.0509  0.5668
 8850SOL    HW138009   1.627   0.429  13.991  2.5202  3.7904  0.7394
 8850SOL    HW238010   1.765   0.431  14.041  0.4470  1.1597 -0.6682
 8851SOL     OW38011   2.184   1.731   8.140  0.2892 -0.2983  0.1060
 8851SOL    HW138012   2.277   1.731   8.164  0.3582  0.2618 -0.1499
 8851SOL    HW238013   2.187   1.693   8.052  0.9184 -0.5806  0.2486
 8852SOL     OW38014   4.412   0.694   6.905  0.1190 -0.4312  0.0647
 8852SOL    HW138015   4.469   0.707   6.829 -0.3449  0.6267 -0.1058
 8852SOL    HW238016   4.443   0.757   6.970  1.2677 -0.8158 -0.1013
 8853SOL     OW38017   0.943   3.640  13.201  0.1393  0.0377 -0.4534
 8853SOL    HW138018   0.898   3.567  13.245  0.1935  0.2142 -0.1003
 8853SOL    HW238019   0.885   3.658  13.128  1.2943  1.6017 -0.9653
 8854SOL     OW38020   0.966   0.418   6.161  0.3657 -0.1201  0.2294
 8854SOL    HW138021   1.023   0.490   6.133 -0.7804  0.1034 -1.5852
 8854SOL    HW238022   0.924   0.453   6.240  0.6134 -0.1174  0.3589
 8855SOL     OW38023   2.076   0.681  16.692  0.2459 -0.2517 -0.3895
 8855SOL    HW138024   2.133   0.617  16.734  1.0142  0.8208  0.1866
 8855SOL    HW238025   2.030   0.623  16.631  0.9304 -1.7805  0.5690
 8856SOL     OW38026   4.134   3.103  15.894  0.0133  0.0339 -0.0315
 8856SOL    HW138027   4.227   3.096  15.872 -0.1161 -1.2550 -0.1558
 8856SOL    HW238028   4.105   3.167  15.830  0.7419 -0.5157 -0.9153
 8857SOL     OW38029   2.944   0.791   1.979 -0.8850 -0.4081 -0.4137
 8857SOL    HW138030   3.013   0.856   1.966  0.2926 -1.8963 -1.5602
 8857SOL    HW238031   2.902   0.821   2.059 -0.1034  1.6767 -0.7950
 8858SOL     OW38032   2.105   0.916  15.976 -0.1619 -0.0883 -0.2739
 8858SOL    HW138033   2.161   0.979  15.931  0.7137  1.1915  2.5733
 8858SOL    HW238034   2.043   0.900  15.905  0.0065  1.4319 -0.7540
 8859SOL     OW38035   0.524   4.181  13.065  0.1175 -0.0612  0.4718
 8859SOL    HW138036   0.492   4.271  13.060 -2.5503 -0.9692  1.0014
 8859SOL    HW238037   0.617   4.192  13.083 -0.1548  0.6032  1.4819
 8860SOL     OW38038   0.524   3.664  17.189 -0.0004  0.5340  0.0395
 8860SOL    HW138039   0.443   3.713  17.177 -0.3750  0.5237  2.4051
 8860SOL    HW238040   0.521   3.664  17.285 -0.5956 -1.9868  0.0358
 8861SOL     OW38041   3.045   0.245   6.124  0.0137  0.0013 -0.0282
 8861SOL    HW138042   3.085   0.303   6.059  1.1765  0.2020  0.8655
 8861SOL    HW238043   3.012   0.189   6.055 -1.4609  0.0818  0.6039
 8862SOL     OW38044   1.790   2.767  16.053  0.4387  0.2312 -0.2681
 8862SOL    HW138045   1.731   2.769  15.978  0.9352 -0.8299 -0.6816
 8862SOL    HW238046   1.860   2.828  16.028  0.7683 -0.4798 -1.0577
 8863SOL     OW38047   1.393   3.539   9.239  0.1755 -0.4848 -0.0020
 8863SOL    HW138048   1.485   3.512   9.238 -0.1531 -1.6904  3.3095
 8863SOL    HW238049   1.400   3.630   9.268  0.2314  0.0279 -1.6263
 8864SOL     OW38050   4.036   0.343  16.473  0.3136 -0.1593 -0.0050
 8864SOL    HW138051   4.068   0.289  16.546  0.0838  0.9595  0.9139
 8864SOL    HW238052   4.065   0.430  16.498 -0.3228  0.0069  0.1645
 8865SOL     OW38053   0.423   1.093  13.515 -0.0045  0.2140  0.2198
 8865SOL    HW138054   0.362   1.019  13.515 -2.5451  2.3739 -4.4196
 8865SOL    HW238055   0.363   1.167  13.514 -1.4338 -1.0080 -2.5649
 8866SOL     OW38056   4.591   0.815   8.048 -0.0061 -0.0201  0.6252
 8866SOL    HW138057   4.639   0.749   8.097 -0.0079 -0.2524  0.3144
 8866SOL    HW238058   4.648   0.838   7.975 -0.4316 -3.4839 -0.7895
 8867SOL     OW38059   4.676   2.064   1.393 -1.1182 -0.3041 -0.3736
 8867SOL    HW138060   4.606   2.119   1.429 -1.1802 -1.2071  0.8908
 8867SOL    HW238061   0.018   2.116   1.344 -0.3294 -0.3973  0.5314
 8868SOL     OW38062   1.210   1.283   8.140 -0.0280 -0.2448 -0.7668
 8868SOL    HW138063   1.163   1.362   8.165  1.4955  0.3463  0.2596
 8868SOL    HW238064   1.298   1.318   8.124  0.9083 -1.8047  0.8973
 8869SOL     OW38065   3.942   4.631   2.415 -0.4902  0.0208  0.1727
 8869SOL    HW138066   4.019   4.619   2.358 -1.1511 -2.9242 -0.0917
 8869SOL    HW238067   3.980   4.661   2.497 -1.0413  1.8592 -0.2604
 8870SOL     OW38068   3.175   4.125  16.951 -0.2267 -0.0429  0.1015
 8870SOL    HW138069   3.117   4.072  16.896 -0.3737 -1.3886  1.5494
 8870SOL    HW238070   3.153   4.212  16.919  1.4565  0.6956  0.9489
 8871SOL     OW38071   1.305   1.660   1.923  0.0863 -0.2688  0.1641
 8871SOL    HW138072   1.398   1.669   1.941  0.2072  1.0419 -1.1062
 8871SOL    HW238073   1.270   1.736   1.970 -1.8705 -0.7329 -0.5295
 8872SOL     OW38074   1.762   0.785   5.980  0.4446  0.0874 -0.3399
 8872SOL    HW138075   1.677   0.823   5.999  0.2998 -1.4892  2.1542
 8872SOL    HW238076   1.780   0.736   6.060  2.5314 -0.0681 -0.8878
 8873SOL     OW38077   3.161   2.035   3.966 -0.6558  0.2729  0.4930
 8873SOL    HW138078   3.124   2.123   3.969  1.2427  1.0913 -0.0135
 8873SOL    HW238079   3.124   1.987   4.039  4.1280 -0.2404  2.5925
 8874SOL     OW38080   3.020   4.487  13.747  0.0839  0.0683 -0.1231
 8874SOL    HW138081   3.026   4.578  13.777 -0.5813  0.4698 -1.1964
 8874SOL    HW238082   2.944   4.498  13.689 -0.4951 -0.4369  0.5237
 8875SOL     OW38083   3.470   3.237   4.844  0.0872 -0.0788  0.1252
 8875SOL    HW138084   3.388   3.240   4.893 -0.2284 -2.5592 -0.2462
 8875SOL    HW238085   3.526   3.186   4.903 -1.4570  0.5936  2.1543
 8876SOL     OW38086   4.280   2.506  11.568 -0.0684 -0.0063  0.2847
 8876SOL    HW138087   4.305   2.479  11.656 -2.6440  1.5289  1.4917
 8876SOL    HW238088   4.270   2.422  11.524  0.9363  0.3923 -0.6872
 8877SOL     OW38089   0.120   1.988  13.100  0.7099 -0.3055 -0.9175
 8877SOL    HW138090   0.083   2.031  13.177  2.5844  2.0197 -1.3129
 8877SOL    HW238091   0.158   2.062  13.052 -0.6550  1.9325  1.4872
 8878SOL     OW38092   0.087   2.562   9.951 -0.1774 -0.0268 -0.5585
 8878SOL    HW138093   0.071   2.473   9.919  1.2071  0.0978 -1.5897
 8878SOL    HW238094   0.000   2.599   9.937  0.8626  1.8125 -2.2110
 8879SOL     OW38095   2.488   2.517  11.379  0.3619 -0.5662  0.0638
 8879SOL    HW138096   2.564   2.561  11.340 -1.9693  2.2955 -1.2957
 8879SOL    HW238097   2.530   2.457  11.440 -0.1949  1.0163  2.0071
 8880SOL     OW38098   2.928   3.648  10.751  0.0430  0.0070 -0.3535
 8880SOL    HW138099   2.997   3.616  10.809 -0.3764 -1.9925 -0.9622
 8880SOL    HW238100   2.865   3.659  10.822  0.8895  1.2356  0.2119
 8881SOL     OW38101   0.606   3.098   7.627  0.2361  0.4873  0.3016
 8881SOL    HW138102   0.698   3.077   7.640 -0.0066 -1.1870 -0.6528
 8881SOL    HW238103   0.599   3.188   7.661  1.4809  0.7309 -0.1038
 8882SOL     OW38104   1.495   4.671   1.859 -0.6754  0.0464 -0.0627
 8882SOL    HW138105   1.467   0.022   1.802 -0.5887  0.6555  0.6515
 8882SOL    HW238106   1.551   4.621   1.800 -0.9733 -0.5317  0.1504
 8883SOL     OW38107   1.373   2.178   3.699 -0.4320  0.0954 -0.2047
 8883SOL    HW138108   1.406   2.088   3.700 -0.9124 -0.1111 -2.6481
 8883SOL    HW238109   1.363   2.202   3.607 -1.5994  3.1044  0.7231
 8884SOL     OW38110   2.181   3.184   0.377  0.0275 -0.3622 -0.0918
 8884SOL    HW138111   2.219   3.193   0.290 -2.0467  2.3278 -0.7083
 8884SOL    HW238112   2.243   3.113   0.395  0.9129  0.6400  0.8616
 8885SOL     OW38113   3.540   4.032   6.441  0.8587  0.4185 -0.2122
 8885SOL    HW138114   3.564   3.941   6.456  0.1972  0.2795  0.0175
 8885SOL    HW238115   3.531   4.036   6.345 -0.8462 -0.7392 -0.1167
 8886SOL     OW38116   4.152   2.182   3.313 -0.2268  0.8628  0.3236
 8886SOL    HW138117   4.096   2.177   3.236  1.7727 -1.1446 -0.9610
 8886SOL    HW238118   4.227   2.212   3.262  1.2692 -1.5850  1.0820
 8887SOL     OW38119   1.213   0.039   7.525  0.3396  0.2639  0.0128
 8887SOL    HW138120   1.258   0.022   7.443  1.3571  2.9073  0.0242
 8887SOL    HW238121   1.286   0.050   7.586  0.2093  0.9773  0.0516
 8888SOL     OW38122   3.978   2.637   6.881 -0.2235 -0.1490  0.3495
 8888SOL    HW138123   4.072   2.652   6.871 -0.3967  1.1793  0.6875
 8888SOL    HW238124   3.982   2.641   6.977 -1.1099 -1.6503  0.4312
 8889SOL     OW38125   0.020   3.052  13.501  0.7078 -0.0767  0.3250
 8889SOL    HW138126   0.068   3.132  13.525 -1.9305  2.1239 -1.7303
 8889SOL    HW238127   0.081   2.983  13.528 -0.0352  0.0613  2.2944
 8890SOL     OW38128   2.468   1.138   7.556 -0.5608 -0.4933  0.2491
 8890SOL    HW138129   2.401   1.153   7.490  0.1713  3.1098  0.3549
 8890SOL    HW238130   2.466   1.220   7.605  1.7058 -0.0996 -0.3444
 8891SOL     OW38131   1.300   2.143   5.048 -0.0378 -0.1091  0.1495
 8891SOL    HW138132   1.268   2.176   4.964 -0.0047 -0.5239 -0.0252
 8891SOL    HW238133   1.380   2.097   5.023  0.4845 -0.7917  3.1219
 8892SOL     OW38134   1.393   1.271  14.346 -0.0999  0.6071  0.2394
 8892SOL    HW138135   1.456   1.265  14.418 -0.2179 -2.5202  0.0709
 8892SOL    HW238136   1.352   1.186  14.360  1.1710 -0.0198  0.2243
 8893SOL     OW38137   0.987   0.189   0.679 -0.4716 -0.2574  0.1821
 8893SOL    HW138138   1.071   0.228   0.702 -0.3319 -0.5127  0.0960
 8893SOL    HW238139   1.011   0.100   0.656 -0.5083 -0.0478 -0.6608
 8894SOL     OW38140   4.218   0.357   2.788  0.2564 -0.1679  0.2797
 8894SOL    HW138141   4.248   0.438   2.746  2.4443 -0.8153  0.6330
 8894SOL    HW238142   4.286   0.291   2.781  1.2820  0.6719  2.6437
 8895SOL     OW38143   4.067   0.315   5.937 -0.2996 -0.0032  0.2495
 8895SOL    HW138144   4.066   0.260   5.859  0.1106 -1.9961  1.6627
 8895SOL    HW238145   3.981   0.356   5.934  0.9438  2.7881  2.2876
 8896SOL     OW38146   4.714   4.319  17.644  0.3290  0.4297  0.6126
 8896SOL    HW138147   4.720   4.359  17.557  2.0155  1.5332  1.2448
 8896SOL    HW238148   0.015   4.392   0.017  0.0749 -0.1243  1.4000
 8897SOL     OW38149   0.412   4.021   8.794  0.3366 -0.9162  0.0765
 8897SOL    HW138150   0.340   4.083   8.805  0.9005  0.2831 -3.2498
 8897SOL    HW238151   0.475   4.059   8.856  1.1959  1.5669 -2.3641
 8898SOL     OW38152   3.682   3.353   4.465  0.5614 -0.2894  0.0452
 8898SOL    HW138153   3.648   3.442   4.459 -0.2471 -0.5207  1.1932
 8898SOL    HW238154   3.666   3.318   4.377 -0.6973  0.1582  0.0913
 8899SOL     OW38155   2.207   4.397   6.068  0.4716  0.2929 -0.2187
 8899SOL    HW138156   2.112   4.407   6.062  0.4711  0.7550  0.5915
 8899SOL    HW238157   2.225   4.349   5.988 -1.3325  0.1117 -0.5116
 8900SOL     OW38158   0.856   1.357   1.465 -0.2889 -0.1752 -0.6029
 8900SOL    HW138159   0.796   1.378   1.393  0.2376  2.8316 -0.1802
 8900SOL    HW238160   0.901   1.440   1.479  1.3924 -1.6667  2.6671
 8901SOL     OW38161   4.568   0.234  13.865  0.0321 -0.2465  0.2660
 8901SOL    HW138162   4.612   0.316  13.844 -0.1083  0.1915  1.6466
 8901SOL    HW238163   4.561   0.187  13.781  0.9827 -2.6829  1.5447
 8902SOL     OW38164   0.328   1.633   9.927  0.0376  0.2247  0.0405
 8902SOL    HW138165   0.307   1.596   9.841  2.5972 -0.3573 -0.3190
 8902SOL    HW238166   0.241   1.659   9.956  0.2021  0.3790  0.3898
 8903SOL     OW38167   4.270   4.375   0.664  0.9266 -0.8390 -0.1048
 8903SOL    HW138168   4.320   4.449   0.627 -3.6102  1.3270 -1.9326
 8903SOL    HW238169   4.193   4.411   0.707  3.3336  4.0061  0.1551
 8904SOL     OW38170   3.108   3.850   1.850  0.5501 -0.3214 -0.4465
 8904SOL    HW138171   3.034   3.827   1.793  0.5811  1.3085 -1.1599
 8904SOL    HW238172   3.057   3.902   1.913  1.1935  0.0302 -0.2197
 8905SOL     OW38173   3.226   1.834   6.197 -0.3422  0.6749  0.3576
 8905SOL    HW138174   3.311   1.847   6.154 -0.0309 -0.8014  0.5111
 8905SOL    HW238175   3.176   1.909   6.164  0.6423  0.8131 -0.8645
 8906SOL     OW38176   1.823   2.117  15.309  0.4123 -0.4010 -0.0384
 8906SOL    HW138177   1.911   2.094  15.280  0.2059 -0.1340 -0.8639
 8906SOL    HW238178   1.808   2.196  15.258  0.8239 -0.7391 -0.6748
 8907SOL     OW38179   3.172   2.111   1.474 -0.0312 -0.1941 -0.9008
 8907SOL    HW138180   3.237   2.115   1.404  0.3283  0.2148 -0.5444
 8907SOL    HW238181   3.205   2.045   1.534 -0.3826 -0.1342 -0.6364
 8908SOL     OW38182   1.977   0.559   4.619 -0.1245  0.0677  0.2379
 8908SOL    HW138183   2.056   0.561   4.564 -0.7401  1.4309 -0.5925
 8908SOL    HW238184   1.940   0.639   4.584 -0.1178  0.1096  0.3272
 8909SOL     OW38185   1.806   2.687   3.895 -0.5239  1.3565 -0.1585
 8909SOL    HW138186   1.889   2.735   3.891 -0.1746  0.7892  0.2730
 8909SOL    HW238187   1.758   2.733   3.964  0.9996  1.0536  1.0936
 8910SOL     OW38188   2.412   4.042  10.201 -0.0358  0.0815  0.8418
 8910SOL    HW138189   2.463   4.110  10.158 -0.7438 -0.0073 -0.1344
 8910SOL    HW238190   2.474   4.016  10.269  2.4836  1.3033 -1.0018
 8911SOL     OW38191   4.329   3.822   1.236 -0.2747  0.7839 -0.0336
 8911SOL    HW138192   4.332   3.766   1.158 -1.6045  0.2611  0.2763
 8911SOL    HW238193   4.311   3.905   1.193 -0.0361  0.6720 -0.3433
 8912SOL     OW38194   3.880   0.522   9.655 -0.3534  0.0031  0.2537
 8912SOL    HW138195   3.916   0.541   9.568 -0.9643 -1.5535 -0.3531
 8912SOL    HW238196   3.949   0.487   9.710 -0.0575 -0.6490 -0.5306
 8913SOL     OW38197   1.056   2.654   0.389 -0.0157  0.0404  0.4960
 8913SOL    HW138198   1.101   2.594   0.448 -1.2893 -0.7395  0.6861
 8913SOL    HW238199   1.033   2.602   0.311  1.3948  1.0719 -0.6202
 8914SOL     OW38200   1.086   2.109  10.780  0.4716 -0.3449  0.4085
 8914SOL    HW138201   1.058   2.153  10.700  0.5006 -1.0581  0.0102
 8914SOL    HW238202   1.084   2.020  10.744 -0.6100 -0.0710 -0.2199
 8915SOL     OW38203   2.193   3.308   2.884 -0.3111 -0.1512 -0.0122
 8915SOL    HW138204   2.240   3.362   2.819  2.3328 -1.0779  1.1277
 8915SOL    HW238205   2.201   3.223   2.841  0.4213 -1.2732  2.3921
 8916SOL     OW38206   2.446   1.601  12.619 -0.0143 -0.8711 -0.3260
 8916SOL    HW138207   2.484   1.641  12.540 -2.5369 -0.8723 -1.5663
 8916SOL    HW238208   2.517   1.606  12.682 -0.6909  0.0847  0.3535
 8917SOL     OW38209   1.051   1.394   8.991 -0.6329  1.5174  0.6129
 8917SOL    HW138210   1.035   1.309   8.950  1.2209  1.7408 -0.5812
 8917SOL    HW238211   1.146   1.397   9.003 -0.7759 -2.5022  2.8472
 8918SOL     OW38212   2.657   3.685   9.851 -0.5786  0.0921 -0.1567
 8918SOL    HW138213   2.575   3.671   9.898 -0.9102  1.4652 -0.3275
 8918SOL    HW238214   2.702   3.747   9.907  0.1590 -1.1210  0.6049
 8919SOL     OW38215   1.938   2.388   2.261 -0.1004 -0.0900  0.6129
 8919SOL    HW138216   1.877   2.372   2.189 -0.5004  0.8415  0.7376
 8919SOL    HW238217   2.015   2.423   2.218  0.6724 -0.4556  1.7018
 8920SOL     OW38218   2.976   1.701   4.251 -0.1847  0.0404 -0.0007
 8920SOL    HW138219   2.981   1.664   4.339 -0.2103  0.0005 -0.0163
 8920SOL    HW238220   3.059   1.748   4.242 -0.0894 -0.5317 -2.1559
 8921SOL     OW38221   2.490   1.156  12.591  0.7204 -0.5192  0.2847
 8921SOL    HW138222   2.458   1.210  12.663 -0.3903 -1.6174  0.5959
 8921SOL    HW238223   2.451   1.203  12.517  0.7373 -1.1879 -0.1513
 8922SOL     OW38224   2.655   3.858   2.808 -0.1583 -0.1928 -0.0868
 8922SOL    HW138225   2.653   3.763   2.822 -1.5236 -0.0931  0.3963
 8922SOL    HW238226   2.725   3.893   2.863 -0.3563 -0.9987  0.6864
 8923SOL     OW38227   3.322   0.312  17.089 -0.4889 -0.2770 -0.0478
 8923SOL    HW138228   3.389   0.257  17.048 -1.0143 -1.1390  0.2477
 8923SOL    HW238229   3.371   0.342  17.165 -2.4165  0.2534  0.9822
 8924SOL     OW38230   3.230   3.151   6.579  0.2953  0.1006 -0.1123
 8924SOL    HW138231   3.166   3.187   6.518 -0.3640 -1.0839 -0.1335
 8924SOL    HW238232   3.163   3.120   6.640  1.3225  0.3135  1.1212
 8925SOL     OW38233   2.089   1.094   0.738  0.4839  0.4757  0.1827
 8925SOL    HW138234   2.151   1.115   0.808  0.1098  1.7753  0.1386
 8925SOL    HW238235   2.107   1.161   0.672  0.7646 -0.3734 -0.6023
 8926SOL     OW38236   3.001   1.179   7.898 -0.6418  0.0923 -0.1323
 8926SOL    HW138237   2.997   1.219   7.985 -0.2928  0.6362 -0.3697
 8926SOL    HW238238   3.040   1.251   7.849 -0.9109  0.4465  0.1764
 8927SOL     OW38239   1.614   1.845  13.900  0.7025  0.5320 -0.1497
 8927SOL    HW138240   1.588   1.801  13.981 -1.0771  0.5274 -0.7145
 8927SOL    HW238241   1.681   1.782  13.874  1.7431  1.9421 -0.8579
 8928SOL     OW38242   3.307   1.584   6.538  0.2116 -0.6062 -0.0444
 8928SOL    HW138243   3.233   1.646   6.536  0.0947 -0.7448 -0.0321
 8928SOL    HW238244   3.370   1.629   6.482  0.5713 -0.7363  0.2614
 8929SOL     OW38245   4.467   2.440  10.772  0.4078 -0.6044 -0.5711
 8929SOL    HW138246   4.472   2.350  10.803 -0.1873 -0.0573  1.1227
 8929SOL    HW238247   4.400   2.433  10.704  0.1988 -0.3275 -0.3944
 8930SOL     OW38248   2.624   0.780  16.668 -0.2423 -0.2327 -0.6154
 8930SOL    HW138249   2.602   0.688  16.685  0.8975 -0.6485 -1.4108
 8930SOL    HW238250   2.546   0.826  16.698 -0.4089  0.6795 -2.5018
 8931SOL     OW38251   3.016   2.169   2.822 -0.2407 -0.6139 -0.3216
 8931SOL    HW138252   3.105   2.154   2.852 -0.5202  0.0394  0.8100
 8931SOL    HW238253   3.021   2.249   2.769  1.0874 -0.0295  0.7070
 8932SOL     OW38254   3.546   1.511  11.775  0.0920 -0.5202 -0.2185
 8932SOL    HW138255   3.594   1.590  11.800  0.6510 -0.5897 -1.0613
 8932SOL    HW238256   3.558   1.465  11.857 -0.4895  1.5322  1.0137
 8933SOL     OW38257   4.315   4.621  13.191 -0.1164  0.4342 -0.6258
 8933SOL    HW138258   4.352   4.695  13.143  0.0004  0.5443 -0.3644
 8933SOL    HW238259   4.256   4.671  13.248 -0.0750 -0.6684  0.3858
 8934SOL     OW38260   1.635   0.249   7.638 -0.0046 -0.0645  0.4239
 8934SOL    HW138261   1.677   0.310   7.578  0.3606  0.3633  1.1134
 8934SOL    HW238262   1.711   0.208   7.679  0.7291 -0.2927 -1.1747
 8935SOL     OW38263   1.526   2.834   6.631  0.0745  0.3856 -0.0085
 8935SOL    HW138264   1.560   2.804   6.715  1.4200  0.8486 -0.3954
 8935SOL    HW238265   1.437   2.857   6.656  1.1084  2.5250  1.6581
 8936SOL     OW38266   1.113   3.810  17.317 -0.0540  0.4447  0.1511
 8936SOL    HW138267   1.196   3.823  17.363  0.4807  1.7075 -1.1547
 8936SOL    HW238268   1.138   3.749  17.248 -0.2020  0.8128 -0.2323
 8937SOL     OW38269   1.290   2.473   8.896  0.0402 -1.0704  0.4302
 8937SOL    HW138270   1.308   2.436   8.810 -0.8113  1.2096 -0.7052
 8937SOL    HW238271   1.356   2.540   8.884  1.1935 -1.9512  1.7951
 8938SOL     OW38272   3.450   4.005  13.285 -0.0179 -0.1463 -0.7528
 8938SOL    HW138273   3.504   4.025  13.209 -0.2765 -1.0941 -1.1854
 8938SOL    HW238274   3.408   3.923  13.258 -1.2006  0.0929  0.3248
 8939SOL     OW38275   3.598   4.127  11.582  0.0195  0.0043 -0.4788
 8939SOL    HW138276   3.630   4.046  11.543  1.7074  0.1876  0.5253
 8939SOL    HW238277   3.659   4.196  11.557 -0.9193  1.0812  0.1840
 8940SOL     OW38278   0.393   2.577   4.775 -0.8185 -0.2033 -0.4164
 8940SOL    HW138279   0.432   2.502   4.819 -0.8580 -0.8509 -1.4826
 8940SOL    HW238280   0.397   2.641   4.846  1.1812  2.8977 -3.2843
 8941SOL     OW38281   1.676   3.686   8.382 -0.2991 -0.0161  0.2231
 8941SOL    HW138282   1.589   3.656   8.410  0.3479 -1.1581  1.0303
 8941SOL    HW238283   1.720   3.602   8.397  1.3096  0.9558  0.9077
 8942SOL     OW38284   2.155   2.479   0.171 -0.3826 -0.5196 -0.9605
 8942SOL    HW138285   2.128   2.471   0.262 -0.9767  2.2768 -0.8730
 8942SOL    HW238286   2.087   2.421   0.137  0.1696 -1.3305 -0.6743
 8943SOL     OW38287   2.915   2.961   9.897  0.1226 -0.2887  0.0123
 8943SOL    HW138288   2.936   3.043   9.942  0.2321 -0.2719 -0.0680
 8943SOL    HW238289   2.967   2.907   9.957  0.6898 -0.5763 -0.7393
 8944SOL     OW38290   0.222   0.917   3.691  0.0082 -0.0197 -0.5386
 8944SOL    HW138291   0.190   0.832   3.664 -0.6993  0.3795 -0.9421
 8944SOL    HW238292   0.176   0.976   3.631 -2.0734 -1.6870 -0.5676
 8945SOL     OW38293   1.564   2.496   9.149 -0.1263  0.1739  0.3604
 8945SOL    HW138294   1.579   2.539   9.064 -1.0863 -0.2433 -0.0241
 8945SOL    HW238295   1.534   2.408   9.124  3.5723 -0.5022 -1.7920
 8946SOL     OW38296   2.464   2.163   6.516 -0.2670  0.2755 -0.0525
 8946SOL    HW138297   2.468   2.253   6.547  1.2468  0.3212 -0.4050
 8946SOL    HW238298   2.552   2.129   6.503  0.1831  1.1591  0.7224
 8947SOL     OW38299   2.283   0.486  16.740 -0.0742 -0.1023  0.0599
 8947SOL    HW138300   2.263   0.403  16.697  1.1208 -0.2593 -0.1944
 8947SOL    HW238301   2.375   0.494  16.714 -0.3241  0.2394 -0.7089
 8948SOL     OW38302   0.329   3.451  11.888  0.6392  0.2973 -0.4377
 8948SOL    HW138303   0.311   3.359  11.869  1.3090 -0.1539  1.0930
 8948SOL    HW238304   0.247   3.496  11.866 -0.2849 -1.1348  0.1348
 8949SOL     OW38305   4.006   3.160   6.981 -0.3241 -0.1259 -0.0910
 8949SOL    HW138306   4.035   3.074   7.011  2.3039  0.2828 -1.4894
 8949SOL    HW238307   4.019   3.215   7.057  0.8499  0.8610 -1.0152
 8950SOL     OW38308   1.549   1.813   4.343  0.2500 -0.7796 -0.3527
 8950SOL    HW138309   1.471   1.843   4.390  1.2071 -0.4329  1.0194
 8950SOL    HW238310   1.606   1.881   4.379 -1.5530  0.9844 -0.8299
 8951SOL     OW38311   3.220   0.044   8.097  0.1712  0.1114  0.2754
 8951SOL    HW138312   3.242   4.703   8.167 -2.4104 -1.8262 -0.6071
 8951SOL    HW238313   3.148   4.713   8.062  0.1665 -1.1931  2.2002
 8952SOL     OW38314   0.959   2.597   2.703  0.1050 -0.4899 -0.0897
 8952SOL    HW138315   0.888   2.651   2.737  1.3999  1.3342 -0.2869
 8952SOL    HW238316   0.937   2.511   2.740  0.9491  0.1278  1.8671
 8953SOL     OW38317   2.068   3.817   6.954 -0.1530  0.1329 -0.1396
 8953SOL    HW138318   2.124   3.892   6.974 -1.1744  1.2490 -1.3894
 8953SOL    HW238319   2.130   3.761   6.908  2.8675  1.4707  2.2603
 8954SOL     OW38320   1.810   3.719   6.060  0.0111 -0.1942  0.4079
 8954SOL    HW138321   1.818   3.814   6.057 -0.4362 -0.1568  0.3514
 8954SOL    HW238322   1.894   3.683   6.090  0.6566 -0.2562 -1.4840
 8955SOL     OW38323   1.163   4.337   5.912 -0.1829 -0.3056  0.2034
 8955SOL    HW138324   1.229   4.321   5.845  1.8007 -1.9118  2.5103
 8955SOL    HW238325   1.152   4.432   5.918 -0.9796 -0.4944  1.6259
 8956SOL     OW38326   2.107   0.623   7.895 -0.2798  0.0757 -0.5691
 8956SOL    HW138327   2.117   0.575   7.977 -0.0937  0.2838 -0.4694
 8956SOL    HW238328   2.176   0.686   7.913 -1.1230  0.7707  0.2736
 8957SOL     OW38329   0.567   2.618  14.474 -0.2623 -0.0903  0.0258
 8957SOL    HW138330   0.487   2.601  14.523  0.0408 -1.1506  0.1436
 8957SOL    HW238331   0.526   2.659  14.398 -1.0649  0.7840  0.9359
 8958SOL     OW38332   0.090   2.580  14.587 -0.3383  0.0168 -0.0962
 8958SOL    HW138333   0.038   2.606  14.664  0.1590 -0.1672  0.2995
 8958SOL    HW238334   0.052   2.634  14.518  0.8168  2.0653  0.8603
 8959SOL     OW38335   2.761   2.054   5.936 -0.5503 -0.4685  0.0445
 8959SOL    HW138336   2.669   2.079   5.938 -0.3920 -0.0004  1.5357
 8959SOL    HW238337   2.763   2.025   5.844  2.0919 -0.5298  0.1151
 8960SOL     OW38338   4.605   3.622   2.439  0.3113 -0.0086 -0.2460
 8960SOL    HW138339   4.583   3.536   2.476 -1.6087  1.3325  1.7232
 8960SOL    HW238340   4.613   3.597   2.347  1.1207 -1.2200  0.1568
 8961SOL     OW38341   1.526   4.137  11.016 -0.5993  0.0672  0.2408
 8961SOL    HW138342   1.464   4.204  10.986 -0.9727 -0.5878 -0.4323
 8961SOL    HW238343   1.606   4.189  11.027 -0.9651  0.8787 -0.8933
 8962SOL     OW38344   4.566   1.688   6.113  0.0805  0.3143 -0.3406
 8962SOL    HW138345   4.627   1.619   6.088  0.8092 -0.6435  4.0420
 8962SOL    HW238346   4.542   1.664   6.202 -1.2191  1.0736 -0.4865
 8963SOL     OW38347   0.352   2.668   8.178  0.5180 -0.1505  0.1138
 8963SOL    HW138348   0.270   2.691   8.222  0.2738 -0.7052 -0.0459
 8963SOL    HW238349   0.420   2.702   8.236 -0.4333  0.6863  0.7229
 8964SOL     OW38350   2.572   4.163   7.217  0.0397 -0.1934  0.7123
 8964SOL    HW138351   2.595   4.089   7.273 -1.1687  0.0440  1.5310
 8964SOL    HW238352   2.583   4.138   7.126  0.8160 -1.3445  1.1187
 8965SOL     OW38353   2.546   3.938  15.326 -0.2328  0.1424 -0.7388
 8965SOL    HW138354   2.568   3.868  15.265 -2.1285  0.5891 -1.9116
 8965SOL    HW238355   2.510   3.999  15.262  0.3855 -1.7836 -2.9024
 8966SOL     OW38356   3.987   1.238  12.025  0.1681 -0.2776 -0.1081
 8966SOL    HW138357   3.985   1.326  11.987  2.8259 -0.6738 -1.1261
 8966SOL    HW238358   4.066   1.196  11.991  0.2330 -0.1570 -0.1076
 8967SOL     OW38359   2.426   1.143   1.193  0.3680  0.1482 -0.2307
 8967SOL    HW138360   2.439   1.144   1.288 -1.1006 -0.4041 -0.0316
 8967SOL    HW238361   2.335   1.115   1.197  0.7643 -1.0914  0.2600
 8968SOL     OW38362   1.172   1.567   2.805 -0.3089  0.1269 -0.4644
 8968SOL    HW138363   1.120   1.494   2.773 -0.5132 -0.1478  0.4918
 8968SOL    HW238364   1.250   1.553   2.751  1.2886 -3.4387  2.8122
 8969SOL     OW38365   2.859   3.206   8.748 -0.0009  0.0295 -0.2214
 8969SOL    HW138366   2.948   3.174   8.765  0.1995 -0.0542 -1.4514
 8969SOL    HW238367   2.866   3.226   8.655 -0.6501 -2.8066 -0.8709
 8970SOL     OW38368   2.868   4.425   5.710 -0.2759 -0.5088  0.1099
 8970SOL    HW138369   2.820   4.420   5.793 -2.1913 -0.6964 -1.0130
 8970SOL    HW238370   2.795   4.461   5.659  0.2391  1.5397  0.7927
 8971SOL     OW38371   0.042   2.099  13.330 -0.1605  0.0449 -0.4373
 8971SOL    HW138372   4.674   2.082  13.363 -0.5117  1.3568 -0.6980
 8971SOL    HW238373   0.038   2.189  13.364 -3.2741 -1.1549  2.4409
 8972SOL     OW38374   4.014   3.748   6.231 -0.1203  0.1538 -0.2544
 8972SOL    HW138375   4.009   3.801   6.152  2.6295  0.5086 -0.1962
 8972SOL    HW238376   3.962   3.674   6.200 -3.3911  1.9241  1.0662
 8973SOL     OW38377   2.219   1.826   0.958 -0.2942  0.0436  0.1529
 8973SOL    HW138378   2.229   1.807   0.865  1.1404  0.2048  0.2684
 8973SOL    HW238379   2.136   1.781   0.972 -2.3423  3.7187 -0.2224
 8974SOL     OW38380   2.545   4.622  14.183  0.7952 -0.1285  0.2694
 8974SOL    HW138381   2.474   4.602  14.244 -1.8918 -0.4904 -3.0101
 8974SOL    HW238382   2.612   4.555  14.191  1.1344 -0.1337 -2.6446
 8975SOL     OW38383   0.089   4.580   5.417 -0.0497 -0.0493  0.3284
 8975SOL    HW138384   0.100   4.512   5.483  0.3607 -0.0124  0.2960
 8975SOL    HW238385   0.145   4.545   5.348 -0.6586  1.5598 -0.9726
 8976SOL     OW38386   4.192   4.208   8.548 -0.1915  0.4031  0.2655
 8976SOL    HW138387   4.140   4.277   8.590 -1.5074 -0.6848  0.4249
 8976SOL    HW238388   4.153   4.131   8.590 -2.4549  1.6008  0.3776
 8977SOL     OW38389   2.680   1.420   6.864  0.2536  0.4553  0.0846
 8977SOL    HW138390   2.747   1.358   6.894 -1.6037 -1.6441 -0.0982
 8977SOL    HW238391   2.600   1.377   6.895  0.3127 -0.6565 -1.2881
 8978SOL     OW38392   3.816   2.429   6.565  0.0143  0.1801 -0.2547
 8978SOL    HW138393   3.730   2.446   6.525  0.2620  0.3524 -0.7050
 8978SOL    HW238394   3.852   2.516   6.547  0.3144  0.2983  0.9209
 8979SOL     OW38395   0.677   3.908   2.422 -0.4740  0.3219 -0.5800
 8979SOL    HW138396   0.713   3.882   2.507 -1.8470 -1.2116 -0.4469
 8979SOL    HW238397   0.591   3.937   2.452 -1.1219 -3.4951  1.2662
 8980SOL     OW38398   2.464   0.895  13.432 -0.2070 -0.3668  0.5431
 8980SOL    HW138399   2.468   0.818  13.488 -0.7382 -0.4279  0.4971
 8980SOL    HW238400   2.558   0.907  13.418 -0.6180  1.5244 -0.6149
 8981SOL     OW38401   3.508   2.588   2.927  0.3442 -0.6813 -0.4220
 8981SOL    HW138402   3.436   2.531   2.903  0.3720 -0.7358 -0.3766
 8981SOL    HW238403   3.584   2.537   2.899  0.6547  0.5988 -1.9241
 8982SOL     OW38404   4.176   4.394   3.136 -0.1385 -0.4525  0.6306
 8982SOL    HW138405   4.215   4.479   3.116  0.9875 -0.5570  2.3595
 8982SOL    HW238406   4.235   4.335   3.090 -1.0184 -1.1621  0.4089
 8983SOL     OW38407   4.270   3.998   9.038 -0.5721 -0.1111  0.1125
 8983SOL    HW138408   4.175   4.002   9.052 -0.6229 -1.7896  0.2546
 8983SOL    HW238409   4.299   4.038   9.120 -0.2218  0.6718 -0.3899
 8984SOL     OW38410   2.641   1.100   0.599 -0.4063 -0.4118 -0.3038
 8984SOL    HW138411   2.693   1.143   0.667 -0.6944 -0.2448 -0.1917
 8984SOL    HW238412   2.592   1.045   0.660  1.2131 -0.6356  0.8145
 8985SOL     OW38413   1.169   3.579  10.400 -0.6332 -0.4894 -0.2063
 8985SOL    HW138414   1.125   3.549  10.320 -0.0856 -1.8286 -0.0036
 8985SOL    HW238415   1.099   3.618  10.452 -1.1902 -1.2809 -0.3651
 8986SOL     OW38416   2.438   2.124   1.819  0.1976 -0.3469  0.1974
 8986SOL    HW138417   2.361   2.069   1.804  0.4987 -1.1900  1.7310
 8986SOL    HW238418   2.428   2.187   1.747  0.8750  1.3989  1.6348
 8987SOL     OW38419   3.560   1.701  11.378  0.0551 -0.0684 -0.1473
 8987SOL    HW138420   3.581   1.625  11.432  0.2424 -1.5153 -2.2722
 8987SOL    HW238421   3.465   1.688  11.376  0.1672 -1.0120  0.8459
 8988SOL     OW38422   1.044   2.222   7.470  0.4545  0.6846 -0.0711
 8988SOL    HW138423   1.100   2.248   7.543 -0.7576 -1.3492  1.5961
 8988SOL    HW238424   1.104   2.152   7.445  1.8550  1.3980  1.2650
 8989SOL     OW38425   2.821   0.428  12.340  0.1536  0.3438  0.3683
 8989SOL    HW138426   2.729   0.424  12.365 -0.2168  0.2526 -1.0141
 8989SOL    HW238427   2.859   0.503  12.387 -0.5832  0.6765  0.4356
 8990SOL     OW38428   3.786   3.003   2.395 -0.6319  0.0576 -0.0973
 8990SOL    HW138429   3.855   3.035   2.336 -2.1807  1.1628 -1.2998
 8990SOL    HW238430   3.735   2.974   2.320 -0.0434  2.0562 -1.2769
 8991SOL     OW38431   3.702   2.021   4.000 -0.0654  0.4377 -0.0616
 8991SOL    HW138432   3.624   1.984   3.958  1.3677 -0.5611 -1.8338
 8991SOL    HW238433   3.770   1.974   3.953 -0.9767  0.6292 -1.5634
 8992SOL     OW38434   1.548   0.344   0.966  0.3043 -0.6413 -0.0654
 8992SOL    HW138435   1.591   0.270   0.924 -1.4306 -0.5808 -1.9222
 8992SOL    HW238436   1.602   0.411   0.923  2.7129 -1.3466  1.8637
 8993SOL     OW38437   4.195   3.618   2.977 -0.0982  0.4020  0.5158
 8993SOL    HW138438   4.213   3.711   2.968  0.3944  0.0733 -1.8910
 8993SOL    HW238439   4.107   3.611   2.939  0.3236 -2.5992  0.0824
 8994SOL     OW38440   2.989   3.337   7.076  0.8369  0.4669 -0.4596
 8994SOL    HW138441   3.040   3.381   7.144  0.9128 -0.4554  0.0773
 8994SOL    HW238442   2.959   3.267   7.134 -1.3215  1.7066 -0.1002
 8995SOL     OW38443   2.280   3.082   5.403 -0.0064 -0.7204 -0.0729
 8995SOL    HW138444   2.373   3.095   5.419 -0.1355  0.0090  0.0533
 8995SOL    HW238445   2.282   3.120   5.316  0.2388  1.8443  1.0715
 8996SOL     OW38446   2.129   0.379   8.030  0.4092  0.1006 -0.8101
 8996SOL    HW138447   2.187   0.311   8.063 -0.5067 -0.9382 -1.3634
 8996SOL    HW238448   2.047   0.330   8.025  1.2833 -1.6442  1.7193
 8997SOL     OW38449   1.377   0.069   6.941  0.0438  0.4101  0.0892
 8997SOL    HW138450   1.302   0.075   6.881  0.0019  0.6524  0.1653
 8997SOL    HW238451   1.376   0.161   6.968  0.0667  0.1915  0.8200
 8998SOL     OW38452   1.760   2.796   5.889  0.7776  0.0397 -0.0951
 8998SOL    HW138453   1.727   2.759   5.971  0.6445 -0.1738 -0.2454
 8998SOL    HW238454   1.702   2.872   5.891  0.8290  0.0706  0.2002
 8999SOL     OW38455   2.624   1.396   1.409 -0.0745 -0.1899 -0.2945
 8999SOL    HW138456   2.715   1.383   1.437  0.8896  1.5641 -2.6018
 8999SOL    HW238457   2.635   1.442   1.326  1.2896 -0.7121 -0.4013
 9000SOL     OW38458   2.730   1.960   8.157  0.1406 -0.6767 -0.1716
 9000SOL    HW138459   2.689   1.934   8.075  1.3128  1.2283 -1.3480
 9000SOL    HW238460   2.749   2.050   8.131 -1.8852 -0.3998 -0.7076
 9001SOL     OW38461   0.397   0.254  15.273  0.5994 -0.2439 -0.0175
 9001SOL    HW138462   0.375   0.324  15.211  0.2029  0.4422  0.9014
 9001SOL    HW238463   0.475   0.223  15.228  1.7894 -0.2028  2.0181
 9002SOL     OW38464   2.789   4.125   2.219  0.1466 -0.3457 -0.3486
 9002SOL    HW138465   2.773   4.183   2.293 -1.5888  2.3988 -2.8492
 9002SOL    HW238466   2.836   4.175   2.153 -2.4892 -0.8740 -2.6276
 9003SOL     OW38467   2.329   3.500  17.249 -0.8150  0.2671 -0.9054
 9003SOL    HW138468   2.405   3.557  17.261 -0.4405 -0.0325 -1.8637
 9003SOL    HW238469   2.261   3.568  17.250 -0.4022  0.6544  0.6530
 9004SOL     OW38470   2.423   3.919   1.183 -0.1363  0.9348  0.1041
 9004SOL    HW138471   2.399   3.907   1.091  1.6359 -4.1807  0.2902
 9004SOL    HW238472   2.504   3.967   1.167  1.1200 -1.2590 -0.0173
 9005SOL     OW38473   4.417   2.535   6.094 -0.0438  0.5472  0.3198
 9005SOL    HW138474   4.444   2.530   6.185 -1.3667  2.0885  0.7845
 9005SOL    HW238475   4.412   2.441   6.074  1.6004  0.1885  1.6374
 9006SOL     OW38476   4.562   4.201   1.111  0.2881 -0.3156 -0.2250
 9006SOL    HW138477   4.590   4.115   1.141  2.3330 -0.4388 -2.5278
 9006SOL    HW238478   4.468   4.184   1.105  0.3228 -0.2670 -0.9072
 9007SOL     OW38479   2.436   4.309   5.571  0.0070 -0.2015  0.3717
 9007SOL    HW138480   2.429   4.405   5.577  1.2179 -0.1463  0.9455
 9007SOL    HW238481   2.447   4.309   5.476 -0.0404  1.9153  0.3635
 9008SOL     OW38482   4.352   2.183   3.106  0.3639 -0.5010  0.0035
 9008SOL    HW138483   4.380   2.251   3.045  2.4949 -0.5608  0.9150
 9008SOL    HW238484   4.315   2.114   3.051  0.2479 -0.4442  0.0109
 9009SOL     OW38485   2.094   0.711   3.444  0.2495  0.0886 -0.9104
 9009SOL    HW138486   2.162   0.749   3.500  0.3523  0.5980 -1.3791
 9009SOL    HW238487   2.119   0.748   3.359 -2.6234  0.1615 -1.7140
 9010SOL     OW38488   3.093   3.328   2.015 -0.2981  0.1664 -0.0491
 9010SOL    HW138489   3.082   3.240   2.051  2.3872  0.0885  0.5600
 9010SOL    HW238490   3.169   3.307   1.962 -0.5913  0.7900 -0.7282
 9011SOL     OW38491   0.379   3.774   9.130 -0.5462 -0.3869 -0.0566
 9011SOL    HW138492   0.335   3.689   9.128 -0.5361 -0.3362 -2.6053
 9011SOL    HW238493   0.460   3.745   9.089 -0.5067 -1.2819  0.6659
 9012SOL     OW38494   2.517   2.846  12.184 -0.2117 -0.3052 -0.1054
 9012SOL    HW138495   2.543   2.915  12.123  1.4190 -1.2336 -0.4495
 9012SOL    HW238496   2.456   2.895  12.239 -0.6196  0.0559 -0.8861
 9013SOL     OW38497   1.510   1.182   4.435 -0.1798 -0.0712 -0.5156
 9013SOL    HW138498   1.516   1.240   4.359  1.6222  1.4787  0.8171
 9013SOL    HW238499   1.494   1.095   4.398  3.3741 -0.8251 -0.3509
 9014SOL     OW38500   3.462   3.571   9.564 -0.3173 -0.2613  0.4788
 9014SOL    HW138501   3.419   3.499   9.609 -1.0367 -0.0411  0.1366
 9014SOL    HW238502   3.555   3.546   9.560 -0.1790 -0.1203  2.4945
 9015SOL     OW38503   1.603   1.433   8.329  0.2313  0.4439 -0.1525
 9015SOL    HW138504   1.652   1.403   8.406  0.0284 -0.6059 -0.4294
 9015SOL    HW238505   1.546   1.495   8.375  1.1771  1.0263  0.2263
 9016SOL     OW38506   1.189   3.510   5.573  0.1081 -0.2874  1.0564
 9016SOL    HW138507   1.192   3.605   5.565  0.7361 -0.3998 -0.1083
 9016SOL    HW238508   1.107   3.490   5.527  0.7449 -0.3374 -0.0576
 9017SOL     OW38509   4.047   3.114   7.659  0.1488 -0.1512 -0.3763
 9017SOL    HW138510   4.059   3.021   7.678 -1.0729  0.2052  2.0523
 9017SOL    HW238511   4.136   3.143   7.677 -0.9346  1.6767  2.1227
 9018SOL     OW38512   2.527   4.368   3.209  0.2222 -0.0376 -0.0108
 9018SOL    HW138513   2.471   4.412   3.273  1.2580  1.0326  0.1673
 9018SOL    HW238514   2.481   4.285   3.196  0.0083 -0.0765  0.9331
 9019SOL     OW38515   1.746   4.042  16.965  0.6347  0.0055 -0.1901
 9019SOL    HW138516   1.740   3.948  16.980  1.3690  0.1294  0.8567
 9019SOL    HW238517   1.799   4.048  16.886 -0.2691 -1.9369 -0.9545
 9020SOL     OW38518   3.722   3.444  15.268  0.5372 -0.5277  0.0992
 9020SOL    HW138519   3.696   3.443  15.360  0.8811  0.1940  0.2003
 9020SOL    HW238520   3.746   3.354  15.244 -0.9817 -0.5015 -1.5088
 9021SOL     OW38521   3.547   0.966  15.632 -0.0213  0.0092 -0.7121
 9021SOL    HW138522   3.611   0.993  15.697 -0.5388 -0.2452 -0.0987
 9021SOL    HW238523   3.524   1.053  15.598  0.8343  0.5756  0.1816
 9022SOL     OW38524   1.979   4.298  16.789  0.3583  0.2206  0.0822
 9022SOL    HW138525   1.960   4.208  16.763 -0.9991  0.5918 -0.2190
 9022SOL    HW238526   2.071   4.304  16.765  0.2521 -0.1928 -0.4370
 9023SOL     OW38527   0.012   2.558   0.217  0.4424  0.3170 -0.3622
 9023SOL    HW138528   0.016   2.642   0.264 -0.2684 -0.1740  0.5748
 9023SOL    HW238529   0.093   2.571   0.167  0.6928 -1.6437 -0.4338
 9024SOL     OW38530   4.571   3.208   7.654 -0.6134  0.4518 -0.1968
 9024SOL    HW138531   4.621   3.288   7.639  1.9442 -0.9370  0.7538
 9024SOL    HW238532   4.643   3.151   7.681 -1.7464 -0.3953  1.0735
 9025SOL     OW38533   3.739   3.504   7.538 -0.1451  0.3721  0.1239
 9025SOL    HW138534   3.756   3.414   7.510  0.3695  0.9522 -1.4511
 9025SOL    HW238535   3.761   3.555   7.460 -1.6770 -0.5703 -0.9140
 9026SOL     OW38536   2.552   0.578   3.850  0.3885  0.0716  0.3901
 9026SOL    HW138537   2.470   0.620   3.877 -1.5512 -1.7763 -2.5951
 9026SOL    HW238538   2.580   0.646   3.788 -1.8089 -0.9213 -1.6953
 9027SOL     OW38539   0.000   3.183   4.565 -0.5406 -0.1472  0.2382
 9027SOL    HW138540   4.709   3.127   4.489  2.0762  2.7286 -2.2637
 9027SOL    HW238541   4.641   3.172   4.616  0.1079  1.2061  1.5526
 9028SOL     OW38542   4.468   4.234  15.191  0.3475  0.0742 -0.0198
 9028SOL    HW138543   4.527   4.256  15.118 -0.0970 -0.8998 -0.6695
 9028SOL    HW238544   4.395   4.181  15.160  1.0272 -1.4186  0.9635
 9029SOL     OW38545   0.215   1.031   6.532 -0.1887 -0.7987 -0.0620
 9029SOL    HW138546   0.179   1.117   6.553  3.3355  0.8828 -0.9956
 9029SOL    HW238547   0.305   1.035   6.564 -0.1935  1.2341 -0.3581
 9030SOL     OW38548   1.920   4.608   8.949  0.5335 -0.2055  0.4162
 9030SOL    HW138549   1.864   4.584   8.875  2.9428 -0.6536 -1.2437
 9030SOL    HW238550   1.858   4.599   9.022 -0.8344 -0.8932 -0.8409
 9031SOL     OW38551   4.431   0.363  17.059 -0.0661 -0.0979 -0.5355
 9031SOL    HW138552   4.519   0.358  17.097 -0.5747  1.4676  0.8253
 9031SOL    HW238553   4.395   0.426  17.121 -0.2016  0.6041 -1.3226
 9032SOL     OW38554   3.646   2.607   6.821  0.1760 -0.1649 -0.1103
 9032SOL    HW138555   3.613   2.612   6.732 -1.2152  0.2960  0.4239
 9032SOL    HW238556   3.734   2.570   6.812  0.1715  0.3147 -2.0744
 9033SOL     OW38557   2.163   0.314   2.097  0.6462  0.1685 -0.1705
 9033SOL    HW138558   2.217   0.388   2.123 -0.9033  1.1615  0.2178
 9033SOL    HW238559   2.221   0.267   2.037 -2.1365 -1.6569 -1.4208
 9034SOL     OW38560   4.444   4.194   7.344 -0.6396  0.8045 -0.2119
 9034SOL    HW138561   4.363   4.147   7.323 -1.6347  1.6918  1.6030
 9034SOL    HW238562   4.425   4.286   7.325 -1.3460  0.5641 -0.6510
 9035SOL     OW38563   3.661   2.871   9.032  0.6805 -0.8510 -0.1639
 9035SOL    HW138564   3.644   2.786   9.074 -2.9676 -0.2240 -0.3938
 9035SOL    HW238565   3.589   2.885   8.970  2.5274 -0.2174 -2.1694
 9036SOL     OW38566   0.883   3.718   4.230  0.2650  0.2070 -0.0961
 9036SOL    HW138567   0.970   3.732   4.268 -0.5887  0.8067  1.6775
 9036SOL    HW238568   0.900   3.717   4.136  0.1862  0.8419 -0.1195
 9037SOL     OW38569   2.803   0.728   8.783 -0.3060  0.1282  0.3744
 9037SOL    HW138570   2.752   0.647   8.784  2.0709 -1.3199  2.3315
 9037SOL    HW238571   2.874   0.708   8.843 -0.0929 -1.5761 -0.4541
 9038SOL     OW38572   0.885   1.778   6.737 -0.1829 -0.0996 -0.1910
 9038SOL    HW138573   0.869   1.687   6.763 -1.7366 -0.2438 -1.6528
 9038SOL    HW238574   0.959   1.777   6.677  0.2411 -0.6374  0.3477
 9039SOL     OW38575   1.307   4.015   7.925  0.6282 -0.2022 -0.1875
 9039SOL    HW138576   1.394   3.999   7.888  0.6968 -0.2248 -0.0170
 9039SOL    HW238577   1.310   4.111   7.914 -1.2137 -0.2392 -1.0835
 9040SOL     OW38578   3.010   0.585   8.898  0.4807  0.9407 -0.4207
 9040SOL    HW138579   3.030   0.592   8.991 -0.3216  1.6325 -0.2969
 9040SOL    HW238580   3.011   0.491   8.882 -2.2377  0.5742  1.4990
 9041SOL     OW38581   0.571   0.535   1.463 -0.2582  0.0875 -0.2570
 9041SOL    HW138582   0.487   0.582   1.462 -0.8810 -1.0777 -2.9853
 9041SOL    HW238583   0.621   0.603   1.416  1.2597 -0.0141  1.2252
 9042SOL     OW38584   2.161   2.281  15.672 -0.1313  0.6015 -0.0964
 9042SOL    HW138585   2.153   2.261  15.765 -0.8933  1.3571 -0.0049
 9042SOL    HW238586   2.256   2.267  15.667 -0.1314 -0.2741  2.0095
 9043SOL     OW38587   1.918   2.716   4.582  0.2356  0.0632 -0.4432
 9043SOL    HW138588   1.951   2.772   4.512 -0.9274  0.3739 -0.7380
 9043SOL    HW238589   1.841   2.768   4.606  1.1849  1.5275 -0.5272
 9044SOL     OW38590   1.408   2.078   1.654 -0.3687 -0.5376  0.6448
 9044SOL    HW138591   1.447   1.992   1.637 -0.3589 -0.5353  0.6553
 9044SOL    HW238592   1.474   2.139   1.622 -1.4985  1.4869  2.1808
 9045SOL     OW38593   2.697   0.465   7.264 -0.3598 -0.1327  0.2853
 9045SOL    HW138594   2.665   0.544   7.308  0.2717 -0.5968  1.5834
 9045SOL    HW238595   2.619   0.412   7.280 -0.8675  1.0477  1.7494
 9046SOL     OW38596   0.575   3.031   7.347 -0.6929 -0.0591  0.6004
 9046SOL    HW138597   0.516   2.955   7.343  0.2231 -0.7593  0.2960
 9046SOL    HW238598   0.579   3.046   7.441 -1.4029  2.3585  0.2438
 9047SOL     OW38599   4.706   4.688   7.393 -0.3491 -0.8851 -0.2088
 9047SOL    HW138600   4.689   0.060   7.377 -2.5820 -1.2695 -0.0713
 9047SOL    HW238601   0.051   4.667   7.327 -1.3359 -1.5524 -0.9798
 9048SOL     OW38602   1.117   1.697   3.712 -0.2129 -0.0614 -0.1615
 9048SOL    HW138603   1.108   1.669   3.621 -0.1510  1.5115 -0.6480
 9048SOL    HW238604   1.150   1.787   3.705  0.6535 -0.4567 -1.0409
 9049SOL     OW38605   0.393   0.468   6.483 -0.6096  0.1060 -0.8927
 9049SOL    HW138606   0.338   0.421   6.546 -0.7655  1.0249 -0.3491
 9049SOL    HW238607   0.392   0.404   6.411 -0.3407 -2.5194  1.4524
 9050SOL     OW38608   1.606   1.933   8.825 -0.1376 -0.3447 -0.0247
 9050SOL    HW138609   1.624   1.925   8.919  1.0703 -1.1200 -0.3230
 9050SOL    HW238610   1.577   2.023   8.810 -0.0315 -0.3629 -0.3472
 9051SOL     OW38611   0.250   2.186   2.557 -0.1118 -0.0204  0.5437
 9051SOL    HW138612   0.225   2.190   2.649 -0.6006 -0.2407  0.4224
 9051SOL    HW238613   0.325   2.126   2.555  0.7476  1.0607  0.2678
 9052SOL     OW38614   0.262   4.399   6.465  0.0962  0.2588  0.5742
 9052SOL    HW138615   0.335   4.452   6.436  0.4048 -0.9461 -0.8382
 9052SOL    HW238616   0.230   4.367   6.381  0.9661 -2.1062  1.1362
 9053SOL     OW38617   0.396   0.670  13.210  0.1579  0.0588  0.3945
 9053SOL    HW138618   0.368   0.705  13.126 -1.1411  1.5400  1.4513
 9053SOL    HW238619   0.481   0.713  13.218  0.5086 -0.1106 -2.1927
 9054SOL     OW38620   3.972   3.114   8.024  0.4514 -0.2245 -0.4954
 9054SOL    HW138621   3.929   3.162   7.952  0.8090  1.1041  0.1748
 9054SOL    HW238622   3.897   3.095   8.080 -0.5039  4.9581  0.0502
 9055SOL     OW38623   1.272   1.831  13.073 -0.1444 -0.0936 -0.3583
 9055SOL    HW138624   1.337   1.859  13.138 -0.4325  1.0348 -0.5420
 9055SOL    HW238625   1.199   1.795  13.125 -0.6893  0.9464 -0.3880
 9056SOL     OW38626   2.338   0.820   2.045  0.0113 -0.0954 -0.3037
 9056SOL    HW138627   2.377   0.734   2.064  0.8731  0.8674  2.3380
 9056SOL    HW238628   2.367   0.837   1.956  0.8979 -1.8775 -0.3699
 9057SOL     OW38629   0.534   2.119   6.963  0.5446  0.0678 -0.2210
 9057SOL    HW138630   0.589   2.060   6.910 -0.5655 -0.9976 -0.1803
 9057SOL    HW238631   0.494   2.055   7.022  2.5293 -1.1073 -0.1464
 9058SOL     OW38632   0.827   0.387   2.245  0.1773 -0.3162  0.6425
 9058SOL    HW138633   0.779   0.304   2.245 -1.3101  0.5496  0.4695
 9058SOL    HW238634   0.800   0.412   2.157 -2.0752  1.4295  1.8278
 9059SOL     OW38635   3.526   0.819   4.414  0.0199  0.0278 -0.3850
 9059SOL    HW138636   3.557   0.744   4.363  0.7879 -0.7603  1.2642
 9059SOL    HW238637   3.512   0.789   4.503  0.4610  2.2867  0.4509
 9060SOL     OW38638   0.432   2.364   1.124  0.2733 -0.2613  0.4002
 9060SOL    HW138639   0.515   2.320   1.102  0.7052  0.2958  0.9353
 9060SOL    HW238640   0.387   2.304   1.184  1.5560 -1.2479  0.3898
 9061SOL     OW38641   4.579   2.082  11.927 -0.1994  0.2010 -0.5160
 9061SOL    HW138642   4.509   2.122  11.979  1.0970 -1.5778  2.5730
 9061SOL    HW238643   4.555   2.099  11.836 -2.5629  0.9146  0.2402
 9062SOL     OW38644   3.181   4.695   7.628 -0.2011  0.5954 -0.8186
 9062SOL    HW138645   3.151   4.676   7.539  2.2638 -2.5953 -0.9541
 9062SOL    HW238646   3.105   0.007   7.677  0.3579 -0.7086  0.8982
 9063SOL     OW38647   3.878   0.188  12.139  0.0609 -0.3930 -0.3135
 9063SOL    HW138648   3.956   0.183  12.083 -0.1597 -1.1770 -0.5536
 9063SOL    HW238649   3.815   0.189  12.067  0.0302 -2.0604 -0.3142
 9064SOL     OW38650   3.413   1.937   6.580  0.2253 -0.1925  0.6197
 9064SOL    HW138651   3.323   1.906   6.588  0.4759 -1.3724 -1.2095
 9064SOL    HW238652   3.448   1.855   6.613  0.3059 -0.8170 -1.0026
 9065SOL     OW38653   2.843   0.422   7.885  0.6562 -0.1743 -0.7213
 9065SOL    HW138654   2.908   0.391   7.949  0.6330  0.9095 -0.1741
 9065SOL    HW238655   2.805   0.501   7.922  0.4226  0.3272 -2.0688
 9066SOL     OW38656   0.969   1.022  10.753  0.2548 -0.3423 -0.6779
 9066SOL    HW138657   0.968   0.981  10.839  1.7115 -0.4666 -0.7080
 9066SOL    HW238658   1.031   1.088  10.783 -1.9234  1.7512 -0.8247
 9067SOL     OW38659   2.291   4.173   4.284 -0.1151  0.3020  0.7826
 9067SOL    HW138660   2.353   4.202   4.218  1.4038 -1.4739  1.4165
 9067SOL    HW238661   2.233   4.249   4.285  0.3697  0.6726  0.2629
 9068SOL     OW38662   2.705   3.185   8.004  0.0356 -0.0866 -0.2544
 9068SOL    HW138663   2.624   3.144   7.973 -0.8487  1.0027  0.5827
 9068SOL    HW238664   2.687   3.278   7.989  1.2186  0.0477 -0.8584
 9069SOL     OW38665   3.003   4.578  17.449  0.2868 -0.6490 -0.0870
 9069SOL    HW138666   2.947   4.655  17.453 -0.2936 -1.0806  0.0527
 9069SOL    HW238667   3.092   4.610  17.461  0.1452 -0.0299 -0.7001
 9070SOL     OW38668   3.642   3.999   9.503  0.1794 -0.2939  0.2426
 9070SOL    HW138669   3.595   3.923   9.538  2.4142 -0.8150  2.1564
 9070SOL    HW238670   3.730   3.986   9.537  0.9197 -0.4593 -1.7204
 9071SOL     OW38671   4.290   1.915   7.317 -0.2926  0.0225  0.3434
 9071SOL    HW138672   4.337   1.866   7.385 -1.1975  0.3662  1.2101
 9071SOL    HW238673   4.250   1.981   7.373  1.6840  1.0224  0.5822
 9072SOL     OW38674   3.890   4.569  13.683  0.2132  0.0791  0.3688
 9072SOL    HW138675   3.967   4.589  13.736  0.2967 -0.7263  0.5477
 9072SOL    HW238676   3.865   4.484  13.717 -1.8079  0.8781  0.9052
 9073SOL     OW38677   0.036   0.934  10.515 -0.1926  0.3754 -0.2080
 9073SOL    HW138678   4.706   1.015  10.527  0.9971  1.1900 -0.6689
 9073SOL    HW238679   0.077   0.947  10.429  1.2607 -2.9388 -0.0068
 9074SOL     OW38680   0.092   1.461   5.226  0.4046  0.1882 -0.8604
 9074SOL    HW138681   0.110   1.555   5.216  1.6557  0.0555  0.1709
 9074SOL    HW238682   0.040   1.474   5.305 -1.4408  1.3742 -2.2785
 9075SOL     OW38683   0.833   2.217   3.737  0.4245  0.0903 -0.2450
 9075SOL    HW138684   0.754   2.237   3.788  0.9259  3.9884 -0.9543
 9075SOL    HW238685   0.826   2.267   3.656  0.3613  0.5329  0.0303
 9076SOL     OW38686   4.604   1.141   6.759  0.3291  0.6171  0.1435
 9076SOL    HW138687   4.614   1.158   6.665  0.7074  2.1154  0.4459
 9076SOL    HW238688   4.612   1.047   6.774 -3.0907  0.1394 -1.1101
 9077SOL     OW38689   4.163   0.278   4.152  0.2303  0.8509  0.3327
 9077SOL    HW138690   4.143   0.199   4.100 -0.0723 -0.0115  1.7722
 9077SOL    HW238691   4.235   0.247   4.207  0.2894 -2.3492 -1.5253
 9078SOL     OW38692   3.588   0.744   6.111 -0.4820  0.0859  0.0107
 9078SOL    HW138693   3.533   0.705   6.178 -0.2651  0.8904  0.6569
 9078SOL    HW238694   3.640   0.805   6.164  0.8158 -0.6707 -0.3710
 9079SOL     OW38695   2.825   1.381   7.704  0.1802 -0.5645  0.1609
 9079SOL    HW138696   2.825   1.451   7.640 -1.7445 -0.9843 -0.3200
 9079SOL    HW238697   2.920   1.378   7.699  0.1137  0.3003 -1.6599
 9080SOL     OW38698   1.802   4.045   4.111 -0.1748  0.6726  0.1737
 9080SOL    HW138699   1.750   4.085   4.181 -0.3844 -0.6937  0.7944
 9080SOL    HW238700   1.748   3.968   4.095 -0.4238  1.1560 -1.2948
 9081SOL     OW38701   2.571   0.175   3.877 -0.3768 -0.0001  0.0208
 9081SOL    HW138702   2.619   0.235   3.819 -0.9832 -1.9342 -2.4631
 9081SOL    HW238703   2.558   0.232   3.953  1.6998 -1.5276  1.5087
 9082SOL     OW38704   3.813   1.014   4.017  0.1907 -0.4148  0.1692
 9082SOL    HW138705   3.779   0.940   3.967 -3.5665  0.2403  1.7973
 9082SOL    HW238706   3.734   1.043   4.063 -1.5370 -1.7875 -1.9654
 9083SOL     OW38707   3.645   3.671  14.660 -0.0228  0.1022  0.0826
 9083SOL    HW138708   3.557   3.633  14.661  0.3064 -0.7411 -2.8683
 9083SOL    HW238709   3.661   3.670  14.566  0.5594 -0.2535  0.1882
 9084SOL     OW38710   3.453   0.292   7.192 -0.2372  0.1527 -0.1397
 9084SOL    HW138711   3.533   0.303   7.141 -0.4966  0.1125 -0.5559
 9084SOL    HW238712   3.456   0.381   7.227  0.4358  0.2479 -0.4436
 9085SOL     OW38713   0.045   0.266   4.665  0.3595  0.1457 -0.2008
 9085SOL    HW138714   0.091   0.210   4.601  3.2119 -0.1082  2.0564
 9085SOL    HW238715   0.109   0.255   4.736 -0.2898 -3.2951 -0.1399
 9086SOL     OW38716   3.886   3.753  11.614 -0.4388  0.2387  0.0624
 9086SOL    HW138717   3.800   3.791  11.597  0.3373  1.0624 -1.9701
 9086SOL    HW238718   3.867   3.694  11.687  2.0824 -0.2164  0.3494
 9087SOL     OW38719   1.759   1.556   6.716 -0.0305  0.6175  0.2583
 9087SOL    HW138720   1.707   1.513   6.648 -0.7047  1.7867  0.0367
 9087SOL    HW238721   1.788   1.628   6.660 -0.7063  0.1945 -0.6227
 9088SOL     OW38722   4.473   3.260   8.885  0.0360  0.3556  0.2940
 9088SOL    HW138723   4.530   3.337   8.882 -0.9075  1.1004  1.1902
 9088SOL    HW238724   4.519   3.190   8.839  0.6185  0.1049  1.2755
 9089SOL     OW38725   2.919   0.166   5.236  0.6387 -0.2642  0.5417
 9089SOL    HW138726   3.012   0.153   5.255  0.0825 -6.2028 -0.7153
 9089SOL    HW238727   2.916   0.115   5.155  3.0463 -1.2091  1.0630
 9090SOL     OW38728   0.209   3.685  16.263  0.0574 -0.2125 -0.1125
 9090SOL    HW138729   0.221   3.607  16.318  0.7971 -0.6757 -0.9252
 9090SOL    HW238730   0.271   3.745  16.306  0.1380 -1.1814  1.1574
 9091SOL     OW38731   4.552   2.373   9.042 -0.2517 -0.1835 -0.0769
 9091SOL    HW138732   4.489   2.437   9.076 -1.3528 -1.2150 -0.1761
 9091SOL    HW238733   4.636   2.397   9.081  0.5053 -2.1566 -0.4854
 9092SOL     OW38734   0.467   3.775   4.731  0.6113 -0.2153  0.0671
 9092SOL    HW138735   0.548   3.749   4.776  1.2287  1.7597  0.1296
 9092SOL    HW238736   0.416   3.789   4.810 -0.5110 -0.5821 -0.5944
 9093SOL     OW38737   4.157   3.743  10.411  0.4076 -0.0723  0.2208
 9093SOL    HW138738   4.217   3.791  10.354  1.9482 -2.9110 -0.5421
 9093SOL    HW238739   4.194   3.745  10.499  0.9315  1.6947 -0.0461
 9094SOL     OW38740   3.710   0.799   7.370  0.4951 -0.2592 -0.1988
 9094SOL    HW138741   3.720   0.805   7.275 -2.7646  0.4456 -0.4957
 9094SOL    HW238742   3.675   0.711   7.379  0.8432 -0.1877  1.9031
 9095SOL     OW38743   1.647   4.154   4.593  0.3324  0.3139 -0.0904
 9095SOL    HW138744   1.588   4.208   4.646  0.4208 -0.9574  1.3100
 9095SOL    HW238745   1.688   4.096   4.657 -1.4626 -0.2461  0.5454
 9096SOL     OW38746   4.312   3.503  17.103 -0.5204 -0.1568 -0.0333
 9096SOL    HW138747   4.320   3.461  17.017  0.7335 -0.5594  0.2782
 9096SOL    HW238748   4.254   3.575  17.076 -0.6471  0.4202  1.8045
 9097SOL     OW38749   0.553   3.580   8.204  0.1356 -0.1314 -0.2829
 9097SOL    HW138750   0.487   3.510   8.200  3.1873 -2.9780 -1.2985
 9097SOL    HW238751   0.612   3.552   8.134  2.3713  0.2053  1.4830
 9098SOL     OW38752   1.116   0.230   6.888 -0.3390  0.6904  0.2670
 9098SOL    HW138753   1.108   0.269   6.801  2.2826  0.4076 -0.0928
 9098SOL    HW238754   1.040   0.172   6.897  0.8967 -0.9089  0.5450
 9099SOL     OW38755   2.983   0.305  10.107  0.1669 -0.7051 -0.0192
 9099SOL    HW138756   3.059   0.342  10.152  1.0028 -0.8099 -1.3363
 9099SOL    HW238757   2.913   0.322  10.170 -0.1766 -1.4781 -0.1978
 9100SOL     OW38758   3.132   0.329   3.168  0.9776  0.0828 -0.1141
 9100SOL    HW138759   3.228   0.331   3.177  0.9395  1.6689  0.0493
 9100SOL    HW238760   3.118   0.401   3.229  2.5698 -1.5760  2.1788
 9101SOL     OW38761   0.840   1.056   6.129 -0.4040 -0.0218  0.1728
 9101SOL    HW138762   0.856   1.105   6.048 -0.9940 -0.1892 -0.0459
 9101SOL    HW238763   0.883   0.974   6.106 -1.7280 -1.6435  3.5083
 9102SOL     OW38764   2.864   3.511   4.651 -0.0092  0.2390 -0.2786
 9102SOL    HW138765   2.810   3.589   4.641  1.1649  1.1012  0.1115
 9102SOL    HW238766   2.950   3.550   4.633  0.1768  0.4677  1.0458
 9103SOL     OW38767   2.259   4.124   6.369 -0.0473  0.7198 -0.0514
 9103SOL    HW138768   2.181   4.089   6.413  0.8509 -0.5920  0.4993
 9103SOL    HW238769   2.302   4.153   6.449  0.3667 -0.1900  0.0533
 9104SOL     OW38770   1.321   0.281  14.687 -0.1606 -0.0862  0.1324
 9104SOL    HW138771   1.252   0.257  14.749 -1.0318  0.3373 -0.6828
 9104SOL    HW238772   1.323   0.199  14.638 -1.9996  0.2994 -0.6090
 9105SOL     OW38773   1.749   1.879   0.235  0.5171 -0.1275  0.1893
 9105SOL    HW138774   1.710   1.870   0.148 -0.0211 -1.6374  0.5876
 9105SOL    HW238775   1.723   1.797   0.276  1.0723 -0.0307  0.7375
 9106SOL     OW38776   1.983   0.136  12.812 -0.3477 -0.7281 -0.0754
 9106SOL    HW138777   2.005   0.045  12.831  2.3372  0.0852  0.6614
 9106SOL    HW238778   2.069   0.176  12.807 -0.8043  0.0680 -1.6140
 9107SOL     OW38779   4.706   4.668   8.303  0.3919  0.2409 -0.2095
 9107SOL    HW138780   4.613   4.647   8.300 -0.3248  3.4188 -0.3875
 9107SOL    HW238781   0.011   4.682   8.211  3.9540  0.2926  0.7964
 9108SOL     OW38782   0.915   3.701   7.298  0.1185  0.3194  0.1941
 9108SOL    HW138783   0.821   3.719   7.289 -0.0312 -1.0213 -1.0104
 9108SOL    HW238784   0.916   3.608   7.275 -0.4880  0.7073 -1.4113
 9109SOL     OW38785   1.578   3.944  14.726 -0.5188 -0.0173  0.1714
 9109SOL    HW138786   1.653   3.916  14.779  0.2561  0.1649 -0.8394
 9109SOL    HW238787   1.589   4.039  14.726 -2.8488  0.2416 -0.9692
 9110SOL     OW38788   2.115   4.058   8.705 -0.6458  0.6021 -0.5662
 9110SOL    HW138789   2.167   4.119   8.756  2.0804 -1.8459 -0.3751
 9110SOL    HW238790   2.084   4.110   8.631 -3.7265 -0.0661  0.2468
 9111SOL     OW38791   4.581   4.128   2.301  0.0478 -0.3250 -0.1301
 9111SOL    HW138792   4.615   4.122   2.211 -0.8537 -1.0485 -0.4193
 9111SOL    HW238793   4.624   4.209   2.329 -3.6420  1.4959  0.1947
 9112SOL     OW38794   2.957   3.363   5.472 -0.4978  0.3183  0.0368
 9112SOL    HW138795   2.902   3.357   5.551  2.9316 -2.0706  2.2449
 9112SOL    HW238796   3.039   3.335   5.513  0.3061  0.6654 -1.3562
 9113SOL     OW38797   1.186   4.702   2.239  0.4711  0.5107 -0.0258
 9113SOL    HW138798   1.242   4.651   2.181 -0.1161 -0.3848  0.1974
 9113SOL    HW238799   1.124   0.021   2.179  1.9249  1.7072 -0.7561
 9114SOL     OW38800   1.956   2.550   4.785  0.3309 -0.1190  0.4118
 9114SOL    HW138801   1.918   2.610   4.722  1.0342  0.5278  0.6042
 9114SOL    HW238802   2.038   2.548   4.736  0.3691  0.2566  0.4609
 9115SOL     OW38803   2.137   0.674   6.095  0.2942 -0.4635 -0.0964
 9115SOL    HW138804   2.092   0.679   6.011  0.7379 -1.3479 -0.3814
 9115SOL    HW238805   2.097   0.593   6.128 -0.2760 -0.3578 -0.5201
 9116SOL     OW38806   1.462   2.430   5.502 -0.1095 -0.1381  0.1964
 9116SOL    HW138807   1.419   2.391   5.426 -0.5661 -0.6481  0.7196
 9116SOL    HW238808   1.467   2.520   5.469  2.5868 -0.9453 -1.6188
 9117SOL     OW38809   3.846   1.521   6.044  0.0371 -0.0574 -0.2210
 9117SOL    HW138810   3.926   1.514   5.993  0.1521  0.5844 -0.1167
 9117SOL    HW238811   3.830   1.615   6.052  1.9959  0.2814 -0.2407
 9118SOL     OW38812   3.226   4.195   1.842 -0.7127 -0.4888  0.5895
 9118SOL    HW138813   3.193   4.274   1.885  1.9436 -1.1113  3.7050
 9118SOL    HW238814   3.251   4.145   1.919  1.3498 -0.0089  0.2579
 9119SOL     OW38815   1.644   0.644   7.842  0.4612 -0.5100  0.1195
 9119SOL    HW138816   1.662   0.553   7.866  1.1859 -1.1002 -2.6045
 9119SOL    HW238817   1.684   0.639   7.755  0.6131  1.7493  0.0665
 9120SOL     OW38818   2.303   1.255   8.298  0.7610  0.2763  0.2676
 9120SOL    HW138819   2.329   1.259   8.206 -2.8028 -1.8765 -0.8363
 9120SOL    HW238820   2.232   1.190   8.298 -2.5197  3.8655 -0.8169
 9121SOL     OW38821   2.179   1.980  11.661 -0.5675 -0.3638  0.0266
 9121SOL    HW138822   2.136   1.920  11.722  1.1189  1.2604  2.7992
 9121SOL    HW238823   2.229   1.914  11.613  0.1531 -1.3594  2.1344
 9122SOL     OW38824   0.824   0.290   8.635 -0.1168  0.3160 -0.4257
 9122SOL    HW138825   0.751   0.352   8.636  1.5231  2.2260  1.1294
 9122SOL    HW238826   0.785   0.221   8.688 -1.8530  1.4982 -0.1644
 9123SOL     OW38827   3.054   0.379   8.066  0.4725  0.0835 -0.8309
 9123SOL    HW138828   3.089   0.465   8.044 -0.9951  0.1593 -2.8627
 9123SOL    HW238829   3.119   0.345   8.127 -3.3593 -1.0542  2.6732
 9124SOL     OW38830   2.777   1.765   7.485 -0.4421  0.0177 -0.0266
 9124SOL    HW138831   2.696   1.738   7.442 -0.6613  0.0699  0.3541
 9124SOL    HW238832   2.841   1.740   7.418 -0.1724  1.0107 -0.1360
 9125SOL     OW38833   3.668   0.146   5.119 -0.0500 -0.5796 -0.2866
 9125SOL    HW138834   3.712   0.109   5.196  1.3337  4.0023  1.1164
 9125SOL    HW238835   3.659   0.066   5.066 -1.7733 -0.9188  0.5473
 9126SOL     OW38836   3.198   2.909   1.797  0.1077 -0.3230  0.1897
 9126SOL    HW138837   3.137   2.942   1.732  0.4676  1.5143  0.7924
 9126SOL    HW238838   3.279   2.941   1.759  0.5759 -0.8178  0.7520
 9127SOL     OW38839   0.363   3.858   5.849  0.5492  0.1617 -0.1537
 9127SOL    HW138840   0.303   3.901   5.788 -1.3771 -2.4722 -0.1371
 9127SOL    HW238841   0.398   3.933   5.897  0.3214 -0.6477  1.2955
 9128SOL     OW38842   1.218   4.371   7.327  0.1902  0.0576 -0.2590
 9128SOL    HW138843   1.226   4.288   7.279  3.3223  1.3892 -2.0599
 9128SOL    HW238844   1.148   4.348   7.387  0.0927  0.7522 -0.1053
 9129SOL     OW38845   2.675   4.048  16.334  0.3821  0.4877  0.0734
 9129SOL    HW138846   2.614   4.121  16.339  3.9975  3.4903  0.0690
 9129SOL    HW238847   2.633   3.986  16.275 -0.0471  1.3588 -0.5256
 9130SOL     OW38848   1.373   4.013  14.896  0.4306  0.0870  0.1738
 9130SOL    HW138849   1.428   3.971  14.829  1.4921 -1.6404  2.1449
 9130SOL    HW238850   1.429   4.075  14.942  1.7330 -1.5621  0.8060
 9131SOL     OW38851   2.159   2.048   4.221  0.1690  0.3148 -0.1156
 9131SOL    HW138852   2.130   2.062   4.130 -0.0645  0.3328 -0.0390
 9131SOL    HW238853   2.230   1.985   4.208  0.5910  0.9793 -1.0501
 9132SOL     OW38854   0.210   0.619  15.403  0.0188  0.4263 -0.1848
 9132SOL    HW138855   0.149   0.595  15.473  0.3640  0.5472  0.1547
 9132SOL    HW238856   0.155   0.674  15.347  0.9755  2.4928  0.9022
 9133SOL     OW38857   3.922   4.587   5.830 -0.7463  0.7828  0.0317
 9133SOL    HW138858   3.837   4.553   5.857 -0.7571  2.9574  2.7173
 9133SOL    HW238859   3.955   4.631   5.909  3.2223 -0.9385 -0.6661
 9134SOL     OW38860   0.664   4.574   7.430 -0.1753 -0.4506  0.5062
 9134SOL    HW138861   0.718   4.609   7.500 -1.2382  1.8371  0.1642
 9134SOL    HW238862   0.708   4.603   7.350 -0.4993 -1.6415 -0.1195
 9135SOL     OW38863   0.601   3.208   6.706 -0.4219 -0.2925  0.1695
 9135SOL    HW138864   0.690   3.186   6.733 -1.2126 -1.5752  1.6733
 9135SOL    HW238865   0.558   3.224   6.790  0.8964 -0.9429  0.9515
 9136SOL     OW38866   0.020   4.225  15.222 -0.5907 -0.1599  0.2880
 9136SOL    HW138867   4.693   4.168  15.283 -1.3726  1.0045  0.7630
 9136SOL    HW238868   4.684   4.215  15.146  0.5048 -0.1013 -0.5278
 9137SOL     OW38869   1.286   1.600   3.911 -0.0021 -0.2121 -0.4741
 9137SOL    HW138870   1.214   1.625   3.854 -1.1404 -0.5367  0.8090
 9137SOL    HW238871   1.320   1.689   3.922  0.9635 -0.6203 -0.1374
 9138SOL     OW38872   3.600   1.951  11.557 -0.0328 -0.8162  0.1936
 9138SOL    HW138873   3.546   2.007  11.501  0.5784 -1.0306 -0.6116
 9138SOL    HW238874   3.626   1.878  11.500 -0.7629  0.5872 -1.9511
 9139SOL     OW38875   1.739   0.548   9.424  0.1538  0.5455 -0.1180
 9139SOL    HW138876   1.753   0.632   9.380  3.1788  1.2946  2.2899
 9139SOL    HW238877   1.691   0.497   9.359 -1.2937  0.5523  0.9627
 9140SOL     OW38878   1.920   1.603   4.533 -0.3401  0.4728  0.3047
 9140SOL    HW138879   1.941   1.621   4.441 -0.4358 -1.0085 -0.0123
 9140SOL    HW238880   1.831   1.566   4.528 -0.6971  1.3321  0.2401
 9141SOL     OW38881   3.563   1.656   7.272 -0.9209 -0.1408  0.0809
 9141SOL    HW138882   3.556   1.736   7.218  2.3128  0.6710  0.8189
 9141SOL    HW238883   3.657   1.640   7.274 -0.6817  1.4636  1.5568
 9142SOL     OW38884   0.988   3.629   6.113  0.1542 -0.2610 -0.1953
 9142SOL    HW138885   0.918   3.615   6.049 -0.9054  0.3665  0.8386
 9142SOL    HW238886   1.006   3.721   6.092 -1.6200  0.2655  0.5877
 9143SOL     OW38887   2.855   4.012   9.770 -0.3590  0.0895 -0.3604
 9143SOL    HW138888   2.841   3.930   9.722 -1.2619 -0.2856  0.5496
 9143SOL    HW238889   2.809   3.982   9.848 -1.1525  0.5153 -0.6635
 9144SOL     OW38890   3.720   1.530   9.090  0.4381 -0.3753  0.4175
 9144SOL    HW138891   3.625   1.522   9.097  0.1993  2.2485  0.3141
 9144SOL    HW238892   3.736   1.527   8.996 -0.5412 -0.3434  0.2423
 9145SOL     OW38893   0.428   4.280   2.030  0.4703  0.2234  0.8025
 9145SOL    HW138894   0.441   4.247   1.941  2.8973  2.0194  0.4600
 9145SOL    HW238895   0.398   4.367   2.003 -0.4537 -0.2031  0.4830
 9146SOL     OW38896   4.240   2.615   6.877 -0.1816  0.0653 -0.4653
 9146SOL    HW138897   4.245   2.519   6.884  0.0270 -0.0926 -2.7280
 9146SOL    HW238898   4.284   2.627   6.961  0.4425  1.7193 -1.0358
 9147SOL     OW38899   3.665   3.263   0.535 -0.0502 -0.0172 -0.6056
 9147SOL    HW138900   3.711   3.347   0.535  0.6531 -0.3877 -3.2315
 9147SOL    HW238901   3.676   3.241   0.443 -2.4366 -0.0626 -0.8769
 9148SOL     OW38902   1.634   1.145  16.602 -0.3635 -0.1791 -0.4086
 9148SOL    HW138903   1.540   1.126  16.604 -0.4148 -0.0573 -2.0213
 9148SOL    HW238904   1.670   1.077  16.544 -0.2887 -0.2380 -0.2932
 9149SOL     OW38905   2.736   1.298   9.037  0.1621  0.3725  0.4979
 9149SOL    HW138906   2.667   1.272   9.098 -1.6517  1.9455 -0.8685
 9149SOL    HW238907   2.818   1.271   9.079  0.8537  0.5695 -0.7197
 9150SOL     OW38908   1.669   3.267   2.738 -0.3431  0.8849 -0.5302
 9150SOL    HW138909   1.589   3.315   2.759 -1.7112 -1.1025 -1.1368
 9150SOL    HW238910   1.691   3.240   2.828  0.2028  0.2593 -0.8464
 9151SOL     OW38911   2.804   3.343   6.608 -0.0776 -0.1516  0.1473
 9151SOL    HW138912   2.778   3.252   6.622  0.7656 -0.5965 -1.1906
 9151SOL    HW238913   2.882   3.345   6.663  1.7722  0.3048 -2.4702
 9152SOL     OW38914   1.592   2.882   6.338  0.3566  0.6140 -0.2164
 9152SOL    HW138915   1.510   2.834   6.321 -1.7369  4.6106 -1.5236
 9152SOL    HW238916   1.576   2.902   6.430  0.8117 -0.0606  0.0084
 9153SOL     OW38917   3.406   0.724  10.990  0.2903 -0.1380  0.8215
 9153SOL    HW138918   3.318   0.736  11.025  0.5640  3.5685  0.1448
 9153SOL    HW238919   3.451   0.747  11.072  0.6301  0.6237  0.4181
 9154SOL     OW38920   2.409   4.283   3.475 -0.6583 -0.1202 -0.1845
 9154SOL    HW138921   2.360   4.245   3.548 -1.1384 -0.0800 -0.4882
 9154SOL    HW238922   2.444   4.366   3.507 -0.9132 -0.4907  1.0847
 9155SOL     OW38923   1.399   0.184   0.685  0.6065 -0.5609  0.7729
 9155SOL    HW138924   1.340   0.248   0.647 -0.2528 -1.6486  0.2888
 9155SOL    HW238925   1.340   0.134   0.741 -0.1724 -0.2925  0.1828
 9156SOL     OW38926   3.741   0.564  14.058 -0.4357  0.5488 -0.1515
 9156SOL    HW138927   3.697   0.595  13.979  0.7544  0.5741 -0.7980
 9156SOL    HW238928   3.833   0.559  14.033 -0.3783  1.3539 -0.1078
 9157SOL     OW38929   1.470   3.742   0.142 -0.2530 -0.2093  0.1515
 9157SOL    HW138930   1.530   3.689   0.090  0.0996  0.6379 -0.3118
 9157SOL    HW238931   1.454   3.809   0.075 -0.6370  0.6669  1.1109
 9158SOL     OW38932   1.376   3.040   3.275 -0.4620 -0.0572 -0.2294
 9158SOL    HW138933   1.389   3.016   3.367  1.7151  0.0320 -0.5320
 9158SOL    HW238934   1.368   2.955   3.232  1.4403 -0.7677  0.8075
 9159SOL     OW38935   1.578   3.968   7.804  0.2815  0.3273 -0.6317
 9159SOL    HW138936   1.637   4.044   7.806  2.1873 -1.0782 -3.0910
 9159SOL    HW238937   1.631   3.890   7.819  0.7055  0.7405  0.0131
 9160SOL     OW38938   3.248   0.328   5.493 -0.4219  0.4728  0.2408
 9160SOL    HW138939   3.163   0.355   5.529 -0.1055  3.3210 -1.0918
 9160SOL    HW238940   3.293   0.299   5.572 -1.9090 -1.2610  0.4444
 9161SOL     OW38941   1.499   1.890  15.654 -0.2078 -0.3432 -0.1801
 9161SOL    HW138942   1.540   1.818  15.606  0.5819  0.9422 -1.4473
 9161SOL    HW238943   1.546   1.970  15.633 -3.1313  1.5268  0.3974
 9162SOL     OW38944   3.412   0.861   5.257  0.3590 -0.0257 -0.2112
 9162SOL    HW138945   3.366   0.778   5.244 -1.2205  1.0050 -1.1753
 9162SOL    HW238946   3.494   0.848   5.210 -0.3967 -1.3918 -1.1646
 9163SOL     OW38947   3.878   3.871   8.757  0.5501 -0.6371 -0.1382
 9163SOL    HW138948   3.808   3.828   8.707 -1.6233  1.7922  0.7655
 9163SOL    HW238949   3.946   3.804   8.753  0.1555 -1.1889  2.4194
 9164SOL     OW38950   0.785   1.428   9.021 -0.2307 -0.5728 -0.5287
 9164SOL    HW138951   0.745   1.432   8.934  1.7284  0.2330 -1.3896
 9164SOL    HW238952   0.873   1.452   8.990  0.1044 -0.0187  0.8744
 9165SOL     OW38953   2.451   2.676  13.468  0.3722 -0.3408  0.1623
 9165SOL    HW138954   2.428   2.744  13.531 -0.9149 -0.0661 -0.6138
 9165SOL    HW238955   2.375   2.622  13.491  1.5582 -1.6485  1.0923
 9166SOL     OW38956   1.271   2.604   4.282  0.6089  0.0965 -0.2361
 9166SOL    HW138957   1.208   2.549   4.235  1.6420 -1.3106  0.0022
 9166SOL    HW238958   1.346   2.545   4.292 -0.3782 -1.7190 -3.4084
 9167SOL     OW38959   3.427   1.179   2.398 -0.5008  0.0331 -0.0246
 9167SOL    HW138960   3.397   1.089   2.397  2.0322 -0.7841 -1.2187
 9167SOL    HW238961   3.418   1.203   2.306 -0.4904 -0.5192 -0.1688
 9168SOL     OW38962   4.014   4.212   4.331 -0.0092 -0.6104 -0.1998
 9168SOL    HW138963   4.078   4.238   4.265  0.9092 -0.3190  0.8035
 9168SOL    HW238964   3.989   4.301   4.356 -1.3523 -0.5472 -1.7246
 9169SOL     OW38965   2.166   0.402   3.845  0.1051 -0.7557  0.0079
 9169SOL    HW138966   2.100   0.441   3.789  1.8659  1.1573 -0.7288
 9169SOL    HW238967   2.189   0.326   3.792  1.7245  1.2070 -2.1213
 9170SOL     OW38968   3.662   0.269   6.271  0.3641 -0.0457 -0.0384
 9170SOL    HW138969   3.575   0.275   6.232  0.7649  1.6175 -0.6729
 9170SOL    HW238970   3.630   0.248   6.359  1.5691  2.6802  1.0345
 9171SOL     OW38971   4.708   1.903  10.008  0.1056 -0.1517 -0.5230
 9171SOL    HW138972   4.693   1.945   9.923 -0.5056  0.6448 -0.0093
 9171SOL    HW238973   0.027   1.829   9.961  1.9089  2.8839 -3.7649
 9172SOL     OW38974   4.618   4.317  14.979 -0.0568  0.5342 -0.1612
 9172SOL    HW138975   4.625   4.249  14.912 -1.8473 -0.0476  0.2528
 9172SOL    HW238976   4.640   4.395  14.929 -0.8617 -0.9334 -2.7906
 9173SOL     OW38977   0.602   0.636   6.430  1.1083 -0.2010  0.4009
 9173SOL    HW138978   0.533   0.576   6.458  0.5949  0.0444 -0.3521
 9173SOL    HW238979   0.611   0.623   6.335 -1.5439 -2.7348  0.5071
 9174SOL     OW38980   0.911   1.835   7.495  0.2190  0.1360  0.0164
 9174SOL    HW138981   0.849   1.840   7.568  0.7126  0.1359  0.4369
 9174SOL    HW238982   0.856   1.892   7.441 -0.1978  1.0656  1.4204
 9175SOL     OW38983   0.461   3.663   4.038 -0.5016 -0.0398 -0.1760
 9175SOL    HW138984   0.553   3.654   4.010 -1.2621 -0.4612 -2.5628
 9175SOL    HW238985   0.452   3.597   4.106 -1.9135  1.4577  1.0746
 9176SOL     OW38986   1.175   2.462  13.359 -0.4026 -0.7905  0.0868
 9176SOL    HW138987   1.228   2.531  13.317  0.0344 -1.4430 -0.4446
 9176SOL    HW238988   1.219   2.387  13.318 -0.6381 -0.0774 -1.4641
 9177SOL     OW38989   0.745   0.279   3.901  0.0319  0.3370  0.1077
 9177SOL    HW138990   0.768   0.351   3.843  0.5551  0.9218  1.0485
 9177SOL    HW238991   0.680   0.321   3.957 -0.1019  1.0229 -0.5578
 9178SOL     OW38992   4.293   3.170   4.449 -0.4044 -0.4879 -1.0593
 9178SOL    HW138993   4.321   3.095   4.395  0.5566 -0.0665 -1.1371
 9178SOL    HW238994   4.202   3.150   4.472 -0.1516 -0.3589  0.0514
 9179SOL     OW38995   2.073   3.568  15.187 -0.0722  0.4824 -0.4828
 9179SOL    HW138996   2.003   3.584  15.124 -0.9421  0.1225  0.4022
 9179SOL    HW238997   2.139   3.625  15.148  1.7483 -0.8889  0.5811
 9180SOL     OW38998   2.831   0.508  15.079  0.2211  0.5587 -0.6152
 9180SOL    HW138999   2.917   0.535  15.046  0.6233 -0.0892 -0.0983
 9180SOL    HW239000   2.792   0.590  15.110  1.8712  1.1946 -0.2414
 9181SOL     OW39001   1.343   3.958   7.399 -0.1499 -0.0178 -0.1266
 9181SOL    HW139002   1.372   4.023   7.463 -0.3773  0.5411 -0.5995
 9181SOL    HW239003   1.306   3.895   7.461 -1.3606  0.0082 -0.8272
 9182SOL     OW39004   4.273   2.862   6.778  0.5707  0.5061 -0.0643
 9182SOL    HW139005   4.286   2.901   6.864 -0.5457 -2.7220  1.5818
 9182SOL    HW239006   4.244   2.780   6.817  2.0991 -0.0393 -0.1000
 9183SOL     OW39007   1.021   0.297   9.663  0.5528  0.3659 -0.2590
 9183SOL    HW139008   0.928   0.310   9.677  1.0989  0.7714  3.2122
 9183SOL    HW239009   1.040   0.332   9.577 -1.3179  1.7760 -0.0854
 9184SOL     OW39010   2.567   1.785   5.051 -0.5813  0.1048 -0.8530
 9184SOL    HW139011   2.492   1.798   5.109 -1.2130 -1.1923 -1.3905
 9184SOL    HW239012   2.530   1.749   4.971 -1.1020  0.4862 -0.7814
 9185SOL     OW39013   4.155   1.705   3.863  0.7818  0.2663 -0.5509
 9185SOL    HW139014   4.200   1.715   3.779  0.7870 -0.5201 -0.6456
 9185SOL    HW239015   4.217   1.755   3.917  3.3575 -1.4217 -1.9426
 9186SOL     OW39016   1.781   1.401   5.708  0.0456 -0.3484  0.5886
 9186SOL    HW139017   1.710   1.431   5.650  0.0255 -1.3120  0.1130
 9186SOL    HW239018   1.811   1.323   5.662 -1.3165 -0.1780 -0.5890
 9187SOL     OW39019   1.532   1.815   0.021  0.3101 -0.0639  0.4680
 9187SOL    HW139020   1.502   1.799  17.617 -1.1469  0.9490  0.7802
 9187SOL    HW239021   1.520   1.725   0.053 -0.2189 -0.5959 -1.2458
 9188SOL     OW39022   0.275   4.352   7.781  0.4360 -0.1861  0.2178
 9188SOL    HW139023   0.271   4.444   7.806  0.0027 -0.9962  3.1557
 9188SOL    HW239024   0.214   4.353   7.708  1.4765 -0.6562 -0.6564
 9189SOL     OW39025   2.798   3.618   1.181 -0.0994 -0.5695  0.7153
 9189SOL    HW139026   2.713   3.591   1.148 -0.3037  0.8831  0.0499
 9189SOL    HW239027   2.798   3.571   1.264 -2.9533  0.3767  1.2579
 9190SOL     OW39028   0.298   2.102  14.782  0.7546 -0.0780 -0.2515
 9190SOL    HW139029   0.202   2.098  14.782  0.7266  0.4989 -1.2252
 9190SOL    HW239030   0.318   2.160  14.708 -0.8826  1.4432  0.4962
 9191SOL     OW39031   4.137   0.047   3.217 -0.0592 -0.9783 -0.2125
 9191SOL    HW139032   4.155   0.002   3.300 -0.1804 -1.1435 -0.2757
 9191SOL    HW239033   4.202   0.114   3.198 -1.1509  0.5631  1.5151
 9192SOL     OW39034   0.874   4.678   1.704  0.1751 -0.1148  0.2097
 9192SOL    HW139035   0.791   0.001   1.725  0.7960  0.5712  1.1936
 9192SOL    HW239036   0.847   4.586   1.699  1.0464 -0.3056 -0.9707
 9193SOL     OW39037   2.750   3.524   9.211 -0.3415  0.2450 -0.1662
 9193SOL    HW139038   2.818   3.494   9.272 -1.0877 -0.0386  0.5265
 9193SOL    HW239039   2.801   3.502   9.133  0.8877 -1.3296  1.0694
 9194SOL     OW39040   0.757   4.527   3.280 -0.4189  0.0873  0.0279
 9194SOL    HW139041   0.786   4.503   3.368 -0.5734  3.1263  0.9363
 9194SOL    HW239042   0.812   4.602   3.257  0.4420 -0.3450  0.6877
 9195SOL     OW39043   2.039   3.741   5.443 -0.6090 -0.0712  0.1931
 9195SOL    HW139044   2.007   3.670   5.389  0.3648 -0.0468 -0.4133
 9195SOL    HW239045   2.113   3.773   5.391 -0.5441  0.3459  0.5367
 9196SOL     OW39046   2.538   1.411   3.845 -0.1693 -0.1634  0.1073
 9196SOL    HW139047   2.580   1.427   3.760 -0.8587  0.0062 -0.1978
 9196SOL    HW239048   2.463   1.358   3.821 -1.6715  1.0317  2.1912
 9197SOL     OW39049   0.216   0.330   2.480 -0.0512  0.0843  0.3907
 9197SOL    HW139050   0.210   0.251   2.533 -1.0077  0.4136  0.7722
 9197SOL    HW239051   0.136   0.338   2.428  0.7034  0.6083 -0.7128
 9198SOL     OW39052   1.742   3.802  17.421 -0.1951  0.2681 -0.0695
 9198SOL    HW139053   1.824   3.775  17.463  0.0019  2.2755  0.8029
 9198SOL    HW239054   1.722   3.863  17.492  0.3589  0.9326 -0.4887
 9199SOL     OW39055   2.626   3.382   4.521  0.5705 -0.4830  0.0805
 9199SOL    HW139056   2.650   3.470   4.550 -3.2074  0.3381  0.7483
 9199SOL    HW239057   2.711   3.349   4.493  2.1268  2.1723  1.7102
 9200SOL     OW39058   0.755   2.967   8.733 -0.0296  0.0293  0.0444
 9200SOL    HW139059   0.679   2.920   8.766 -0.0158 -0.4571 -0.6202
 9200SOL    HW239060   0.715   3.054   8.729 -0.8051 -0.2715  1.2927
 9201SOL     OW39061   4.224   0.151   8.593 -0.4846  0.7010 -0.6930
 9201SOL    HW139062   4.203   0.222   8.532 -1.4684  1.2638  0.2898
 9201SOL    HW239063   4.260   0.213   8.656  1.7873 -1.5755  0.2184
 9202SOL     OW39064   4.172   1.266   3.967  0.4277 -0.4441  0.2060
 9202SOL    HW139065   4.206   1.309   3.888  1.0903 -2.8600 -0.8047
 9202SOL    HW239066   4.203   1.335   4.025 -3.1187  0.1433  1.4470
 9203SOL     OW39067   3.403   0.001   9.267 -0.1553  0.2451 -0.1660
 9203SOL    HW139068   3.351   0.074   9.235  1.0042  0.3130 -1.8200
 9203SOL    HW239069   3.388   0.010   9.362 -2.2679 -1.2235 -0.3290
 9204SOL     OW39070   1.567   0.144   7.958  0.5984  0.1075 -0.3102
 9204SOL    HW139071   1.576   0.161   8.052 -0.4007  0.5129 -0.2829
 9204SOL    HW239072   1.636   0.078   7.947  0.1148 -0.4390 -0.0572
 9205SOL     OW39073   0.874   4.123   7.381 -0.1816 -0.0015  0.0264
 9205SOL    HW139074   0.806   4.111   7.447  0.8635 -1.3684  0.8600
 9205SOL    HW239075   0.846   4.066   7.309 -2.2117  0.3095  0.5748
 9206SOL     OW39076   0.738   3.927  13.315 -0.4777  0.1689 -0.0212
 9206SOL    HW139077   0.688   3.886  13.245  1.0215  0.0118 -1.0045
 9206SOL    HW239078   0.802   3.974  13.262  1.3387  0.6460  2.5845
 9207SOL     OW39079   1.429   3.547   8.324 -0.1427  0.1341  0.0353
 9207SOL    HW139080   1.346   3.502   8.334 -1.5343  2.6404 -0.2511
 9207SOL    HW239081   1.481   3.471   8.296  0.5452  1.4848 -2.3568
 9208SOL     OW39082   1.526   0.734   6.527  0.3548  0.2789  0.0351
 9208SOL    HW139083   1.588   0.785   6.579  1.3354 -1.4196  0.5512
 9208SOL    HW239084   1.550   0.643   6.548  1.0297  0.5849  0.5927
 9209SOL     OW39085   4.463   1.030   2.361 -0.2024  0.1676  0.7904
 9209SOL    HW139086   4.511   1.099   2.314 -1.7391  0.4481 -0.3511
 9209SOL    HW239087   4.380   1.071   2.339  0.6699  1.5029 -0.0497
 9210SOL     OW39088   2.524   0.023   7.375  0.4043 -0.1778 -0.2107
 9210SOL    HW139089   2.592   0.080   7.341 -1.1518  0.7859 -1.7084
 9210SOL    HW239090   2.538   4.668   7.318 -0.6547  0.1693 -0.9246
 9211SOL     OW39091   4.427   2.596   9.144 -0.5884 -0.5429  0.0802
 9211SOL    HW139092   4.401   2.598   9.052  3.2611  0.0034 -0.9984
 9211SOL    HW239093   4.343   2.582   9.188 -1.0371 -1.2135 -0.9968
 9212SOL     OW39094   0.106   0.862   2.554 -0.0292 -0.3315  0.0070
 9212SOL    HW139095   0.058   0.782   2.531 -0.6813 -0.2928  1.2274
 9212SOL    HW239096   0.197   0.831   2.555 -0.1921 -0.7832  0.8126
 9213SOL     OW39097   2.806   4.095  15.366  0.0410 -0.1725 -0.4230
 9213SOL    HW139098   2.721   4.050  15.368 -0.6846  1.1930 -0.3893
 9213SOL    HW239099   2.790   4.187  15.346  2.0157 -0.3121 -2.5661
 9214SOL     OW39100   2.821   3.504  15.594  0.1870  0.9149  0.3016
 9214SOL    HW139101   2.727   3.520  15.600 -0.3226 -1.2090 -2.0729
 9214SOL    HW239102   2.850   3.596  15.594  0.7015  0.7568 -2.0027
 9215SOL     OW39103   3.303   1.581  11.914 -0.1434  0.2281  0.0878
 9215SOL    HW139104   3.346   1.656  11.955 -0.0803 -0.1349  0.6842
 9215SOL    HW239105   3.387   1.539  11.899 -0.1422  0.2532  0.0227
 9216SOL     OW39106   4.019   4.378   6.409  0.1797  0.1152  0.2760
 9216SOL    HW139107   3.946   4.328   6.373  0.7948  0.1311 -0.9945
 9216SOL    HW239108   4.023   4.451   6.347 -1.0797  0.0372  0.1109
 9217SOL     OW39109   0.350   2.801   8.987 -0.3063  0.3571 -0.2192
 9217SOL    HW139110   0.270   2.748   8.996  0.6834 -1.1156 -0.0252
 9217SOL    HW239111   0.328   2.884   9.029 -0.9417  0.6803 -1.1971
 9218SOL     OW39112   2.589   4.146   4.941  0.0483 -0.5692 -0.2621
 9218SOL    HW139113   2.596   4.143   5.037 -0.2707 -0.7971 -0.2445
 9218SOL    HW239114   2.671   4.101   4.918  0.1813 -1.4478  1.9122
 9219SOL     OW39115   4.453   4.168   0.337  0.0537  0.3845 -0.0368
 9219SOL    HW139116   4.374   4.214   0.366  1.2478  0.9369  2.3412
 9219SOL    HW239117   4.445   4.180   0.242 -1.6823 -1.1263 -0.0943
 9220SOL     OW39118   1.941   4.374  17.046  0.4785  0.3078  0.5294
 9220SOL    HW139119   1.937   4.462  17.008  0.7827  0.6094  1.1984
 9220SOL    HW239120   1.916   4.313  16.977 -3.6815  0.7508  1.6209
 9221SOL     OW39121   3.600   3.066  12.829 -0.4010  0.2808  0.1576
 9221SOL    HW139122   3.663   3.110  12.771 -1.0569  1.2828  0.2230
 9221SOL    HW239123   3.648   3.065  12.912  3.3012  0.0270 -1.9602
 9222SOL     OW39124   3.165   0.389   3.899 -0.4647 -0.1113  0.6784
 9222SOL    HW139125   3.172   0.388   3.803  3.3871 -0.7190  0.9343
 9222SOL    HW239126   3.097   0.324   3.913 -2.1887  1.4022 -0.6550
 9223SOL     OW39127   1.508   3.513   3.119  0.0694  0.0970  0.4341
 9223SOL    HW139128   1.522   3.606   3.099 -0.0769  0.4826  2.1829
 9223SOL    HW239129   1.577   3.485   3.178 -0.4434 -1.8643  0.0973
 9224SOL     OW39130   3.946   3.230   5.269  0.1367 -0.0523 -0.0922
 9224SOL    HW139131   4.014   3.297   5.275  0.0863  0.1049 -1.2659
 9224SOL    HW239132   4.001   3.156   5.245 -1.9541 -2.0086  1.1220
 9225SOL     OW39133   4.296   0.072   6.705 -0.2499 -0.0380 -0.4654
 9225SOL    HW139134   4.332   0.128   6.637  1.3776 -0.0727  0.3679
 9225SOL    HW239135   4.205   0.065   6.675 -0.9989 -1.3782  2.1188
 9226SOL     OW39136   0.124   3.123   2.889 -0.3320 -0.2732 -0.1538
 9226SOL    HW139137   0.107   3.140   2.797 -0.4354 -1.8216 -0.4182
 9226SOL    HW239138   0.211   3.083   2.884  0.1905  0.8804 -0.2861
 9227SOL     OW39139   1.106   0.761   6.865  0.0783 -0.9080  0.1111
 9227SOL    HW139140   1.033   0.779   6.805  1.3252 -0.9137 -1.4065
 9227SOL    HW239141   1.165   0.824   6.823  1.3008 -1.2158  1.3567
 9228SOL     OW39142   4.347   2.626  13.491  0.0304  0.2958  0.1816
 9228SOL    HW139143   4.354   2.614  13.396 -1.0210  0.0926  0.1319
 9228SOL    HW239144   4.434   2.652  13.522  0.4394 -0.0554 -0.6696
 9229SOL     OW39145   4.043   4.234  17.418  0.1212 -0.0850  0.5409
 9229SOL    HW139146   4.021   4.218  17.326 -1.4108  0.4499  0.8089
 9229SOL    HW239147   4.101   4.160  17.434  0.2329 -0.2257 -0.5069
 9230SOL     OW39148   4.113   3.044   6.032 -0.2412  0.3765 -0.5144
 9230SOL    HW139149   4.025   3.022   6.062  0.3829 -0.3811  0.7736
 9230SOL    HW239150   4.165   3.010   6.105  2.2048  2.1924 -1.4111
 9231SOL     OW39151   3.183   4.659   9.457  0.3710 -0.7810  0.6611
 9231SOL    HW139152   3.172   4.576   9.503  1.5002 -0.5703  1.3048
 9231SOL    HW239153   3.201   4.619   9.372 -2.5384 -0.4528 -0.0964
 9232SOL     OW39154   1.231   0.816  17.386  0.4758  0.1584 -0.6852
 9232SOL    HW139155   1.142   0.850  17.399 -0.2632 -0.6092 -3.6930
 9232SOL    HW239156   1.243   0.833  17.293 -1.4967  1.8201 -0.6458
 9233SOL     OW39157   0.419   1.139   2.420  0.0914 -0.5081 -0.2279
 9233SOL    HW139158   0.333   1.178   2.402  0.8091  0.8563 -0.6746
 9233SOL    HW239159   0.467   1.219   2.441 -2.5091  1.0414 -0.1800
 9234SOL     OW39160   3.437   4.424   3.988 -0.3096  0.4239  0.5683
 9234SOL    HW139161   3.502   4.374   4.037 -0.7221  1.2296  1.9379
 9234SOL    HW239162   3.462   4.384   3.905 -1.0712 -1.3203  1.1879
 9235SOL     OW39163   3.046   0.838   0.900  0.3007 -0.0493 -0.8349
 9235SOL    HW139164   3.007   0.772   0.843  0.0741  0.3427 -1.1361
 9235SOL    HW239165   2.994   0.913   0.872  1.0493  1.1246  0.8701
 9236SOL     OW39166   4.527   0.079   8.757 -0.3516  0.5780 -0.1926
 9236SOL    HW139167   4.526   0.175   8.748 -2.0372  0.6219  0.4469
 9236SOL    HW239168   4.578   0.054   8.680 -2.5134 -0.4236 -1.2917
 9237SOL     OW39169   0.849   3.532   5.858  0.3830  0.3190 -0.5218
 9237SOL    HW139170   0.936   3.494   5.874 -0.6991 -1.3634  1.4932
 9237SOL    HW239171   0.793   3.460   5.827  0.0130  1.1143 -1.6589
 9238SOL     OW39172   3.348   0.272   8.159 -0.2298 -0.4921 -0.3823
 9238SOL    HW139173   3.436   0.292   8.127 -1.5187  3.5131 -1.4410
 9238SOL    HW239174   3.334   0.180   8.138 -2.5166  0.1499 -1.7057
 9239SOL     OW39175   0.206   0.073   2.554  0.2219  0.1386 -0.7372
 9239SOL    HW139176   0.180   4.709   2.517  1.6604 -0.9097  0.6403
 9239SOL    HW239177   0.296   0.065   2.524  0.6258  1.9077  0.0146
 9240SOL     OW39178   0.421   2.084   2.202 -0.2513  0.7448 -0.0445
 9240SOL    HW139179   0.426   2.095   2.107 -0.6726 -0.5712 -0.2219
 9240SOL    HW239180   0.357   2.153   2.221 -2.2614 -1.1052 -0.0206
 9241SOL     OW39181   1.048   0.584   8.725 -0.2582 -0.0162  0.3929
 9241SOL    HW139182   0.958   0.550   8.727 -0.4364  0.4665  0.6200
 9241SOL    HW239183   1.094   0.535   8.794 -1.4455  1.3301  2.1426
 9242SOL     OW39184   1.408   1.782   2.182 -0.2913 -0.1111  0.0333
 9242SOL    HW139185   1.456   1.724   2.123 -0.0047  0.9939 -0.8169
 9242SOL    HW239186   1.368   1.850   2.127 -0.5480 -2.1596 -2.3092
 9243SOL     OW39187   2.068   3.420   4.770  0.0595  0.0969  0.3216
 9243SOL    HW139188   2.155   3.406   4.733  0.0929 -1.6444  1.0629
 9243SOL    HW239189   2.033   3.492   4.716 -2.6421 -0.5491  1.2185
 9244SOL     OW39190   3.670   0.119   9.816  0.3602 -0.4589 -0.6942
 9244SOL    HW139191   3.765   0.130   9.812  0.6599 -2.8774 -0.1066
 9244SOL    HW239192   3.666   0.024   9.818 -2.0182 -0.3576 -0.3005
 9245SOL     OW39193   1.345   1.660  12.823 -0.5306 -0.1506  0.1204
 9245SOL    HW139194   1.336   1.678  12.730 -1.3536 -0.4244  0.1461
 9245SOL    HW239195   1.330   1.745  12.864 -0.5600 -0.2052  0.2235
 9246SOL     OW39196   0.841   4.173   1.473 -0.1383 -0.5168  0.4721
 9246SOL    HW139197   0.831   4.258   1.429 -1.4794 -1.9473 -1.9951
 9246SOL    HW239198   0.787   4.112   1.423 -0.0379 -0.3396  0.1414
 9247SOL     OW39199   3.590   2.785  15.810  0.2598  0.0837 -0.1500
 9247SOL    HW139200   3.671   2.810  15.765 -0.3063  3.0465  0.4612
 9247SOL    HW239201   3.552   2.726  15.745 -2.1396  0.5088  0.8887
 9248SOL     OW39202   2.957   4.039   7.637  0.0938  0.6595  0.2981
 9248SOL    HW139203   3.014   4.107   7.601 -1.0632  0.5987 -1.6334
 9248SOL    HW239204   2.880   4.090   7.658  0.2774  1.3687 -0.7360
 9249SOL     OW39205   4.259   0.266   5.365  0.2777 -0.6462 -0.0245
 9249SOL    HW139206   4.267   0.271   5.270  1.3924 -1.5693  0.0142
 9249SOL    HW239207   4.325   0.334   5.377  1.7549 -1.9879 -0.5778
 9250SOL     OW39208   1.299   3.219   8.836 -0.2438  0.6490 -0.2536
 9250SOL    HW139209   1.288   3.130   8.870 -2.7767  1.4168  0.9872
 9250SOL    HW239210   1.347   3.258   8.910 -0.1608 -0.6548  0.3903
 9251SOL     OW39211   0.072   3.520   5.650  0.1049  0.4494 -0.1848
 9251SOL    HW139212   0.102   3.450   5.592  2.1818  1.9008 -0.8566
 9251SOL    HW239213   4.701   3.493   5.653  0.7155 -1.6426 -0.5075
 9252SOL     OW39214   3.269   3.787   3.464 -0.2114 -0.9353  0.1707
 9252SOL    HW139215   3.304   3.758   3.548  1.8624  1.3115  0.0795
 9252SOL    HW239216   3.259   3.881   3.476 -1.3652 -0.8219 -1.6039
 9253SOL     OW39217   0.245   0.283   7.473  0.0805 -0.0518  0.1679
 9253SOL    HW139218   0.201   0.266   7.556  1.0586 -3.3743  0.0029
 9253SOL    HW239219   0.275   0.195   7.451  0.6670  0.1248  0.2715
 9254SOL     OW39220   2.596   1.898   5.762 -0.2328 -0.0090  0.1784
 9254SOL    HW139221   2.650   1.839   5.814 -0.9358 -2.8276 -2.3066
 9254SOL    HW239222   2.515   1.906   5.812  0.5975 -1.1916  1.7118
 9255SOL     OW39223   2.869   2.672  13.357 -0.0906 -0.4490 -0.2539
 9255SOL    HW139224   2.963   2.685  13.370  0.2020 -1.8755 -0.9408
 9255SOL    HW239225   2.840   2.762  13.347 -1.3627 -1.0374 -1.6780
 9256SOL     OW39226   2.212   3.359   2.486  0.2129  0.1907  0.0100
 9256SOL    HW139227   2.206   3.265   2.500 -1.7617 -0.0316 -2.3115
 9256SOL    HW239228   2.132   3.377   2.436  0.6662  0.7964 -0.4850
 9257SOL     OW39229   0.094   3.604   2.045  0.2668  0.1149  0.0957
 9257SOL    HW139230   0.186   3.609   2.072  0.3000  0.3408 -0.0641
 9257SOL    HW239231   0.108   3.659   1.969 -1.0313  0.3300  0.0122
 9258SOL     OW39232   1.031   4.648   4.843  0.1042  0.4542 -0.1556
 9258SOL    HW139233   1.002   4.559   4.862  0.0645  0.2447 -1.1949
 9258SOL    HW239234   0.957   4.694   4.883  1.4391  2.9460 -0.5429
 9259SOL     OW39235   2.400   4.261   2.595 -0.1181 -0.7666  0.3398
 9259SOL    HW139236   2.456   4.289   2.522  0.9934  1.0706  1.8984
 9259SOL    HW239237   2.444   4.191   2.643 -0.5370 -1.3939 -0.1990
 9260SOL     OW39238   3.808   4.007   3.512 -0.0353 -0.0837 -0.6460
 9260SOL    HW139239   3.722   3.969   3.500 -1.4946  2.8766  0.4729
 9260SOL    HW239240   3.792   4.089   3.559  1.1030 -0.5626  0.5671
 9261SOL     OW39241   2.473   4.234  16.351 -0.7749 -0.6130  0.3313
 9261SOL    HW139242   2.480   4.313  16.405  3.2001 -0.5240 -0.2948
 9261SOL    HW239243   2.428   4.273  16.276 -1.5763 -0.8700  0.6878
 9262SOL     OW39244   2.014   0.364  13.401  1.0025  0.1378  0.2272
 9262SOL    HW139245   1.985   0.400  13.318  0.1948  0.8297  0.8096
 9262SOL    HW239246   2.097   0.323  13.376  0.6151 -3.2552  4.2881
 9263SOL     OW39247   1.850   1.999   8.668 -0.3606  0.7263  0.1525
 9263SOL    HW139248   1.810   1.971   8.751 -1.7751 -0.2710 -0.8774
 9263SOL    HW239249   1.773   2.030   8.621 -3.0344 -2.6050  2.3249
 9264SOL     OW39250   0.334   2.028   0.399  0.3792  0.1627  0.6162
 9264SOL    HW139251   0.349   2.111   0.445  1.8244 -0.2953  0.9669
 9264SOL    HW239252   0.364   1.965   0.464  2.0423  1.9858  1.6068
 9265SOL     OW39253   4.085   1.412   8.925 -0.1338 -0.0512 -0.3948
 9265SOL    HW139254   4.065   1.325   8.891  0.2113  0.1451 -1.0954
 9265SOL    HW239255   4.171   1.397   8.964 -1.6476 -1.2825  2.4969
 9266SOL     OW39256   1.576   2.660   0.226 -0.1594  0.2535 -0.0440
 9266SOL    HW139257   1.628   2.704   0.294  1.1563  0.8061 -1.4033
 9266SOL    HW239258   1.542   2.730   0.171 -1.2511 -0.9739 -0.9291
 9267SOL     OW39259   0.068   0.530   9.430  0.0467  0.2690  0.3664
 9267SOL    HW139260   0.161   0.511   9.422 -0.0285  1.3536 -3.0329
 9267SOL    HW239261   0.051   0.583   9.352 -0.0644 -2.2781 -1.3680
 9268SOL     OW39262   2.374   0.418   0.504 -0.4589  0.0827  0.2038
 9268SOL    HW139263   2.317   0.345   0.481 -1.5733  1.5449 -1.6425
 9268SOL    HW239264   2.454   0.378   0.469 -1.2438 -1.4011  0.0769
 9269SOL     OW39265   0.414   1.370   6.254 -0.3643  0.1459 -0.5258
 9269SOL    HW139266   0.438   1.292   6.304 -2.7407 -1.6421 -2.1808
 9269SOL    HW239267   0.471   1.356   6.178 -0.6318 -1.6405 -0.3947
 9270SOL     OW39268   1.590   3.520   5.790  0.3055 -0.1546  0.2165
 9270SOL    HW139269   1.550   3.582   5.851  0.8754  0.7403 -0.3008
 9270SOL    HW239270   1.582   3.569   5.708 -1.9461 -2.5433 -0.9429
 9271SOL     OW39271   3.444   4.379   7.999 -0.8086 -0.5924 -0.0807
 9271SOL    HW139272   3.495   4.445   8.046  1.1831 -1.6066 -0.8140
 9271SOL    HW239273   3.356   4.387   8.036 -1.0418 -0.7814 -0.5990
 9272SOL     OW39274   0.760   1.817  16.210 -0.3356 -0.5835  0.1891
 9272SOL    HW139275   0.727   1.885  16.269  0.5828  0.0280  0.0113
 9272SOL    HW239276   0.727   1.747  16.265 -2.0002  1.0158  1.2135
 9273SOL     OW39277   1.869   0.900   9.078  0.0542 -0.3156  0.0954
 9273SOL    HW139278   1.920   0.838   9.027 -0.3636 -0.6935  0.1360
 9273SOL    HW239279   1.938   0.929   9.139  1.7586 -2.0809 -0.9911
 9274SOL     OW39280   3.478   3.328   1.755  0.2552  0.1821 -0.1560
 9274SOL    HW139281   3.527   3.327   1.673 -3.3298  1.8738 -2.2769
 9274SOL    HW239282   3.427   3.408   1.746  3.7864  2.4128 -0.4733
 9275SOL     OW39283   1.563   0.855   2.741  0.0773  0.1955  0.0568
 9275SOL    HW139284   1.572   0.761   2.755  0.9139  0.1974 -0.4923
 9275SOL    HW239285   1.639   0.878   2.689 -0.2549  0.1090 -0.4674
 9276SOL     OW39286   3.432   4.288  14.042  0.2313 -0.3332  0.1819
 9276SOL    HW139287   3.524   4.305  14.024  0.5845 -2.1068  0.2802
 9276SOL    HW239288   3.383   4.363  14.008  0.8068  0.0759  0.2619
 9277SOL     OW39289   3.812   3.369   1.040  0.0267  0.9869 -0.8861
 9277SOL    HW139290   3.829   3.399   1.129 -0.1163 -1.2582 -0.0949
 9277SOL    HW239291   3.872   3.297   1.019  0.2194  1.0670 -0.5925
 9278SOL     OW39292   4.515   1.677   3.722 -0.0121  0.3332  0.6377
 9278SOL    HW139293   4.425   1.696   3.698  0.2179  0.9528  0.2613
 9278SOL    HW239294   4.551   1.764   3.707 -0.7280  0.8141  1.6892
 9279SOL     OW39295   2.902   1.470   7.282  0.2439  0.2967  0.0764
 9279SOL    HW139296   2.815   1.486   7.246 -0.8420  1.2087  3.0921
 9279SOL    HW239297   2.901   1.376   7.304 -2.8200 -0.0469 -1.5384
 9280SOL     OW39298   0.579   0.351   3.129 -0.0070 -0.2511 -0.0376
 9280SOL    HW139299   0.625   0.270   3.151  0.1946 -0.0831  0.1678
 9280SOL    HW239300   0.509   0.343   3.194  0.4850  0.4217  0.5756
 9281SOL     OW39301   3.822   3.905  11.152 -0.1452  0.2012  0.2365
 9281SOL    HW139302   3.808   3.836  11.086  0.0687  1.6295 -1.3168
 9281SOL    HW239303   3.863   3.974  11.099 -2.9613  2.5052  1.0619
 9282SOL     OW39304   1.472   2.249   9.107  0.0682 -0.4371  0.3725
 9282SOL    HW139305   1.378   2.231   9.108 -0.3314  1.8707  2.6920
 9282SOL    HW239306   1.509   2.218   9.190 -2.0071  1.5495  2.0033
 9283SOL     OW39307   0.210   2.112   5.257 -0.1672 -0.0642  0.8043
 9283SOL    HW139308   0.151   2.137   5.328 -1.0118  0.8516 -0.2058
 9283SOL    HW239309   0.291   2.101   5.307 -0.7540 -1.1490  1.5093
 9284SOL     OW39310   0.285   1.689  16.455  0.3803  0.8085  0.2718
 9284SOL    HW139311   0.271   1.749  16.528 -1.4550 -0.3226  0.8538
 9284SOL    HW239312   0.200   1.689  16.412  0.3240 -0.9773  0.3846
 9285SOL     OW39313   2.904   0.342   4.796  0.3465 -0.1679 -0.2135
 9285SOL    HW139314   2.955   0.422   4.809 -0.9626  0.6044  0.1722
 9285SOL    HW239315   2.839   0.365   4.863  3.8620 -0.9256  3.4886
 9286SOL     OW39316   3.088   3.638   3.754  0.0503 -0.1844  0.4525
 9286SOL    HW139317   3.045   3.644   3.669 -0.0744  1.2639  0.6162
 9286SOL    HW239318   3.146   3.562   3.749 -3.1114 -2.4197 -1.4464
 9287SOL     OW39319   2.326   0.071   6.814  0.2333 -0.0999  0.2505
 9287SOL    HW139320   2.243   0.029   6.838 -0.2370  0.1959 -0.8342
 9287SOL    HW239321   2.383   0.052   6.888 -0.3399 -2.5181  0.0457
 9288SOL     OW39322   0.638   3.504   6.564 -0.1279 -0.3363 -0.2630
 9288SOL    HW139323   0.666   3.413   6.555 -1.8868 -0.8898 -0.1138
 9288SOL    HW239324   0.649   3.524   6.657  2.4771  2.6623 -1.2371
 9289SOL     OW39325   3.442   0.033  16.842  0.2458 -0.8862 -0.2539
 9289SOL    HW139326   3.488   0.096  16.896 -0.1444  0.0847 -1.0507
 9289SOL    HW239327   3.511   0.028  16.776 -1.2924  1.6074 -2.0156
 9290SOL     OW39328   2.202   0.576   8.470 -0.0500 -0.1309  0.1425
 9290SOL    HW139329   2.192   0.587   8.376 -0.3105  1.7527  0.3917
 9290SOL    HW239330   2.276   0.635   8.482 -0.7078  0.6230  0.5084
 9291SOL     OW39331   3.959   1.089   8.413 -0.3789  0.5031 -0.0215
 9291SOL    HW139332   4.020   1.027   8.453 -1.2315 -0.5850 -0.3999
 9291SOL    HW239333   3.993   1.089   8.323  0.4393 -0.8312  0.2763
 9292SOL     OW39334   4.447   2.535  11.114  0.2022  0.0006  0.4782
 9292SOL    HW139335   4.403   2.613  11.082 -0.9704 -1.4904 -1.5607
 9292SOL    HW239336   4.378   2.491  11.164  0.1143 -0.8358 -0.3668
 9293SOL     OW39337   2.302   4.586   4.246 -0.1423 -0.3506 -0.2130
 9293SOL    HW139338   2.233   4.628   4.298 -0.3362 -1.8714  0.7928
 9293SOL    HW239339   2.249   4.506   4.240 -1.2914  0.5672 -2.3397
 9294SOL     OW39340   0.376   1.463   6.594 -0.1840  0.4059 -0.1903
 9294SOL    HW139341   0.405   1.514   6.518 -2.0983  2.9485  0.7893
 9294SOL    HW239342   0.389   1.507   6.678  0.3273  1.3732 -0.7677
 9295SOL     OW39343   2.658   2.522  14.062 -0.3090  0.1374  0.4949
 9295SOL    HW139344   2.633   2.598  14.009  1.4519 -0.6050 -1.4104
 9295SOL    HW239345   2.752   2.534  14.055 -0.6940  1.8201 -1.6501
 9296SOL     OW39346   2.077   0.420   4.359  0.0451  0.4816 -0.4438
 9296SOL    HW139347   2.132   0.498   4.362  1.4789 -0.4710 -1.9222
 9296SOL    HW239348   2.037   0.422   4.272 -0.0985 -2.4314 -0.4203
 9297SOL     OW39349   4.492   3.055  11.272  0.6368  0.1890  0.2635
 9297SOL    HW139350   4.467   3.059  11.364  0.7799 -0.3616  0.3215
 9297SOL    HW239351   4.481   3.145  11.241 -1.3993 -0.2524 -0.2500
 9298SOL     OW39352   1.593   2.322   4.576  0.7016  0.0692 -0.0382
 9298SOL    HW139353   1.668   2.343   4.520  0.7350 -1.5481 -0.6029
 9298SOL    HW239354   1.636   2.317   4.662  0.5878  2.7834  0.1630
 9299SOL     OW39355   4.707   2.053  14.905 -0.1984 -0.2871 -0.2404
 9299SOL    HW139356   4.627   2.030  14.859  1.0634 -0.5118 -2.3561
 9299SOL    HW239357   0.009   2.137  14.865  1.0491 -1.3299 -1.7263
 9300SOL     OW39358   4.612   3.664  10.263 -0.0459 -0.1015 -0.1481
 9300SOL    HW139359   4.591   3.573  10.241  1.3651 -0.4017 -0.2514
 9300SOL    HW239360   4.686   3.693  10.209 -0.1321  0.0941 -0.1607
 9301SOL     OW39361   1.747   2.150   5.166  0.2129  0.2188 -0.0082
 9301SOL    HW139362   1.665   2.110   5.194  1.2659 -1.1942  1.0880
 9301SOL    HW239363   1.781   2.174   5.252 -0.6735 -0.4729  0.5391
 9302SOL     OW39364   0.222   2.556   9.369  0.4566  0.0250  0.7206
 9302SOL    HW139365   0.199   2.549   9.462 -1.4993  1.1760  0.3154
 9302SOL    HW239366   0.137   2.582   9.337  0.8199 -1.0452 -1.0910
 9303SOL     OW39367   0.938   4.171   5.996 -0.8125 -0.1277  0.0289
 9303SOL    HW139368   1.006   4.202   5.937 -0.2302  1.4246  1.5287
 9303SOL    HW239369   0.939   4.077   5.979 -0.4118 -0.1723  0.3028
 9304SOL     OW39370   3.340   3.532  11.041  0.3957 -0.5581  0.1833
 9304SOL    HW139371   3.252   3.538  11.004  2.5552 -2.4283 -5.2290
 9304SOL    HW239372   3.370   3.445  11.013  1.5232  0.2129 -1.0491
 9305SOL     OW39373   2.803   4.344   3.202  0.3061 -0.1214  0.8968
 9305SOL    HW139374   2.805   4.438   3.217  2.2657 -0.0511  0.1643
 9305SOL    HW239375   2.709   4.335   3.215 -0.3664  0.4702 -3.5949
 9306SOL     OW39376   0.719   1.461  16.679  0.4568 -0.1440  0.5935
 9306SOL    HW139377   0.773   1.539  16.685 -1.1877  0.9371  1.3829
 9306SOL    HW239378   0.755   1.423  16.759  2.2343  0.5998  0.1412
 9307SOL     OW39379   0.161   4.343  15.603 -0.1921  0.0915 -0.0384
 9307SOL    HW139380   0.239   4.311  15.648  1.4106 -0.2114 -3.0347
 9307SOL    HW239381   0.202   4.419  15.562  2.2508 -0.7269  0.9265
 9308SOL     OW39382   3.874   0.919   3.707 -0.2621 -0.1282  0.1530
 9308SOL    HW139383   3.821   0.844   3.678  0.6434  0.1820 -2.2388
 9308SOL    HW239384   3.953   0.880   3.746 -0.0852 -1.1453 -1.2313
 9309SOL     OW39385   3.936   3.450   0.453 -0.0180 -0.6981  0.6643
 9309SOL    HW139386   3.999   3.521   0.463  1.0669 -1.8990  2.2947
 9309SOL    HW239387   3.980   3.377   0.409  2.1575 -0.9091  3.2628
 9310SOL     OW39388   1.023   1.255  11.168 -0.3087  0.4768  0.0031
 9310SOL    HW139389   0.978   1.220  11.246 -2.2927  1.7311 -0.5781
 9310SOL    HW239390   0.977   1.338  11.158  0.2877  0.7942 -0.1246
 9311SOL     OW39391   0.944   2.877   7.643 -0.2103  0.0163 -0.2833
 9311SOL    HW139392   0.893   2.841   7.717  1.1690  1.0624  1.1606
 9311SOL    HW239393   0.985   2.957   7.674  0.9194 -0.7931  0.3058
 9312SOL     OW39394   3.992   1.971   3.450  0.2005 -0.5211 -0.0472
 9312SOL    HW139395   3.938   1.976   3.529 -2.0699 -3.5112 -1.4296
 9312SOL    HW239396   4.050   2.046   3.461 -1.3566  0.5778  0.6177
 9313SOL     OW39397   2.159   1.223   6.904  0.2720 -0.0829  0.5273
 9313SOL    HW139398   2.157   1.281   6.828  0.5791 -1.3023 -0.4123
 9313SOL    HW239399   2.152   1.137   6.861 -0.6124 -0.8312  2.1409
 9314SOL     OW39400   0.462   4.335   5.303 -0.3456 -0.2440 -0.2715
 9314SOL    HW139401   0.454   4.429   5.317 -0.6850 -0.4527  0.9516
 9314SOL    HW239402   0.393   4.313   5.365 -1.3537 -0.8144 -1.5959
 9315SOL     OW39403   0.624   4.053   5.108  0.2920 -0.0098 -0.1546
 9315SOL    HW139404   0.597   4.050   5.199 -0.3088 -2.4426 -0.4322
 9315SOL    HW239405   0.715   4.077   5.122  0.4474  0.3563 -1.7783
 9316SOL     OW39406   2.672   0.344   5.651 -0.0498 -0.3805  0.5241
 9316SOL    HW139407   2.633   0.410   5.593  0.4083 -0.2219  0.3978
 9316SOL    HW239408   2.653   0.268   5.596  0.2713 -0.1141  0.0449
 9317SOL     OW39409   0.956   1.938  16.671  0.2358 -0.1613  0.3909
 9317SOL    HW139410   0.961   1.990  16.751  1.9957  1.1823 -0.5825
 9317SOL    HW239411   0.905   1.999  16.618  2.5774  0.9825 -0.5510
 9318SOL     OW39412   3.828   0.307   3.663 -0.3172 -0.0995  0.4306
 9318SOL    HW139413   3.790   0.378   3.715 -0.8696  0.0893 -0.2244
 9318SOL    HW239414   3.778   0.323   3.583  0.9418 -0.0489 -0.3396
 9319SOL     OW39415   1.937   4.258   7.127  0.5593 -0.7080  0.0428
 9319SOL    HW139416   1.955   4.321   7.197 -0.4064 -2.7534  2.1438
 9319SOL    HW239417   1.922   4.178   7.177  0.5299 -1.0942 -0.5855
 9320SOL     OW39418   3.977   3.402   9.408  0.2574  0.3423  0.0985
 9320SOL    HW139419   3.972   3.443   9.495  0.7688  0.2789  0.1587
 9320SOL    HW239420   3.910   3.334   9.415 -0.6449  1.2615  0.4612
 9321SOL     OW39421   1.524   3.376   0.144  0.1609  0.4215 -0.2087
 9321SOL    HW139422   1.544   3.460   0.105  0.7062  0.4400  0.1217
 9321SOL    HW239423   1.594   3.315   0.121  0.5479  0.3845  1.0886
 9322SOL     OW39424   3.711   0.609   7.176 -0.2960 -0.6274 -0.0500
 9322SOL    HW139425   3.681   0.524   7.144  0.1647  0.1531 -2.5096
 9322SOL    HW239426   3.743   0.645   7.094 -2.0447  1.3178  0.1167
 9323SOL     OW39427   1.137   3.916   1.334 -0.5494  0.0432 -0.4253
 9323SOL    HW139428   1.158   3.826   1.361 -1.1759  0.2053  0.5881
 9323SOL    HW239429   1.187   3.911   1.252 -1.3205 -0.2820 -0.8811
 9324SOL     OW39430   2.429   0.884  12.545  0.0855 -1.0327  0.7507
 9324SOL    HW139431   2.434   0.974  12.577  0.6760 -0.4723 -0.9200
 9324SOL    HW239432   2.371   0.855  12.615 -0.3450  1.3214  1.3689
 9325SOL     OW39433   1.431   0.188   5.157  0.9920 -0.0723 -0.2266
 9325SOL    HW139434   1.374   0.131   5.106  1.3429  0.5289 -1.2873
 9325SOL    HW239435   1.506   0.131   5.174  0.6084 -1.1248 -2.1181
 9326SOL     OW39436   2.222   3.663  15.444 -0.1983  0.1454  0.5146
 9326SOL    HW139437   2.183   3.649  15.358 -0.7440  1.6327  0.5084
 9326SOL    HW239438   2.229   3.577  15.485 -3.1175 -0.3794 -0.0460
 9327SOL     OW39439   0.525   4.364   3.478  0.4530 -0.2012  0.2314
 9327SOL    HW139440   0.610   4.319   3.482  1.2895  1.2643 -0.8687
 9327SOL    HW239441   0.506   4.349   3.571 -0.5300 -5.9292 -0.9128
 9328SOL     OW39442   2.144   0.287   0.594  0.0438  0.0736 -0.0083
 9328SOL    HW139443   2.176   0.211   0.642  0.9975 -0.7675 -1.9451
 9328SOL    HW239444   2.072   0.323   0.646  0.5331  2.2095 -0.8177
 9329SOL     OW39445   0.441   1.805   5.328  0.5894  0.3343  0.5252
 9329SOL    HW139446   0.484   1.888   5.313  0.1652  0.3417 -0.6442
 9329SOL    HW239447   0.503   1.746   5.284  1.7883  1.8221  0.2266
 9330SOL     OW39448   0.090   1.559   2.259  0.4863  0.3130 -0.1339
 9330SOL    HW139449   0.014   1.617   2.265  0.2130 -0.3953  3.3911
 9330SOL    HW239450   0.129   1.603   2.183 -0.1153 -0.2624 -0.7765
 9331SOL     OW39451   1.879   0.475  12.795  0.6621  0.5570 -0.4044
 9331SOL    HW139452   1.910   0.537  12.861  0.2559  1.4197 -1.0262
 9331SOL    HW239453   1.879   0.399  12.854 -2.3733  2.4163  2.0491
 9332SOL     OW39454   1.346   2.218  10.578  0.0715 -0.0232  0.4957
 9332SOL    HW139455   1.378   2.142  10.530 -1.9171 -0.1155 -0.6385
 9332SOL    HW239456   1.320   2.178  10.661 -1.2149 -1.7525 -0.7453
 9333SOL     OW39457   1.011   1.825  13.568 -0.4028 -0.3281 -0.1919
 9333SOL    HW139458   1.107   1.818  13.572 -0.6784 -3.3081  1.6158
 9333SOL    HW239459   0.985   1.830  13.660  1.5692  0.2186  0.3488
 9334SOL     OW39460   2.818   2.763   8.763  1.2194 -0.0186 -0.3906
 9334SOL    HW139461   2.898   2.711   8.765  0.8618 -0.5766 -0.5083
 9334SOL    HW239462   2.836   2.817   8.686 -0.6368  1.5688  0.2885
 9335SOL     OW39463   4.348   0.041   6.384  0.6957  0.1207  0.0248
 9335SOL    HW139464   4.440   0.052   6.409  1.2560  0.3556 -2.1239
 9335SOL    HW239465   4.349   4.667   6.372 -0.2633 -0.4017  4.0387
 9336SOL     OW39466   0.089   3.798   2.541 -0.3502 -0.0154 -0.5000
 9336SOL    HW139467   0.029   3.733   2.505  0.4984 -1.2546  0.2870
 9336SOL    HW239468   0.117   3.759   2.625  2.0976  0.5142 -1.0708
 9337SOL     OW39469   1.238   4.069   8.782 -0.2405 -0.3252  0.4090
 9337SOL    HW139470   1.265   3.980   8.762 -1.0075 -0.0673 -1.7402
 9337SOL    HW239471   1.147   4.062   8.811 -0.0791  0.4163  1.1091
 9338SOL     OW39472   2.133   4.068  12.429  0.6475  0.1692  0.3831
 9338SOL    HW139473   2.089   4.053  12.346 -0.1717  3.1173  0.2746
 9338SOL    HW239474   2.115   3.983  12.470  0.1136 -0.8230 -1.9453
 9339SOL     OW39475   4.234   3.495   0.221 -0.1848  0.2943 -0.0395
 9339SOL    HW139476   4.149   3.453   0.205 -1.2432  2.9840 -1.5628
 9339SOL    HW239477   4.271   3.482   0.133 -0.9213  0.9485 -0.4522
 9340SOL     OW39478   2.625   1.023   8.088 -0.7838  0.5189  0.5512
 9340SOL    HW139479   2.701   1.025   8.147 -1.2641 -0.6296  1.2060
 9340SOL    HW239480   2.621   0.934   8.053 -0.8618  2.0520 -3.3546
 9341SOL     OW39481   0.861   3.326   3.392 -0.0170 -0.4986  0.4962
 9341SOL    HW139482   0.834   3.403   3.442 -3.9379  0.3331 -2.8361
 9341SOL    HW239483   0.955   3.337   3.382 -0.3767  1.4588 -0.6736
 9342SOL     OW39484   0.441   1.813  16.681 -0.1732  0.3527 -0.5733
 9342SOL    HW139485   0.351   1.811  16.713  0.2300 -0.6440  0.4925
 9342SOL    HW239486   0.442   1.727  16.640 -0.9799 -0.4409  1.1007
 9343SOL     OW39487   0.236   2.650   3.360 -0.5848  0.5978 -0.3139
 9343SOL    HW139488   0.195   2.728   3.324 -0.3607 -0.2475 -2.3950
 9343SOL    HW239489   0.160   2.599   3.386  0.0175 -1.4673 -2.6387
 9344SOL     OW39490   4.349   3.573  11.081 -0.3004  0.1174 -0.0498
 9344SOL    HW139491   4.269   3.582  11.133 -0.3353 -0.6516  0.0380
 9344SOL    HW239492   4.382   3.488  11.112  0.2969  0.5695  0.5478
 9345SOL     OW39493   2.968   3.241   8.511 -0.5094 -0.0787  0.0245
 9345SOL    HW139494   3.057   3.248   8.548 -1.3083  3.8408  1.1868
 9345SOL    HW239495   2.970   3.160   8.460 -2.4341 -0.7019  0.9543
 9346SOL     OW39496   0.438   4.375   4.928  0.2455 -0.3044  0.6310
 9346SOL    HW139497   0.509   4.329   4.883  1.0824  1.8846 -0.3202
 9346SOL    HW239498   0.484   4.451   4.965  0.5733  0.6062 -1.6253
 9347SOL     OW39499   0.058   1.009   5.824  0.3868 -0.3011  0.2401
 9347SOL    HW139500   0.005   0.931   5.808 -0.4448  0.5986 -1.3466
 9347SOL    HW239501   0.108   0.967   5.894 -1.7551  0.6565  2.3569
 9348SOL     OW39502   1.141   3.810   7.180  0.2099  0.4874  0.1500
 9348SOL    HW139503   1.118   3.904   7.183 -0.5384  0.3428 -0.8909
 9348SOL    HW239504   1.066   3.755   7.201 -0.4913  1.7226  0.9350
 9349SOL     OW39505   4.509   4.000   2.965 -0.7102 -0.3979  0.1379
 9349SOL    HW139506   4.558   4.032   2.890 -0.2191  0.9046  1.0300
 9349SOL    HW239507   4.577   3.946   3.004  0.4383  1.9797  1.3980
 9350SOL     OW39508   4.275   4.658   5.524 -0.8689 -0.0455  0.6320
 9350SOL    HW139509   4.241   4.575   5.491  1.1622 -0.0400 -1.4680
 9350SOL    HW239510   4.365   4.648   5.492 -1.5039 -0.6133 -0.9586
 9351SOL     OW39511   2.382   0.763   3.745 -0.0695 -0.2186  0.2198
 9351SOL    HW139512   2.311   0.809   3.700 -0.1712 -1.3829 -0.7952
 9351SOL    HW239513   2.454   0.764   3.683 -1.1038  0.9778 -0.9490
 9352SOL     OW39514   1.086   1.271   6.702 -0.5236 -0.3632 -0.1579
 9352SOL    HW139515   1.022   1.251   6.771  0.4620 -0.9634  0.5833
 9352SOL    HW239516   1.148   1.327   6.749 -0.6925  0.2099 -0.6227
 9353SOL     OW39517   0.038   4.049   5.424  0.6848 -0.5274 -0.2557
 9353SOL    HW139518   4.666   4.044   5.449  0.2453  0.5540 -1.6289
 9353SOL    HW239519   0.070   3.959   5.428  0.2683 -0.7234 -1.2334
 9354SOL     OW39520   3.252   2.814  13.023 -0.4678  0.6203 -0.0546
 9354SOL    HW139521   3.332   2.762  13.020 -0.5989  0.4031  0.1903
 9354SOL    HW239522   3.241   2.833  12.930  0.1135 -1.7612 -0.6084
 9355SOL     OW39523   4.226   3.780  17.306 -0.8699  0.6109  0.1606
 9355SOL    HW139524   4.321   3.780  17.294 -0.5384 -0.6944  2.8622
 9355SOL    HW239525   4.194   3.778  17.216 -1.6578  1.4525  0.4214
 9356SOL     OW39526   2.503   3.630   9.344  0.2998 -0.0853  0.0514
 9356SOL    HW139527   2.482   3.665   9.258 -0.0670 -1.2763 -0.3506
 9356SOL    HW239528   2.594   3.604   9.326  0.0067  0.2000 -1.7712
 9357SOL     OW39529   1.774   2.182  15.793  0.0417  0.3895 -0.0535
 9357SOL    HW139530   1.728   2.161  15.874  1.4912  0.2706  0.7221
 9357SOL    HW239531   1.828   2.105  15.777 -0.0220  0.2442  0.4207
 9358SOL     OW39532   1.242   4.256  11.887 -0.5857 -0.2443  0.0012
 9358SOL    HW139533   1.321   4.311  11.883 -0.5989 -0.1275  1.3048
 9358SOL    HW239534   1.251   4.191  11.817 -0.3456  0.3656 -0.5413
 9359SOL     OW39535   2.030   1.051   6.423  0.8056  0.2382 -0.5860
 9359SOL    HW139536   2.077   1.027   6.343  0.7296 -0.8732 -0.2923
 9359SOL    HW239537   1.981   0.972   6.444 -1.1641  1.9969  1.3436
 9360SOL     OW39538   3.195   1.338  11.886 -0.0500  0.3323 -0.1341
 9360SOL    HW139539   3.205   1.430  11.910  0.2215 -0.1084  1.4626
 9360SOL    HW239540   3.172   1.359  11.795  2.3907  2.1866 -0.3027
 9361SOL     OW39541   2.043   3.866   6.395 -0.0479 -0.0040  0.1294
 9361SOL    HW139542   2.028   3.774   6.415  0.5729  0.4108  2.4941
 9361SOL    HW239543   1.965   3.885   6.343  1.1637  1.0931 -1.2725
 9362SOL     OW39544   2.542   0.480   5.830 -0.0248  0.1236 -0.5004
 9362SOL    HW139545   2.530   0.427   5.909 -1.2223 -1.4947 -1.7859
 9362SOL    HW239546   2.614   0.433   5.786  0.1977 -0.5279  0.5572
 9363SOL     OW39547   4.384   0.783   2.818  0.2066  0.3424 -0.2909
 9363SOL    HW139548   4.412   0.705   2.866  0.8262  0.6907 -0.0797
 9363SOL    HW239549   4.401   0.855   2.878  1.0417  0.7523 -1.0177
 9364SOL     OW39550   3.707   3.035   5.537 -0.0503 -0.4650  0.1534
 9364SOL    HW139551   3.633   3.028   5.597  0.9424 -0.6276  1.3593
 9364SOL    HW239552   3.761   2.962   5.567  1.1208  1.8891  3.8005
 9365SOL     OW39553   0.686   2.032  15.247  0.6951  1.3769 -0.5409
 9365SOL    HW139554   0.732   2.077  15.317  2.1548 -2.1108  0.7303
 9365SOL    HW239555   0.679   1.943  15.279 -2.8260  1.5395 -0.8096
 9366SOL     OW39556   0.773   2.057   4.006 -0.4310  0.2236  0.7486
 9366SOL    HW139557   0.717   1.982   4.024 -0.9600 -0.1356 -2.3413
 9366SOL    HW239558   0.720   2.106   3.943  0.5787  0.6791  0.2394
 9367SOL     OW39559   3.092   2.430   6.609  0.3808  0.1779  0.3191
 9367SOL    HW139560   3.168   2.395   6.563  0.9742 -0.6512  1.9526
 9367SOL    HW239561   3.128   2.499   6.665 -1.0113  0.8150  0.4430
 9368SOL     OW39562   2.540   3.984   9.873 -0.3371 -0.1387  0.1740
 9368SOL    HW139563   2.466   3.961   9.928  0.1832 -0.3859  0.7691
 9368SOL    HW239564   2.561   4.073   9.901  1.4129 -0.8363  1.1320
 9369SOL     OW39565   3.860   2.254   7.507 -0.3340  0.1201 -0.3238
 9369SOL    HW139566   3.792   2.217   7.450  0.1424 -2.5044  0.8025
 9369SOL    HW239567   3.837   2.208   7.588 -0.6055 -0.6304 -0.8222
 9370SOL     OW39568   0.359   4.184   3.375  0.1781  0.0607  0.1271
 9370SOL    HW139569   0.326   4.201   3.286 -0.3044  3.5419  0.9917
 9370SOL    HW239570   0.416   4.260   3.385  0.4280 -0.2034  0.7272
 9371SOL     OW39571   3.050   4.374   3.546 -0.0617 -0.2130  0.2815
 9371SOL    HW139572   3.034   4.460   3.506 -1.0510 -0.7169 -0.4063
 9371SOL    HW239573   3.009   4.323   3.476  2.8272 -0.9987 -0.8288
 9372SOL     OW39574   2.199   2.963  13.462  0.0994  0.3453 -0.2615
 9372SOL    HW139575   2.286   2.960  13.501 -0.0966  2.9503  0.3889
 9372SOL    HW239576   2.208   2.909  13.383  0.2670 -0.8005  0.5372
 9373SOL     OW39577   0.919   1.081   8.953  0.8262 -0.1947  0.5611
 9373SOL    HW139578   0.966   1.074   9.036 -0.4541 -0.6701  1.2526
 9373SOL    HW239579   0.895   0.992   8.926 -0.6395  0.0351  1.1129
 9374SOL     OW39580   3.770   3.869   5.498  0.5285  0.1095  0.3873
 9374SOL    HW139581   3.820   3.799   5.542 -0.1249  0.2652  1.3687
 9374SOL    HW239582   3.685   3.880   5.540  0.9677  1.6734  0.8370
 9375SOL     OW39583   3.032   0.322   9.085  0.0139 -0.1602 -0.0207
 9375SOL    HW139584   3.044   0.265   9.162 -0.8703  2.0376  1.7538
 9375SOL    HW239585   3.047   0.411   9.117  0.3482 -0.3584  0.3750
 9376SOL     OW39586   1.836   4.110   7.555  0.1936  0.1166 -0.1624
 9376SOL    HW139587   1.768   4.108   7.623  1.5907 -3.2618  1.1214
 9376SOL    HW239588   1.905   4.156   7.601  0.4060  1.3169 -1.7097
 9377SOL     OW39589   2.644   1.600  12.852 -0.6042  0.1903 -0.2440
 9377SOL    HW139590   2.729   1.560  12.838 -0.0479  1.6274 -0.9640
 9377SOL    HW239591   2.638   1.600  12.948  1.4777  1.5164 -0.1176
 9378SOL     OW39592   1.253   0.323   9.007  0.7886  0.6408  0.1703
 9378SOL    HW139593   1.166   0.362   9.022 -0.0077 -0.6562 -1.1406
 9378SOL    HW239594   1.235   0.229   9.011  1.0879  0.5838  0.1115
 9379SOL     OW39595   1.712   2.138   9.335  0.1023 -0.3016  0.2105
 9379SOL    HW139596   1.757   2.079   9.273 -0.0676 -0.0048 -0.1962
 9379SOL    HW239597   1.781   2.160   9.397  0.3826 -1.0962  0.1906
 9380SOL     OW39598   3.713   1.448   2.747 -0.6279  0.2009  0.2999
 9380SOL    HW139599   3.674   1.523   2.702 -0.3057  0.1276 -0.1011
 9380SOL    HW239600   3.704   1.379   2.681 -1.1794 -0.2067  0.7905
 9381SOL     OW39601   4.081   2.276   5.962  0.4571 -0.2395  0.0821
 9381SOL    HW139602   4.075   2.206   6.028  1.1298  0.0663  0.4802
 9381SOL    HW239603   4.149   2.333   5.999  0.1999 -0.1863  0.4793
 9382SOL     OW39604   2.905   1.801  17.031  0.2767 -0.2718 -0.0291
 9382SOL    HW139605   2.921   1.875  17.090  1.0254 -0.9470  0.6076
 9382SOL    HW239606   2.977   1.739  17.046 -2.0071 -2.1336  2.9769
 9383SOL     OW39607   1.577   2.861   5.602  0.8244 -0.6204  0.5310
 9383SOL    HW139608   1.503   2.894   5.652  1.8842  3.9627 -0.9248
 9383SOL    HW239609   1.647   2.925   5.614  0.6452 -0.1721 -0.9210
 9384SOL     OW39610   3.364   3.409   6.468  0.5199  0.3187  0.3328
 9384SOL    HW139611   3.331   3.341   6.409  0.4070  0.1196  0.6178
 9384SOL    HW239612   3.342   3.372   6.554 -0.3321  1.2628  0.5160
 9385SOL     OW39613   3.068   1.602   9.209 -0.6840  0.0826 -0.0846
 9385SOL    HW139614   3.080   1.575   9.118  3.3331 -1.0643  0.8064
 9385SOL    HW239615   2.982   1.577   9.243  0.3011 -0.3642  2.0780
 9386SOL     OW39616   0.011   4.415   3.393 -0.3024 -0.1399  0.4510
 9386SOL    HW139617   4.708   4.362   3.318 -0.0179 -1.9784  1.6514
 9386SOL    HW239618   0.078   4.470   3.354 -0.0926  0.6324  1.8813
 9387SOL     OW39619   1.355   3.870  11.908 -0.1332  0.1092  0.4016
 9387SOL    HW139620   1.425   3.828  11.858  0.3528  0.8845  0.4207
 9387SOL    HW239621   1.348   3.947  11.851  0.3730 -0.8095 -0.9061
 9388SOL     OW39622   3.696   4.357  14.048  0.9271  0.4537  0.4855
 9388SOL    HW139623   3.686   4.311  14.131  0.0582 -2.7111 -1.3618
 9388SOL    HW239624   3.788   4.385  14.043  0.9064  0.7474  1.8377
 9389SOL     OW39625   1.918   4.283   6.251  0.2760 -0.3385 -0.3136
 9389SOL    HW139626   1.930   4.295   6.156 -0.7617  2.8971 -0.0384
 9389SOL    HW239627   2.004   4.280   6.291  0.5722  1.6919 -0.8258
 9390SOL     OW39628   0.264   0.910  17.501  0.1343  0.6595  0.4560
 9390SOL    HW139629   0.280   0.919  17.595  0.4543  0.7247  0.3948
 9390SOL    HW239630   0.342   0.952  17.465  0.1800  0.2727  0.1042
 9391SOL     OW39631   1.610   1.695   4.829  0.2584 -0.2498  0.1620
 9391SOL    HW139632   1.557   1.631   4.877 -0.6380  0.3261 -0.0802
 9391SOL    HW239633   1.554   1.772   4.838  1.2196  0.4035  0.6119
 9392SOL     OW39634   3.619   0.967   9.627 -0.1688 -0.2311 -0.0997
 9392SOL    HW139635   3.663   0.888   9.660 -1.5694 -0.5697  0.9396
 9392SOL    HW239636   3.675   1.029   9.674  0.6709  1.3111 -3.1119
 9393SOL     OW39637   4.555   3.997   8.138  0.1819  0.1530 -0.1411
 9393SOL    HW139638   4.620   3.937   8.174  0.4006  1.3227  1.3981
 9393SOL    HW239639   4.523   4.049   8.211  1.6640  1.5700 -0.5109
 9394SOL     OW39640   2.127   4.379   4.221  0.1438  0.2359  0.0687
 9394SOL    HW139641   2.110   4.330   4.140 -0.1073  1.0384 -0.3655
 9394SOL    HW239642   2.038   4.410   4.239  0.2975  0.8370 -0.1914
 9395SOL     OW39643   1.309   3.748   3.489 -0.1689 -0.4395 -0.0529
 9395SOL    HW139644   1.350   3.661   3.489  0.3853 -0.1770 -0.8067
 9395SOL    HW239645   1.348   3.787   3.568  1.5664 -0.9265 -0.6616
 9396SOL     OW39646   1.623   1.230   8.134  0.3845 -0.1157  0.0537
 9396SOL    HW139647   1.649   1.285   8.208 -0.9845  1.1759 -0.4212
 9396SOL    HW239648   1.554   1.279   8.090  0.4472 -0.0100  0.0740
 9397SOL     OW39649   4.079   3.398   8.672 -0.2270 -0.3367  0.2186
 9397SOL    HW139650   4.078   3.320   8.617  0.4588  0.4460 -0.8990
 9397SOL    HW239651   4.046   3.368   8.757 -1.6414 -2.1877 -0.9947
 9398SOL     OW39652   2.207   2.722   1.359 -0.0562  0.1755 -0.0816
 9398SOL    HW139653   2.129   2.710   1.413  0.7957 -0.2552  1.0355
 9398SOL    HW239654   2.163   2.744   1.277  0.9780  0.5537 -0.5331
 9399SOL     OW39655   2.642   2.174   8.570  0.2669  0.0441 -0.3795
 9399SOL    HW139656   2.634   2.251   8.628  1.8761 -0.1998  0.1655
 9399SOL    HW239657   2.703   2.117   8.615  2.9938  1.1387 -2.7139
 9400SOL     OW39658   3.613   3.306   3.378 -0.0255 -0.2824  0.5723
 9400SOL    HW139659   3.603   3.294   3.283  0.0125  1.9212  0.2930
 9400SOL    HW239660   3.708   3.301   3.390 -0.1271  0.1664  1.5171
 9401SOL     OW39661   4.495   3.616   3.776 -0.2924  0.7686  0.1007
 9401SOL    HW139662   4.459   3.619   3.865 -1.6371 -1.8761 -0.3610
 9401SOL    HW239663   4.418   3.638   3.724  0.2966 -1.2503 -1.6187
 9402SOL     OW39664   2.471   2.303   4.717  0.1116  0.7522  0.0071
 9402SOL    HW139665   2.448   2.288   4.809 -1.3248 -0.7030 -0.5945
 9402SOL    HW239666   2.400   2.250   4.681 -0.8179  0.6151  1.9933
 9403SOL     OW39667   0.082   0.242   6.173  0.4486 -0.0308  0.2390
 9403SOL    HW139668   0.036   0.326   6.168  0.0315 -0.3025 -0.5736
 9403SOL    HW239669   0.037   0.191   6.105  0.6287  1.1020 -0.7324
 9404SOL     OW39670   2.567   1.296  13.403  0.1881 -0.2745  0.6716
 9404SOL    HW139671   2.544   1.389  13.399  0.5878 -0.2456 -0.8350
 9404SOL    HW239672   2.654   1.298  13.363 -0.9998 -0.9127 -1.9345
 9405SOL     OW39673   2.440   1.356   1.613 -0.0185  0.0697 -0.4103
 9405SOL    HW139674   2.522   1.358   1.563 -2.0249 -0.2319 -3.6878
 9405SOL    HW239675   2.402   1.273   1.583  0.0696  0.4071 -1.4481
 9406SOL     OW39676   1.319   3.152   7.335 -0.2573  0.1189 -0.0763
 9406SOL    HW139677   1.335   3.235   7.291  0.5963  1.0677  2.0207
 9406SOL    HW239678   1.223   3.146   7.333 -0.1993 -1.8801  2.5181
 9407SOL     OW39679   4.715   4.714   8.573  0.2001  0.4401 -0.4405
 9407SOL    HW139680   4.691   4.669   8.492 -0.5110 -1.8702  1.0437
 9407SOL    HW239681   0.072   0.041   8.545  0.3517  1.2868  1.4298
 9408SOL     OW39682   0.490   3.417   3.751  0.1651 -0.3000  0.0186
 9408SOL    HW139683   0.408   3.401   3.798  0.6925  0.9899  1.3706
 9408SOL    HW239684   0.470   3.371   3.670 -2.6161  1.0077 -0.0474
 9409SOL     OW39685   2.077   1.377   3.022 -0.1475 -0.2780 -0.1351
 9409SOL    HW139686   2.096   1.369   2.929 -1.5363 -1.2623 -0.3517
 9409SOL    HW239687   2.007   1.313   3.038  0.4922 -0.3509  2.5105
 9410SOL     OW39688   2.789   1.873   4.139 -0.0258 -0.2110 -0.1801
 9410SOL    HW139689   2.721   1.806   4.139  1.0579 -1.3110 -1.6843
 9410SOL    HW239690   2.865   1.831   4.179 -0.5143 -0.1333  0.8398
 9411SOL     OW39691   3.204   1.104   0.501  0.1107  0.1754  0.3326
 9411SOL    HW139692   3.214   1.015   0.536 -0.9783 -1.2189 -2.8801
 9411SOL    HW239693   3.279   1.108   0.441 -0.1455 -0.7272 -0.0651
 9412SOL     OW39694   0.638   0.224   5.854  0.8639  0.2897  0.4680
 9412SOL    HW139695   0.713   0.281   5.874  1.3409  0.0647 -0.6690
 9412SOL    HW239696   0.583   0.279   5.798 -1.1694 -1.9500  0.2655
 9413SOL     OW39697   4.330   1.802   3.169 -0.1424 -0.1728 -0.1620
 9413SOL    HW139698   4.267   1.774   3.235  0.6974  1.2945  1.2563
 9413SOL    HW239699   4.384   1.723   3.160 -3.4500 -2.7616  3.2033
 9414SOL     OW39700   3.541   1.247   7.675 -0.6525 -0.5629 -0.5898
 9414SOL    HW139701   3.597   1.320   7.650 -2.3774  1.0201  0.1672
 9414SOL    HW239702   3.574   1.179   7.616 -0.4295 -1.6822  0.8283
 9415SOL     OW39703   2.050   0.470   7.276  0.4328 -0.0073  0.3287
 9415SOL    HW139704   2.070   0.402   7.341 -3.1723  0.6675  2.1483
 9415SOL    HW239705   2.087   0.547   7.319  3.5604  0.2396 -2.8594
 9416SOL     OW39706   2.203   2.464   8.716 -0.1294 -0.4216 -0.2435
 9416SOL    HW139707   2.121   2.424   8.746 -1.2170  0.4012 -2.0614
 9416SOL    HW239708   2.210   2.551   8.755 -1.4279  1.0761 -3.3151
 9417SOL     OW39709   0.844   2.941   3.461 -0.3722 -0.0619 -0.3495
 9417SOL    HW139710   0.797   2.994   3.397 -0.9754  0.0763  0.2103
 9417SOL    HW239711   0.798   2.966   3.541 -3.5721  1.5768 -2.7225
 9418SOL     OW39712   3.130   4.344  13.437 -0.0049  0.1487 -0.4389
 9418SOL    HW139713   3.209   4.318  13.389  0.1934  0.4855 -0.2925
 9418SOL    HW239714   3.129   4.276  13.505  0.2684 -1.4142 -1.9854
 9419SOL     OW39715   2.488   3.758  15.949 -0.0199  0.0866 -0.1044
 9419SOL    HW139716   2.410   3.776  15.897 -1.1114 -1.2205  1.0613
 9419SOL    HW239717   2.552   3.744  15.879  0.2646  0.1665  0.1383
 9420SOL     OW39718   2.954   3.057  10.229 -0.4335  0.0666 -0.0606
 9420SOL    HW139719   2.936   3.107  10.309 -2.6603 -0.4316 -0.2415
 9420SOL    HW239720   2.968   3.127  10.166 -1.9371 -0.6675 -1.2120
 9421SOL     OW39721   4.209   2.341   6.265  0.0618 -0.0945  0.3453
 9421SOL    HW139722   4.298   2.333   6.230 -0.6338  0.8633 -1.6183
 9421SOL    HW239723   4.211   2.300   6.352 -2.1068 -0.7213  0.0978
 9422SOL     OW39724   2.716   0.797   6.244 -0.1085 -0.4750 -0.1256
 9422SOL    HW139725   2.661   0.872   6.269  2.0682  1.2414 -0.4905
 9422SOL    HW239726   2.681   0.732   6.305 -2.1683  1.8925  1.1999
 9423SOL     OW39727   1.117   4.210   4.805  0.0110  0.6545 -0.7538
 9423SOL    HW139728   1.122   4.116   4.823  0.5757  0.9967  0.7960
 9423SOL    HW239729   1.187   4.229   4.743  0.9777 -0.8162 -0.0919
 9424SOL     OW39730   4.543   1.818  13.869  0.3918  0.1014 -0.0387
 9424SOL    HW139731   4.499   1.746  13.824 -1.5233  0.6805  0.9256
 9424SOL    HW239732   4.493   1.888  13.827 -0.0936  0.5634  1.3081
 9425SOL     OW39733   2.721   0.125   4.933  0.0681 -0.0809 -0.7612
 9425SOL    HW139734   2.773   0.120   4.852 -0.5840 -1.2248 -1.1131
 9425SOL    HW239735   2.706   0.219   4.931  3.1267  0.3797 -2.0315
 9426SOL     OW39736   3.085   4.511  14.196 -0.0079  0.9550 -0.6148
 9426SOL    HW139737   3.138   4.472  14.128  1.3368 -2.7994  2.5922
 9426SOL    HW239738   3.156   4.544  14.250 -0.6292  0.3587  0.5720
 9427SOL     OW39739   1.974   3.699   4.297 -0.4186  0.0004 -0.5106
 9427SOL    HW139740   2.015   3.779   4.329 -0.1288  0.1049 -1.1651
 9427SOL    HW239741   2.034   3.667   4.231 -1.5680 -2.1841 -0.4966
 9428SOL     OW39742   3.428   2.705   3.560  0.2664 -0.2792 -0.3879
 9428SOL    HW139743   3.344   2.696   3.604  0.1111  1.0504 -0.4320
 9428SOL    HW239744   3.456   2.795   3.574 -1.1576 -0.0139  0.7210
 9429SOL     OW39745   0.159   3.098   3.401  0.2744  0.0721  0.8596
 9429SOL    HW139746   0.254   3.098   3.409  0.4380 -0.1562 -1.0858
 9429SOL    HW239747   0.159   3.083   3.306 -0.1502 -1.9304  1.1694
 9430SOL     OW39748   0.026   3.451   1.352 -0.8068 -0.4672  0.3825
 9430SOL    HW139749   4.709   3.416   1.271 -0.0939 -0.2282 -0.0571
 9430SOL    HW239750   0.100   3.496   1.310 -0.6131 -0.8083  0.3580
 9431SOL     OW39751   2.359   0.228   7.180  0.5545 -0.2065 -0.2727
 9431SOL    HW139752   2.398   0.143   7.159 -0.7302 -1.2262  1.4559
 9431SOL    HW239753   2.391   0.251   7.267  0.9297 -0.0000 -0.4672
 9432SOL     OW39754   4.252   0.640   3.468  0.3156  0.3479 -0.0562
 9432SOL    HW139755   4.201   0.719   3.450 -2.1429 -1.3547 -0.5202
 9432SOL    HW239756   4.317   0.677   3.527  0.7438 -0.4539 -0.0227
 9433SOL     OW39757   4.174   2.491   2.467 -0.6962 -0.3297 -0.4643
 9433SOL    HW139758   4.180   2.406   2.510  0.6980 -0.6969 -1.3961
 9433SOL    HW239759   4.172   2.559   2.535 -0.7814 -1.7548  0.9597
 9434SOL     OW39760   0.527   0.976  13.730 -0.4539 -0.4703 -0.1066
 9434SOL    HW139761   0.514   1.020  13.646  0.8827  0.0432 -0.0432
 9434SOL    HW239762   0.454   1.000  13.787  1.4943  1.6554  1.4712
 9435SOL     OW39763   3.709   0.560   4.662  0.7058  0.3397  0.1317
 9435SOL    HW139764   3.798   0.589   4.642  1.3361 -1.2492  0.6285
 9435SOL    HW239765   3.710   0.467   4.638  0.0691  0.4053 -0.1415
 9436SOL     OW39766   0.923   4.104   3.098  0.0980  0.1069  0.4050
 9436SOL    HW139767   0.890   4.173   3.041 -0.0561 -1.1107 -0.9712
 9436SOL    HW239768   1.016   4.106   3.076  0.5294 -1.6241  2.1078
 9437SOL     OW39769   1.598   3.246   3.286  0.2827  0.6362  0.0289
 9437SOL    HW139770   1.511   3.210   3.304 -0.1358  1.3457 -0.5677
 9437SOL    HW239771   1.656   3.174   3.310  1.5157  1.9011  0.8989
 9438SOL     OW39772   4.535   2.883  15.748 -0.4556  0.0340  0.2839
 9438SOL    HW139773   4.610   2.942  15.747  0.6177 -1.2919  2.3060
 9438SOL    HW239774   4.541   2.830  15.827 -0.4873 -1.8542 -0.9629
 9439SOL     OW39775   0.990   1.455   8.217 -0.5424 -0.0218 -0.6930
 9439SOL    HW139776   0.944   1.436   8.300 -0.6938 -0.0833 -0.7908
 9439SOL    HW239777   0.973   1.549   8.216 -3.8841 -0.6187 -0.9381
 9440SOL     OW39778   2.717   2.768  13.947 -0.0739  0.4280  0.0812
 9440SOL    HW139779   2.786   2.818  13.991 -0.6773  0.2267  1.2657
 9440SOL    HW239780   2.747   2.753  13.857  0.5549  0.4963  0.2777
 9441SOL     OW39781   2.833   3.768   9.630 -0.1184 -0.4936  0.9299
 9441SOL    HW139782   2.758   3.720   9.665 -0.2406 -1.4108 -0.5960
 9441SOL    HW239783   2.895   3.740   9.698  1.3071 -0.4252 -0.3594
 9442SOL     OW39784   2.209   0.259   0.326  0.6565  0.4257 -0.0557
 9442SOL    HW139785   2.182   0.345   0.293 -0.2312 -0.7283 -2.2795
 9442SOL    HW239786   2.167   0.262   0.412  0.9448 -0.1485  0.1045
 9443SOL     OW39787   1.417   0.278   3.184  0.3338  0.2489 -0.1932
 9443SOL    HW139788   1.510   0.297   3.173  0.0215  1.7793 -0.0827
 9443SOL    HW239789   1.385   0.353   3.134  0.7099  0.8000  0.3989
 9444SOL     OW39790   3.125   0.020   5.015  0.1108  0.1555 -0.1657
 9444SOL    HW139791   3.160   0.083   5.078 -1.0014 -0.8499  1.4759
 9444SOL    HW239792   3.203   4.693   4.987  0.0129 -0.7131  1.0084
 9445SOL     OW39793   0.150   0.627   6.777 -0.2830 -0.0258 -0.6340
 9445SOL    HW139794   0.121   0.538   6.795 -1.1340  0.2913 -0.4280
 9445SOL    HW239795   0.115   0.637   6.689 -1.7360  0.1482 -0.0423
 9446SOL     OW39796   2.252   0.159   5.898  0.4041 -0.2047  0.1892
 9446SOL    HW139797   2.252   0.249   5.866  0.7729 -0.9193 -1.8350
 9446SOL    HW239798   2.229   0.177   5.989 -0.9559  1.7340 -0.5384
 9447SOL     OW39799   3.236   2.592   8.454 -0.9243 -0.5073 -0.0015
 9447SOL    HW139800   3.256   2.684   8.468 -1.4297 -0.4827  0.5443
 9447SOL    HW239801   3.311   2.570   8.399  0.2168  0.9675  0.9524
 9448SOL     OW39802   4.691   3.206   1.517  0.3821 -0.1334 -0.0966
 9448SOL    HW139803   4.682   3.218   1.612  1.5034  2.4511 -0.3262
 9448SOL    HW239804   4.716   3.295   1.492 -0.5343 -0.3910 -1.9259
 9449SOL     OW39805   2.777   1.052   7.839  0.4696 -0.1221 -0.4680
 9449SOL    HW139806   2.736   1.126   7.883 -3.2648 -2.5071  0.1013
 9449SOL    HW239807   2.867   1.081   7.850 -0.3590  2.2993 -0.0095
 9450SOL     OW39808   1.532   1.321  14.106  0.0416  0.3786 -0.3786
 9450SOL    HW139809   1.481   1.313  14.186 -1.0874  0.1530 -1.1199
 9450SOL    HW239810   1.569   1.406  14.128 -0.4493 -0.2588  2.9842
 9451SOL     OW39811   3.914   3.154   1.295  0.1846 -0.2117  0.4854
 9451SOL    HW139812   3.939   3.164   1.387  2.0752  3.0679 -0.3722
 9451SOL    HW239813   3.998   3.146   1.249 -0.5033 -0.2410 -0.7514
 9452SOL     OW39814   2.948   1.372   4.405  0.3649  0.0716  0.1064
 9452SOL    HW139815   2.957   1.302   4.470  0.4399  0.0209  0.0400
 9452SOL    HW239816   2.877   1.327   4.360  0.6060 -0.8983  0.6912
 9453SOL     OW39817   2.128   2.966  15.790 -1.0517 -0.1150  0.0605
 9453SOL    HW139818   2.130   2.884  15.741 -1.1305 -0.3225  0.4055
 9453SOL    HW239819   2.176   3.025  15.731 -0.1248  0.3607  1.2911
 9454SOL     OW39820   1.748   1.125   4.158  0.3547  0.1026  0.4262
 9454SOL    HW139821   1.717   1.069   4.230 -0.3436  0.1224  0.1395
 9454SOL    HW239822   1.839   1.139   4.186  0.6282 -0.4664 -0.1754
 9455SOL     OW39823   1.674   0.737   3.894  0.2691 -0.5278  0.1234
 9455SOL    HW139824   1.652   0.819   3.850  0.2893 -0.5139  0.1391
 9455SOL    HW239825   1.740   0.764   3.958 -0.1923  0.4158  0.1942
 9456SOL     OW39826   2.036   4.599  11.705  0.5027 -0.6161  0.2528
 9456SOL    HW139827   2.117   4.648  11.718 -0.5624  0.4542  2.9392
 9456SOL    HW239828   1.980   4.638  11.772 -0.5477  0.7224 -1.4148
 9457SOL     OW39829   2.308   2.215   5.319  0.5891 -0.0481  0.1868
 9457SOL    HW139830   2.229   2.176   5.281  0.3749 -0.2633  0.8507
 9457SOL    HW239831   2.301   2.305   5.286  1.1649  0.4364  1.3841
 9458SOL     OW39832   1.098   1.564  11.187  0.4274  0.5630  0.3081
 9458SOL    HW139833   1.101   1.601  11.276 -4.4124 -3.8043  2.2921
 9458SOL    HW239834   1.006   1.540  11.173  0.0264  0.9325  2.2955
 9459SOL     OW39835   0.670   1.735   5.173 -0.2640  0.8139  0.1727
 9459SOL    HW139836   0.717   1.670   5.225  1.6922  1.7004 -0.4516
 9459SOL    HW239837   0.662   1.691   5.088 -1.2137 -2.0101  1.7442
 9460SOL     OW39838   3.641   1.000   5.643  0.1904  0.6602  0.6806
 9460SOL    HW139839   3.713   1.045   5.599  0.6380  0.9845  1.7600
 9460SOL    HW239840   3.682   0.918   5.671  0.8175  0.9042  0.4832
 9461SOL     OW39841   0.523   1.484   5.302 -0.1774  0.3863 -0.2572
 9461SOL    HW139842   0.565   1.483   5.388 -0.4038 -1.2442 -0.1663
 9461SOL    HW239843   0.432   1.491   5.331 -0.4955 -2.3921 -0.6497
 9462SOL     OW39844   3.021   2.579   8.290  0.1743  0.8446 -0.0054
 9462SOL    HW139845   3.073   2.622   8.222 -0.1307  0.3062 -0.5760
 9462SOL    HW239846   3.071   2.596   8.370  0.1245  1.6457 -0.1461
 9463SOL     OW39847   1.968   3.457   2.339  0.3808 -0.1478  0.3826
 9463SOL    HW139848   1.905   3.409   2.285  0.8431 -0.8593  0.4821
 9463SOL    HW239849   1.912   3.473   2.415 -0.9626  0.1658 -0.6756
 9464SOL     OW39850   1.115   2.299   6.219  0.4231  0.4962 -0.6189
 9464SOL    HW139851   1.061   2.292   6.140 -1.3086  1.3570  0.5014
 9464SOL    HW239852   1.052   2.301   6.290  0.4864  0.2236 -0.5536
 9465SOL     OW39853   3.698   4.478   5.914 -0.1461  0.2101  0.1261
 9465SOL    HW139854   3.628   4.504   5.975  0.5078 -2.1767  1.8674
 9465SOL    HW239855   3.696   4.385   5.934 -0.0096 -0.0394 -1.0385
 9466SOL     OW39856   2.072   1.336   5.184 -0.3543 -0.1713  0.1491
 9466SOL    HW139857   2.116   1.266   5.136  2.6914  1.8297  0.0628
 9466SOL    HW239858   2.037   1.292   5.261 -0.8374  0.3677  0.2393
 9467SOL     OW39859   1.655   1.756  13.091  0.1986  0.0794  0.3744
 9467SOL    HW139860   1.604   1.683  13.055 -1.6644  1.3545  0.4701
 9467SOL    HW239861   1.594   1.823  13.120  1.8091  1.4462  0.5728
 9468SOL     OW39862   2.999   3.183   1.116  0.2765 -0.4775  0.2710
 9468SOL    HW139863   3.087   3.156   1.090  0.0756  1.2010 -2.1571
 9468SOL    HW239864   2.990   3.276   1.093  0.7046 -0.2806  0.8953
 9469SOL     OW39865   2.092   3.166   7.888 -0.2658 -0.0881 -0.0028
 9469SOL    HW139866   2.000   3.159   7.913  0.0409  1.3873  1.5584
 9469SOL    HW239867   2.123   3.243   7.936  3.0847 -1.0466 -0.6949
 9470SOL     OW39868   1.861   3.050  13.714 -0.0612 -0.2195  0.0590
 9470SOL    HW139869   1.872   3.002  13.632  2.5394 -0.6955  0.6910
 9470SOL    HW239870   1.794   3.117  13.701 -0.6740 -0.9951 -0.7560
 9471SOL     OW39871   1.476   3.530  16.387  0.1684  0.2088  0.2848
 9471SOL    HW139872   1.463   3.459  16.450  0.8529 -0.0327  0.1556
 9471SOL    HW239873   1.565   3.516  16.354 -0.0697  2.1015 -1.1791
 9472SOL     OW39874   4.188   2.635   4.479 -0.6254 -0.4571  0.1589
 9472SOL    HW139875   4.143   2.579   4.416  0.5604  0.2746 -1.3585
 9472SOL    HW239876   4.153   2.604   4.563  2.1362  2.4551  2.3712
 9473SOL     OW39877   2.282   3.194   3.403 -0.0413 -0.0396  0.5580
 9473SOL    HW139878   2.212   3.130   3.418 -1.3579  0.6943 -2.3905
 9473SOL    HW239879   2.269   3.216   3.311 -0.9537 -2.5103  0.1117
 9474SOL     OW39880   2.380   3.110   6.499  0.0858 -0.2765 -0.8038
 9474SOL    HW139881   2.372   3.023   6.538  1.4215  0.7012  1.6289
 9474SOL    HW239882   2.424   3.090   6.416  1.1453  1.5749 -0.6883
 9475SOL     OW39883   3.867   3.777   0.301  0.1230 -0.5570  0.1932
 9475SOL    HW139884   3.924   3.849   0.327  0.3243 -1.3376  1.9218
 9475SOL    HW239885   3.909   3.756   0.217  0.9247 -0.3417  0.5425
 9476SOL     OW39886   4.401   2.021   6.276  0.4643 -0.6612  0.3381
 9476SOL    HW139887   4.320   2.016   6.326  0.0857  1.5234 -0.0873
 9476SOL    HW239888   4.450   1.950   6.319 -0.3953  0.2680  2.8645
 9477SOL     OW39889   0.739   1.854   5.593  0.2969  0.0483 -0.1674
 9477SOL    HW139890   0.676   1.903   5.540 -0.9373 -2.8212 -1.3372
 9477SOL    HW239891   0.727   1.764   5.564 -2.4588  0.3006  0.2032
 9478SOL     OW39892   0.244   2.660   8.471  0.0952  0.2052  0.2391
 9478SOL    HW139893   0.177   2.726   8.485  0.0182  0.4413 -1.2202
 9478SOL    HW239894   0.261   2.618   8.555 -3.2694  0.6789  1.1545
 9479SOL     OW39895   2.142   4.462  16.491  0.2352 -0.3493 -0.3905
 9479SOL    HW139896   2.088   4.402  16.439 -1.0947  1.1151 -0.7169
 9479SOL    HW239897   2.160   4.400  16.562  0.7855  1.3216  0.9374
 9480SOL     OW39898   2.099   4.152  11.868 -0.6499  0.2633 -0.2046
 9480SOL    HW139899   2.174   4.194  11.827 -0.3205 -1.3516 -1.2370
 9480SOL    HW239900   2.032   4.220  11.879 -0.5629  0.7758 -2.8252
 9481SOL     OW39901   2.384   1.193   0.695  0.3270 -0.2373 -0.1402
 9481SOL    HW139902   2.358   1.164   0.607 -2.7818  1.7124  0.1308
 9481SOL    HW239903   2.417   1.113   0.735  1.7461  0.6568  0.4832
 9482SOL     OW39904   3.004   2.955   2.257  0.3959  0.2360 -0.1439
 9482SOL    HW139905   3.017   2.939   2.164  0.3043  1.2974 -0.3351
 9482SOL    HW239906   2.931   2.896   2.276  1.2115 -0.2758  1.4109
 9483SOL     OW39907   2.881   1.294   1.384 -0.3759 -0.3213 -0.3298
 9483SOL    HW139908   2.847   1.226   1.325 -0.7363  0.3659 -0.9069
 9483SOL    HW239909   2.974   1.290   1.362 -0.4850  1.3798 -1.0701
 9484SOL     OW39910   4.055   1.114   8.163 -0.2103 -0.2610 -0.3121
 9484SOL    HW139911   4.138   1.112   8.116  0.4996  1.2477  0.8730
 9484SOL    HW239912   4.017   1.191   8.120 -1.7353 -1.7038 -1.5509
 9485SOL     OW39913   0.665   2.020  12.001 -0.6997 -0.6453  0.2506
 9485SOL    HW139914   0.745   2.052  12.042 -2.1562 -0.4677  2.9347
 9485SOL    HW239915   0.634   1.955  12.064 -0.0979  0.5163  1.7399
 9486SOL     OW39916   3.607   2.911   7.003  0.3224  0.0555  0.2681
 9486SOL    HW139917   3.603   2.839   6.941  0.1009  2.0735 -2.0707
 9486SOL    HW239918   3.684   2.959   6.972 -0.7807  0.3700 -1.9958
 9487SOL     OW39919   1.367   2.774  17.031 -0.1329 -0.8193  0.2449
 9487SOL    HW139920   1.379   2.851  17.088  0.1820  0.5520 -1.6963
 9487SOL    HW239921   1.286   2.740  17.070 -2.5745  3.0931 -1.4583
 9488SOL     OW39922   1.006   3.985   3.874 -0.5586 -0.3633  0.3441
 9488SOL    HW139923   1.093   4.003   3.910  0.2320  0.7719 -2.1345
 9488SOL    HW239924   1.018   3.975   3.780  1.4025 -0.6908  0.6123
 9489SOL     OW39925   0.209   2.813   2.983 -0.1361 -0.3291 -0.4044
 9489SOL    HW139926   0.226   2.874   2.911  0.5315 -0.6065 -0.4850
 9489SOL    HW239927   0.258   2.735   2.957 -2.1610 -2.5682  2.4446
 9490SOL     OW39928   0.514   4.379   6.014  0.2196  0.4007  0.2292
 9490SOL    HW139929   0.535   4.470   5.992  1.2785  0.5868  1.9836
 9490SOL    HW239930   0.579   4.358   6.082 -0.0715  1.8328  0.9567
 9491SOL     OW39931   3.378   3.590   0.032 -0.1354  0.4169 -0.1863
 9491SOL    HW139932   3.428   3.532  17.661  0.6973  0.3088  0.6537
 9491SOL    HW239933   3.394   3.543   0.114  2.1689 -0.0099 -0.8991
 9492SOL     OW39934   1.104   0.972   3.174 -0.7151  0.0376 -0.1950
 9492SOL    HW139935   1.155   1.046   3.206 -0.5205 -0.2957  0.2632
 9492SOL    HW239936   1.129   0.959   3.082  2.7045  1.4813  0.5418
 9493SOL     OW39937   0.158   3.724   7.570  0.1325 -0.2093 -0.3176
 9493SOL    HW139938   0.143   3.762   7.656  0.2912  1.3844 -0.9918
 9493SOL    HW239939   0.076   3.738   7.522 -0.1240  0.5265  0.3238
 9494SOL     OW39940   3.442   3.624   6.164  0.0755  0.1296 -0.0299
 9494SOL    HW139941   3.359   3.583   6.140  0.7192 -1.2240  0.0773
 9494SOL    HW239942   3.506   3.554   6.155  2.0465  1.8916  0.1309
 9495SOL     OW39943   3.664   1.715  10.330  0.0597  0.0838  0.0449
 9495SOL    HW139944   3.739   1.728  10.271 -0.0471  0.2643 -0.0541
 9495SOL    HW239945   3.710   1.659  10.392 -1.3585  0.7316  1.6868
 9496SOL     OW39946   3.196   4.334   6.872 -0.0363 -0.0903  0.1735
 9496SOL    HW139947   3.101   4.325   6.868  0.0135 -1.3211  1.6813
 9496SOL    HW239948   3.212   4.263   6.935 -0.6438  0.3196  0.7889
 9497SOL     OW39949   0.489   0.634   9.260 -0.1951  0.5475 -0.1025
 9497SOL    HW139950   0.545   0.675   9.194 -2.5210 -0.1033 -2.4572
 9497SOL    HW239951   0.413   0.690   9.246 -0.5643 -0.7959 -3.3428
 9498SOL     OW39952   3.182   0.917   3.735  0.5794  0.1917 -0.2317
 9498SOL    HW139953   3.274   0.890   3.739  0.7530  0.6729 -0.9004
 9498SOL    HW239954   3.185   0.999   3.784 -0.0169  0.4213 -0.5814
 9499SOL     OW39955   3.841   3.823   6.416  0.0976  0.6738 -0.3543
 9499SOL    HW139956   3.897   3.803   6.342  0.2194 -1.4969  0.3418
 9499SOL    HW239957   3.884   3.782   6.491  0.1212  2.5247  0.6618
 9500SOL     OW39958   4.478   2.061  14.747  0.6033  0.2479  0.3154
 9500SOL    HW139959   4.435   1.977  14.763  2.5966 -1.3113 -2.5091
 9500SOL    HW239960   4.410   2.099  14.691  0.5462  0.3643  0.4651
 9501SOL     OW39961   1.524   0.079   1.140  0.4526 -0.3931  0.0762
 9501SOL    HW139962   1.594   0.113   1.085  1.1517  0.6300  1.5709
 9501SOL    HW239963   1.579   0.053   1.214  1.3837  3.9836  0.9188
 9502SOL     OW39964   1.550   3.264   7.549 -0.1013  0.5097 -0.0414
 9502SOL    HW139965   1.552   3.217   7.633 -0.3208 -1.5547 -1.1855
 9502SOL    HW239966   1.454   3.267   7.544 -0.0603 -2.3957 -2.4683
 9503SOL     OW39967   0.211   3.446   8.567 -0.0082  0.3481 -0.2093
 9503SOL    HW139968   0.274   3.517   8.554  1.7448 -1.1418  0.2566
 9503SOL    HW239969   0.225   3.425   8.660 -3.6010  0.8637  0.4523
 9504SOL     OW39970   3.422   2.802  12.329  0.2061  0.2321  0.4368
 9504SOL    HW139971   3.361   2.876  12.331 -1.7996 -1.4682  1.2306
 9504SOL    HW239972   3.476   2.837  12.399  2.4643  2.7731 -2.5402
 9505SOL     OW39973   3.016   1.042   1.181  0.2949  0.4012  0.0622
 9505SOL    HW139974   2.997   0.949   1.184 -0.9673  0.7078  1.3555
 9505SOL    HW239975   3.060   1.057   1.265  0.3470  1.2654 -0.1172
 9506SOL     OW39976   4.222   1.201  16.937 -0.1495 -0.1127  0.0884
 9506SOL    HW139977   4.290   1.236  16.996 -0.9841  1.4167  0.1387
 9506SOL    HW239978   4.146   1.235  16.984  0.6356  1.5472  0.1753
 9507SOL     OW39979   1.104   4.589   2.956 -0.1861 -0.7338 -0.1167
 9507SOL    HW139980   1.077   4.498   2.974 -1.7883  0.1248  1.8218
 9507SOL    HW239981   1.135   4.578   2.866 -0.2365 -1.6281 -0.0256
 9508SOL     OW39982   1.124   2.027   2.414 -0.4794  0.6230 -0.4497
 9508SOL    HW139983   1.219   2.030   2.406 -0.5305 -0.6865 -1.5462
 9508SOL    HW239984   1.095   2.106   2.367 -0.8316  1.1147  0.5873
 9509SOL     OW39985   0.619   4.021   1.826 -0.1165 -0.5079  0.4215
 9509SOL    HW139986   0.620   4.116   1.814  3.3243 -0.9190 -2.6424
 9509SOL    HW239987   0.691   3.989   1.771  1.0508  0.5331  1.3374
 9510SOL     OW39988   3.938   1.322   6.636  0.1330 -1.1760  0.6293
 9510SOL    HW139989   4.006   1.258   6.618  1.0024 -0.0707 -0.0055
 9510SOL    HW239990   3.959   1.342   6.727 -0.0367 -0.7864  0.5846
 9511SOL     OW39991   0.166   1.356  17.290  0.3441  0.2261 -0.5553
 9511SOL    HW139992   0.136   1.314  17.209 -1.3874  0.2598  0.0531
 9511SOL    HW239993   0.085   1.335  17.338  0.8497 -1.0016 -0.2407
 9512SOL     OW39994   0.245   1.097   5.407 -0.2700 -0.2292 -0.3266
 9512SOL    HW139995   0.174   1.130   5.462  1.3185 -0.0923  1.6371
 9512SOL    HW239996   0.196   1.101   5.325 -1.6733  0.6606  0.5488
 9513SOL     OW39997   3.972   1.008   6.326  0.6221  0.3350 -0.0935
 9513SOL    HW139998   4.027   0.961   6.263  0.3101  1.6328 -1.3235
 9513SOL    HW239999   4.033   1.048   6.387  0.1343  0.3613  0.3795
 9514SOL     OW40000   1.272   4.407   3.409 -0.1640 -0.4699  0.2035
 9514SOL    HW140001   1.197   4.422   3.351 -1.1581  0.4190  1.7157
 9514SOL    HW240002   1.238   4.330   3.454  0.5832  0.1016  1.7572
 9515SOL     OW40003   4.049   2.778  17.601  0.0651  0.0754 -0.7642
 9515SOL    HW140004   3.984   2.730  17.550 -0.3480  0.3681 -0.5098
 9515SOL    HW240005   4.043   2.730  17.684  1.1935 -0.2892 -0.8940
 9516SOL     OW40006   0.766   3.489  15.157 -0.2878 -0.1199 -0.7779
 9516SOL    HW140007   0.702   3.560  15.162 -1.1239 -0.5942 -4.1574
 9516SOL    HW240008   0.838   3.531  15.111 -0.1668 -0.4671 -0.9105
 9517SOL     OW40009   4.249   1.732   6.716 -0.0436  0.0389  0.7444
 9517SOL    HW140010   4.345   1.742   6.714  0.0014 -0.9611 -1.4248
 9517SOL    HW240011   4.246   1.651   6.665 -0.9415  1.2098 -1.0476
 9518SOL     OW40012   1.129   3.511   6.305  1.0449  0.5844  0.5859
 9518SOL    HW140013   1.223   3.526   6.291  1.4015 -2.3651 -0.1891
 9518SOL    HW240014   1.083   3.566   6.241  0.7123 -0.5179 -0.1274
 9519SOL     OW40015   0.752   0.540   3.059 -0.7600  0.6019  0.1870
 9519SOL    HW140016   0.838   0.510   3.030 -0.8758  0.3513  0.1028
 9519SOL    HW240017   0.719   0.464   3.108  1.4266 -0.0269  0.7024
 9520SOL     OW40018   0.970   2.396  12.977 -0.3187 -0.2807  0.0687
 9520SOL    HW140019   0.977   2.373  12.884  0.3322  1.9981 -0.4341
 9520SOL    HW240020   1.061   2.381  13.003 -0.8802 -1.5555  1.2991
 9521SOL     OW40021   4.370   0.658   5.590 -0.3840 -0.0549 -0.4164
 9521SOL    HW140022   4.400   0.727   5.649  0.8158 -3.3655  2.8314
 9521SOL    HW240023   4.283   0.692   5.566 -0.3222 -0.5198 -1.3028
 9522SOL     OW40024   1.623   1.015   1.392  0.8344  0.3954  0.1515
 9522SOL    HW140025   1.618   1.109   1.406  0.8877  0.6259 -1.3079
 9522SOL    HW240026   1.557   1.002   1.324 -1.0248 -0.0534  2.0606
 9523SOL     OW40027   1.825   1.011   7.016  0.1508  0.2133 -0.0879
 9523SOL    HW140028   1.824   0.924   7.056  1.4532  0.6877  0.9978
 9523SOL    HW240029   1.887   1.063   7.067  0.5113 -0.8735  0.5983
 9524SOL     OW40030   1.287   1.743   2.470  0.0283 -0.0381  0.6396
 9524SOL    HW140031   1.345   1.717   2.399 -1.0023  1.5365 -0.7956
 9524SOL    HW240032   1.352   1.776   2.533  1.0514 -1.3572  0.2617
 9525SOL     OW40033   3.109   0.402  13.040 -0.4901  0.6121  0.3335
 9525SOL    HW140034   3.165   0.353  12.979 -1.9988  0.2261 -0.7385
 9525SOL    HW240035   3.092   0.335  13.106  1.8567 -1.4887 -1.1737
 9526SOL     OW40036   0.581   3.579  12.750 -0.4700 -0.4139  0.7608
 9526SOL    HW140037   0.518   3.643  12.784 -0.0254  1.0319 -1.1186
 9526SOL    HW240038   0.531   3.534  12.682 -1.3253 -0.6143  1.5169
 9527SOL     OW40039   4.231   2.208  10.574 -0.3038 -0.6878 -0.0587
 9527SOL    HW140040   4.238   2.200  10.669 -1.6038  1.8162  0.2204
 9527SOL    HW240041   4.305   2.261  10.544  0.3733 -0.6259  1.7135
 9528SOL     OW40042   3.809   4.544  14.610 -0.0294  0.0204  0.1975
 9528SOL    HW140043   3.828   4.607  14.680  0.1211  0.6969 -0.4619
 9528SOL    HW240044   3.861   4.579  14.538  1.0989 -2.0546  0.0081
 9529SOL     OW40045   0.954   4.060   1.191  0.5147 -0.3588  0.7026
 9529SOL    HW140046   1.006   4.021   1.121  1.0283 -0.5351  1.1859
 9529SOL    HW240047   0.986   4.009   1.266 -0.3725 -2.4086 -0.3228
 9530SOL     OW40048   2.249   2.994   1.917 -0.0111 -0.3205 -0.6996
 9530SOL    HW140049   2.279   2.943   1.841 -0.5543  0.1184 -1.2126
 9530SOL    HW240050   2.297   2.942   1.981 -0.9812  1.5683  1.5837
 9531SOL     OW40051   4.535   0.030   0.947  0.4928 -0.1765 -0.0307
 9531SOL    HW140052   4.463   0.062   0.893  1.1235  1.9828  0.4125
 9531SOL    HW240053   4.507   0.047   1.038  2.2953  3.0232 -0.0953
 9532SOL     OW40054   3.103   1.181   5.185 -0.0639 -0.0067 -0.6306
 9532SOL    HW140055   3.148   1.142   5.260 -1.3865 -0.6823 -0.1910
 9532SOL    HW240056   3.013   1.170   5.214  0.5043 -0.4930  0.9608
 9533SOL     OW40057   2.255   0.425  10.808 -0.1269  0.3779 -0.5563
 9533SOL    HW140058   2.181   0.438  10.866  1.4444  0.4935  1.4287
 9533SOL    HW240059   2.313   0.375  10.866  0.1313 -1.4788 -2.4210
 9534SOL     OW40060   3.330   3.877   7.468 -0.3712  0.2314 -0.2607
 9534SOL    HW140061   3.336   3.940   7.539  0.4129  0.6372 -0.6784
 9534SOL    HW240062   3.409   3.823   7.476 -2.0089 -2.0385  0.5045
 9535SOL     OW40063   1.423   4.630   2.853  0.0937 -0.2362  0.1200
 9535SOL    HW140064   1.341   4.622   2.805 -0.4132  0.8673  0.8198
 9535SOL    HW240065   1.433   0.003   2.864  0.8114 -0.2054 -0.8051
 9536SOL     OW40066   2.262   3.021   3.859 -0.0679  0.0060  0.2318
 9536SOL    HW140067   2.266   3.065   3.944 -0.9628  0.5533 -0.0162
 9536SOL    HW240068   2.348   2.978   3.854  0.6470  1.7326 -2.2988
 9537SOL     OW40069   2.626   4.220   9.943  0.2858  0.0229 -0.3890
 9537SOL    HW140070   2.673   4.276   9.881  1.0278  0.5638  0.6706
 9537SOL    HW240071   2.699   4.197  10.000  1.3965  0.7623 -1.5097
 9538SOL     OW40072   1.095   1.776   5.638 -0.0914  0.5425  0.2354
 9538SOL    HW140073   1.069   1.796   5.548  2.5527 -0.6186 -0.7770
 9538SOL    HW240074   1.051   1.850   5.680 -0.0087  0.1090  1.0859
 9539SOL     OW40075   3.560   0.773  16.811 -0.4444  0.4801 -0.3296
 9539SOL    HW140076   3.518   0.714  16.873  0.6467  0.6643  0.5911
 9539SOL    HW240077   3.510   0.765  16.730 -1.6020  1.0050  0.3408
 9540SOL     OW40078   4.670   4.598   3.857 -0.4121 -0.0383 -0.8101
 9540SOL    HW140079   4.615   4.664   3.816 -0.2479 -0.1645 -1.2353
 9540SOL    HW240080   4.719   4.563   3.783 -0.8006 -2.9274  0.3050
 9541SOL     OW40081   3.343   3.105  14.169 -0.3258  0.3888  0.7834
 9541SOL    HW140082   3.428   3.115  14.125  0.8176 -3.1547  2.2010
 9541SOL    HW240083   3.370   3.134  14.256  2.1519 -0.3460  0.2637
 9542SOL     OW40084   3.402   4.130   0.914  0.6490 -0.4396 -0.4722
 9542SOL    HW140085   3.327   4.188   0.907 -0.5712 -1.8171  1.1849
 9542SOL    HW240086   3.404   4.120   1.009  3.4480  0.1378 -0.4697
 9543SOL     OW40087   2.096   1.821   6.544  0.5458 -0.1056 -0.1291
 9543SOL    HW140088   2.166   1.862   6.594  0.7196 -2.1843  1.3530
 9543SOL    HW240089   2.150   1.796   6.468 -1.0060  2.5778 -2.1192
 9544SOL     OW40090   2.464   0.620   4.333 -0.5442  0.3017 -0.6482
 9544SOL    HW140091   2.473   0.526   4.317 -2.5500 -0.2027  1.2821
 9544SOL    HW240092   2.507   0.655   4.254  1.1413  0.4686  0.3397
 9545SOL     OW40093   2.815   4.387   9.837  0.6457  0.0249 -0.2580
 9545SOL    HW140094   2.866   4.450   9.889 -4.6934  2.3122  2.1667
 9545SOL    HW240095   2.886   4.332   9.804 -2.3146 -3.1367 -1.3146
 9546SOL     OW40096   0.536   0.108   7.714  0.4234 -0.4444 -0.6414
 9546SOL    HW140097   0.551   0.160   7.635 -2.2388  2.2096  0.6294
 9546SOL    HW240098   0.480   0.036   7.684 -1.4131  0.9936 -0.6455
 9547SOL     OW40099   1.570   3.488   1.144 -0.4927 -0.2828  0.3372
 9547SOL    HW140100   1.655   3.516   1.177 -0.3421  0.8459 -1.0405
 9547SOL    HW240101   1.514   3.521   1.214  1.9340  2.0658  1.1466
 9548SOL     OW40102   0.182   4.527   2.463 -0.1868  0.3149 -0.1481
 9548SOL    HW140103   0.175   4.505   2.556  0.9164  2.9316  0.5534
 9548SOL    HW240104   0.269   4.496   2.438  0.0092  1.2089 -0.5757
 9549SOL     OW40105   2.920   2.267   6.032  0.2819 -0.2361  0.3549
 9549SOL    HW140106   2.935   2.343   5.976  2.2312 -2.8334 -2.6261
 9549SOL    HW240107   2.854   2.210   5.993 -1.1012  2.1473 -0.7717
 9550SOL     OW40108   0.250   0.876  16.605 -0.2735  0.2048 -0.0617
 9550SOL    HW140109   0.195   0.838  16.673  1.0312 -0.0334  0.8703
 9550SOL    HW240110   0.333   0.864  16.651  0.4809  0.6148 -1.2874
 9551SOL     OW40111   0.576   0.195   7.421  0.1388  0.7782 -0.1416
 9551SOL    HW140112   0.577   0.113   7.372  0.8643 -0.3032  1.6892
 9551SOL    HW240113   0.669   0.217   7.425  0.2305  0.8066 -2.6176
 9552SOL     OW40114   2.026   2.186   1.904  0.1580  0.2108 -0.8161
 9552SOL    HW140115   1.945   2.227   1.934 -0.0242 -0.4847 -0.3383
 9552SOL    HW240116   2.088   2.233   1.959  0.0360  2.3906 -2.5432
 9553SOL     OW40117   3.473   0.526  10.799  0.1982  0.0407  0.0142
 9553SOL    HW140118   3.450   0.611  10.836 -0.5922  0.6789 -1.9207
 9553SOL    HW240119   3.561   0.525  10.838  1.2412  0.1438 -2.3101
 9554SOL     OW40120   2.917   3.213  14.626 -0.0369  0.4073  0.5906
 9554SOL    HW140121   2.854   3.149  14.592 -1.0334  0.6233  2.0519
 9554SOL    HW240122   2.864   3.291  14.640 -0.4401  0.2262  0.0759
 9555SOL     OW40123   3.735   3.156   1.616 -0.3295 -0.1244  0.5774
 9555SOL    HW140124   3.754   3.063   1.633  1.1389  0.0918  0.1598
 9555SOL    HW240125   3.810   3.186   1.565 -0.2022  1.2825  1.5999
 9556SOL     OW40126   3.044   1.175   5.943 -0.0606  0.3174 -0.2594
 9556SOL    HW140127   3.037   1.138   6.031  1.1520 -2.9621 -1.5410
 9556SOL    HW240128   3.019   1.266   5.960  0.1730  0.5415 -1.1238
 9557SOL     OW40129   4.168   4.050   8.097  0.5103  0.1246 -0.2551
 9557SOL    HW140130   4.203   4.116   8.156 -2.4189  2.1905 -0.7960
 9557SOL    HW240131   4.233   3.981   8.099 -0.4729 -0.7561  1.2325
 9558SOL     OW40132   0.029   1.598   3.287 -0.0269 -0.0927  0.7644
 9558SOL    HW140133   0.001   1.674   3.337  1.6187 -0.4560  2.2302
 9558SOL    HW240134   0.114   1.622   3.249  0.0772 -1.0216  0.4054
 9559SOL     OW40135   4.509   3.652   4.346 -0.3456  0.3515 -0.4586
 9559SOL    HW140136   4.447   3.668   4.417 -0.5862  0.2523 -0.6457
 9559SOL    HW240137   4.541   3.567   4.377  1.3484 -0.0388 -3.2868
 9560SOL     OW40138   0.757   4.668  11.500  0.2594  0.5462  0.0432
 9560SOL    HW140139   0.732   4.629  11.417 -0.2120 -1.3687  1.0910
 9560SOL    HW240140   0.850   4.676  11.479 -0.0124  0.8650 -1.0363
 9561SOL     OW40141   0.404   0.449  13.677  0.5016  0.6291  0.0093
 9561SOL    HW140142   0.427   0.463  13.585 -2.0157  2.7591 -0.2826
 9561SOL    HW240143   0.404   0.537  13.713 -1.7930  0.7683 -0.3045
 9562SOL     OW40144   1.346   2.377  15.727  0.2137  0.1954  0.0976
 9562SOL    HW140145   1.427   2.417  15.760 -0.7751  1.1773  1.3183
 9562SOL    HW240146   1.328   2.413  15.640 -2.1934 -0.5755  0.2804
 9563SOL     OW40147   4.696   3.713   6.582 -0.4727 -0.1760 -0.3399
 9563SOL    HW140148   0.018   3.690   6.664  0.2313  1.1831 -0.3302
 9563SOL    HW240149   4.647   3.786   6.618 -0.7563 -1.5608  2.0820
 9564SOL     OW40150   0.673   2.005   5.335  0.2024  0.2709  0.0763
 9564SOL    HW140151   0.711   1.945   5.272  2.1881  0.8773  0.7129
 9564SOL    HW240152   0.728   2.079   5.307  1.7972 -0.4706  1.2675
 9565SOL     OW40153   1.074   2.585   5.688 -0.0838 -0.6814  0.2595
 9565SOL    HW140154   0.988   2.558   5.719 -0.6850 -1.2465 -1.9348
 9565SOL    HW240155   1.105   2.496   5.674 -1.5444 -1.4865  2.1126
   4.72073   4.72073  17.68539
