Membrane in water
40155
    1TCq1    O1    1   2.510   1.331  10.638 -0.0596 -0.1121 -0.1332
    1TCq1    C1    2   2.630   1.271  10.624  0.5072  0.5019  0.0101
    1TCq1    O2    3   2.671   1.212  10.527 -0.1153 -0.0548  0.0301
    1TCq1    C2    4   2.713   1.350  10.706 -0.5975  0.6789 -0.2233
    1TCq1    C3    5   2.841   1.352  10.661  0.4333 -0.1601  0.3804
    1TCq1    C4    6   2.941   1.356  10.753 -0.1908 -0.0939 -0.0186
    1TCq1    C5    7   2.918   1.372  10.887  0.3168 -0.1625 -0.3502
    1TCq1    C6    8   2.789   1.364  10.929 -0.3567  0.6769 -0.0140
    1TCq1    C7    9   2.685   1.353  10.841  0.0421  0.6389 -0.1435
    1TCq1    C8   10   2.762   1.378  11.067 -0.6961 -0.4057  0.1263
    1TCq1    O4   11   2.657   1.433  11.085 -0.7469  0.3304  0.1947
    1TCq1    C9   12   3.083   1.338  10.713  0.9034 -0.4817  0.6079
    1TCq1    O5   13   3.170   1.312  10.808  0.2676  0.5502  0.3606
    1TCq1    O6   14   3.108   1.340  10.589  0.3601  0.4775  0.8584
    1TCq1    H1   15   2.509   1.394  10.713  1.2774 -2.0257  1.4603
    1TCq1    H2   16   2.866   1.338  10.557  0.8042 -2.0905  0.7281
    1TCq1    H3   17   3.004   1.391  10.949 -1.8913  3.7389  1.4892
    1TCq1    H4   18   2.583   1.333  10.874  1.1499 -0.8203  2.3712
    2MPD2     C   19   2.933   1.401  11.559 -0.2915 -0.3453 -0.5299
    2MPD2    C1   20   2.810   1.440  11.502 -0.6056  0.1052  0.4679
    2MPD2    C2   21   2.786   1.419  11.364 -0.3194 -0.0848 -0.3006
    2MPD2    C3   22   2.885   1.359  11.289 -0.6149 -0.4595  0.0263
    2MPD2    C4   23   2.999   1.315  11.349  0.2215 -0.1023  0.1923
    2MPD2    C5   24   3.019   1.334  11.480  0.3329  0.8159 -0.0387
    2MPD2     H   25   2.699   1.454  11.311  0.2194  1.8602  0.0924
    2MPD2    H1   26   3.083   1.288  11.286 -0.5010  0.2184 -0.8969
    2MPD2    H2   27   2.958   1.410  11.664 -0.0147 -0.2225 -0.6077
    2MPD2    H3   28   3.114   1.305  11.523 -0.5764 -1.7935  0.2608
    2MPD2     N   29   2.869   1.347  11.146  0.3526  0.6079  0.1503
    2MPD2    H5   30   2.937   1.287  11.100  0.4732  1.2716 -0.5386
    2MPD2    N1   31   2.701   1.492  11.582 -0.4453  0.8964  0.0174
    2MPD2    H7   32   2.616   1.513  11.531 -1.4944 -1.4965  0.7659
    3TCq1    O1   33   1.830   2.158  10.458  0.0201  0.0002 -0.4477
    3TCq1    C1   34   1.828   2.292  10.421 -0.2115  0.1146 -1.0592
    3TCq1    O2   35   1.766   2.315  10.318 -0.7125  0.1195  0.1449
    3TCq1    C2   36   1.946   2.355  10.473 -0.6571 -0.2399  0.0949
    3TCq1    C3   37   2.010   2.456  10.396  0.6657 -0.2920  0.0891
    3TCq1    C4   38   2.087   2.543  10.453  0.5665  0.2593  0.0235
    3TCq1    C5   39   2.095   2.562  10.589  0.0725  0.0771  0.2485
    3TCq1    C6   40   2.021   2.477  10.662  0.4227  0.3223 -0.2561
    3TCq1    C7   41   1.953   2.371  10.611 -0.4183 -0.1203 -0.8631
    3TCq1    C8   42   1.997   2.519  10.805  0.5795  0.5353 -0.6188
    3TCq1    O4   43   1.952   2.439  10.883 -0.3159  0.2937  0.3340
    3TCq1    C9   44   2.152   2.633  10.361  0.7284 -0.3955 -0.1780
    3TCq1    O5   45   2.203   2.736  10.416 -0.1861 -0.5657  0.1648
    3TCq1    O6   46   2.142   2.617  10.238  0.0836 -0.0336  0.2387
    3TCq1    H1   47   1.894   2.143  10.531 -1.1134  1.0899  0.7747
    3TCq1    H2   48   2.009   2.450  10.288  1.4063 -2.4272  0.1998
    3TCq1    H3   49   2.169   2.633  10.625 -0.3421  1.2113 -1.1476
    3TCq1    H4   50   1.869   2.329  10.665 -0.3375  0.4490 -0.2945
    4MPD2     C   51   1.882   2.876  11.142  0.5679  0.0303  0.2172
    4MPD2    C1   52   1.903   2.940  11.023  0.8489 -0.3393  0.2154
    4MPD2    C2   53   1.940   2.861  10.914 -0.1524 -0.6312 -0.5504
    4MPD2    C3   54   1.965   2.721  10.931  0.3464  0.5828  0.0917
    4MPD2    C4   55   1.927   2.661  11.047  0.6433 -0.0659  0.4181
    4MPD2    C5   56   1.882   2.736  11.151 -0.0346 -0.4351  0.0436
    4MPD2     H   57   1.957   2.908  10.818  0.8861 -0.3581 -0.2240
    4MPD2    H1   58   1.934   2.557  11.076  1.0936  0.1400  1.0431
    4MPD2    H2   59   1.833   2.927  11.224 -1.0100 -3.1484  1.2295
    4MPD2    H3   60   1.863   2.688  11.246 -1.5094  0.3182  0.1278
    4MPD2     N   61   2.011   2.658  10.817  0.0586 -0.0769 -0.0126
    4MPD2    H5   62   2.018   2.711  10.730 -1.4911  3.5946  2.0912
    4MPD2    N1   63   1.865   3.077  11.001 -0.4278  0.5555  0.3403
    4MPD2    H7   64   1.892   3.105  10.907 -0.8429 -0.9905 -0.2448
    5TCq1    O1   65   3.219   4.363  11.166 -0.8087 -0.4991  0.6649
    5TCq1    C1   66   3.122   4.448  11.207 -0.0519 -0.2118 -0.4258
    5TCq1    O2   67   3.089   4.472  11.320  0.0924 -0.3076  0.5069
    5TCq1    C2   68   3.055   4.505  11.095  0.2931 -0.3809  0.4661
    5TCq1    C3   69   3.008   4.628  11.108 -0.2072  0.0748  0.0028
    5TCq1    C4   70   2.953   4.694  11.000 -0.0103  0.6284 -0.3845
    5TCq1    C5   71   2.945   4.631  10.873  0.5292  0.4297  0.5529
    5TCq1    C6   72   2.987   4.504  10.859 -0.2209  0.3581  0.0017
    5TCq1    C7   73   3.042   4.447  10.968  1.0051 -0.5933 -0.8115
    5TCq1    C8   74   2.941   4.417  10.745 -0.2809  0.1361  0.6710
    5TCq1    O4   75   2.974   4.301  10.736  0.2241 -0.2432 -0.1596
    5TCq1    C9   76   2.908   0.112  11.012 -0.0805 -0.2642  0.3410
    5TCq1    O5   77   2.878   0.176  10.905 -0.2736  0.7019  0.7239
    5TCq1    O6   78   2.854   0.133  11.128  0.4692  0.4366  0.1115
    5TCq1    H1   79   3.242   4.377  11.072 -0.0452 -1.2589  0.7409
    5TCq1    H2   80   3.034   4.676  11.202  2.2486  0.4505 -0.8846
    5TCq1    H3   81   2.884   4.683  10.799 -2.2923 -0.1382  2.4949
    5TCq1    H4   82   3.067   4.342  10.953 -0.7717 -1.2909  1.0439
    6MPD2     C   83   2.672   4.517  10.506  0.7958 -0.2742 -0.4243
    6MPD2    C1   84   2.771   4.440  10.558 -0.3733 -0.7747 -0.2789
    6MPD2    C2   85   2.812   4.333  10.485  0.0746  0.1459  0.5509
    6MPD2    C3   86   2.752   4.294  10.364  0.2958 -0.4130  0.3889
    6MPD2    C4   87   2.651   4.375  10.316  0.2250  0.4295  0.2549
    6MPD2    C5   88   2.612   4.480  10.388  0.2486  0.3483  0.6285
    6MPD2     H   89   2.899   4.282  10.524 -1.1152 -0.9126  1.8047
    6MPD2    H1   90   2.596   4.358  10.225 -2.2626  1.9875  1.4721
    6MPD2    H2   91   2.631   4.607  10.550  1.1474 -1.1659  1.7295
    6MPD2    H3   92   2.530   4.545  10.358  0.0128 -1.3987 -2.4959
    6MPD2     N   93   2.793   4.175  10.299 -0.1081  0.2543  0.0143
    6MPD2    H5   94   2.860   4.122  10.354  0.0919  1.0263  0.5221
    6MPD2    N1   95   2.837   4.477  10.678 -0.9129  0.0505  0.2058
    6MPD2    H7   96   2.798   4.554  10.732 -0.9728  0.8793 -1.0159
    7TCq1    O1   97   4.134   4.514  12.883  0.0811 -0.0922  0.9290
    7TCq1    C1   98   4.207   4.631  12.893  0.1037 -0.2064  0.6832
    7TCq1    O2   99   4.202   0.015  12.828 -0.5086 -0.0441  0.5276
    7TCq1    C2  100   4.320   4.598  12.980 -0.2663  0.7546  0.6908
    7TCq1    C3  101   4.398   4.706  13.006  0.5850 -0.5914 -0.4476
    7TCq1    C4  102   4.508   4.694  13.084  0.8190  0.1946 -0.3258
    7TCq1    C5  103   4.545   4.569  13.136  0.0831 -0.4336 -0.6011
    7TCq1    C6  104   4.465   4.461  13.099  0.3856 -0.2296 -0.3033
    7TCq1    C7  105   4.353   4.470  13.021 -0.4461 -0.0971 -0.6045
    7TCq1    C8  106   4.479   4.330  13.161  0.3523 -0.4575  0.1835
    7TCq1    O4  107   4.421   4.235  13.108 -0.2148  0.6467 -0.3763
    7TCq1    C9  108   4.593   0.095  13.112  0.7773  0.3014 -0.4121
    7TCq1    O5  109   4.589   0.199  13.037  0.1671 -0.3382  0.6081
    7TCq1    O6  110   4.688   0.073  13.192  0.1400 -0.5652  0.3844
    7TCq1    H1  111   4.141   4.457  12.963  0.3905 -0.1220  0.8822
    7TCq1    H2  112   4.365   0.081  12.969  1.7154 -0.4650 -1.1132
    7TCq1    H3  113   4.621   4.565  13.212  2.3099 -1.4090 -2.8719
    7TCq1    H4  114   4.301   4.380  12.992  0.2714 -0.4378 -0.8290
    8MPD2     C  115   4.709   4.018  13.498 -0.3127 -0.4980  0.0638
    8MPD2    C1  116   4.619   3.983  13.399 -0.0054  0.5367  0.0519
    8MPD2    C2  117   4.566   4.090  13.328  0.0213  0.7162  0.4037
    8MPD2    C3  118   4.597   4.222  13.352 -0.6132  0.3322 -0.0204
    8MPD2    C4  119   4.672   4.254  13.465  0.2030 -0.2893 -0.5575
    8MPD2    C5  120   0.009   4.147  13.537  0.1578  0.9737 -0.0758
    8MPD2     H  121   4.500   4.067  13.244 -0.6173  1.1763  0.7828
    8MPD2    H1  122   4.699   4.356  13.490  0.7190 -0.3929 -0.6968
    8MPD2    H2  123   0.045   3.946  13.555  1.5565  1.4988  0.7255
    8MPD2    H3  124   0.077   4.169  13.619 -0.9467  1.5263  0.7109
    8MPD2     N  125   4.563   4.334  13.271 -0.0967  0.2550  0.2155
    8MPD2    H5  126   4.598   4.420  13.312  1.7718 -0.6310  0.4971
    8MPD2    N1  127   4.597   3.846  13.380  0.5331  0.2086 -0.4652
    8MPD2    H7  128   4.637   3.790  13.455 -0.5589 -1.1578 -0.9106
    9TCq1    O1  129   2.153   2.876  10.637  0.3894 -0.5285 -0.7009
    9TCq1    C1  130   2.249   2.940  10.714  0.2073 -0.3242 -0.8468
    9TCq1    O2  131   2.219   3.006  10.813  0.2974 -0.2120  0.0621
    9TCq1    C2  132   2.380   2.959  10.638 -0.1729 -0.0094 -0.3869
    9TCq1    C3  133   2.387   2.960  10.501 -0.5370  0.3803  0.0917
    9TCq1    C4  134   2.506   3.000  10.442 -0.1889 -0.9922  0.4084
    9TCq1    C5  135   2.615   3.037  10.518  0.0354  0.1133 -0.1247
    9TCq1    C6  136   2.608   3.020  10.658  0.3863  0.1308  0.5504
    9TCq1    C7  137   2.486   2.976  10.717  0.5453  0.0895  0.6345
    9TCq1    C8  138   2.736   3.005  10.733  0.3941  0.1379  0.3793
    9TCq1    O4  139   2.832   3.059  10.685  0.0454 -0.1285  0.0325
    9TCq1    C9  140   2.526   2.990  10.298 -0.2967 -0.3154  0.2539
    9TCq1    O5  141   2.642   2.983  10.253  0.1696  0.1911 -0.3917
    9TCq1    O6  142   2.426   2.950  10.241  0.3427 -0.3634  0.4207
    9TCq1    H1  143   2.187   2.832  10.556  0.4936 -0.7104 -0.5587
    9TCq1    H2  144   2.308   2.939  10.430  1.2927  3.0133 -2.7207
    9TCq1    H3  145   2.706   3.071  10.470  0.8026 -0.4967  0.9005
    9TCq1    H4  146   2.470   2.957  10.822  1.7004  1.5060  1.0537
   10MPD2     C  147   2.930   2.954  10.941  0.5209 -0.4860  1.0758
   10MPD2    C1  148   2.796   2.932  10.959 -0.0012  0.3310  0.5971
   10MPD2    C2  149   2.750   2.892  11.080  0.0853 -0.6467  0.2688
   10MPD2    C3  150   2.836   2.859  11.186 -0.0492  0.1384 -1.0086
   10MPD2    C4  151   2.970   2.893  11.172 -0.7503  0.0945  0.5912
   10MPD2    C5  152   3.016   2.937  11.048 -0.3230  0.2052 -0.2392
   10MPD2     H  153   2.648   2.856  11.080 -0.4875  0.9939 -0.5903
   10MPD2    H1  154   3.050   2.874  11.243  1.2442  2.4255 -1.0608
   10MPD2    H2  155   2.967   2.986  10.844  0.5569  0.5863  1.4493
   10MPD2    H3  156   3.122   2.962  11.045 -1.0309  3.3934  1.0798
   10MPD2     N  157   2.789   2.814  11.309  0.1054 -0.3390 -1.3355
   10MPD2    H5  158   2.862   2.801  11.378 -0.1257  0.9422 -0.8366
   10MPD2    N1  159   2.708   2.935  10.846 -0.0118 -0.6715  0.3474
   10MPD2    H7  160   2.615   2.895  10.846 -0.5358  0.5536  0.6772
   11TCq1    O1  161   3.699   2.644  13.308  0.4556 -0.9165  0.0999
   11TCq1    C1  162   3.680   2.768  13.360  0.9202 -0.2221  0.3706
   11TCq1    O2  163   3.687   2.788  13.482 -0.3707  0.3451 -0.0483
   11TCq1    C2  164   3.558   2.811  13.289  0.1214 -0.5347  0.2514
   11TCq1    C3  165   3.560   2.916  13.207  0.1578 -0.4767  0.5329
   11TCq1    C4  166   3.444   2.983  13.174  0.0242  0.4609  0.4635
   11TCq1    C5  167   3.323   2.947  13.225 -0.6843  0.3963 -0.5104
   11TCq1    C6  168   3.326   2.845  13.311 -0.6974 -0.0359 -0.3727
   11TCq1    C7  169   3.438   2.777  13.340 -0.2754 -0.2234 -0.1985
   11TCq1    C8  170   3.199   2.799  13.379  0.4153 -0.5597  0.4405
   11TCq1    O4  171   3.192   2.685  13.427  0.2369 -0.0313 -0.0709
   11TCq1    C9  172   3.453   3.091  13.078  0.0543  0.5545  0.3202
   11TCq1    O5  173   3.349   3.118  13.009 -0.3987 -0.4105  0.2328
   11TCq1    O6  174   3.563   3.093  13.021  0.0663 -0.1862  0.2387
   11TCq1    H1  175   3.681   2.655  13.212  1.1092  1.5614  0.2600
   11TCq1    H2  176   3.658   2.947  13.172 -0.6583 -0.1296 -1.4292
   11TCq1    H3  177   3.237   3.005  13.193 -0.4732  1.0454  0.0927
   11TCq1    H4  178   3.429   2.690  13.404 -1.4209 -0.3925 -0.5972
   12MPD2     C  179   2.884   2.967  13.443 -0.0246  0.7264 -0.3549
   12MPD2    C1  180   2.961   2.861  13.391 -1.2056 -0.5165 -0.0557
   12MPD2    C2  181   2.903   2.739  13.385  0.8922 -0.4144 -0.4979
   12MPD2    C3  182   2.771   2.725  13.416 -0.6189 -0.4164 -0.7415
   12MPD2    C4  183   2.691   2.833  13.460  0.1386  0.3353 -0.2292
   12MPD2    C5  184   2.751   2.958  13.472 -0.3922  0.4030 -0.3119
   12MPD2     H  185   2.969   2.659  13.351 -1.2566 -2.3417 -0.1255
   12MPD2    H1  186   2.588   2.819  13.492 -0.3203  1.3083 -1.2681
   12MPD2    H2  187   2.920   3.069  13.453  0.8212  0.3952 -0.0131
   12MPD2    H3  188   2.690   3.044  13.499  0.8465  1.4243 -0.7758
   12MPD2     N  189   2.718   2.592  13.408 -0.4313 -0.1090 -0.6448
   12MPD2    H5  190   2.628   2.580  13.454 -0.5430  1.1760 -0.5396
   12MPD2    N1  191   3.095   2.884  13.361  0.2842  0.2804  0.6655
   12MPD2    H7  192   3.131   2.979  13.362  0.6236  0.1618 -0.3735
   13TCq1    O1  193   2.870   2.917  10.352  0.0571 -0.4455 -0.1141
   13TCq1    C1  194   2.896   2.827  10.452  0.8405 -0.4330  0.2083
   13TCq1    O2  195   2.977   2.849  10.542  0.0781  0.6161 -0.1333
   13TCq1    C2  196   2.795   2.717  10.446  0.1630  0.0931 -0.0837
   13TCq1    C3  197   2.749   2.688  10.321 -0.3878 -0.3398 -0.3149
   13TCq1    C4  198   2.615   2.650  10.309 -0.4366 -0.2890  0.3114
   13TCq1    C5  199   2.537   2.631  10.420 -1.0860 -0.1947  0.0118
   13TCq1    C6  200   2.593   2.654  10.546  0.3645  0.0305 -0.9597
   13TCq1    C7  201   2.712   2.708  10.558 -0.0389 -0.4183  0.6792
   13TCq1    C8  202   2.520   2.614  10.666 -0.2971  0.3002  0.1981
   13TCq1    O4  203   2.540   2.686  10.766  0.1768  0.5002  0.9138
   13TCq1    C9  204   2.560   2.612  10.184  0.3720  0.3304  0.6452
   13TCq1    O5  205   2.622   2.653  10.080 -0.4566  0.4611  0.0288
   13TCq1    O6  206   2.432   2.606  10.188  0.1739  0.6839 -0.2559
   13TCq1    H1  207   2.783   2.900  10.312  0.0369 -1.1412  0.2159
   13TCq1    H2  208   2.803   2.699  10.228 -0.1098 -0.3093 -0.1500
   13TCq1    H3  209   2.433   2.601  10.411 -1.8016  2.3012 -0.0313
   13TCq1    H4  210   2.748   2.729  10.658  2.1556  0.3706 -0.2829
   14MPD2     C  211   2.350   2.302  10.742  0.0271 -0.4655  0.3177
   14MPD2    C1  212   2.387   2.427  10.766  0.3053 -0.6652 -0.1001
   14MPD2    C2  213   2.348   2.496  10.883  0.8227  0.3990  0.0268
   14MPD2    C3  214   2.281   2.424  10.980 -0.5698  0.1831 -0.1906
   14MPD2    C4  215   2.268   2.287  10.965  1.0467 -0.1468 -0.7528
   14MPD2    C5  216   2.299   2.227  10.848 -0.0416 -0.3522  0.3171
   14MPD2     H  217   2.370   2.600  10.902 -0.5668  0.3147  2.0656
   14MPD2    H1  218   2.233   2.226  11.048 -0.1484  0.6966 -0.6308
   14MPD2    H2  219   2.373   2.260  10.645  3.5308  0.7864  0.5742
   14MPD2    H3  220   2.290   2.119  10.834 -2.4506 -0.0201 -0.7545
   14MPD2     N  221   2.256   2.499  11.099  0.0431  0.2709  0.2425
   14MPD2    H5  222   2.262   2.600  11.085 -1.4245  0.1328 -1.3363
   14MPD2    N1  223   2.456   2.494  10.658  0.3087 -0.0632 -0.1952
   14MPD2    H7  224   2.482   2.444  10.574  1.8570 -0.6619  0.6403
   15TCq1    O1  225   3.750   1.209   1.362 -0.4874 -0.1008 -0.2416
   15TCq1    C1  226   3.823   1.155   1.256 -0.1250 -0.0330  0.6534
   15TCq1    O2  227   3.784   1.142   1.141 -0.1182  0.3716 -0.1524
   15TCq1    C2  228   3.966   1.163   1.290  0.3559  0.1160 -0.6056
   15TCq1    C3  229   4.002   1.196   1.423 -0.1848  0.2606 -0.8955
   15TCq1    C4  230   4.132   1.210   1.450  0.3206 -0.5449 -0.4687
   15TCq1    C5  231   4.223   1.195   1.351 -0.4503 -0.2117 -0.1746
   15TCq1    C6  232   4.187   1.171   1.221  0.0570 -0.1963 -0.5709
   15TCq1    C7  233   4.057   1.166   1.183  0.0605 -0.2464  0.1180
   15TCq1    C8  234   4.288   1.137   1.124 -0.1876 -0.2952  0.9021
   15TCq1    O4  235   4.395   1.120   1.174 -0.1284  0.0321  0.1993
   15TCq1    C9  236   4.180   1.252   1.579  0.8804  0.3746 -0.3326
   15TCq1    O5  237   4.096   1.287   1.664  0.2029  0.3172  0.5658
   15TCq1    O6  238   4.306   1.266   1.586  0.0215  0.2009  0.6589
   15TCq1    H1  239   3.817   1.237   1.428 -0.7230  0.0831 -0.0794
   15TCq1    H2  240   3.931   1.211   1.504  0.6415 -0.2811 -0.0762
   15TCq1    H3  241   4.327   1.203   1.379 -0.3051 -0.1831 -0.7122
   15TCq1    H4  242   4.011   1.151   1.085 -0.6123  1.2843  0.2001
   16MPD2     C  243   4.265   1.014   0.774 -0.1149 -0.0774 -0.1078
   16MPD2    C1  244   4.325   1.054   0.888 -0.7060 -0.1422  0.1770
   16MPD2    C2  245   4.457   1.042   0.907  0.0944  0.4163  0.0840
   16MPD2    C3  246   4.537   0.977   0.814  0.3505  0.1901  0.2740
   16MPD2    C4  247   4.473   0.919   0.704  0.9260  0.3573  0.1699
   16MPD2    C5  248   4.341   0.945   0.683  0.3034 -0.7178  0.5284
   16MPD2     H  249   4.509   1.085   0.993 -0.5415 -1.1458  1.2348
   16MPD2    H1  250   4.530   0.874   0.623  0.9213  0.4818  0.0976
   16MPD2    H2  251   4.157   1.015   0.770 -0.0550 -0.0895 -1.7062
   16MPD2    H3  252   4.291   0.901   0.597 -1.3017 -0.3231  1.2591
   16MPD2     N  253   4.675   0.966   0.844  0.5346  0.1405 -0.0733
   16MPD2    H5  254   4.707   1.004   0.932 -3.3642  1.6132  0.7148
   16MPD2    N1  255   4.244   1.099   0.998 -0.1059  0.0931  0.5562
   16MPD2    H7  256   4.143   1.103   0.984  0.0568 -1.1044 -0.9640
   17TCq1    O1  257   2.720   2.509  11.229  0.3929  0.6535 -0.0773
   17TCq1    C1  258   2.607   2.442  11.195  0.2665  0.4936 -0.3887
   17TCq1    O2  259   2.535   2.381  11.273 -0.1738 -0.3777  0.0704
   17TCq1    C2  260   2.627   2.382  11.061 -0.9504 -0.1160  0.9207
   17TCq1    C3  261   2.590   2.257  11.040  0.2235 -0.2130  0.0710
   17TCq1    C4  262   2.636   2.187  10.933 -0.1756 -0.2358  0.3219
   17TCq1    C5  263   2.730   2.231  10.845 -0.2229  1.1388 -0.6403
   17TCq1    C6  264   2.771   2.359  10.865 -0.7925 -0.2785 -0.8906
   17TCq1    C7  265   2.726   2.433  10.974 -0.7353 -0.2305  0.8457
   17TCq1    C8  266   2.855   2.423  10.764  0.3702 -1.0210  0.2362
   17TCq1    O4  267   2.946   2.497  10.802  0.3367 -0.0153 -0.0337
   17TCq1    C9  268   2.583   2.050  10.923 -0.0567 -0.1050  0.5454
   17TCq1    O5  269   2.529   1.992  11.024 -0.6471 -0.1492  0.2575
   17TCq1    O6  270   2.619   1.980  10.823  0.0133  0.1405 -0.2185
   17TCq1    H1  271   2.788   2.514  11.159  2.4072  1.5349  1.9463
   17TCq1    H2  272   2.510   2.217  11.101  0.5824 -1.3393 -0.1929
   17TCq1    H3  273   2.761   2.175  10.757  1.8414 -0.5847  1.1899
   17TCq1    H4  274   2.749   2.538  10.988 -1.4993 -0.0753  0.9420
   18MPD2     C  275   3.012   2.469  10.517  0.7185  0.3285 -1.3021
   18MPD2    C1  276   2.888   2.413  10.522  0.0461  0.0891  0.5106
   18MPD2    C2  277   2.824   2.370  10.410 -0.8948 -0.1198 -0.0760
   18MPD2    C3  278   2.884   2.394  10.283  0.5283 -0.0502  0.2496
   18MPD2    C4  279   2.998   2.479  10.274  0.7336 -0.0613  0.0574
   18MPD2    C5  280   3.055   2.514  10.391 -0.1737  0.2931 -0.7033
   18MPD2     H  281   2.729   2.319  10.425 -0.3885 -0.6602  1.2589
   18MPD2    H1  282   3.045   2.516  10.184  0.4550  2.4137  0.9392
   18MPD2    H2  283   3.059   2.505  10.608 -2.4550 -2.1741  1.2948
   18MPD2    H3  284   3.134   2.587  10.380  1.4160 -1.2218  0.6475
   18MPD2     N  285   2.832   2.342  10.160 -0.2618  0.6016 -0.4715
   18MPD2    H5  286   2.898   2.356  10.085  1.9347 -0.4661  1.2768
   18MPD2    N1  287   2.818   2.381  10.640  0.1481  0.2667  0.0455
   18MPD2    H7  288   2.734   2.324  10.633 -1.3888  2.6372 -0.7875
   19TMC2    C1  289   3.945   2.419  14.149 -0.8937  0.6851 -0.4659
   19TMC2    C2  290   3.957   2.547  14.117  0.0731  0.4610 -0.5078
   19TMC2    C3  291   3.845   2.610  14.074 -0.1719  0.0500 -0.2218
   19TMC2    C4  292   3.819   2.353  14.124  0.2327  0.0506  0.1364
   19TMC2    C5  293   3.708   2.426  14.095  0.6770 -0.4177  0.1182
   19TMC2    C6  294   3.725   2.559  14.056  0.1821 -0.1464 -0.5260
   19TMC2     C  295   4.063   2.340  14.181  0.1810  0.9974 -0.3240
   19TMC2     O  296   4.167   2.386  14.143 -0.1486 -0.2484 -0.0463
   19TMC2     H  297   4.047   2.602  14.143  0.1283 -0.0388  0.3715
   19TMC2    H1  298   3.816   2.248  14.152 -1.0575  0.4173  1.3617
   19TMC2    H2  299   3.640   2.620  14.028  0.3654  0.8817  1.2029
   19TMC2    C7  300   3.587   2.348  14.108  0.7952  0.3302  0.1073
   19TMC2    C8  301   3.852   2.756  14.055  0.0132  0.8853  0.6101
   19TMC2    O1  302   3.580   2.256  14.190 -0.0437  0.2537 -0.1163
   19TMC2    O2  303   3.749   2.820  14.040  0.2283  0.4089  0.0955
   19TMC2    O5  304   3.969   2.809  14.015 -0.1592  0.0931 -0.4089
   19TMC2    H5  305   4.047   2.750  14.019 -0.5031 -0.4043 -1.1320
   20MPD2     C  306   4.261   2.147  14.249 -0.3817 -0.0304 -0.1162
   20MPD2    C1  307   4.142   2.155  14.320 -0.2974  0.3338 -0.4768
   20MPD2    C2  308   4.135   2.094  14.443 -0.3609  0.2801  0.2448
   20MPD2    C3  309   4.245   2.037  14.495  0.2381  0.2246  0.7381
   20MPD2    C4  310   4.366   2.035  14.416 -0.3723 -1.4564 -0.0757
   20MPD2    C5  311   4.373   2.098  14.297  0.1304 -0.5375  0.1954
   20MPD2     H  312   4.040   2.104  14.495 -1.5813  1.4689 -2.2426
   20MPD2    H1  313   4.455   1.991  14.461  0.8717  1.6077  0.4862
   20MPD2    H2  314   4.267   2.180  14.145 -0.1614  0.1639 -0.0394
   20MPD2    H3  315   4.466   2.095  14.241 -0.9010  1.0860 -1.5880
   20MPD2     N  316   4.252   2.003  14.629  0.1194  0.3620  0.4988
   20MPD2    H5  317   4.344   2.021  14.667  0.6850  0.1613 -0.7880
   20MPD2    N1  318   4.038   2.238  14.271  0.0373 -0.0353 -0.0024
   20MPD2    H7  319   3.943   2.223  14.304 -0.3375 -3.0450 -2.3742
   21MPD2     C  320   1.661   3.290  13.900  0.1433  0.2782  0.2704
   21MPD2    C1  321   1.759   3.197  13.932  0.1406 -0.3851  0.0635
   21MPD2    C2  322   1.725   3.066  13.970  0.0091 -0.1679 -0.0115
   21MPD2    C3  323   1.596   3.032  13.997 -0.2983  0.2215  0.4027
   21MPD2    C4  324   1.498   3.130  13.979  0.9431 -0.2903  0.6424
   21MPD2    C5  325   1.530   3.250  13.924  0.1664 -0.5759  0.0680
   21MPD2     H  326   1.800   2.988  13.969 -0.5608 -0.6974 -1.8209
   21MPD2    H1  327   1.397   3.107  14.011  1.6276 -1.7786  1.7128
   21MPD2    H2  328   1.683   3.394  13.877 -0.8212  0.6719  1.1434
   21MPD2    H3  329   1.455   3.328  13.931  0.2677 -0.6157  1.7136
   21MPD2     N  330   1.553   2.904  14.038  0.2574 -0.4491  0.2964
   21MPD2    H5  331   1.457   2.897  14.069  0.1563 -0.3456  0.0070
   21MPD2    N1  332   1.898   3.220  13.907  0.1840 -0.0381 -1.0932
   21MPD2    H7  333   1.961   3.140  13.898  1.2676  0.3810  2.8209
   22TCq2    C1  334   1.627   2.796  14.047  0.1294 -0.1948  0.2558
   22TCq2    O2  335   1.745   2.772  14.039  0.3209  0.7567 -0.0658
   22TCq2    C2  336   1.546   2.686  14.102  0.1233 -0.6931  0.0867
   22TCq2    C3  337   1.599   2.557  14.092 -0.9146  0.4883 -0.4884
   22TCq2    C4  338   1.543   2.453  14.169 -0.9604  0.2368 -0.3523
   22TCq2    C5  339   1.449   2.485  14.267  0.5608  0.4449  0.3510
   22TCq2    C6  340   1.395   2.615  14.268  0.0811 -0.2218  0.7994
   22TCq2    C7  341   1.441   2.713  14.187  0.7154 -0.6202 -0.1177
   22TCq2    C8  342   1.318   2.664  14.381  0.6843 -0.1766 -0.4757
   22TCq2    O4  343   1.336   2.603  14.486 -0.4646  0.4228 -0.2200
   22TCq2    C9  344   1.617   2.332  14.177  0.1726 -0.4772  0.2339
   22TCq2    O5  345   1.566   2.241  14.247  0.4610  0.1556 -0.3264
   22TCq2    O6  346   1.712   2.323  14.097 -0.7290 -0.2358  0.9290
   22TCq2    H2  347   1.684   2.542  14.026 -1.6415 -0.0486 -1.2961
   22TCq2    H3  348   1.424   2.411  14.343 -0.6772  0.0039 -0.4771
   22TCq2    H4  349   1.409   2.816  14.198  1.0687 -0.7115  1.7046
   23MPD2     C  350   2.956   3.530  14.110  0.5641 -0.0347 -0.3806
   23MPD2    C1  351   2.982   3.619  14.218 -0.2644 -0.5982  0.3610
   23MPD2    C2  352   2.954   3.756  14.197  0.5656  0.3616 -0.1963
   23MPD2    C3  353   2.889   3.803  14.083  0.3747  0.0492  0.7939
   23MPD2    C4  354   2.868   3.716  13.986  0.5135  0.1056  0.8484
   23MPD2    C5  355   2.906   3.584  13.997 -0.1099 -0.0527  0.0315
   23MPD2     H  356   2.989   3.825  14.273 -1.8605  0.5617  0.7430
   23MPD2    H1  357   2.833   3.754  13.891  1.1727  0.1642  0.6268
   23MPD2    H2  358   2.985   3.426  14.106  0.1189 -0.1313 -1.1148
   23MPD2    H3  359   2.894   3.520  13.911 -0.8614  1.3734 -0.9358
   23MPD2     N  360   2.836   3.936  14.070 -0.4034  0.1603 -0.0297
   23MPD2    H5  361   2.790   3.960  13.983  1.2052 -0.8765 -1.1586
   23MPD2    N1  362   3.045   3.580  14.333  0.2593 -0.6176 -0.1866
   23MPD2    H7  363   3.049   3.651  14.405 -3.9092  0.4380 -1.0081
   24TCq2    C1  364   2.827   4.021  14.183  0.0679 -0.0445 -0.2210
   24TCq2    O2  365   2.863   4.007  14.298 -0.0511 -0.1675 -0.1329
   24TCq2    C2  366   2.728   4.124  14.158 -0.1437  0.4872  0.0240
   24TCq2    C3  367   2.647   4.176  14.255  0.0980 -0.7748 -0.4860
   24TCq2    C4  368   2.543   4.255  14.230 -0.1376 -0.1195  0.1463
   24TCq2    C5  369   2.504   4.272  14.099  0.0174  0.7722 -0.7263
   24TCq2    C6  370   2.588   4.225  13.993 -0.2327  0.7329 -0.0719
   24TCq2    C7  371   2.705   4.159  14.023  0.0386 -0.0327  0.0246
   24TCq2    C8  372   2.544   4.214  13.859  0.1860 -0.1344 -1.1086
   24TCq2    O4  373   2.631   4.201  13.771 -0.3423  0.3011  0.3609
   24TCq2    C9  374   2.455   4.315  14.334 -0.1817  0.2374  0.5883
   24TCq2    O5  375   2.354   4.379  14.288 -0.1187 -0.2314  0.0940
   24TCq2    O6  376   2.495   4.302  14.451  0.2732 -1.0324 -0.2546
   24TCq2    H2  377   2.670   4.157  14.359  1.1121 -1.5071 -0.8371
   24TCq2    H3  378   2.409   4.320  14.078 -0.2328  0.1096 -1.0878
   24TCq2    H4  379   2.771   4.121  13.946  1.2007  0.1397  0.9228
   25TMC2    C1  380   2.260   1.152  11.748 -0.3600 -0.6791 -0.4166
   25TMC2    C2  381   2.366   1.163  11.829  0.4302 -0.2365 -0.0797
   25TMC2    C3  382   2.349   1.105  11.952  0.7982 -0.2246  0.5455
   25TMC2    C4  383   2.128   1.107  11.782  0.1914 -0.0210  0.2676
   25TMC2    C5  384   2.119   1.073  11.913 -0.1176 -0.5702 -0.5768
   25TMC2    C6  385   2.225   1.064  12.003  0.1161  0.2209  0.3523
   25TMC2     C  386   2.276   1.226  11.623 -0.3361  0.1757  0.2503
   25TMC2     O  387   2.357   1.321  11.622  0.1526  0.0063  0.4819
   25TMC2     H  388   2.460   1.189  11.782 -0.5007 -0.3294 -1.9745
   25TMC2    H1  389   2.053   1.089  11.705  0.1713  0.0790  0.2638
   25TMC2    H2  390   2.214   1.019  12.101 -0.5718 -0.7768 -0.1823
   25TMC2    C7  391   1.982   1.059  11.969  0.3447  0.2655 -0.1369
   25TMC2    C8  392   2.468   1.111  12.036  0.0480 -0.2605  0.4533
   25TMC2    O1  393   1.985   1.010  12.079 -0.4403  0.8431 -0.5213
   25TMC2    O2  394   2.571   1.160  11.991  0.3897 -0.3953  0.1887
   25TMC2    O5  395   2.468   1.011  12.126 -0.5342 -0.3851  0.4169
   25TMC2    H5  396   2.383   0.964  12.142 -1.2407 -0.5839 -3.7991
   26MPD2     C  397   2.299   1.227  11.114 -0.1050  0.6301  0.2658
   26MPD2    C1  398   2.204   1.139  11.153 -0.4083 -0.9068 -0.0305
   26MPD2    C2  399   2.175   1.125  11.287  0.3854  0.2135 -0.1554
   26MPD2    C3  400   2.237   1.199  11.382  0.3880 -0.1241  0.2083
   26MPD2    C4  401   2.325   1.294  11.338 -0.1052  0.1250 -0.1014
   26MPD2    C5  402   2.369   1.300  11.207  0.8531  0.0618 -0.1542
   26MPD2     H  403   2.096   1.058  11.321  0.1876  0.7090  0.3606
   26MPD2    H1  404   2.381   1.361  11.402 -0.7809 -0.7032  1.3588
   26MPD2    H2  405   2.335   1.233  11.012 -1.2410  0.9363 -0.1141
   26MPD2    H3  406   2.447   1.367  11.175 -1.5228  2.4987 -0.8552
   26MPD2     N  407   2.220   1.164  11.513 -0.3640  0.6633  0.1611
   26MPD2    H5  408   2.157   1.088  11.538 -0.6698  0.5499 -0.9460
   26MPD2    N1  409   2.146   1.066  11.045  0.9473 -0.3142 -0.9900
   26MPD2    H7  410   2.187   1.079  10.953  1.7385  0.8700 -0.4626
   27TMC2    C1  411   1.005   3.452  11.658 -0.0995  0.4607 -0.5641
   27TMC2    C2  412   0.964   3.443  11.532  0.2205 -0.0171 -0.2672
   27TMC2    C3  413   0.999   3.549  11.450  0.1078 -0.3676  0.7906
   27TMC2    C4  414   1.080   3.560  11.708 -0.5642 -0.0170 -0.3234
   27TMC2    C5  415   1.116   3.655  11.620  0.9945 -0.2157  0.5347
   27TMC2    C6  416   1.077   3.660  11.489  1.3600  0.2314 -0.0013
   27TMC2     C  417   0.962   3.352  11.751 -0.0520 -0.0069  0.0042
   27TMC2     O  418   0.956   3.233  11.718  0.0321 -0.1164  0.1303
   27TMC2     H  419   0.909   3.355  11.500 -1.4862  0.7368  0.6309
   27TMC2    H1  420   1.132   3.548  11.802  0.0896  1.3753 -0.5093
   27TMC2    H2  421   1.111   3.730  11.414  2.0736 -1.6941 -1.4601
   27TMC2    C7  422   1.122   3.788  11.679  0.6294 -0.6002  0.1946
   27TMC2    C8  423   0.950   3.551  11.314 -0.5133  0.8500 -0.1537
   27TMC2    O1  424   1.144   3.875  11.596  0.0874 -0.0492 -0.2920
   27TMC2    O2  425   0.909   3.451  11.255 -0.7186 -0.8703  0.1950
   27TMC2    O5  426   0.918   3.680  11.279  0.3812 -0.0764 -0.1023
   27TMC2    H5  427   0.913   3.744  11.353  0.8448  0.4504 -0.5267
   28MPD2     C  428   0.731   3.228  12.177  0.3264 -0.6844  0.8032
   28MPD2    C1  429   0.704   3.359  12.157  0.4969 -0.4129 -0.5500
   28MPD2    C2  430   0.781   3.430  12.063 -0.7374 -0.6641  0.7161
   28MPD2    C3  431   0.870   3.353  11.983 -0.0021  0.2599 -0.1139
   28MPD2    C4  432   0.900   3.224  12.014  0.7641  0.0786 -0.1564
   28MPD2    C5  433   0.836   3.163  12.111  0.6574 -0.5135  0.0282
   28MPD2     H  434   0.768   3.536  12.046 -1.1693 -0.9739 -0.9234
   28MPD2    H1  435   0.973   3.166  11.958  0.3658 -1.3207  0.7562
   28MPD2    H2  436   0.690   3.173  12.261 -1.3872  0.5487  0.7889
   28MPD2    H3  437   0.854   3.057  12.129 -0.8956 -0.8914 -0.6041
   28MPD2     N  438   0.919   3.416  11.864  0.8088  0.3750  0.4962
   28MPD2    H5  439   0.909   3.517  11.851 -0.9758  0.2637  0.9954
   28MPD2    N1  440   0.601   3.418  12.243  0.6859  0.3034  0.2885
   28MPD2    H7  441   0.573   3.364  12.325  2.3105  0.3956  0.9236
   29MPD2     C  442   4.336   0.560  13.786  0.2791 -0.4126 -0.3960
   29MPD2    C1  443   4.418   0.537  13.894 -0.1642 -0.5360 -0.4110
   29MPD2    C2  444   4.470   0.646  13.961 -0.1868  0.2102  0.4832
   29MPD2    C3  445   4.446   0.776  13.928  0.4228 -0.3463  0.4145
   29MPD2    C4  446   4.356   0.796  13.828  0.2772 -0.5757  0.1765
   29MPD2    C5  447   4.313   0.687  13.760 -0.3298 -0.0897  0.4107
   29MPD2     H  448   4.541   0.627  14.041  0.9176 -0.6123 -0.6887
   29MPD2    H1  449   4.326   0.896  13.798 -0.3911 -1.2498 -1.4338
   29MPD2    H2  450   4.289   0.485  13.724  1.7253 -1.1514 -0.6025
   29MPD2    H3  451   4.239   0.706  13.684  0.1970  2.0067  0.4115
   29MPD2     N  452   4.497   0.885  14.001  0.4553  0.1444 -0.0379
   29MPD2    H5  453   4.446   0.971  13.985 -0.8609 -0.4953  0.7768
   29MPD2    N1  454   4.466   0.407  13.930 -0.3826  0.1392  0.1576
   29MPD2    H7  455   4.538   0.405  14.001 -1.1360  1.6657  0.9634
   30TCq2    C1  456   4.579   0.868  14.118 -0.2140 -0.1676 -0.3834
   30TCq2    O2  457   4.654   0.781  14.154 -0.0403 -0.0636 -0.0822
   30TCq2    C2  458   4.587   0.990  14.189 -0.4242 -0.0061 -0.4020
   30TCq2    C3  459   4.572   0.980  14.321  0.7147 -0.4855 -0.2727
   30TCq2    C4  460   4.613   1.090  14.391 -0.4038 -0.4864  0.1322
   30TCq2    C5  461   4.671   1.206  14.334  0.4857 -0.1918  0.6989
   30TCq2    C6  462   4.681   1.211  14.197  0.1385 -0.5367 -0.5755
   30TCq2    C7  463   4.644   1.103  14.125 -0.2521  0.3429 -0.3109
   30TCq2    C8  464   4.704   1.338  14.127  0.5282  0.8502 -0.0275
   30TCq2    O4  465   4.644   1.364  14.023  0.0913  0.0474  0.4606
   30TCq2    C9  466   4.587   1.089  14.532  0.4182 -0.7903 -0.1209
   30TCq2    O5  467   4.524   0.988  14.586  0.0996  0.8407 -0.0342
   30TCq2    O6  468   4.597   1.197  14.592  0.0245  0.2792  0.1265
   30TCq2    H2  469   4.527   0.895  14.370 -2.5220  1.0373 -0.5885
   30TCq2    H3  470   4.692   1.291  14.398 -1.8183  0.7131  0.2382
   30TCq2    H4  471   4.666   1.099  14.019 -1.2558  1.0455 -0.5424
   31MPD2     C  472   2.551   0.464  14.677  0.1709  0.9991 -0.1946
   31MPD2    C1  473   2.611   0.383  14.586  0.0804  0.8749 -0.0605
   31MPD2    C2  474   2.675   0.273  14.635  0.3440  0.1483 -0.0837
   31MPD2    C3  475   2.699   0.249  14.772  0.3487 -0.0805 -0.3724
   31MPD2    C4  476   2.649   0.344  14.864  0.7053 -0.1571 -0.4380
   31MPD2    C5  477   2.573   0.447  14.811  0.5690  0.0054  0.0158
   31MPD2     H  478   2.708   0.196  14.566  0.4581  1.5883 -1.6660
   31MPD2    H1  479   2.656   0.330  14.971  1.7221  3.0020 -0.1005
   31MPD2    H2  480   2.483   0.546  14.653  0.8400  1.5424 -0.2235
   31MPD2    H3  481   2.533   0.515  14.885  2.3696  0.7837  0.2696
   31MPD2     N  482   2.768   0.139  14.829  0.2160  0.0028  0.2345
   31MPD2    H5  483   2.787   0.140  14.929 -0.6657  0.5198  0.4023
   31MPD2    N1  484   2.586   0.395  14.446 -0.3671 -0.4995 -0.6618
   31MPD2    H7  485   2.610   0.309  14.398 -0.1362  0.4843 -2.2850
   32TCq2    C1  486   2.830   0.035  14.757 -0.6084 -0.1491  0.3153
   32TCq2    O2  487   2.846   0.023  14.633  0.7441  0.6266  0.2976
   32TCq2    C2  488   2.867   4.645  14.843 -0.1189  0.0292 -0.6897
   32TCq2    C3  489   2.939   4.554  14.780 -0.6484 -0.3487  0.4052
   32TCq2    C4  490   2.966   4.444  14.851  0.1516  0.5500 -0.0006
   32TCq2    C5  491   2.926   4.421  14.978  0.0564 -0.7751  0.1312
   32TCq2    C6  492   2.838   4.513  15.030 -0.1056 -0.0670  0.4683
   32TCq2    C7  493   2.804   4.627  14.960 -0.6991 -0.5085 -0.4410
   32TCq2    C8  494   2.770   4.464  15.152  0.4154  0.6911 -0.3254
   32TCq2    O4  495   2.834   4.404  15.235  0.5793  0.4128  0.8152
   32TCq2    C9  496   3.025   4.342  14.773 -0.1200  0.2920  0.0146
   32TCq2    O5  497   3.032   4.355  14.651 -0.3937 -0.5692 -0.0521
   32TCq2    O6  498   3.055   4.235  14.834 -0.6248  0.0927  0.1122
   32TCq2    H2  499   2.978   4.571  14.680  0.3752 -0.3052  0.8215
   32TCq2    H3  500   2.944   4.321  15.017 -1.2532 -1.1223 -0.1435
   32TCq2    H4  501   2.748   4.709  15.003  0.7438  1.0412 -1.5126
   33MPD2     C  502   2.891   2.427   9.487  0.4342  0.1818  1.0520
   33MPD2    C1  503   2.952   2.315   9.538  0.5585  0.4402 -0.2749
   33MPD2    C2  504   3.069   2.267   9.472 -0.1246 -0.0078  0.6148
   33MPD2    C3  505   3.120   2.338   9.366  0.5595  0.0797 -0.0819
   33MPD2    C4  506   3.056   2.456   9.326 -0.2238 -0.1324 -0.0918
   33MPD2    C5  507   2.943   2.498   9.380 -0.0066  0.4065 -0.2116
   33MPD2     H  508   3.114   2.180   9.519 -0.4943 -0.4808  0.0902
   33MPD2    H1  509   3.102   2.518   9.249  0.7812  0.7294  1.1987
   33MPD2    H2  510   2.803   2.471   9.534 -1.3760 -2.8466  0.5257
   33MPD2    H3  511   2.886   2.584   9.346  1.0609  0.3052 -2.2374
   33MPD2     N  512   3.235   2.301   9.295 -0.1214 -0.5959 -0.0191
   33MPD2    H5  513   3.268   2.356   9.216  1.1462  0.9213  1.5774
   33MPD2    N1  514   2.892   2.262   9.659 -0.2260 -0.0547 -0.2556
   33MPD2    H7  515   2.821   2.323   9.697  0.3875  1.1095 -0.9868
   34TCq2    C1  516   3.288   2.173   9.297 -0.2275  0.3618  0.8975
   34TCq2    O2  517   3.234   2.067   9.331 -0.2188 -0.7353  0.3383
   34TCq2    C2  518   3.406   2.170   9.203 -0.2443  0.4699 -0.5409
   34TCq2    C3  519   3.455   2.047   9.164  0.9368 -0.2311 -0.4847
   34TCq2    C4  520   3.580   2.043   9.106  0.5756  1.0093  0.2729
   34TCq2    C5  521   3.650   2.153   9.077  0.1372  0.5344  0.2814
   34TCq2    C6  522   3.594   2.271   9.111  0.0212 -0.7775 -0.1491
   34TCq2    C7  523   3.478   2.286   9.185 -0.7655 -0.2539 -0.1446
   34TCq2    C8  524   3.669   2.395   9.090 -0.6002 -0.3598  0.3327
   34TCq2    O4  525   3.626   2.502   9.138  0.6818  0.0601 -0.6424
   34TCq2    C9  526   3.626   1.905   9.086  0.8867  0.2374 -0.3465
   34TCq2    O5  527   3.542   1.815   9.108 -0.2918  0.2002 -0.2184
   34TCq2    O6  528   3.732   1.891   9.027 -0.3111  0.1934 -0.2065
   34TCq2    H2  529   3.407   1.959   9.204  1.9936 -0.8367 -0.5645
   34TCq2    H3  530   3.738   2.150   9.015 -0.0294  1.7104 -0.0328
   34TCq2    H4  531   3.453   2.385   9.221  0.5295  0.8639 -2.2973
   35MPD2     C  532   0.372   4.055  11.451 -0.1059  0.3322  0.5433
   35MPD2    C1  533   0.326   3.957  11.539 -0.3946 -0.6593  0.4997
   35MPD2    C2  534   0.250   3.860  11.481  0.0191  0.2375  0.8876
   35MPD2    C3  535   0.197   3.880  11.354  0.2984  0.2944  1.3097
   35MPD2    C4  536   0.244   3.972  11.268 -0.0761 -0.8437  0.2981
   35MPD2    C5  537   0.329   4.066  11.318 -0.3152 -0.3738  0.2978
   35MPD2     H  538   0.211   3.780  11.544  0.2058  0.0284  0.7343
   35MPD2    H1  539   0.212   3.982  11.165  0.4235 -2.0669  0.0239
   35MPD2    H2  540   0.438   4.132  11.488  1.9190 -0.9154 -0.4575
   35MPD2    H3  541   0.367   4.147  11.258 -0.9481  0.4631  1.0165
   35MPD2     N  542   0.091   3.792  11.323 -0.0333 -0.2028  0.5446
   35MPD2    H5  543   0.061   3.729  11.397 -1.4960 -0.2757 -0.1228
   35MPD2    N1  544   0.354   3.967  11.677 -0.4020  0.1152  0.2775
   35MPD2    H7  545   0.384   4.055  11.717  1.6393 -1.4723  2.2588
   36TCq2    C1  546   0.023   3.789  11.203  0.9752  0.2051 -0.0241
   36TCq2    O2  547   0.029   3.857  11.101 -0.0012  0.6632  0.2200
   36TCq2    C2  548   4.645   3.685  11.212  0.6140 -0.2532  0.2465
   36TCq2    C3  549   4.541   3.678  11.124  0.0153  0.4324  0.0847
   36TCq2    C4  550   4.455   3.567  11.132  0.2829  0.3954 -0.2145
   36TCq2    C5  551   4.462   3.466  11.226 -0.1817  0.4729  0.0604
   36TCq2    C6  552   4.569   3.481  11.309 -0.1157 -0.3614 -0.2867
   36TCq2    C7  553   4.661   3.582  11.303 -0.2957 -0.6978 -0.3279
   36TCq2    C8  554   4.592   3.360  11.401 -0.2225  0.5727  0.2577
   36TCq2    O4  555   4.523   3.264  11.374 -0.2859  0.2927  0.5080
   36TCq2    C9  556   4.343   3.565  11.039  0.2038  0.0437  0.1328
   36TCq2    O5  557   4.334   3.648  10.944 -0.1910 -0.6001 -0.3397
   36TCq2    O6  558   4.263   3.472  11.059 -1.0858 -0.2933 -0.0320
   36TCq2    H2  559   4.523   3.768  11.067 -1.7145  1.0143  1.5344
   36TCq2    H3  560   4.395   3.381  11.228  1.7343 -0.9808  3.2399
   36TCq2    H4  561   0.033   3.577  11.359 -0.8859  2.4158  0.8995
   37TMC2    C1  562   2.066   3.711  11.259  0.9304 -1.2092 -0.1984
   37TMC2    C2  563   2.051   3.789  11.143 -0.2249 -0.2036  0.5582
   37TMC2    C3  564   2.146   3.795  11.050  0.1596 -0.0206 -0.7732
   37TMC2    C4  565   2.185   3.647  11.280  0.4699 -0.1694 -0.5943
   37TMC2    C5  566   2.283   3.666  11.191 -0.1569 -0.2763 -0.0220
   37TMC2    C6  567   2.271   3.737  11.073  0.5662  0.0965  0.6732
   37TMC2     C  568   1.948   3.687  11.344  0.5489  0.0745  0.1816
   37TMC2     O  569   1.839   3.711  11.300 -0.3089  0.1237  0.2648
   37TMC2     H  570   1.963   3.853  11.139  0.4493  0.8239  2.0804
   37TMC2    H1  571   2.203   3.584  11.366 -1.1230  0.0133 -0.1219
   37TMC2    H2  572   2.353   3.765  11.008 -0.4883 -0.8098 -1.0538
   37TMC2    C7  573   2.411   3.608  11.230 -0.5929 -0.2672 -0.0725
   37TMC2    C8  574   2.152   3.918  10.986 -0.7908 -0.6347 -0.4405
   37TMC2    O1  575   2.419   3.568  11.348 -0.1579 -0.4253  0.5047
   37TMC2    O2  576   2.239   4.002  10.993  0.3996  0.7099 -0.0686
   37TMC2    O5  577   2.050   3.923  10.904 -0.0434 -0.2288  0.0447
   37TMC2    H5  578   1.981   3.854  10.918 -2.4233  2.6742  2.7750
   38MPD2     C  579   1.698   3.576  11.788 -0.4106  0.4162 -0.4523
   38MPD2    C1  580   1.830   3.543  11.800 -0.9290 -0.4447 -0.1824
   38MPD2    C2  581   1.928   3.579  11.703  0.1862 -0.3531 -0.2280
   38MPD2    C3  582   1.886   3.628  11.583  0.1348  0.1420 -0.2921
   38MPD2    C4  583   1.754   3.661  11.565 -0.0641  0.7606 -0.7490
   38MPD2    C5  584   1.664   3.640  11.668  0.4570 -0.5226  0.7145
   38MPD2     H  585   2.031   3.549  11.720 -0.6579 -3.1044  0.0593
   38MPD2    H1  586   1.716   3.710  11.476  1.7792  0.8605 -1.4850
   38MPD2    H2  587   1.624   3.557  11.865  1.8550  0.8776  1.8766
   38MPD2    H3  588   1.559   3.666  11.656  0.5675 -1.1147 -1.4824
   38MPD2     N  589   1.978   3.651  11.473  0.0338  0.4553 -0.1380
   38MPD2    H5  590   2.075   3.624  11.489 -0.4497 -1.0336  0.3195
   38MPD2    N1  591   1.881   3.480  11.919 -0.1400 -0.0566  0.2757
   38MPD2    H7  592   1.981   3.463  11.922 -0.2199 -0.5548  0.0761
   39MPD2     C  593   0.326   0.444   1.106 -0.2103 -0.4489  0.5708
   39MPD2    C1  594   0.268   0.549   1.165 -0.5183  0.0161 -0.1992
   39MPD2    C2  595   0.140   0.577   1.125 -0.1061 -0.4688 -0.1102
   39MPD2    C3  596   0.066   0.498   1.032 -0.0445  0.4983  0.1192
   39MPD2    C4  597   0.127   0.389   0.982  0.0803 -0.4420 -0.4732
   39MPD2    C5  598   0.255   0.376   1.007 -0.2706 -0.0871  0.3789
   39MPD2     H  599   0.086   0.660   1.170  0.8088  0.1158 -0.0866
   39MPD2    H1  600   0.081   0.347   0.893 -3.5197 -1.2406  1.7640
   39MPD2    H2  601   0.426   0.413   1.136  0.6927 -0.1263 -2.0722
   39MPD2    H3  602   0.306   0.297   0.952  2.4491  1.9515 -0.0554
   39MPD2     N  603   4.654   0.524   0.991 -0.5059  0.0667 -0.6321
   39MPD2    H5  604   4.610   0.461   0.924  0.4480 -3.4937  2.0901
   39MPD2    N1  605   0.343   0.621   1.258 -0.3761  0.0138 -0.2209
   39MPD2    H7  606   0.435   0.584   1.280 -0.6408  0.8707  2.2375
   40TCq2    C1  607   0.293   0.712   1.350  0.0280 -0.1708  0.4152
   40TCq2    O2  608   0.174   0.729   1.379  0.4174  0.0406 -0.3754
   40TCq2    C2  609   0.405   0.774   1.426 -0.2731  0.7137  0.7741
   40TCq2    C3  610   0.392   0.813   1.557 -0.1388 -0.5262 -0.0046
   40TCq2    C4  611   0.468   0.918   1.595 -0.7697 -0.0814  0.5408
   40TCq2    C5  612   0.580   0.959   1.526 -0.8201  0.1207 -0.2629
   40TCq2    C6  613   0.606   0.902   1.406 -0.0074  0.0382 -0.7243
   40TCq2    C7  614   0.517   0.808   1.356  0.3048  0.7313 -0.3886
   40TCq2    C8  615   0.737   0.913   1.341  0.1698 -0.0221  0.1308
   40TCq2    O4  616   0.763   0.832   1.255  0.0208  0.9050 -0.5856
   40TCq2    C9  617   0.448   0.991   1.723  0.9453  0.0746 -0.6093
   40TCq2    O5  618   0.532   1.080   1.763 -0.6372  0.9484 -0.0967
   40TCq2    O6  619   0.350   0.944   1.790  0.0523 -0.0033 -0.3380
   40TCq2    H2  620   0.300   0.796   1.612  0.1872 -2.1881  0.0090
   40TCq2    H3  621   0.622   1.053   1.558  3.3625 -1.7477 -0.2096
   40TCq2    H4  622   0.532   0.768   1.256 -1.3158  2.0297 -1.1644
   41TMC2    C1  623   3.719   3.509  13.302  0.3347 -0.0342 -0.6947
   41TMC2    C2  624   3.780   3.628  13.342  0.3968  0.6056  0.5314
   41TMC2    C3  625   3.782   3.725  13.249 -0.4108  0.3757  0.0853
   41TMC2    C4  626   3.663   3.485  13.178 -0.5929  0.3570  0.1617
   41TMC2    C5  627   3.685   3.581  13.078 -1.0057 -0.8918 -0.2009
   41TMC2    C6  628   3.751   3.698  13.113  0.3192  0.1491  0.5004
   41TMC2     C  629   3.740   3.393  13.382 -0.1370 -0.7728  0.2269
   41TMC2     O  630   3.729   3.288  13.324  0.6012  0.0254  0.2053
   41TMC2     H  631   3.818   3.652  13.440  0.6554  0.9332  0.3508
   41TMC2    H1  632   3.612   3.393  13.152 -1.2114  0.5754  0.6080
   41TMC2    H2  633   3.775   3.770  13.036  0.2235 -0.3885 -0.0291
   41TMC2    C7  634   3.665   3.535  12.944 -0.2447  0.1510  0.0986
   41TMC2    C8  635   3.840   3.852  13.280  0.0693  0.3276 -0.1634
   41TMC2    O1  636   3.609   3.424  12.930  0.0563 -0.1149 -0.0711
   41TMC2    O2  637   3.923   3.869  13.372 -0.0804 -0.5022  0.3535
   41TMC2    O5  638   3.782   3.943  13.209  0.2097 -0.4957  0.0250
   41TMC2    H5  639   3.715   3.913  13.144 -1.2957 -1.1226  1.8657
   42MPD2     C  640   3.814   3.180  13.576  0.4152 -0.1775 -0.1225
   42MPD2    C1  641   3.762   3.303  13.608 -0.7329 -0.2458  0.0447
   42MPD2    C2  642   3.733   3.332  13.740  0.6116 -0.0944 -0.0438
   42MPD2    C3  643   3.761   3.236  13.837 -0.5087  0.6772 -0.3103
   42MPD2    C4  644   3.811   3.109  13.802 -0.5516 -0.5668  0.6971
   42MPD2    C5  645   3.842   3.084  13.672 -0.3370 -0.5705  0.8138
   42MPD2     H  646   3.704   3.435  13.757  0.1264 -0.0833 -0.9743
   42MPD2    H1  647   3.848   3.040  13.877 -0.1021 -0.1800  0.8327
   42MPD2    H2  648   3.842   3.153  13.475 -0.5790  0.4478 -0.5678
   42MPD2    H3  649   3.872   2.982  13.651 -1.0462 -1.1274  2.5398
   42MPD2     N  650   3.746   3.262  13.978  0.2991 -0.5071 -0.3713
   42MPD2    H5  651   3.766   3.191  14.048  0.4303 -1.7287 -1.6413
   42MPD2    N1  652   3.759   3.411  13.517  0.6032  0.8152 -0.2725
   42MPD2    H7  653   3.734   3.505  13.546 -0.7997  0.1425  0.7027
   43MPD2     C  654   0.062   1.580   0.307 -0.2434 -0.3001  0.2072
   43MPD2    C1  655   0.186   1.598   0.371  0.2471 -0.4616 -0.0707
   43MPD2    C2  656   0.191   1.607   0.509  0.3438  0.2021 -0.2900
   43MPD2    C3  657   0.069   1.604   0.579  0.8117  0.4271 -0.2912
   43MPD2    C4  658   4.671   1.581   0.513 -0.5014  0.5928 -0.0972
   43MPD2    C5  659   4.672   1.561   0.381 -0.5890  0.9237  0.5703
   43MPD2     H  660   0.290   1.621   0.551  1.0930  1.1772 -2.3800
   43MPD2    H1  661   4.573   1.585   0.560 -0.3888  0.4880  0.1488
   43MPD2    H2  662   0.061   1.551   0.202 -1.3564 -0.9543  0.3908
   43MPD2    H3  663   4.574   1.551   0.334 -0.0446 -2.0482  0.0692
   43MPD2     N  664   0.064   1.614   0.726  0.1032  0.4205  0.2041
   43MPD2    H5  665   4.693   1.608   0.769  1.2733 -1.2355  2.4452
   43MPD2    N1  666   0.301   1.599   0.298  0.2033 -0.2750  0.3586
   43MPD2    H7  667   0.389   1.595   0.349  0.5048  0.8748 -0.0594
   44TCq2    C1  668   0.271   1.596   1.276 -0.0878 -0.3522  0.2421
   44TCq2    O2  669   0.375   1.531   1.269  0.2082 -0.3572 -0.4405
   44TCq2    C2  670   0.162   1.594   1.176 -0.2552 -0.2275  0.5296
   44TCq2    C3  671   0.047   1.668   1.205 -0.1756 -0.1525 -0.3195
   44TCq2    C4  672   4.696   1.707   1.102 -0.1842 -0.1566 -0.5774
   44TCq2    C5  673   0.009   1.675   0.971  0.0207 -0.3042 -0.7377
   44TCq2    C6  674   0.129   1.619   0.945 -0.8088 -0.2217  0.8312
   44TCq2    C7  675   0.207   1.575   1.050  0.1123 -0.3370  0.3697
   44TCq2    C8  676   0.179   1.604   0.809  0.3996  0.1182 -0.0049
   44TCq2    O4  677   0.294   1.580   0.784  0.4678 -0.4208  0.7622
   44TCq2    C9  678   4.580   1.786   1.127 -0.1549  1.1140  0.6022
   44TCq2    O5  679   4.587   1.854   1.230 -0.6979 -0.3025 -0.3188
   44TCq2    O6  680   4.508   1.814   1.028  0.7068  0.2065  0.6663
   44TCq2    H2  681   0.013   1.667   1.308 -0.6484 -1.5071 -0.4831
   44TCq2    H3  682   4.660   1.712   0.897  0.2159  0.8807 -0.3275
   44TCq2    H4  683   0.300   1.524   1.025 -0.0001 -1.5537  2.4834
   45TMC2    C1  684   1.656   3.869   9.492 -0.3958 -0.1742  0.2188
   45TMC2    C2  685   1.569   3.968   9.508  0.1305  0.2572 -0.8431
   45TMC2    C3  686   1.614   4.089   9.560  0.0216 -0.0325  0.8253
   45TMC2    C4  687   1.785   3.866   9.535 -0.2114 -0.3712 -0.4691
   45TMC2    C5  688   1.818   3.984   9.599 -0.0534  0.5204  0.9299
   45TMC2    C6  689   1.738   4.099   9.606 -0.3145 -0.2404  0.1226
   45TMC2     C  690   1.610   3.743   9.429  0.4668  0.3227 -0.1623
   45TMC2     O  691   1.685   3.643   9.425  0.1826 -0.5373 -0.2961
   45TMC2     H  692   1.463   3.949   9.520  0.8607 -2.2462  1.5408
   45TMC2    H1  693   1.840   3.773   9.540  2.8620  1.3799 -1.5348
   45TMC2    H2  694   1.774   4.197   9.634 -3.3977  0.4759  1.4695
   45TMC2    C7  695   1.948   3.987   9.668  0.6650 -0.4369 -0.0895
   45TMC2    C8  696   1.528   4.197   9.584  0.5665 -0.1777  0.0927
   45TMC2    O1  697   2.028   3.902   9.632 -0.6242 -0.6229 -0.5548
   45TMC2    O2  698   1.552   4.280   9.670  0.2561 -0.3371 -0.4410
   45TMC2    O5  699   1.398   4.147   9.564  0.1156 -0.5867 -0.1318
   45TMC2    H5  700   1.377   4.086   9.489  1.0078 -1.2140  0.1310
   46MPD2     C  701   1.436   3.514   9.336 -0.3871 -0.1969  0.4038
   46MPD2    C1  702   1.421   3.651   9.300  0.1299 -0.2308 -0.4980
   46MPD2    C2  703   1.313   3.688   9.217  0.1805 -0.6730 -0.1243
   46MPD2    C3  704   1.241   3.601   9.148 -0.6090  0.8912  0.1663
   46MPD2    C4  705   1.261   3.461   9.177  0.0522  0.2701  0.4480
   46MPD2    C5  706   1.365   3.425   9.260  0.3228 -0.4385  0.7164
   46MPD2     H  707   1.291   3.793   9.201 -1.3692 -1.0021 -0.2102
   46MPD2    H1  708   1.204   3.387   9.122  0.4100 -0.2904  0.8264
   46MPD2    H2  709   1.508   3.478   9.409 -0.4619  0.1034  0.6304
   46MPD2    H3  710   1.393   3.322   9.276  1.0653 -0.4067 -0.3341
   46MPD2     N  711   1.138   3.641   9.057 -0.3884 -0.3893  0.4890
   46MPD2    H5  712   1.132   3.742   9.051  1.1107 -0.3562 -0.3819
   46MPD2    N1  713   1.487   3.755   9.366  0.2820 -0.2194  0.8301
   46MPD2    H7  714   1.460   3.850   9.340 -3.1059 -0.7745  2.3218
   47TMC2    C1  715   4.416   0.116   8.992 -1.0973  0.5758 -0.1193
   47TMC2    C2  716   4.378   0.250   8.977  0.2690  0.0426 -0.3694
   47TMC2    C3  717   4.268   0.273   8.894  0.2723  0.3579 -0.4143
   47TMC2    C4  718   4.362   0.022   8.908  0.6126  0.0733  0.3839
   47TMC2    C5  719   4.249   0.052   8.827 -0.0898  0.3496  0.0912
   47TMC2    C6  720   4.199   0.171   8.830  0.7024  0.4220 -0.6587
   47TMC2     C  721   4.513   0.094   9.094  0.3099 -0.7328  0.3044
   47TMC2     O  722   4.583   0.186   9.128  0.2280 -0.2133  0.5354
   47TMC2     H  723   4.425   0.333   9.029  0.0666 -2.1151  3.2379
   47TMC2    H1  724   4.387   4.641   8.933 -0.1004 -0.5107 -1.2891
   47TMC2    H2  725   4.122   0.189   8.756 -0.5715 -0.8037  0.3633
   47TMC2    C7  726   4.155   4.665   8.797  0.5109  0.0014  0.7558
   47TMC2    C8  727   4.210   0.406   8.898 -0.0364  0.0231  0.8982
   47TMC2    O1  728   4.037   4.691   8.774  1.0635 -0.2858 -0.6444
   47TMC2    O2  729   4.276   0.500   8.939 -0.2537 -0.3028  0.1471
   47TMC2    O5  730   4.087   0.386   8.945  0.0444 -0.4212  0.0860
   47TMC2    H5  731   4.039   0.310   8.906  0.4113 -1.1223  1.0052
   48MPD2     C  732   4.681   4.718   9.320 -0.1393  0.3204 -1.0796
   48MPD2    C1  733   4.603   4.636   9.242  0.0647 -0.8046  0.0108
   48MPD2    C2  734   4.606   4.499   9.265  1.0300 -0.0785 -0.2190
   48MPD2    C3  735   4.670   4.447   9.376  0.1821  0.3470 -0.5903
   48MPD2    C4  736   0.017   4.528   9.469  0.2780  0.0333  0.0009
   48MPD2    C5  737   0.031   4.662   9.427  0.4353 -0.7790  0.1642
   48MPD2     H  738   4.535   4.431   9.219  0.0268  0.2374  0.8656
   48MPD2    H1  739   0.066   4.484   9.555  1.7631 -0.2113 -0.9619
   48MPD2    H2  740   4.691   0.102   9.296  0.0258  0.7598  0.9852
   48MPD2    H3  741   0.095   4.715   9.496 -0.0774 -0.4533  0.3936
   48MPD2     N  742   4.667   4.307   9.384 -0.0633  0.1828  0.0327
   48MPD2    H5  743   4.625   4.264   9.303  1.0349 -2.8135  1.0745
   48MPD2    N1  744   4.527   4.684   9.125 -0.7387 -0.0536 -0.1990
   48MPD2    H7  745   4.463   4.620   9.078 -0.1015  0.1126 -1.3105
   49MPD2     C  746   1.837   1.083  10.667  0.2661 -0.5686 -0.0637
   49MPD2    C1  747   1.759   1.117  10.776  0.0058 -0.7429 -0.6374
   49MPD2    C2  748   1.806   1.215  10.861  0.5005  0.0879  0.2632
   49MPD2    C3  749   1.918   1.292  10.832  0.1790 -0.0570  0.3845
   49MPD2    C4  750   1.981   1.268  10.716  0.5351 -0.2022 -0.0925
   49MPD2    C5  751   1.943   1.163  10.636 -0.5577 -0.1251 -0.5259
   49MPD2     H  752   1.741   1.229  10.946  0.5438 -0.7199  0.4275
   49MPD2    H1  753   2.054   1.341  10.682 -0.2101  0.6225  0.0740
   49MPD2    H2  754   1.808   1.014  10.589  0.9820  0.8279 -1.5757
   49MPD2    H3  755   1.995   1.146  10.542  1.7236  1.7660  0.3881
   49MPD2     N  756   1.967   1.395  10.916 -0.5251  0.2286  0.1489
   49MPD2    H5  757   2.045   1.444  10.875 -0.0514 -0.1453  0.5988
   49MPD2    N1  758   1.644   1.045  10.819 -0.5029 -0.1531 -0.2206
   49MPD2    H7  759   1.605   1.067  10.910 -1.6952  0.3486 -0.8495
   50TCq2    C1  760   1.586   0.946  10.745 -0.2646 -0.2521 -0.0019
   50TCq2    O2  761   1.621   0.904  10.634 -0.9945  0.0881 -0.2524
   50TCq2    C2  762   1.468   0.894  10.804  0.3148  0.3816  0.7246
   50TCq2    C3  763   1.406   0.795  10.738  0.1533  0.3901  0.1883
   50TCq2    C4  764   1.281   0.757  10.772 -0.2752 -0.3872  0.2232
   50TCq2    C5  765   1.222   0.810  10.880 -0.1445 -0.2050 -0.8772
   50TCq2    C6  766   1.295   0.903  10.956  0.4423  0.0883 -0.5210
   50TCq2    C7  767   1.414   0.951  10.918  0.2803  0.0484  0.4029
   50TCq2    C8  768   1.241   0.949  11.083 -0.3260 -0.0459  0.0731
   50TCq2    O4  769   1.279   1.059  11.118 -0.5355 -0.1943 -0.2217
   50TCq2    C9  770   1.212   0.658  10.690 -0.0864  0.1607  1.1856
   50TCq2    O5  771   1.088   0.650  10.712  0.4408  0.0480 -0.1708
   50TCq2    O6  772   1.283   0.603  10.602  0.0845  0.5361  0.3872
   50TCq2    H2  773   1.452   0.753  10.650  1.0295 -0.3041  0.9769
   50TCq2    H3  774   1.118   0.783  10.897 -0.1535  1.1695  1.1101
   50TCq2    H4  775   1.463   1.015  10.992  0.2298 -0.1140  0.5778
   51MPD2     C  776   2.370   4.400   1.373 -0.7965 -0.6387 -0.2036
   51MPD2    C1  777   2.258   4.377   1.452 -0.0641  0.3233 -0.5708
   51MPD2    C2  778   2.275   4.321   1.577  0.0768 -0.1944  0.1131
   51MPD2    C3  779   2.398   4.288   1.632  0.0167 -0.2213 -0.5010
   51MPD2    C4  780   2.505   4.305   1.549  0.1478  0.4117 -0.1008
   51MPD2    C5  781   2.491   4.357   1.425  0.4758 -0.0380 -0.0038
   51MPD2     H  782   2.192   4.316   1.647  0.7665  2.3822  1.0966
   51MPD2    H1  783   2.607   4.277   1.575 -0.2231 -0.3294  0.5549
   51MPD2    H2  784   2.372   4.434   1.270  1.3665 -4.1232 -1.2866
   51MPD2    H3  785   2.577   4.379   1.364 -0.4756 -0.6547 -1.5548
   51MPD2     N  786   2.410   4.251   1.771  0.5928  0.5471 -0.1964
   51MPD2    H5  787   2.323   4.229   1.819  0.3045 -1.1229 -1.4895
   51MPD2    N1  788   2.127   4.425   1.414 -0.4134  0.5106  0.5724
   51MPD2    H7  789   2.055   4.395   1.478  0.2329  1.6498  1.8290
   52TCq2    C1  790   2.530   4.270   1.846 -0.2206 -0.0345 -0.1764
   52TCq2    O2  791   2.641   4.293   1.803  0.1804 -0.5221 -0.3773
   52TCq2    C2  792   2.520   4.263   1.990 -0.2030 -0.5407 -0.0608
   52TCq2    C3  793   2.400   4.218   2.046  0.1012  0.7922 -0.0480
   52TCq2    C4  794   2.387   4.237   2.181  0.8115 -0.0389  0.1040
   52TCq2    C5  795   2.490   4.290   2.260  0.6849 -0.0455  0.1935
   52TCq2    C6  796   2.602   4.341   2.194  0.0983  0.0011 -0.2363
   52TCq2    C7  797   2.622   4.318   2.060 -0.4241  0.2215  0.2270
   52TCq2    C8  798   2.695   4.434   2.259 -0.0324 -0.1603 -0.3962
   52TCq2    O4  799   2.808   4.439   2.213  0.1273 -0.1134  0.2038
   52TCq2    C9  800   2.266   4.189   2.248 -0.2124  0.1969  0.3212
   52TCq2    O5  801   2.257   4.194   2.378  0.1835  0.6566 -0.0865
   52TCq2    O6  802   2.183   4.138   2.165  0.0728 -0.0178 -0.0679
   52TCq2    H2  803   2.318   4.171   1.994  1.8624 -0.3372 -1.8199
   52TCq2    H3  804   2.482   4.297   2.368  3.9920 -0.5308  0.4647
   52TCq2    H4  805   2.710   4.354   2.008  0.6394 -1.2486  1.0240
   53TMC2    C1  806   2.962   3.741  11.654 -0.2235 -0.4962  0.7861
   53TMC2    C2  807   3.070   3.745  11.734 -0.4250 -0.1631 -0.4706
   53TMC2    C3  808   3.056   3.773  11.865  0.5284  0.2304  0.1318
   53TMC2    C4  809   2.838   3.774  11.713  0.4518 -0.5572 -0.2482
   53TMC2    C5  810   2.837   3.832  11.832  0.1318  0.5477 -0.0912
   53TMC2    C6  811   2.941   3.834  11.915 -0.3600  0.0315  0.2227
   53TMC2     C  812   2.981   3.686  11.519 -0.2347  0.5302 -0.5235
   53TMC2     O  813   3.090   3.665  11.472  0.2448  0.1874 -0.0068
   53TMC2     H  814   3.159   3.695  11.697 -1.7247 -1.4541 -1.8708
   53TMC2    H1  815   2.754   3.794  11.648  0.8330 -0.0198 -0.5763
   53TMC2    H2  816   2.952   3.888  12.008 -1.2938 -1.0651  0.9826
   53TMC2    C7  817   2.710   3.865  11.885  0.1246  0.6162 -0.7089
   53TMC2    C8  818   3.167   3.771  11.954 -0.6000  0.3023 -0.4320
   53TMC2    O1  819   2.621   3.897  11.809  0.0210 -0.4368  0.1853
   53TMC2    O2  820   3.177   3.846  12.053 -0.7482 -0.1432  0.5428
   53TMC2    O5  821   3.259   3.690  11.914 -0.3904 -0.4744  0.9880
   53TMC2    H5  822   3.229   3.618  11.855  0.2959  0.0068  0.0537
   54MPD2     C  823   2.913   3.639  11.232 -0.3674  0.0660 -0.0118
   54MPD2    C1  824   2.822   3.643  11.334 -0.5784 -0.1762  0.0723
   54MPD2    C2  825   2.686   3.632  11.306  0.1579 -0.1567 -0.0058
   54MPD2    C3  826   2.639   3.629  11.175  0.2494  0.5966 -0.2923
   54MPD2    C4  827   2.732   3.637  11.073 -0.4886 -0.2550 -0.3257
   54MPD2    C5  828   2.864   3.634  11.099  0.4483  1.3216  0.1742
   54MPD2     H  829   2.619   3.640  11.390 -2.5310 -0.1092 -2.1842
   54MPD2    H1  830   2.692   3.640  10.972  0.6310 -0.2176 -0.7634
   54MPD2    H2  831   3.020   3.651  11.242 -0.4510 -1.5888  2.8538
   54MPD2    H3  832   2.932   3.634  11.015  2.2902 -2.0724  1.6974
   54MPD2     N  833   2.508   3.629  11.136 -0.8331 -0.1505  0.0697
   54MPD2    H5  834   2.486   3.637  11.037  1.3079 -1.2935 -0.5011
   54MPD2    N1  835   2.854   3.657  11.472  0.1023 -0.5789  0.5975
   54MPD2    H7  836   2.768   3.668  11.523  0.4542 -1.6244  1.4013
   55MPD2     C  837   2.915   0.877   0.292  0.2800  0.1635  0.1821
   55MPD2    C1  838   2.796   0.864   0.366 -0.1654  0.3313  0.1014
   55MPD2    C2  839   2.692   0.945   0.339  0.0652  0.2915  0.5055
   55MPD2    C3  840   2.700   1.050   0.256 -0.1451  0.4902 -0.4404
   55MPD2    C4  841   2.822   1.071   0.184  0.3725  0.1539 -0.6588
   55MPD2    C5  842   2.920   0.978   0.197  0.5052  0.0546  0.5807
   55MPD2     H  843   2.603   0.931   0.399 -0.3214  0.2093 -0.0870
   55MPD2    H1  844   2.828   1.163   0.128 -0.0859 -0.1732 -1.2421
   55MPD2    H2  845   2.995   0.805   0.288  0.7074  0.7977 -2.5758
   55MPD2    H3  846   3.012   0.975   0.140 -0.1295 -1.5869 -0.3408
   55MPD2     N  847   2.585   1.130   0.261 -0.0712 -0.1347  0.7016
   55MPD2    H5  848   2.510   1.104   0.323 -1.1128  0.9978 -0.0780
   55MPD2    N1  849   2.796   0.750   0.446  0.7349 -0.4978  0.2384
   55MPD2    H7  850   2.889   0.710   0.441  0.6355 -0.7427  0.3394
   56TCq2    C1  851   2.708   0.722   0.552 -0.4227 -0.1979  0.1095
   56TCq2    O2  852   2.601   0.777   0.568  0.2590  0.6791  0.5432
   56TCq2    C2  853   2.757   0.622   0.647 -0.1145 -0.3041  0.3230
   56TCq2    C3  854   2.879   0.563   0.635 -0.0691  1.0245 -0.0686
   56TCq2    C4  855   2.915   0.469   0.729  0.8376 -0.3715 -0.9066
   56TCq2    C5  856   2.829   0.436   0.830 -0.4140  0.4600  0.3649
   56TCq2    C6  857   2.701   0.486   0.829 -0.5799 -0.4960  0.0805
   56TCq2    C7  858   2.667   0.581   0.739 -0.3543  0.0588 -0.1440
   56TCq2    C8  859   2.597   0.404   0.885  0.0948  0.6162  0.7590
   56TCq2    O4  860   2.622   0.297   0.943 -0.4499 -0.6885 -0.1892
   56TCq2    C9  861   3.036   0.395   0.712  0.0075  0.4716  0.2919
   56TCq2    O5  862   3.084   0.397   0.592  0.0951 -0.5263  0.1467
   56TCq2    O6  863   3.098   0.367   0.816 -0.3009  0.0480  0.6580
   56TCq2    H2  864   2.951   0.602   0.563  2.9419 -1.6585  1.5092
   56TCq2    H3  865   2.864   0.363   0.903  2.8528 -0.1427 -1.8202
   56TCq2    H4  866   2.567   0.621   0.723 -0.1211  0.8974  0.5112
   57TMC2    C1  867   2.169   2.451  12.944  0.3128 -0.7997  0.3143
   57TMC2    C2  868   2.129   2.323  12.897 -0.5582 -0.6352  0.3327
   57TMC2    C3  869   2.215   2.265  12.804  0.0908 -0.3898  0.8824
   57TMC2    C4  870   2.286   2.510  12.907 -0.0265 -0.3273  0.1215
   57TMC2    C5  871   2.362   2.447  12.815 -0.4378  0.6333 -0.0441
   57TMC2    C6  872   2.336   2.323  12.759 -0.1569 -0.0508 -0.7253
   57TMC2     C  873   2.119   2.500  13.075 -0.0814  0.2212 -0.0335
   57TMC2     O  874   2.143   2.620  13.100 -0.2421  0.5318 -0.1339
   57TMC2     H  875   2.042   2.273  12.936 -0.9108 -1.2242 -1.2187
   57TMC2    H1  876   2.326   2.598  12.956  1.3134 -0.1528 -1.2998
   57TMC2    H2  877   2.405   2.271  12.693  0.4121 -0.7266  0.4122
   57TMC2    C7  878   2.504   2.483  12.822 -0.3131 -0.1841 -0.0085
   57TMC2    C8  879   2.193   2.130  12.775  0.0215  0.3848  0.1830
   57TMC2    O1  880   2.523   2.601  12.794 -0.0850  0.4780 -0.1281
   57TMC2    O2  881   2.126   2.053  12.841 -0.4006  0.5568  0.2132
   57TMC2    O5  882   2.190   2.126  12.642  0.6615 -0.5234  1.0591
   57TMC2    H5  883   2.192   2.219  12.614  1.1350 -1.0725 -0.7007
   58MPD2     C  884   1.945   2.458  13.554 -0.4142 -0.4922 -0.5395
   58MPD2    C1  885   1.939   2.564  13.466 -0.1221  1.0277 -0.7805
   58MPD2    C2  886   1.986   2.549  13.340  0.7930 -0.4073 -0.0989
   58MPD2    C3  887   2.021   2.427  13.289  0.6980 -0.4276  0.3502
   58MPD2    C4  888   2.015   2.315  13.370  0.0176 -0.0739  0.5367
   58MPD2    C5  889   1.991   2.338  13.499  0.2545  0.2540  1.1534
   58MPD2     H  890   1.982   2.630  13.267  2.8288  1.4736  1.8800
   58MPD2    H1  891   2.039   2.216  13.333 -0.4568  0.5697 -1.5091
   58MPD2    H2  892   1.916   2.458  13.658 -1.2153  0.5255 -0.7614
   58MPD2    H3  893   1.992   2.252  13.564 -0.3920  0.3250  1.2510
   58MPD2     N  894   2.076   2.397  13.161  0.1600  0.5851 -0.4060
   58MPD2    H5  895   2.075   2.300  13.133  1.3278  0.6032 -0.5127
   58MPD2    N1  896   1.893   2.694  13.510  0.8964  0.9138 -0.0413
   58MPD2    H7  897   1.917   2.771  13.448  2.2107  0.4650 -0.0872
   59MPD2     C  898   0.745   2.883  12.397 -0.1771  1.0210  0.1176
   59MPD2    C1  899   0.645   2.875  12.493 -0.2665 -0.2837  0.8127
   59MPD2    C2  900   0.684   2.875  12.631  0.0997 -0.0891 -0.1419
   59MPD2    C3  901   0.812   2.903  12.671 -0.3341  0.0796  0.1283
   59MPD2    C4  902   0.904   2.925  12.572  0.1130  0.2613 -0.1724
   59MPD2    C5  903   0.877   2.898  12.442  0.1532 -0.2897  0.2432
   59MPD2     H  904   0.602   2.870  12.703 -0.9326  1.7689 -1.1827
   59MPD2    H1  905   1.007   2.951  12.591  0.2496 -0.5321  0.1551
   59MPD2    H2  906   0.728   2.879  12.290 -1.5019 -0.9144  0.4132
   59MPD2    H3  907   0.956   2.909  12.369 -0.1182  0.3402  0.0425
   59MPD2     N  908   0.860   2.932  12.799 -0.6079  0.4054  0.5325
   59MPD2    H5  909   0.959   2.955  12.807 -0.2430 -1.0594  0.0510
   59MPD2    N1  910   0.505   2.847  12.468  0.1450  0.0657 -0.1127
   59MPD2    H7  911   0.446   2.812  12.543 -0.7865  0.2417 -0.7616
   60TCq2    C1  912   0.442   2.853  12.342  0.9761  0.2173 -0.0256
   60TCq2    O2  913   0.486   2.911  12.245 -0.0525  0.0112 -0.7550
   60TCq2    C2  914   0.302   2.810  12.336  0.2031 -0.0762 -0.1803
   60TCq2    C3  915   0.245   2.742  12.442  0.5023 -0.5655  0.3649
   60TCq2    C4  916   0.109   2.736  12.453  0.3908  0.7407 -0.6360
   60TCq2    C5  917   0.025   2.802  12.369  0.3613 -0.3029 -0.0374
   60TCq2    C6  918   0.084   2.877  12.265  0.0005  0.0870 -0.3187
   60TCq2    C7  919   0.222   2.882  12.248  0.9680  0.1295  0.3581
   60TCq2    C8  920   0.010   2.984  12.204 -0.0757  0.5696 -0.6619
   60TCq2    O4  921   4.616   2.972  12.209  0.3885 -0.1817  0.6271
   60TCq2    C9  922   0.056   2.674  12.575  0.6109 -0.1499 -0.6455
   60TCq2    O5  923   4.653   2.684  12.585  0.1979  0.2915  0.7446
   60TCq2    O6  924   0.141   2.651  12.660 -0.3868 -0.4633  0.3059
   60TCq2    H2  925   0.308   2.699  12.518 -1.0116 -4.0003 -0.3192
   60TCq2    H3  926   4.639   2.790  12.383  0.2162  1.9170  0.8032
   60TCq2    H4  927   0.273   2.919  12.160  1.8398 -0.6431  0.5391
   61MPD2     C  928   4.304   3.969  14.278  0.2557 -0.1089 -0.0982
   61MPD2    C1  929   4.166   3.982  14.297 -0.2708 -0.0129  0.1401
   61MPD2    C2  930   4.088   4.018  14.193 -0.3133  0.8611  0.1993
   61MPD2    C3  931   4.145   4.036  14.068  0.9376 -0.7940  0.3676
   61MPD2    C4  932   4.278   4.031  14.049 -0.6712 -0.3484 -0.5867
   61MPD2    C5  933   4.357   4.000  14.154  0.0244  0.4601  0.0223
   61MPD2     H  934   3.982   4.031  14.212 -0.1761 -0.0329  1.6304
   61MPD2    H1  935   4.325   4.048  13.953  0.2866 -1.2039 -0.2744
   61MPD2    H2  936   4.377   3.931  14.349  0.1610 -1.3492 -0.6700
   61MPD2    H3  937   4.459   3.979  14.127  0.5800 -0.7933  3.0743
   61MPD2     N  938   4.064   4.078  13.958  0.1813 -0.5497  0.8065
   61MPD2    H5  939   4.118   4.131  13.890 -1.7755  0.1517 -0.2278
   61MPD2    N1  940   4.102   3.970  14.427  0.3072 -0.0772  0.0272
   61MPD2    H7  941   4.002   3.989  14.435 -0.0628 -2.4289  0.8866
   62TCq2    C1  942   4.167   3.953  14.548 -0.3843  0.1958  0.2798
   62TCq2    O2  943   4.275   3.910  14.567  0.5469 -0.0980 -0.5407
   62TCq2    C2  944   4.085   3.962  14.669 -0.3863  0.0909 -0.1671
   62TCq2    C3  945   4.149   3.922  14.788  0.0488 -0.3016 -0.4542
   62TCq2    C4  946   4.098   3.955  14.911  0.0710  0.9520 -0.0833
   62TCq2    C5  947   3.990   4.033  14.920  0.5779 -0.6045  0.3211
   62TCq2    C6  948   3.940   4.094  14.799 -0.0268 -0.2171  0.8967
   62TCq2    C7  949   3.982   4.056  14.673 -0.5617 -0.3840  0.3433
   62TCq2    C8  950   3.853   4.206  14.804  0.3244  0.0273 -0.1288
   62TCq2    O4  951   3.888   4.287  14.889  0.4730 -0.1091  0.3643
   62TCq2    C9  952   4.167   3.951  15.038 -0.0485  0.4337 -0.1579
   62TCq2    O5  953   4.276   3.887  15.041 -0.0318  0.4893  0.5194
   62TCq2    O6  954   4.139   4.027  15.135  0.5121  0.3896  0.1573
   62TCq2    H2  955   4.247   3.876  14.777 -0.7996 -2.0817 -0.5366
   62TCq2    H3  956   3.946   4.055  15.017 -0.2107 -2.0938  0.3066
   62TCq2    H4  957   3.950   4.108  14.583  0.7331 -1.1239 -0.5569
   63TMC2    C1  958   4.261   4.016  10.403 -0.6645 -0.1177 -0.4255
   63TMC2    C2  959   4.305   4.038  10.529 -0.4523 -0.9298 -0.4400
   63TMC2    C3  960   4.423   4.098  10.555  0.4211  0.3455  0.5249
   63TMC2    C4  961   4.331   4.052  10.290  0.0403 -0.4856  0.4201
   63TMC2    C5  962   4.446   4.122  10.316 -0.2910  0.3484  0.4173
   63TMC2    C6  963   4.493   4.151  10.446  0.5019  0.0056  0.2963
   63TMC2     C  964   4.145   3.937  10.378  0.3127  0.8613  0.7497
   63TMC2     O  965   4.101   3.877  10.477 -0.1322  0.0055  0.2187
   63TMC2     H  966   4.240   4.018  10.613 -2.3206 -0.0249 -1.6680
   63TMC2    H1  967   4.304   4.023  10.190  0.9605  2.2904 -0.6375
   63TMC2    H2  968   4.588   4.197  10.470  0.7723 -0.4544  0.1178
   63TMC2    C7  969   4.479   4.213  10.203 -0.2029  0.3492  0.6867
   63TMC2    C8  970   4.442   4.156  10.689 -0.0734  0.6195 -0.0836
   63TMC2    O1  971   4.450   4.177  10.089 -0.8755  0.2599 -1.1525
   63TMC2    O2  972   4.489   4.271  10.698 -0.5480 -0.1795 -0.8973
   63TMC2    O5  973   4.382   4.071  10.784 -0.3830  0.7189 -0.1842
   63TMC2    H5  974   4.353   3.985  10.747 -0.7126  0.5449  0.4790
   64MPD2     C  975   3.782   3.772  10.057  0.4234 -0.0698  0.6089
   64MPD2    C1  976   3.843   3.709  10.169 -0.1531 -0.3729  0.3717
   64MPD2    C2  977   3.935   3.780  10.243  0.1847  0.2830  0.0440
   64MPD2    C3  978   3.971   3.910  10.207  0.2986  0.0003 -0.4284
   64MPD2    C4  979   3.913   3.965  10.100  0.0244  0.1347  0.1210
   64MPD2    C5  980   3.821   3.900  10.029 -0.3275 -0.4667  0.0798
   64MPD2     H  981   3.988   3.729  10.322 -0.7274 -0.5983  0.0876
   64MPD2    H1  982   3.943   4.064  10.068 -0.2946  0.0179 -0.5463
   64MPD2    H2  983   3.716   3.719   9.989  0.2465 -1.0807  1.5657
   64MPD2    H3  984   3.780   3.942   9.938 -0.6538 -1.0696 -0.0518
   64MPD2     N  985   4.086   3.970  10.263  0.0826 -0.4237  0.7704
   64MPD2    H5  986   4.124   4.044  10.205 -0.1641 -0.2664  0.8128
   64MPD2    N1  987   3.796   3.580  10.210 -0.1985 -0.1234  0.0813
   64MPD2    H7  988   3.732   3.533  10.147  1.9170  0.8419 -2.8145
   65MPD2     C  989   0.122   3.560  15.782 -0.0021  0.2725 -0.3657
   65MPD2    C1  990   0.091   3.577  15.650  0.3311 -0.0739  0.4691
   65MPD2    C2  991   0.061   3.473  15.575  0.2651 -0.0536 -0.5835
   65MPD2    C3  992   0.033   3.354  15.629 -0.1487 -0.4899  0.3081
   65MPD2    C4  993   0.052   3.336  15.767 -0.0898  0.5039 -0.7216
   65MPD2    C5  994   0.098   3.439  15.846  0.5493  0.6586  0.0244
   65MPD2     H  995   0.034   3.477  15.470 -1.8114 -1.8395 -0.1155
   65MPD2    H1  996   0.033   3.237  15.806 -0.3685  0.7731 -0.1757
   65MPD2    H2  997   0.173   3.631  15.846 -0.3030  1.4539 -1.4415
   65MPD2    H3  998   0.119   3.421  15.951 -0.7983 -1.8445 -0.1449
   65MPD2     N  999   4.702   3.246  15.559 -0.1889  0.1806  0.2999
   65MPD2    H5 1000   4.671   3.164  15.610 -0.3599 -1.0893 -1.8261
   65MPD2    N1 1001   0.121   3.696  15.582 -0.7281 -0.4226 -0.1563
   65MPD2    H7 1002   0.129   3.685  15.481 -0.4590  1.3112 -0.3298
   66TCq2    C1 1003   0.123   3.821  15.636  0.0636 -0.4828 -0.7250
   66TCq2    O2 1004   0.089   3.858  15.747 -0.3860  0.0495 -0.5121
   66TCq2    C2 1005   0.122   3.930  15.540  0.0006  0.3745  0.2743
   66TCq2    C3 1006   0.062   3.908  15.418 -0.2435  0.3925 -0.4778
   66TCq2    C4 1007   4.688   3.994  15.375 -0.2479  0.2251 -0.2474
   66TCq2    C5 1008   4.648   4.102  15.439  1.4790 -0.3976 -0.1907
   66TCq2    C6 1009   4.702   4.124  15.563 -0.6612 -0.6117  0.0820
   66TCq2    C7 1010   0.079   4.040  15.606  0.3156 -0.1155  0.0165
   66TCq2    C8 1011   4.609   4.160  15.665 -0.3289 -0.2519  0.1593
   66TCq2    O4 1012   4.513   4.228  15.634  0.8383  0.2449  0.2641
   66TCq2    C9 1013   4.612   3.965  15.252 -0.2172 -0.2072  0.4847
   66TCq2    O5 1014   4.494   4.015  15.231  0.2960  0.4198  0.2779
   66TCq2    O6 1015   4.669   3.886  15.171 -0.1488 -0.5631  0.7855
   66TCq2    H2 1016   0.093   3.826  15.354 -0.4444  1.4474 -1.9294
   66TCq2    H3 1017   4.573   4.169  15.397  1.0981 -0.8303 -0.2023
   66TCq2    H4 1018   0.144   4.077  15.684  1.3637  0.0183 -0.9052
   67MPD2     C 1019   0.208   2.967  13.792 -0.2102 -0.1025  0.2661
   67MPD2    C1 1020   0.128   3.018  13.890  0.3650  0.0356 -0.0651
   67MPD2    C2 1021   4.715   3.018  13.872 -0.4686 -0.4855 -0.2210
   67MPD2    C3 1022   4.656   2.959  13.755 -0.3317  0.5036 -0.2161
   67MPD2    C4 1023   0.021   2.922  13.646 -0.5616  0.5323 -0.0554
   67MPD2    C5 1024   0.154   2.931  13.671  0.7733  0.1175 -0.1769
   67MPD2     H 1025   4.650   3.044  13.955  0.0499 -1.2902  0.4369
   67MPD2    H1 1026   4.696   2.886  13.555  1.1043  1.6854 -1.3496
   67MPD2    H2 1027   0.315   2.955  13.805 -0.1239 -1.5001 -1.7249
   67MPD2    H3 1028   0.221   2.904  13.590 -0.7686  0.0483 -1.4148
   67MPD2     N 1029   4.519   2.956  13.731 -0.2739 -0.3975 -1.2634
   67MPD2    H5 1030   4.489   2.942  13.635 -0.5112 -0.7085 -1.1454
   67MPD2    N1 1031   0.174   3.060  14.020 -0.2451 -0.3563  0.3231
   67MPD2    H7 1032   0.099   3.078  14.087  0.8718 -0.8871  1.7251
   68TCq2    C1 1033   0.301   3.052  14.079 -0.6141  0.3658 -0.3133
   68TCq2    O2 1034   0.405   3.014  14.021  0.0534 -0.1893  0.2167
   68TCq2    C2 1035   0.298   3.098  14.212  0.4726 -0.1156  0.0910
   68TCq2    C3 1036   0.215   3.201  14.249  0.1226  0.1635 -0.1508
   68TCq2    C4 1037   0.215   3.230  14.384 -0.3502 -0.7651  0.0643
   68TCq2    C5 1038   0.290   3.161  14.479 -0.8434 -0.4360  0.6305
   68TCq2    C6 1039   0.374   3.065  14.431 -0.6455 -0.7986  0.0931
   68TCq2    C7 1040   0.385   3.035  14.301 -0.4659  0.0588  0.2238
   68TCq2    C8 1041   0.486   3.029  14.514  1.0667 -0.0003  0.2741
   68TCq2    O4 1042   0.599   3.016  14.468  0.5468  0.4545 -0.0387
   68TCq2    C9 1043   0.122   3.327  14.433  0.5209  0.2485 -0.2508
   68TCq2    O5 1044   0.082   3.317  14.555 -0.5530 -0.1577 -0.1073
   68TCq2    O6 1045   0.078   3.415  14.360  0.0898  0.1066  0.2852
   68TCq2    H2 1046   0.153   3.256  14.180 -0.5523 -0.1058  0.2458
   68TCq2    H3 1047   0.301   3.193  14.583 -0.0969 -1.1675  0.7798
   68TCq2    H4 1048   0.458   2.962  14.270 -0.8935 -0.3183  0.1076
   69TMC2    C1 1049   2.366   4.245  11.700  0.0237 -0.0338  0.1199
   69TMC2    C2 1050   2.307   4.318  11.604  0.5145  0.5281 -0.0050
   69TMC2    C3 1051   2.369   4.335  11.477  0.1521  0.2897  0.4278
   69TMC2    C4 1052   2.485   4.178  11.678 -0.3501 -0.4890  0.5992
   69TMC2    C5 1053   2.533   4.188  11.549  0.0472  0.2486 -0.3778
   69TMC2    C6 1054   2.483   4.266  11.444 -0.0958 -0.1783  0.8619
   69TMC2     C 1055   2.298   4.216  11.822 -0.7405  0.0294 -0.8527
   69TMC2     O 1056   2.368   4.153  11.898  0.5511 -0.0207 -0.0421
   69TMC2     H 1057   2.239   4.395  11.638  1.0037  0.3011  1.5163
   69TMC2    H1 1058   2.527   4.105  11.746 -0.1427  1.3750  2.4375
   69TMC2    H2 1059   2.526   4.268  11.345  2.8554  0.0793  2.1311
   69TMC2    C7 1060   2.651   4.110  11.519 -0.2087 -0.2567  0.3378
   69TMC2    C8 1061   2.335   4.439  11.386  0.1526 -0.0362  0.5852
   69TMC2    O1 1062   2.655   4.069  11.406  0.4935 -0.2123  0.0966
   69TMC2    O2 1063   2.415   4.516  11.337  0.0199  0.2178  0.0319
   69TMC2    O5 1064   2.202   4.454  11.392  0.3961  0.3362  0.0342
   69TMC2    H5 1065   2.154   4.386  11.444  0.4811  0.3314  0.1057
   70MPD2     C 1066   1.966   4.305  11.945 -0.1076 -0.2208 -0.0886
   70MPD2    C1 1067   2.093   4.266  11.952  0.3053 -0.2653 -0.5956
   70MPD2    C2 1068   2.144   4.228  12.075  0.2757  0.3749 -0.6654
   70MPD2    C3 1069   2.060   4.232  12.185 -0.1309  0.4645 -0.1241
   70MPD2    C4 1070   1.922   4.268  12.176  0.5668  0.5391  0.1528
   70MPD2    C5 1071   1.885   4.299  12.049 -1.0549 -0.0062  0.2296
   70MPD2     H 1072   2.252   4.218  12.083  0.3735  3.0500  1.4962
   70MPD2    H1 1073   1.856   4.286  12.260  1.1114 -2.9680  1.3110
   70MPD2    H2 1074   1.930   4.327  11.845  1.2558  2.2107 -0.0289
   70MPD2    H3 1075   1.781   4.329  12.043 -0.9732  0.2229 -0.0257
   70MPD2     N 1076   2.104   4.192  12.314 -0.3768  0.0827 -0.1286
   70MPD2    H5 1077   2.035   4.186  12.389 -0.9494 -0.3541 -0.7011
   70MPD2    N1 1078   2.167   4.263  11.832 -0.2739 -0.6247  0.0436
   70MPD2    H7 1079   2.120   4.300  11.750  1.0941 -0.1806 -0.5421
   71TMC2    C1 1080   0.010   3.913   1.412  0.4327  0.5299 -0.3377
   71TMC2    C2 1081   0.074   3.817   1.487 -0.3174 -0.1999  0.0240
   71TMC2    C3 1082   0.002   3.709   1.524 -0.0756 -0.7254 -0.2054
   71TMC2    C4 1083   4.597   3.897   1.380  0.8831 -0.2221  0.0203
   71TMC2    C5 1084   4.530   3.782   1.423  0.3182 -0.4501 -0.2919
   71TMC2    C6 1085   4.593   3.684   1.491 -0.0470  0.1079 -0.4750
   71TMC2     C 1086   0.090   4.015   1.353 -0.2650  0.5599  0.1088
   71TMC2     O 1087   0.058   4.062   1.245  0.2744 -0.2750  0.4776
   71TMC2     H 1088   0.182   3.816   1.487 -0.3220 -1.2350 -1.4963
   71TMC2    H1 1089   4.555   3.953   1.297  2.6817 -0.6986 -1.2024
   71TMC2    H2 1090   4.544   3.589   1.505 -0.4451 -0.2889 -4.7422
   71TMC2    C7 1091   4.406   3.737   1.354 -0.2096 -0.2116  0.0539
   71TMC2    C8 1092   0.066   3.607   1.595  0.5055  0.5234 -0.3855
   71TMC2    O1 1093   4.389   3.621   1.323 -0.9865  0.0884  0.1763
   71TMC2    O2 1094   0.014   3.497   1.620  0.2086  0.1176 -0.1318
   71TMC2    O5 1095   0.166   3.662   1.673 -1.2048  0.3098 -0.0298
   71TMC2    H5 1096   0.184   3.758   1.662 -1.8123  0.1979 -2.0866
   72MPD2     C 1097   0.452   4.386   1.394 -0.3258 -0.1184  0.0206
   72MPD2    C1 1098   0.412   4.327   1.272 -0.8451  0.1509  0.3451
   72MPD2    C2 1099   0.323   4.218   1.292 -0.1556  0.4902 -0.2538
   72MPD2    C3 1100   0.281   4.170   1.419 -0.9397  0.0461 -0.0001
   72MPD2    C4 1101   0.343   4.222   1.531 -0.1699  0.0171  0.8127
   72MPD2    C5 1102   0.426   4.327   1.521  0.1885 -0.4147  0.1284
   72MPD2     H 1103   0.272   4.172   1.208 -2.5278  1.7643  0.4721
   72MPD2    H1 1104   0.319   4.187   1.631 -1.4886  0.3059  0.5943
   72MPD2    H2 1105   0.526   4.465   1.392 -1.1247  0.5833 -1.4679
   72MPD2    H3 1106   0.461   4.384   1.607 -2.0572  0.2770  0.5805
   72MPD2     N 1107   0.186   4.067   1.442 -0.2632 -0.8525 -0.1576
   72MPD2    H5 1108   0.185   4.034   1.538 -1.3532 -1.5980 -0.4219
   72MPD2    N1 1109   0.436   4.388   1.143 -0.4312 -0.1396  0.8379
   72MPD2    H7 1110   0.390   4.352   1.059 -0.4423  0.9859  0.3639
   73TMC2    C1 1111   3.697   1.846  14.150 -0.7209  0.5763  0.0815
   73TMC2    C2 1112   3.682   1.938  14.250 -0.6148  0.4286  0.3142
   73TMC2    C3 1113   3.758   1.930  14.366  0.0076  0.2545 -0.0985
   73TMC2    C4 1114   3.787   1.749  14.173 -0.2187 -0.2491 -0.0842
   73TMC2    C5 1115   3.864   1.745  14.291  0.0884  0.6803  0.2855
   73TMC2    C6 1116   3.854   1.842  14.384  0.0492  0.2439  0.6097
   73TMC2     C 1117   3.723   1.905  14.024 -0.2542  0.1297 -0.2750
   73TMC2     O 1118   3.820   1.863  13.959  0.1626 -0.2499 -0.2643
   73TMC2     H 1119   3.623   2.028  14.239  1.1742  1.4936 -0.6412
   73TMC2    H1 1120   3.801   1.675  14.094  1.2729 -0.8661  0.7443
   73TMC2    H2 1121   3.932   1.846  14.459  1.3197  1.1076 -0.7560
   73TMC2    C7 1122   4.000   1.724  14.249 -0.5268 -0.4168 -0.1696
   73TMC2    C8 1123   3.777   2.046  14.448  0.4837  0.2393 -0.4014
   73TMC2    O1 1124   4.079   1.671  14.327  0.2340 -0.0893  0.4878
   73TMC2    O2 1125   3.791   2.161  14.402 -0.0036 -0.1103  0.2223
   73TMC2    O5 1126   3.755   2.013  14.574  0.0824  0.6156  0.2365
   73TMC2    H5 1127   3.745   1.916  14.587  1.1309  0.3385 -0.9689
   74MPD2     C 1128   3.649   2.235  13.652 -0.1590  0.4755 -0.1287
   74MPD2    C1 1129   3.765   2.205  13.726 -0.1558 -0.5426 -0.1352
   74MPD2    C2 1130   3.749   2.113  13.831 -0.4268 -0.0475  0.7111
   74MPD2    C3 1131   3.627   2.059  13.858 -0.1470  0.1269  0.2657
   74MPD2    C4 1132   3.511   2.090  13.784  0.3729 -0.4886 -0.0107
   74MPD2    C5 1133   3.525   2.180  13.681 -0.6467  0.2979  0.2328
   74MPD2     H 1134   3.829   2.080  13.897  0.4842 -0.2437 -0.4881
   74MPD2    H1 1135   3.413   2.046  13.797  0.1705 -0.0355  0.0015
   74MPD2    H2 1136   3.652   2.301  13.566 -1.8706 -0.7343 -1.1375
   74MPD2    H3 1137   3.441   2.211  13.621  1.1307  1.8364 -1.4583
   74MPD2     N 1138   3.615   1.977  13.976  0.8319 -0.1633  0.7483
   74MPD2    H5 1139   3.530   1.972  14.032  1.1175  0.0089  1.2041
   74MPD2    N1 1140   3.880   2.259  13.678  0.3583 -0.7725  0.3486
   74MPD2    H7 1141   3.874   2.323  13.600  0.2992 -0.8806  0.2647
   75TCq2    C1 1142   4.433   2.968  13.838 -0.1789 -0.3536 -1.0069
   75TCq2    O2 1143   4.457   2.949  13.956 -0.0131  0.3734  0.4404
   75TCq2    C2 1144   4.300   3.019  13.803 -0.7143  0.1967 -0.1344
   75TCq2    C3 1145   4.236   3.077  13.912 -0.3605 -0.5381 -0.3155
   75TCq2    C4 1146   4.152   3.180  13.895 -0.2969 -0.0151 -0.3604
   75TCq2    C5 1147   4.139   3.236  13.767 -0.2935  0.5949 -0.5959
   75TCq2    C6 1148   4.204   3.171  13.663  0.1006  0.4214 -0.2286
   75TCq2    C7 1149   4.275   3.060  13.678 -0.2523 -0.0589 -0.0534
   75TCq2    C8 1150   4.183   3.211  13.526  0.1451 -0.1769 -0.0844
   75TCq2    O4 1151   4.178   3.130  13.434  0.1784 -0.0976  0.3287
   75TCq2    C9 1152   4.077   3.232  14.002  0.4258  0.7523  0.3132
   75TCq2    O5 1153   4.025   3.342  13.988  0.1082 -0.3737 -0.1263
   75TCq2    O6 1154   4.089   3.169  14.108 -0.1487 -0.4130  0.3357
   75TCq2    H2 1155   4.263   3.047  14.013  0.8520  1.6004 -0.0074
   75TCq2    H3 1156   4.054   3.303  13.753 -0.4280  0.6637  0.4888
   75TCq2    H4 1157   4.314   3.006  13.592 -0.4076  2.2887 -1.5954
   76MPD2     C 1158   3.746   3.681  11.326 -0.5181 -0.6304 -0.2641
   76MPD2    C1 1159   3.629   3.610  11.309  0.7743 -0.5499 -0.4477
   76MPD2    C2 1160   3.615   3.486  11.373  0.5523 -0.9407 -0.7394
   76MPD2    C3 1161   3.714   3.437  11.450 -0.0302  0.0844 -0.0446
   76MPD2    C4 1162   3.833   3.508  11.471  0.2285  0.0054  0.1849
   76MPD2    C5 1163   3.847   3.631  11.406  0.4670 -0.5108 -0.4065
   76MPD2     H 1164   3.530   3.426  11.343 -0.1881  0.3437 -1.2182
   76MPD2    H1 1165   3.906   3.466  11.540  2.1989  0.7906 -1.4252
   76MPD2    H2 1166   3.761   3.783  11.292  2.4391 -1.1954 -0.6590
   76MPD2    H3 1167   3.943   3.679  11.422 -0.0916  0.9744 -1.6140
   76MPD2     N 1168   3.699   3.313  11.518  0.2438 -0.3080 -0.0024
   76MPD2    H5 1169   3.776   3.286  11.578 -0.0225  0.6604  0.7738
   76MPD2    N1 1170   3.525   3.660  11.233  0.2528  0.0719  0.8452
   76MPD2    H7 1171   3.432   3.619  11.239  0.1272 -0.2193 -3.1467
   77TCq2    C1 1172   3.588   3.230  11.515 -0.2056  0.1635  0.4844
   77TCq2    O2 1173   3.471   3.251  11.480  0.6214  0.1081  0.0650
   77TCq2    C2 1174   3.621   3.094  11.566 -0.0900 -0.6852  0.6827
   77TCq2    C3 1175   3.513   3.015  11.603  0.8595  0.0995 -0.6782
   77TCq2    C4 1176   3.536   2.895  11.667 -0.6463  0.0474 -0.0063
   77TCq2    C5 1177   3.662   2.845  11.678 -0.5747  0.0813  0.5248
   77TCq2    C6 1178   3.773   2.929  11.662  0.6361 -0.6691  0.5971
   77TCq2    C7 1179   3.749   3.055  11.604 -0.2439 -0.4836 -0.1137
   77TCq2    C8 1180   3.890   2.892  11.732 -0.1057  0.4003 -0.2141
   77TCq2    O4 1181   3.909   2.775  11.755 -0.0500 -0.3721 -0.6143
   77TCq2    C9 1182   3.425   2.811  11.714  0.8627  0.6540 -0.1437
   77TCq2    O5 1183   3.445   2.686  11.727  0.4560  0.0749  0.2281
   77TCq2    O6 1184   3.321   2.875  11.727 -0.7906 -0.2550 -0.3295
   77TCq2    H2 1185   3.410   3.046  11.592  0.9507  0.3657 -0.8043
   77TCq2    H3 1186   3.671   2.743  11.714  1.7951  0.3491  0.7154
   77TCq2    H4 1187   3.835   3.118  11.582  0.4179 -0.8523  1.3927
   78MPD1     C 1188   1.328   3.193   2.097 -0.3439  0.4533  0.0902
   78MPD1    C1 1189   1.251   3.086   2.126 -0.4106  0.4359 -0.8089
   78MPD1    C2 1190   1.120   3.093   2.064  0.0975  0.8223  0.0377
   78MPD1    C3 1191   1.093   3.184   1.961  0.5512  0.3731  0.3947
   78MPD1    C4 1192   1.188   3.273   1.922  0.3185 -0.1607  0.0742
   78MPD1    C5 1193   1.305   3.280   1.991  0.0192  0.1401  0.1486
   78MPD1     H 1194   1.037   3.043   2.113  0.9062 -1.0249 -0.4516
   78MPD1    H1 1195   1.165   3.340   1.841 -2.7208 -2.5090 -0.9972
   78MPD1    H2 1196   1.423   3.194   2.149 -1.4492 -0.8049  2.1520
   78MPD1    H3 1197   1.377   3.357   1.965  1.3420 -1.5704 -1.2136
   78MPD1     N 1198   0.967   3.182   1.890 -0.0825 -0.4358 -0.1540
   78MPD1    H5 1199   0.946   3.263   1.833  0.3074  0.5892  1.1715
   78MPD1    N1 1200   1.281   2.997   2.225 -0.2550  0.1930 -0.3140
   78MPD1    H6 1201   1.239   2.906   2.204 -1.0343 -0.3534  3.6581
   78MPD1    H7 1202   1.380   2.976   2.236 -0.1436  0.3796 -0.9513
   79TCq2    C1 1203   0.882   3.075   1.888 -0.6794 -0.0885 -0.1465
   79TCq2    O2 1204   0.911   2.958   1.916 -0.1444 -0.8375  0.1013
   79TCq2    C2 1205   0.754   3.097   1.818 -0.4400  0.9829  0.8295
   79TCq2    C3 1206   0.680   2.985   1.785 -0.5869  0.3289  0.2141
   79TCq2    C4 1207   0.560   3.003   1.724  0.1916 -0.3927 -0.4243
   79TCq2    C5 1208   0.502   3.125   1.703  0.4265  0.2210 -0.2475
   79TCq2    C6 1209   0.578   3.232   1.750 -0.7242 -0.0055  0.2513
   79TCq2    C7 1210   0.702   3.221   1.800  0.6736 -0.0158  0.3431
   79TCq2    C8 1211   0.540   3.369   1.710  0.0165  0.1173  1.1553
   79TCq2    O4 1212   0.614   3.464   1.734 -0.5107  0.6468  0.1244
   79TCq2    C9 1213   0.473   2.889   1.693 -0.1016  0.0374 -0.3291
   79TCq2    O5 1214   0.350   2.910   1.666 -0.4516  0.0226 -0.6697
   79TCq2    O6 1215   0.527   2.774   1.684  1.0182 -0.3099 -0.2117
   79TCq2    H2 1216   0.729   2.889   1.797 -1.3359 -0.2349 -1.1863
   79TCq2    H3 1217   0.408   3.127   1.649  0.8054 -0.7861 -0.9584
   79TCq2    H4 1218   0.754   3.309   1.835  1.1052  0.2542 -0.9874
   80MPD2     C 1219   2.722   3.418  12.376  0.1655 -0.5415 -0.1438
   80MPD2    C1 1220   2.663   3.398  12.254 -0.3045  0.4184 -0.0027
   80MPD2    C2 1221   2.522   3.403  12.242  0.0863  0.2266 -0.4129
   80MPD2    C3 1222   2.444   3.422  12.358 -0.7287  0.2546 -0.5637
   80MPD2    C4 1223   2.506   3.420  12.486  0.1451  0.6524 -0.0165
   80MPD2    C5 1224   2.644   3.425  12.492 -0.1639 -1.1364 -0.0537
   80MPD2     H 1225   2.480   3.369  12.148  2.8222 -1.5152 -1.0009
   80MPD2    H1 1226   2.448   3.424  12.578 -0.0185  1.2646 -0.1472
   80MPD2    H2 1227   2.830   3.427  12.378  0.3148 -2.2470 -0.8962
   80MPD2    H3 1228   2.682   3.424  12.594  2.1113 -0.1579 -0.9004
   80MPD2     N 1229   2.306   3.420  12.358  0.0203  0.2318 -0.2377
   80MPD2    H5 1230   2.243   3.412  12.437  0.4859  0.0937  0.1181
   80MPD2    N1 1231   2.731   3.366  12.138  0.4565 -0.0540 -0.5891
   80MPD2    H7 1232   2.678   3.345  12.054  1.1709 -0.9498 -0.8136
   81TCq2    C1 1233   2.868   3.373  12.119 -0.6686  0.0049 -0.2655
   81TCq2    O2 1234   2.941   3.444  12.187  0.0716  0.3884  0.1908
   81TCq2    C2 1235   2.914   3.317  11.995 -1.0221  0.1565 -0.1523
   81TCq2    C3 1236   3.016   3.378  11.928 -0.6057  0.5784  0.5475
   81TCq2    C4 1237   3.051   3.312  11.815 -0.1767 -0.1477  0.5582
   81TCq2    C5 1238   2.993   3.209  11.763 -0.0041  0.0236  0.1031
   81TCq2    C6 1239   2.899   3.141  11.842  0.5348  0.3006  0.5814
   81TCq2    C7 1240   2.867   3.192  11.966  0.0096 -0.1490 -0.0239
   81TCq2    C8 1241   2.796   3.070  11.769 -0.2436 -0.3540  0.0677
   81TCq2    O4 1242   2.789   3.088  11.647 -0.6584 -0.2830  0.0786
   81TCq2    C9 1243   3.169   3.363  11.749 -0.2031 -0.8511 -0.3099
   81TCq2    O5 1244   3.223   3.460  11.803  0.4168 -0.4993 -0.2512
   81TCq2    O6 1245   3.235   3.273  11.688 -0.0454 -0.4258 -0.3082
   81TCq2    H2 1246   3.068   3.462  11.973 -1.3144  1.7942 -0.9139
   81TCq2    H3 1247   3.030   3.166  11.670  0.3787  1.6678 -0.5007
   81TCq2    H4 1248   2.800   3.148  12.039 -0.8354  0.4245 -0.4566
   82MPD2     C 1249   1.131   3.297  10.558  0.0858 -0.6815 -0.3532
   82MPD2    C1 1250   1.095   3.185  10.484  0.6846 -0.6790 -0.1587
   82MPD2    C2 1251   1.103   3.059  10.538 -0.2578  0.7931 -0.2969
   82MPD2    C3 1252   1.139   3.046  10.672 -0.0026  0.8273 -0.2015
   82MPD2    C4 1253   1.174   3.157  10.744 -0.0548  0.1522  0.0477
   82MPD2    C5 1254   1.169   3.281  10.685 -0.0212 -0.7686 -0.4339
   82MPD2     H 1255   1.079   2.963  10.495 -0.1412  0.7309 -0.2243
   82MPD2    H1 1256   1.215   3.143  10.843  1.4143 -3.4933 -1.0668
   82MPD2    H2 1257   1.118   3.398  10.519 -0.0238 -0.4996  0.1505
   82MPD2    H3 1258   1.195   3.364  10.751  0.3428 -1.6887  0.5875
   82MPD2     N 1259   1.131   2.923  10.743 -0.3766 -0.4620  0.2764
   82MPD2    H5 1260   1.136   2.918  10.844 -1.5394 -0.3467  0.3427
   82MPD2    N1 1261   1.033   3.202  10.360 -0.2438 -0.1614  0.0003
   82MPD2    H7 1262   1.036   3.293  10.314 -0.2421 -0.6779 -1.0088
   83TCq2    C1 1263   1.100   2.798  10.685  0.6827  0.1301 -0.4000
   83TCq2    O2 1264   1.083   2.766  10.567 -0.1636 -0.1765 -0.6538
   83TCq2    C2 1265   1.114   2.681  10.770 -0.2007 -0.2318 -0.4606
   83TCq2    C3 1266   1.214   2.682  10.869  0.2555 -0.3813  0.8494
   83TCq2    C4 1267   1.239   2.578  10.954 -0.5967 -0.4850  0.5237
   83TCq2    C5 1268   1.155   2.476  10.944 -0.4723 -0.3042  0.1869
   83TCq2    C6 1269   1.061   2.473  10.846 -0.3926 -0.4767  0.1104
   83TCq2    C7 1270   1.046   2.564  10.751  0.1752 -0.7297  0.2117
   83TCq2    C8 1271   0.939   2.418  10.892  0.1707 -0.2380 -0.9833
   83TCq2    O4 1272   0.924   2.410  11.015  0.6782 -0.3904  0.4268
   83TCq2    C9 1273   1.343   2.574  11.059 -0.0889 -0.1501 -0.1037
   83TCq2    O5 1274   1.425   2.669  11.059  0.3896 -0.0079  0.6631
   83TCq2    O6 1275   1.352   2.469  11.125 -0.2665  0.3625  0.1940
   83TCq2    H2 1276   1.281   2.765  10.887 -1.1425  0.4097  2.4195
   83TCq2    H3 1277   1.152   2.401  11.022 -0.6774  0.0602  0.5324
   83TCq2    H4 1278   0.965   2.563  10.680 -0.3887 -1.9463  0.8858
   84TCq2    C1 1279   1.924   1.419  11.042 -0.0349  0.3409 -0.3973
   84TCq2    O2 1280   1.819   1.376  11.087  0.1054 -0.3759 -0.6473
   84TCq2    C2 1281   2.006   1.520  11.111 -0.2093  0.1090 -0.1165
   84TCq2    C3 1282   2.135   1.556  11.068  0.0943 -0.2211 -0.4968
   84TCq2    C4 1283   2.207   1.642  11.143  0.3106  0.0353 -0.1074
   84TCq2    C5 1284   2.153   1.698  11.257  0.1993  1.1746 -0.3423
   84TCq2    C6 1285   2.033   1.655  11.302 -0.0345  0.9597 -0.0505
   84TCq2    C7 1286   1.957   1.572  11.223  0.2538  0.3121 -0.4656
   84TCq2    C8 1287   1.952   1.745  11.376 -0.2519 -0.5462  0.2176
   84TCq2    O4 1288   1.853   1.777  11.316  0.9424  0.1333 -0.5815
   84TCq2    C9 1289   2.341   1.693  11.104  0.3317 -0.0961 -0.6317
   84TCq2    O5 1290   2.396   1.767  11.189  0.4391  0.0134 -0.0800
   84TCq2    O6 1291   2.383   1.658  10.991  0.0812 -0.6138 -0.0516
   84TCq2    H2 1292   2.182   1.505  10.985 -1.0239 -0.0852 -1.2022
   84TCq2    H3 1293   2.207   1.770  11.317 -1.2874  0.8068  1.4235
   84TCq2    H4 1294   1.856   1.547  11.254 -0.1196  0.4160 -1.5946
   85MPD2     C 1295   1.711   4.482  16.296  0.1710  0.5277  0.8438
   85MPD2    C1 1296   1.679   4.473  16.160  0.0615 -0.3154  0.9032
   85MPD2    C2 1297   1.699   4.575  16.072  0.2098  0.1966  0.2924
   85MPD2    C3 1298   1.747   4.698  16.115  0.2484 -0.3190 -0.4227
   85MPD2    C4 1299   1.787   4.709  16.251  0.3591  0.4191  1.0244
   85MPD2    C5 1300   1.764   4.603  16.332 -0.6679 -0.1335  0.3223
   85MPD2     H 1301   1.685   4.555  15.966 -2.2079  1.8756  0.2969
   85MPD2    H1 1302   1.833   0.080  16.286  2.6475 -1.0454  1.8454
   85MPD2    H2 1303   1.691   4.410  16.374 -0.6206  0.1706  0.3092
   85MPD2    H3 1304   1.790   4.603  16.438  0.9449  1.0281 -0.0883
   85MPD2     N 1305   1.765   0.076  16.020 -0.4394 -0.6628  0.1045
   85MPD2    H5 1306   1.732   0.049  15.928 -0.9402 -1.8919  0.6463
   85MPD2    N1 1307   1.637   4.349  16.114 -0.5251  0.3445  0.5727
   85MPD2    H7 1308   1.611   4.345  16.016  0.4275  0.7628  0.3017
   86TCq2    C1 1309   1.837   0.194  16.045 -0.2877  0.3148  0.3980
   86TCq2    O2 1310   1.905   0.224  16.146 -0.0219 -0.1775 -0.0960
   86TCq2    C2 1311   1.847   0.288  15.937 -0.6076 -0.1325  0.2968
   86TCq2    C3 1312   1.759   0.285  15.834 -0.2241 -0.7370 -0.0306
   86TCq2    C4 1313   1.783   0.360  15.725 -0.4846  0.3261  0.0215
   86TCq2    C5 1314   1.902   0.431  15.714 -0.1449  0.1064  0.3843
   86TCq2    C6 1315   1.997   0.431  15.817  0.8533  0.4690 -0.4924
   86TCq2    C7 1316   1.967   0.360  15.932  0.4610  0.2313  0.0612
   86TCq2    C8 1317   2.132   0.484  15.796  0.1467  0.0961  0.6364
   86TCq2    O4 1318   2.214   0.471  15.884  0.3518 -0.0246 -0.0711
   86TCq2    C9 1319   1.690   0.363  15.616 -0.4800  0.2496 -1.0495
   86TCq2    O5 1320   1.685   0.463  15.545 -0.7988  0.1118 -0.3966
   86TCq2    O6 1321   1.612   0.266  15.608  0.6740  0.0074  0.1861
   86TCq2    H2 1322   1.661   0.239  15.842 -0.7628  0.8123  2.1534
   86TCq2    H3 1323   1.924   0.473  15.616  1.4717  1.9642  1.5319
   86TCq2    H4 1324   2.035   0.356  16.017  1.0983 -2.9926 -0.6028
   87MPD2     C 1325   4.235   2.888   0.871  0.1206 -0.2037 -0.7690
   87MPD2    C1 1326   4.205   2.835   0.745 -0.7528  0.0987  0.4397
   87MPD2    C2 1327   4.108   2.898   0.665  0.0965 -0.3824 -0.5985
   87MPD2    C3 1328   4.059   3.025   0.706 -0.4314  0.0756 -0.6123
   87MPD2    C4 1329   4.090   3.082   0.824 -0.8535  0.7737  0.0288
   87MPD2    C5 1330   4.175   3.012   0.905  0.2386 -0.0377 -0.9280
   87MPD2     H 1331   4.077   2.866   0.567 -0.9916  0.8962 -0.6814
   87MPD2    H1 1332   4.051   3.179   0.853  1.1539  1.3173  0.9502
   87MPD2    H2 1333   4.303   2.836   0.938 -0.9077 -0.9943 -0.3312
   87MPD2    H3 1334   4.215   3.068   0.990 -1.6002 -0.5749  0.2811
   87MPD2     N 1335   3.974   3.091   0.612 -0.3224 -0.3973 -0.2324
   87MPD2    H5 1336   3.938   3.045   0.529  0.0413 -2.7295  0.8906
   87MPD2    N1 1337   4.277   2.722   0.702  0.6501 -0.2462 -0.1677
   87MPD2    H7 1338   4.339   2.679   0.771  0.6237 -1.3397 -0.8211
   88TCq2    C1 1339   4.265   2.653   0.591 -0.2487 -1.1149 -0.1161
   88TCq2    O2 1340   4.195   2.682   0.489  0.1931  0.2646 -0.3434
   88TCq2    C2 1341   4.332   2.530   0.598  0.4850  0.6229  0.7824
   88TCq2    C3 1342   4.362   2.472   0.723  0.8598  0.4920 -0.1244
   88TCq2    C4 1343   4.451   2.377   0.732  1.1033 -0.0525 -0.2932
   88TCq2    C5 1344   4.533   2.350   0.625  0.1333  0.2163  0.5346
   88TCq2    C6 1345   4.515   2.410   0.502  0.0767  0.4832  0.0750
   88TCq2    C7 1346   4.412   2.497   0.485  1.2042  0.1523 -0.4793
   88TCq2    C8 1347   4.615   2.402   0.399 -0.3420  0.3459  0.1504
   88TCq2    O4 1348   4.586   2.433   0.287  0.4271  0.4171  0.4432
   88TCq2    C9 1349   4.461   2.306   0.859  0.3312 -0.3103  0.3308
   88TCq2    O5 1350   4.559   2.233   0.866  0.2690 -0.1295 -0.0405
   88TCq2    O6 1351   4.385   2.331   0.959  0.3457  0.4226 -0.2819
   88TCq2    H2 1352   4.296   2.496   0.806  1.9358  0.1322  0.8307
   88TCq2    H3 1353   4.613   2.278   0.639 -1.7929 -1.7828  1.2998
   88TCq2    H4 1354   4.402   2.557   0.395  1.1873  2.1898  0.8713
   89MPD2     C 1355   1.020   0.989   1.255 -0.0538 -0.3370  0.4624
   89MPD2    C1 1356   0.959   1.028   1.373 -0.0305 -0.1094 -0.0912
   89MPD2    C2 1357   1.024   1.113   1.457  0.3012 -0.2715  0.0650
   89MPD2    C3 1358   1.150   1.156   1.427 -0.1779 -0.3664  0.4643
   89MPD2    C4 1359   1.205   1.124   1.311  0.3391 -0.3343  0.1113
   89MPD2    C5 1360   1.142   1.036   1.228  0.0182 -0.4617 -0.2071
   89MPD2     H 1361   0.967   1.163   1.534 -0.1235  0.5309 -0.7642
   89MPD2    H1 1362   1.306   1.155   1.286  0.9486 -2.0497  0.4734
   89MPD2    H2 1363   0.984   0.918   1.181  1.8078 -1.9526  1.1171
   89MPD2    H3 1364   1.197   0.998   1.143  2.4291  1.3521  0.5525
   89MPD2     N 1365   1.221   1.245   1.513 -0.0751 -0.0049 -1.2246
   89MPD2    H5 1366   1.171   1.279   1.595  1.9917  0.4672 -0.1551
   89MPD2    N1 1367   0.825   0.992   1.410  0.1324  0.4072 -0.5655
   89MPD2    H7 1368   0.793   1.023   1.501  0.5421  0.4196 -0.4275
   90TCq2    C1 1369   1.346   1.301   1.492  0.3886 -0.3912  0.0653
   90TCq2    O2 1370   1.404   1.333   1.387  0.5400  0.0472  0.1480
   90TCq2    C2 1371   1.395   1.371   1.611 -0.4945  0.6695  0.2560
   90TCq2    C3 1372   1.368   1.322   1.735 -0.5263 -0.3079  0.2990
   90TCq2    C4 1373   1.455   1.353   1.838 -0.0463  0.1684  0.9014
   90TCq2    C5 1374   1.558   1.440   1.827 -0.1999 -0.2327  0.1939
   90TCq2    C6 1375   1.564   1.503   1.704 -0.3622 -0.5714 -0.0687
   90TCq2    C7 1376   1.483   1.469   1.597 -0.7289  0.5303 -0.0611
   90TCq2    C8 1377   1.641   1.617   1.690 -0.8757 -0.4436  0.2531
   90TCq2    O4 1378   1.735   1.629   1.770  0.4383 -0.2618  0.4093
   90TCq2    C9 1379   1.445   1.275   1.957 -0.1337 -0.4895 -0.1958
   90TCq2    O5 1380   1.361   1.183   1.950 -0.0840 -0.0041  0.3582
   90TCq2    O6 1381   1.490   1.316   2.067 -0.1909  0.6820  0.5390
   90TCq2    H2 1382   1.283   1.256   1.750 -0.8112 -0.1090 -0.4250
   90TCq2    H3 1383   1.624   1.452   1.913  0.5154 -0.1705 -0.3605
   90TCq2    H4 1384   1.520   1.487   1.497 -0.1316  1.6419  0.3703
   91TMC2    C1 1385   1.726   0.947  16.201  0.1243 -0.3002 -0.1270
   91TMC2    C2 1386   1.761   0.993  16.326 -0.2204 -0.2620 -0.4262
   91TMC2    C3 1387   1.689   0.957  16.434  0.6989 -0.4265 -0.3339
   91TMC2    C4 1388   1.608   0.897  16.176  0.5004  0.0658  0.7815
   91TMC2    C5 1389   1.529   0.865  16.287 -0.6492 -0.0917 -0.0353
   91TMC2    C6 1390   1.569   0.893  16.420  0.7874  0.5085 -0.0979
   91TMC2     C 1391   1.818   0.955  16.085 -0.2313 -0.4633 -0.1796
   91TMC2     O 1392   1.761   0.944  15.977  0.1013 -0.1250  0.0985
   91TMC2     H 1393   1.858   1.035  16.348  0.2609 -2.2219  1.1378
   91TMC2    H1 1394   1.583   0.876  16.073 -0.9023 -1.4256  1.4324
   91TMC2    H2 1395   1.512   0.889  16.512  0.6811  0.7541 -0.1539
   91TMC2    C7 1396   1.395   0.816  16.271 -0.3512 -0.5351 -0.5733
   91TMC2    C8 1397   1.732   1.000  16.569 -0.1580 -0.3795 -1.0279
   91TMC2    O1 1398   1.335   0.782  16.370 -0.5738  0.5510  0.3471
   91TMC2    O2 1399   1.850   0.997  16.603 -0.1812 -0.3542  0.4866
   91TMC2    O5 1400   1.637   1.088  16.609 -0.1009  0.4994  0.9806
   91TMC2    H5 1401   1.560   1.095  16.548  0.5983 -2.5651 -0.2507
   92MPD2     C 1402   2.025   0.915  15.885  0.4953 -0.7846  0.1445
   92MPD2    C1 1403   2.051   0.952  16.016  0.3802  0.2777 -0.4542
   92MPD2    C2 1404   2.180   0.938  16.061  0.6587  0.5211  0.4903
   92MPD2    C3 1405   2.282   0.889  15.985  0.0313 -0.2067  0.1785
   92MPD2    C4 1406   2.254   0.845  15.856  0.0971 -0.5196 -0.3277
   92MPD2    C5 1407   2.128   0.862  15.810  0.3052  0.3194 -0.4573
   92MPD2     H 1408   2.209   0.966  16.162  0.4634  1.3737  0.3098
   92MPD2    H1 1409   2.321   0.801  15.783 -1.1185 -0.8256 -1.2632
   92MPD2    H2 1410   1.929   0.914  15.835 -0.0103 -0.5557  1.1056
   92MPD2    H3 1411   2.115   0.843  15.704 -0.5241 -0.2870 -0.2488
   92MPD2     N 1412   2.410   0.884  16.041 -0.2562 -0.0914  0.1126
   92MPD2    H5 1413   2.430   0.945  16.119 -1.7917  0.5907 -0.0231
   92MPD2    N1 1414   1.954   0.972  16.111 -0.3241 -0.2165  0.1172
   92MPD2    H7 1415   1.975   0.982  16.210  2.9062  0.4116 -0.6274
   93MPD2     C 1416   3.577   1.304  13.546  0.4591 -0.1120 -0.7192
   93MPD2    C1 1417   3.534   1.398  13.641  0.1126  0.8647  0.2685
   93MPD2    C2 1418   3.401   1.432  13.639  0.5195  0.3716  0.2552
   93MPD2    C3 1419   3.310   1.382  13.547  0.2701 -0.2345 -0.1628
   93MPD2    C4 1420   3.353   1.281  13.468  0.0767  0.2605  0.5579
   93MPD2    C5 1421   3.487   1.251  13.465 -0.1854 -0.3731  0.2771
   93MPD2     H 1422   3.361   1.493  13.719  0.0793 -0.6272  0.7947
   93MPD2    H1 1423   3.285   1.226  13.404 -0.3963 -0.2814  1.5277
   93MPD2    H2 1424   3.678   1.265  13.551  0.3134 -0.3480  0.6244
   93MPD2    H3 1425   3.518   1.174  13.395  0.8740 -0.0969  0.4565
   93MPD2     N 1426   3.174   1.414  13.550  0.4537 -0.2525 -0.3998
   93MPD2    H5 1427   3.115   1.357  13.491  1.4475 -3.5439  1.8391
   93MPD2    N1 1428   3.623   1.455  13.729 -0.0826 -0.5469 -0.0831
   93MPD2    H7 1429   3.583   1.522  13.794  1.1322 -0.0770  0.1903
   94TCq2    C1 1430   3.757   1.447  13.720 -0.8633 -0.3297  0.3236
   94TCq2    O2 1431   3.827   1.399  13.630  0.7647  1.0144  0.7369
   94TCq2    C2 1432   3.824   1.483  13.839 -0.1636  0.2150  0.6692
   94TCq2    C3 1433   3.776   1.440  13.959  0.0284  0.0973 -0.2476
   94TCq2    C4 1434   3.860   1.419  14.062 -0.6011  0.1128 -0.1098
   94TCq2    C5 1435   3.995   1.431  14.042 -0.1111 -0.5274  0.3984
   94TCq2    C6 1436   4.044   1.478  13.925  0.2631 -0.5918  0.2361
   94TCq2    C7 1437   3.959   1.501  13.824 -0.2641 -0.5050  0.5620
   94TCq2    C8 1438   4.183   1.491  13.903 -0.5547 -0.0324 -0.3801
   94TCq2    O4 1439   4.253   1.431  13.983 -0.1705  0.0901 -0.5595
   94TCq2    C9 1440   3.808   1.395  14.193 -0.0901 -0.0684  0.7389
   94TCq2    O5 1441   3.680   1.394  14.212  0.3620  0.1070 -0.3928
   94TCq2    O6 1442   3.893   1.356  14.282  0.6857  0.0378  0.1918
   94TCq2    H2 1443   3.671   1.415  13.972  0.8624 -3.1164  0.3441
   94TCq2    H3 1444   4.066   1.420  14.123  0.7919 -2.1911 -0.6093
   94TCq2    H4 1445   4.000   1.535  13.730 -1.1908  1.0808  0.7419
   95TMC2    C1 1446   3.695   3.145  15.721 -0.1007  0.4824 -0.7747
   95TMC2    C2 1447   3.623   3.060  15.804  0.6213  0.2402  0.3416
   95TMC2    C3 1448   3.539   3.124  15.901  0.5773 -0.4304 -0.2799
   95TMC2    C4 1449   3.685   3.283  15.729 -0.6724  0.0686 -0.6491
   95TMC2    C5 1450   3.605   3.327  15.830 -0.0674  0.1482  0.7296
   95TMC2    C6 1451   3.534   3.254  15.926 -0.5431 -0.4059 -0.4745
   95TMC2     C 1452   3.800   3.090  15.628 -0.0745 -0.1008 -0.1598
   95TMC2     O 1453   3.866   3.171  15.570  0.1762 -0.0118  0.2520
   95TMC2     H 1454   3.643   2.954  15.800  1.8626  0.4032  2.5805
   95TMC2    H1 1455   3.749   3.351  15.673 -2.2865  2.0960 -0.0418
   95TMC2    H2 1456   3.461   3.294  15.996 -0.9777 -2.8822  0.5045
   95TMC2    C7 1457   3.623   3.472  15.840 -0.1400  0.2074  0.1529
   95TMC2    C8 1458   3.461   3.041  15.986  0.7681 -0.2539  0.0677
   95TMC2    O1 1459   3.673   3.532  15.749 -0.8283  0.7525 -0.5568
   95TMC2    O2 1460   3.469   3.050  16.107  0.0520 -0.6963 -0.0618
   95TMC2    O5 1461   3.430   2.930  15.917  0.2020 -0.0238  0.2446
   95TMC2    H5 1462   3.433   2.948  15.820  2.7237  0.4840  0.4252
   96MPD2     C 1463   4.069   2.719  15.383  0.3435 -0.3193  0.7093
   96MPD2    C1 1464   4.103   2.853  15.409 -0.3150 -0.2231  0.2225
   96MPD2    C2 1465   4.017   2.936  15.487 -0.5888  0.3154  0.0433
   96MPD2    C3 1466   3.890   2.884  15.526  0.1432 -0.2434  0.3151
   96MPD2    C4 1467   3.865   2.758  15.494  0.3626 -0.0866 -0.5315
   96MPD2    C5 1468   3.959   2.674  15.439 -0.6579 -0.2939 -0.0151
   96MPD2     H 1469   4.033   3.035  15.528 -0.0990 -0.9976  3.0875
   96MPD2    H1 1470   3.774   2.710  15.529  1.8918 -0.9860  2.3183
   96MPD2    H2 1471   4.137   2.652  15.332  0.8704  1.9242 -1.5741
   96MPD2    H3 1472   3.935   2.571  15.416  0.6510 -0.2347 -1.6531
   96MPD2     N 1473   3.802   2.954  15.609  0.4222 -0.0367  0.1412
   96MPD2    H5 1474   3.734   2.895  15.656  1.4371 -0.9485  0.4490
   96MPD2    N1 1475   4.219   2.911  15.356  0.3655  0.4674 -0.1253
   96MPD2    H7 1476   4.267   2.853  15.287 -2.4828 -1.7205 -0.2820
   97MPD2     C 1477   1.023   4.700   0.898  0.6775  0.2516 -0.4472
   97MPD2    C1 1478   1.089   0.087   0.848  0.2425 -0.1748  0.4805
   97MPD2    C2 1479   1.094   0.106   0.705 -0.2134  0.3399 -0.2024
   97MPD2    C3 1480   1.019   0.031   0.619 -0.7903  0.2843  0.6644
   97MPD2    C4 1481   0.938   4.658   0.675 -0.0467  0.1315 -0.0993
   97MPD2    C5 1482   0.949   4.626   0.808 -0.0197  0.6309 -0.1705
   97MPD2     H 1483   1.140   0.198   0.672  1.3543 -0.6177 -0.6603
   97MPD2    H1 1484   0.870   4.603   0.611 -0.3185 -0.5994  0.8119
   97MPD2    H2 1485   0.999   4.688   1.003 -1.5698  0.6849 -0.8995
   97MPD2    H3 1486   0.884   4.548   0.845  0.6043 -0.0152 -0.4497
   97MPD2     N 1487   1.015   0.075   0.486 -0.4991 -0.7890 -0.1862
   97MPD2    H5 1488   0.929   0.065   0.433  0.8089 -1.2190 -2.2332
   97MPD2    N1 1489   1.148   0.175   0.940  0.2859 -0.0942  0.4367
   97MPD2    H7 1490   1.149   0.141   1.035 -0.3608  0.6877  0.7277
   98TCq2    C1 1491   1.113   0.149   0.420 -0.5110 -0.2350 -0.5010
   98TCq2    O2 1492   1.228   0.167   0.449  0.1710  0.1683 -0.2988
   98TCq2    C2 1493   1.074   0.195   0.285 -0.1924 -0.3381  0.2818
   98TCq2    C3 1494   0.947   0.190   0.237 -0.3327 -0.1586 -0.5667
   98TCq2    C4 1495   0.934   0.220   0.099  0.4624  0.1243  0.0633
   98TCq2    C5 1496   1.043   0.263   0.025 -0.1260  1.3942  0.6305
   98TCq2    C6 1497   1.167   0.276   0.080 -0.3095 -0.2516  0.0697
   98TCq2    C7 1498   1.176   0.247   0.210 -0.0218  0.0388 -0.1924
   98TCq2    C8 1499   1.247   0.392   0.037 -0.4045 -0.1694  0.5476
   98TCq2    O4 1500   1.186   0.458  17.639 -0.0367 -0.0963 -0.4347
   98TCq2    C9 1501   0.805   0.204   0.036  0.2217  0.3873 -0.0811
   98TCq2    O5 1502   0.792   0.230  17.602 -0.0709  0.3678  0.2501
   98TCq2    O6 1503   0.706   0.211   0.115 -0.3104  0.2399 -0.0613
   98TCq2    H2 1504   0.865   0.136   0.284  0.1974 -2.4560 -2.2278
   98TCq2    H3 1505   1.013   0.283  17.610  1.7339  1.1107  0.0145
   98TCq2    H4 1506   1.272   0.271   0.254 -1.3355  3.0335  1.0182
   99MPD2     C 1507   0.508   1.804   1.693  0.0532 -0.2095  0.1485
   99MPD2    C1 1508   0.373   1.836   1.689 -0.7836  0.1080 -0.4408
   99MPD2    C2 1509   0.287   1.799   1.589  0.6631 -0.3056 -0.1476
   99MPD2    C3 1510   0.340   1.718   1.487 -0.0740  0.3844 -0.2631
   99MPD2    C4 1511   0.472   1.681   1.496  0.0266  0.3498 -0.5722
   99MPD2    C5 1512   0.558   1.727   1.593 -0.2248 -0.7619  0.2850
   99MPD2     H 1513   0.183   1.831   1.598  0.1914 -2.1836  1.2491
   99MPD2    H1 1514   0.520   1.619   1.422  0.5589 -1.0460  0.9283
   99MPD2    H2 1515   0.577   1.843   1.767  0.5616 -1.8994  0.5605
   99MPD2    H3 1516   0.665   1.708   1.583  0.5369  3.0366  0.8704
   99MPD2     N 1517   0.253   1.682   1.380  0.2761  0.2810  0.2823
   99MPD2    H5 1518   0.156   1.712   1.387 -0.7895 -2.5078 -2.6748
   99MPD2    N1 1519   0.308   1.901   1.795 -0.0769 -0.1337 -0.6247
   99MPD2    H7 1520   0.209   1.913   1.778  0.1995  1.6493 -0.9482
  100TCq2    C1 1521   0.371   1.972   1.894  0.9698  0.5220 -0.2971
  100TCq2    O2 1522   0.493   1.991   1.907  0.1147 -0.1273  0.8616
  100TCq2    C2 1523   0.276   2.050   1.979  0.3921  0.3499  0.0110
  100TCq2    C3 1524   0.326   2.164   2.036  0.6014 -0.2294  0.1896
  100TCq2    C4 1525   0.242   2.245   2.101 -0.3178  0.2751 -0.0943
  100TCq2    C5 1526   0.107   2.213   2.113 -0.0621  0.2699 -0.3864
  100TCq2    C6 1527   0.062   2.105   2.043 -0.6527  0.0532 -0.0596
  100TCq2    C7 1528   0.148   2.018   1.983  0.4454 -0.3755  0.1100
  100TCq2    C8 1529   4.643   2.070   2.065  0.0539 -0.3475 -0.4248
  100TCq2    O4 1530   4.575   2.117   2.156 -0.1516  0.4328  0.1759
  100TCq2    C9 1531   0.296   2.361   2.163 -0.4268 -0.8166  0.0572
  100TCq2    O5 1532   0.208   2.416   2.240  0.0612 -0.5300  0.4039
  100TCq2    O6 1533   0.399   2.418   2.118  0.1005  0.6048  0.3437
  100TCq2    H2 1534   0.430   2.195   2.036  0.7133 -0.6310  2.4654
  100TCq2    H3 1535   0.037   2.269   2.174  0.1637  0.1606 -0.0284
  100TCq2    H4 1536   0.123   1.919   1.947 -2.3366  0.7435 -1.0300
  101MPD2     C 1537   1.301   3.572  12.730 -0.5245 -0.2565 -0.2364
  101MPD2    C1 1538   1.167   3.606  12.747 -0.1310 -0.2764  0.2990
  101MPD2    C2 1539   1.091   3.525  12.822  0.2853 -0.5799  0.3597
  101MPD2    C3 1540   1.146   3.416  12.885  0.0367 -1.1034  0.2144
  101MPD2    C4 1541   1.276   3.373  12.854 -0.6991  0.1973  0.3457
  101MPD2    C5 1542   1.347   3.449  12.774 -0.5351 -0.2502  0.0331
  101MPD2     H 1543   0.984   3.542  12.830  0.5957  2.1480 -1.4593
  101MPD2    H1 1544   1.313   3.275  12.881 -0.8018  0.0368 -0.0957
  101MPD2    H2 1545   1.371   3.635  12.677  1.3611 -1.2795  1.0390
  101MPD2    H3 1546   1.451   3.422  12.759 -0.5977  1.1194 -2.9366
  101MPD2     N 1547   1.072   3.328  12.962 -0.0354 -0.3066 -0.0996
  101MPD2    H5 1548   1.114   3.243  12.997  1.3419 -0.5148 -2.2550
  101MPD2    N1 1549   1.118   3.723  12.690  0.7452 -0.6329  0.0190
  101MPD2    H7 1550   1.187   3.783  12.645 -0.7480 -0.5808 -2.1832
  102TCq2    C1 1551   1.166   4.014  12.319  0.3006 -0.2968 -0.3373
  102TCq2    O2 1552   1.251   3.926  12.327 -0.2810  0.0326  0.4979
  102TCq2    C2 1553   1.060   4.009  12.418  0.4569 -0.1208 -0.4380
  102TCq2    C3 1554   0.974   4.118  12.441 -0.5353 -0.3636 -0.3930
  102TCq2    C4 1555   0.891   4.104  12.554  0.0043 -0.8094 -0.2505
  102TCq2    C5 1556   0.895   3.995  12.640 -0.7331  0.0005  0.2653
  102TCq2    C6 1557   0.991   3.904  12.611 -0.5233 -0.3013  0.0659
  102TCq2    C7 1558   1.076   3.905  12.507 -0.4675  0.0586  0.4113
  102TCq2    C8 1559   0.994   3.782  12.690  0.2492 -0.2797  0.0097
  102TCq2    O4 1560   0.901   3.756  12.770  0.4178 -0.1307 -0.0387
  102TCq2    C9 1561   0.800   4.209  12.571 -0.3725  0.2880 -0.0570
  102TCq2    O5 1562   0.797   4.305  12.489 -0.6585  0.0914  0.5528
  102TCq2    O6 1563   0.714   4.185  12.657  0.2039 -0.1492  0.7187
  102TCq2    H2 1564   0.966   4.202  12.373 -0.1102  1.2861  1.5616
  102TCq2    H3 1565   0.833   3.984  12.728  0.1937 -2.1747  0.6529
  102TCq2    H4 1566   1.132   3.815  12.484  1.6737  1.1096  1.5113
  103TMC2    C1 1567   4.245   3.476  12.155 -0.1063 -0.8864 -0.3965
  103TMC2    C2 1568   4.373   3.463  12.203  0.3640 -0.2663  0.8975
  103TMC2    C3 1569   4.414   3.530  12.318  0.0559 -0.0199 -0.0709
  103TMC2    C4 1570   4.151   3.547  12.226  0.7548 -0.5390  0.1840
  103TMC2    C5 1571   4.191   3.590  12.350 -0.1038 -0.4969  0.2684
  103TMC2    C6 1572   4.319   3.589  12.396 -0.2738 -0.1218  0.1714
  103TMC2     C 1573   4.186   3.374  12.068  0.8959 -0.4680  0.2128
  103TMC2     O 1574   4.099   3.415  11.990  0.6326  0.4900  0.0579
  103TMC2     H 1575   4.451   3.421  12.140 -0.9462 -0.6126 -0.5167
  103TMC2    H1 1576   4.047   3.557  12.200  1.2219  1.4279 -0.8910
  103TMC2    H2 1577   4.346   3.629  12.493  1.1099 -2.0424  0.5844
  103TMC2    C7 1578   4.088   3.610  12.453 -0.3881 -0.4688  0.3138
  103TMC2    C8 1579   4.544   3.583  12.304 -0.3227 -0.0626  0.4719
  103TMC2    O1 1580   4.127   3.677  12.548  0.8691  0.0713  0.1146
  103TMC2    O2 1581   4.602   3.615  12.408  0.4512 -0.0569  0.9546
  103TMC2    O5 1582   4.541   3.662  12.196  0.3568 -0.7968 -0.3495
  103TMC2    H5 1583   4.475   3.638  12.128 -1.7239 -0.5660  1.5787
  104MPD2     C 1584   4.277   3.017  12.047 -0.5143 -0.7113  0.4278
  104MPD2    C1 1585   4.204   3.127  12.018 -0.2756  0.3380 -0.4883
  104MPD2    C2 1586   4.088   3.122  11.941  0.6703  0.2250  0.2089
  104MPD2    C3 1587   4.051   3.002  11.882  0.2214 -0.9162  0.8170
  104MPD2    C4 1588   4.123   2.886  11.921 -0.2915 -0.4351 -0.5991
  104MPD2    C5 1589   4.235   2.897  12.002 -0.0598 -0.0975 -0.1631
  104MPD2     H 1590   4.045   3.213  11.899  2.3468  0.3777 -1.1593
  104MPD2    H1 1591   4.089   2.789  11.886  0.2356 -0.8329 -0.0276
  104MPD2    H2 1592   4.353   3.020  12.123 -0.3176 -0.4588  0.2185
  104MPD2    H3 1593   4.285   2.806  12.033 -1.7036 -1.8334 -2.6986
  104MPD2     N 1594   3.942   3.002  11.793 -0.6858  0.2532 -0.1757
  104MPD2    H5 1595   3.897   3.092  11.781 -1.0781  0.1492  0.5227
  104MPD2    N1 1596   4.246   3.245  12.081  0.3747 -0.5297  0.0404
  104MPD2    H7 1597   4.318   3.233  12.152  0.1077 -1.2200  0.2035
  105MPD2     C 1598   0.422   3.288  17.059  0.8376  0.0634 -0.2168
  105MPD2    C1 1599   0.354   3.179  17.013 -0.0038  0.1353 -0.5751
  105MPD2    C2 1600   0.339   3.063  17.090  0.6962 -0.1798 -0.8002
  105MPD2    C3 1601   0.393   3.068  17.217  0.3754  0.0285 -0.1648
  105MPD2    C4 1602   0.456   3.178  17.261 -0.0670 -0.8025  0.0632
  105MPD2    C5 1603   0.452   3.290  17.189 -0.2437  0.2528 -0.5807
  105MPD2     H 1604   0.280   2.980  17.054 -0.4426 -1.0709  3.2338
  105MPD2    H1 1605   0.507   3.177  17.357  0.5770  1.8364 -0.2707
  105MPD2    H2 1606   0.440   3.380  17.005  0.6843  1.0786  1.4605
  105MPD2    H3 1607   0.495   3.381  17.229 -0.6405  0.8663 -1.5373
  105MPD2     N 1608   0.369   2.949  17.288  0.2076  0.0138 -0.3807
  105MPD2    H5 1609   0.312   2.879  17.242 -1.5479  0.6214  0.8552
  105MPD2    N1 1610   0.291   3.179  16.891 -0.8588  0.0086  0.7872
  105MPD2    H7 1611   0.246   3.095  16.855  1.2161 -1.0220  0.6137
  106TCq2    C1 1612   0.410   2.909  17.413 -0.0230 -0.0290  0.6399
  106TCq2    O2 1613   0.496   2.958  17.492  0.2322 -0.0925 -0.6189
  106TCq2    C2 1614   0.338   2.788  17.451 -0.0111  0.5917 -0.4714
  106TCq2    C3 1615   0.216   2.757  17.394  0.1530 -0.9308  0.2205
  106TCq2    C4 1616   0.162   2.634  17.424 -0.3514 -0.7226  0.6370
  106TCq2    C5 1617   0.224   2.544  17.510  0.4414 -0.2586 -0.0397
  106TCq2    C6 1618   0.345   2.581  17.570  0.1300  0.1065 -0.2858
  106TCq2    C7 1619   0.407   2.699  17.534  0.4724 -0.4578 -0.5259
  106TCq2    C8 1620   0.386   2.518   0.012  0.0480  0.1025  0.0399
  106TCq2    O4 1621   0.494   2.538   0.059 -0.0955  0.5635 -0.2707
  106TCq2    C9 1622   0.028   2.608  17.371 -0.7219 -1.0224 -0.2588
  106TCq2    O5 1623   4.709   2.488  17.371 -0.1260 -0.4487 -0.3035
  106TCq2    O6 1624   4.695   2.702  17.307 -0.1797 -0.5974 -0.1567
  106TCq2    H2 1625   0.154   2.821  17.333 -1.3213 -1.6372  0.9727
  106TCq2    H3 1626   0.173   2.449  17.519 -1.8082  0.9176 -0.5274
  106TCq2    H4 1627   0.492   2.733  17.591 -0.5712  1.1556  0.0608
  107TMC2    C1 1628   1.399   2.474  11.699 -0.0569  0.3466 -0.4542
  107TMC2    C2 1629   1.468   2.547  11.601  0.9150  0.8026  0.1426
  107TMC2    C3 1630   1.579   2.496  11.555 -0.2270 -0.4959  1.0401
  107TMC2    C4 1631   1.434   2.348  11.741 -0.0040  0.3269 -0.7867
  107TMC2    C5 1632   1.548   2.301  11.678 -0.6059  0.2519  0.2466
  107TMC2    C6 1633   1.628   2.376  11.597  0.3753 -0.1114  0.5044
  107TMC2     C 1634   1.281   2.537  11.760  0.0031  0.2291 -0.3865
  107TMC2     O 1635   1.206   2.465  11.824  0.5438  0.4277 -0.2729
  107TMC2     H 1636   1.417   2.628  11.552 -0.9382 -0.1757  0.4270
  107TMC2    H1 1637   1.378   2.299  11.819  0.3193 -1.8407 -1.9060
  107TMC2    H2 1638   1.734   2.359  11.583  0.1408  0.1441 -1.6254
  107TMC2    C7 1639   1.608   2.179  11.728 -0.5322  0.4882  0.0871
  107TMC2    C8 1640   1.663   2.574  11.466 -0.5560 -0.0134  0.6253
  107TMC2    O1 1641   1.612   2.173  11.848 -0.8968  0.2490 -0.0020
  107TMC2    O2 1642   1.651   2.692  11.441 -0.0537 -0.1676 -0.1513
  107TMC2    O5 1643   1.713   2.482  11.380  0.1028 -0.2359  0.0438
  107TMC2    H5 1644   1.688   2.392  11.412  0.3407 -0.2434  0.2014
  108MPD2     C 1645   1.097   2.845  11.668  0.7561 -0.1455 -0.1081
  108MPD2    C1 1646   1.141   2.742  11.755 -0.2413  0.5704  0.1524
  108MPD2    C2 1647   1.070   2.713  11.871  0.0885  0.2000 -0.1522
  108MPD2    C3 1648   0.963   2.789  11.907  0.4828  0.3265  0.1041
  108MPD2    C4 1649   0.929   2.896  11.830 -0.0672 -0.0195 -0.6274
  108MPD2    C5 1650   0.994   2.916  11.709 -0.1366  0.0305 -0.0331
  108MPD2     H 1651   1.104   2.634  11.937  1.1439 -0.2132 -1.1983
  108MPD2    H1 1652   0.843   2.959  11.847  0.2670  0.1603  0.3901
  108MPD2    H2 1653   1.152   2.871  11.579 -0.0598 -1.7589 -1.0774
  108MPD2    H3 1654   0.953   2.998  11.651  1.9875  0.9946 -0.1466
  108MPD2     N 1655   0.872   2.747  12.008 -0.3859  0.0958 -0.4576
  108MPD2    H5 1656   0.780   2.790  12.008 -0.2987  0.2642  1.8236
  108MPD2    N1 1657   1.253   2.667  11.718 -1.0878  0.3042 -0.4087
  108MPD2    H7 1658   1.317   2.708  11.650 -0.1600  1.1792  0.9770
  109MPD2     C 1659   0.851   4.284   1.865 -0.4199 -0.3452  0.2646
  109MPD2    C1 1660   0.900   4.294   1.732  0.2284  0.5513 -0.8212
  109MPD2    C2 1661   1.034   4.333   1.715  0.0270  0.5827  0.2265
  109MPD2    C3 1662   1.113   4.362   1.818 -0.4675  0.9079  0.2806
  109MPD2    C4 1663   1.059   4.368   1.945  0.0116 -0.1367  0.1834
  109MPD2    C5 1664   0.927   4.334   1.972 -1.1755 -0.2759  0.2421
  109MPD2     H 1665   1.082   4.324   1.618  2.6627  4.7222  1.1434
  109MPD2    H1 1666   1.106   4.412   2.033  2.6131 -0.9099 -0.8272
  109MPD2    H2 1667   0.750   4.248   1.881 -0.3410 -0.0595  1.4120
  109MPD2    H3 1668   0.886   4.338   2.072 -0.7703 -0.6658  0.4222
  109MPD2     N 1669   1.249   4.391   1.797 -0.2501 -0.9646 -0.4981
  109MPD2    H5 1670   1.273   4.410   1.700 -0.0437 -0.7030 -0.3938
  109MPD2    N1 1671   0.813   4.255   1.632 -0.2932 -0.4045 -0.2614
  109MPD2    H7 1672   0.728   4.204   1.655 -1.8169  2.2339 -0.0333
  110TCq2    C1 1673   1.346   4.378   1.896 -0.0605 -0.1300  0.3077
  110TCq2    O2 1674   1.342   4.337   2.014 -0.0193 -0.1359 -0.1362
  110TCq2    C2 1675   1.477   4.422   1.851 -0.0132 -0.1056 -0.0382
  110TCq2    C3 1676   1.582   4.352   1.914 -0.5011  0.1653 -0.4814
  110TCq2    C4 1677   1.703   4.383   1.864  0.1031 -0.1530 -0.1390
  110TCq2    C5 1678   1.730   4.476   1.770  0.1367  0.1944  0.6368
  110TCq2    C6 1679   1.625   4.554   1.729  0.1098  0.8645 -0.6477
  110TCq2    C7 1680   1.496   4.521   1.760 -0.2284 -0.2929 -0.2711
  110TCq2    C8 1681   1.639   4.651   1.629  0.3420 -0.2383  0.4435
  110TCq2    O4 1682   1.533   4.681   1.574 -0.1133 -0.5098 -0.3195
  110TCq2    C9 1683   1.818   4.303   1.914 -0.6150  0.3097 -0.3875
  110TCq2    O5 1684   1.928   4.329   1.863  0.9002 -0.0164  0.4296
  110TCq2    O6 1685   1.801   4.232   2.017  0.4123 -0.0266  0.0343
  110TCq2    H2 1686   1.561   4.284   1.996 -0.4365  0.7523  0.0169
  110TCq2    H3 1687   1.831   4.499   1.740 -0.0925 -1.0604 -1.1138
  110TCq2    H4 1688   1.410   4.578   1.728 -0.6305  0.4725  2.1792
  111TMC2    C1 1689   1.838   4.473  10.940  0.2136  0.8332 -0.6368
  111TMC2    C2 1690   1.934   4.477  10.839 -0.7094  0.7289  0.6478
  111TMC2    C3 1691   2.033   4.391  10.847 -0.1471 -0.2948  0.0666
  111TMC2    C4 1692   1.854   4.389  11.049 -0.1797 -0.4192 -0.3691
  111TMC2    C5 1693   1.960   4.305  11.052 -0.0974  0.2130 -0.0245
  111TMC2    C6 1694   2.047   4.303  10.948  0.1511 -0.0231 -0.0899
  111TMC2     C 1695   1.734   4.569  10.923 -0.5449 -0.3956 -0.1973
  111TMC2     O 1696   1.756   4.660  10.845  0.2818  0.0491 -0.0392
  111TMC2     H 1697   1.919   4.541  10.753 -1.5114 -1.0705 -0.5614
  111TMC2    H1 1698   1.765   4.377  11.109 -0.7361 -0.7588 -1.2548
  111TMC2    H2 1699   2.137   4.243  10.952  0.4542  0.4278 -0.1319
  111TMC2    C7 1700   1.984   4.227  11.171  0.4221  0.2385  0.0499
  111TMC2    C8 1701   2.143   4.426  10.762  0.1844  0.1417  0.1148
  111TMC2    O1 1702   1.881   4.219  11.237  0.2193  0.6036  0.9742
  111TMC2    O2 1703   2.214   4.340  10.709 -0.6022  0.5223  0.0418
  111TMC2    O5 1704   2.194   4.546  10.800  0.0822 -0.2137 -0.3773
  111TMC2    H5 1705   2.140   4.584  10.873  0.1414  0.6909 -0.7965
  112MPD2     C 1706   1.335   0.119  11.086 -0.0252  0.3851  0.1881
  112MPD2    C1 1707   1.393   0.110  10.963  0.2734  0.2099  0.4574
  112MPD2    C2 1708   1.503   0.026  10.943  0.0564  0.3742 -0.0625
  112MPD2    C3 1709   1.546   4.667  11.049 -0.5500  0.8385 -0.3515
  112MPD2    C4 1710   1.494   4.677  11.177 -0.4096 -0.3955  0.3027
  112MPD2    C5 1711   1.393   0.053  11.194  0.3269  0.4075  0.6948
  112MPD2     H 1712   1.542   0.019  10.842  0.3485 -1.9659  0.2034
  112MPD2    H1 1713   1.521   4.620  11.265  0.0711  0.5677  0.7847
  112MPD2    H2 1714   1.240   0.166  11.110 -0.7425 -0.3987 -1.1632
  112MPD2    H3 1715   1.344   0.048  11.291  0.6678 -0.1250  0.8406
  112MPD2     N 1716   1.661   4.572  11.035  0.4136 -0.7709  0.0229
  112MPD2    H5 1717   1.684   4.525  11.122  0.6871 -0.0560  0.3354
  112MPD2    N1 1718   1.343   0.166  10.849  0.2816 -0.5213 -0.9171
  112MPD2    H7 1719   1.394   0.150  10.763  0.7289 -2.8463 -0.2154
  113MPD2     C 1720   3.733   1.831   1.490  0.3263 -0.2034 -0.6059
  113MPD2    C1 1721   3.791   1.867   1.370  0.6923  0.0686  0.2960
  113MPD2    C2 1722   3.715   1.854   1.250  0.0860  0.7471 -0.0192
  113MPD2    C3 1723   3.583   1.810   1.255  0.7852 -0.1397 -0.2005
  113MPD2    C4 1724   3.533   1.771   1.379  0.2638  0.2731  0.5008
  113MPD2    C5 1725   3.610   1.776   1.497 -1.1248  0.0711  0.2945
  113MPD2     H 1726   3.758   1.869   1.152 -0.0827  1.3679 -0.0006
  113MPD2    H1 1727   3.427   1.751   1.392  0.6317 -0.4434  2.3376
  113MPD2    H2 1728   3.784   1.852   1.584 -0.3086 -0.3620 -0.2250
  113MPD2    H3 1729   3.567   1.762   1.595 -0.8677 -2.0958  0.1096
  113MPD2     N 1730   3.503   1.800   1.139  0.6830 -0.4727 -0.5008
  113MPD2    H5 1731   3.418   1.749   1.159  0.0401  0.3775 -1.0966
  113MPD2    N1 1732   3.923   1.909   1.354  0.0808  0.2943 -0.5646
  113MPD2    H7 1733   3.952   1.941   1.262  3.0780 -1.3519 -0.1789
  114TCq2    C1 1734   3.510   1.880   1.034  0.0392  0.6471  0.9063
  114TCq2    O2 1735   3.591   1.968   1.012 -0.8347  0.3941 -0.0368
  114TCq2    C2 1736   3.400   1.863   0.934  0.4222  0.2976  0.4726
  114TCq2    C3 1737   3.363   1.968   0.849  0.4315 -0.0615 -1.0204
  114TCq2    C4 1738   3.247   1.973   0.773 -1.1435  0.4655 -0.3993
  114TCq2    C5 1739   3.186   1.856   0.758 -0.0676  0.1665  0.7728
  114TCq2    C6 1740   3.222   1.739   0.831  0.5100 -0.3267  0.3008
  114TCq2    C7 1741   3.321   1.749   0.924 -0.3281 -0.0348 -0.1453
  114TCq2    C8 1742   3.122   1.637   0.837  0.3893  0.7883  0.4395
  114TCq2    O4 1743   3.013   1.661   0.795 -0.3333  0.1244 -0.3906
  114TCq2    C9 1744   3.210   2.088   0.692 -0.0104 -0.4441  0.2740
  114TCq2    O5 1745   3.299   2.177   0.681 -0.3133  0.2654  0.8467
  114TCq2    O6 1746   3.105   2.076   0.618  0.1044 -0.3567 -0.1620
  114TCq2    H2 1747   3.427   2.055   0.844 -0.2507  0.6341  2.3773
  114TCq2    H3 1748   3.105   1.844   0.687  1.1142 -3.5235  0.0478
  114TCq2    H4 1749   3.341   1.668   0.994 -3.3360 -1.1045 -0.5134
  115TMC2    C1 1750   4.082   0.563  16.965 -0.7921 -0.6625 -0.9310
  115TMC2    C2 1751   4.045   0.645  16.862 -0.3147  0.0655 -0.5692
  115TMC2    C3 1752   4.071   0.779  16.878 -0.4603 -0.7360  0.4081
  115TMC2    C4 1753   4.126   0.600  17.084 -0.2423  0.2281 -0.3355
  115TMC2    C5 1754   4.137   0.735  17.099 -0.5255  1.1926 -0.4014
  115TMC2    C6 1755   4.113   0.827  16.999  0.3916 -0.6400  0.0697
  115TMC2     C 1756   4.064   0.421  16.933  0.3881 -0.5440  0.3688
  115TMC2     O 1757   4.031   0.389  16.819  0.8961  0.5932 -0.0825
  115TMC2     H 1758   4.000   0.606  16.771 -2.4142 -0.9423  0.9333
  115TMC2    H1 1759   4.164   0.529  17.156 -0.4803 -1.1319 -1.5431
  115TMC2    H2 1760   4.124   0.934  17.004 -2.6379 -0.3759  1.3235
  115TMC2    C7 1761   4.227   0.769  17.208 -0.4960  1.0336 -0.2524
  115TMC2    C8 1762   4.015   0.866  16.781  1.0490 -0.1940  0.0554
  115TMC2    O1 1763   4.242   0.689  17.298  0.3815 -0.5299  0.2420
  115TMC2    O2 1764   3.929   0.823  16.705 -0.3078  0.2603  0.3097
  115TMC2    O5 1765   4.103   0.965  16.744  0.7702  0.3451  0.5973
  115TMC2    H5 1766   4.175   0.967  16.812  0.8861 -1.9907  0.5419
  116MPD2     C 1767   4.071   4.628  17.002 -0.4059 -0.8775 -0.0114
  116MPD2    C1 1768   4.056   4.703  16.892 -0.4180  0.6943  0.6451
  116MPD2    C2 1769   4.064   0.119  16.901  0.1543  0.3180 -0.4854
  116MPD2    C3 1770   4.080   0.185  17.023  0.0007  0.0382 -0.9552
  116MPD2    C4 1771   4.097   0.107  17.134 -0.5380 -0.1160 -0.2353
  116MPD2    C5 1772   4.097   4.690  17.123  0.9886  0.6492 -0.3147
  116MPD2     H 1773   4.048   0.168  16.805  2.3771 -0.3558 -1.2100
  116MPD2    H1 1774   4.097   0.145  17.236 -1.0618  1.1416 -0.6999
  116MPD2    H2 1775   4.075   4.520  16.992  0.8188 -0.7574 -0.8522
  116MPD2    H3 1776   4.102   4.622  17.208 -0.6489  0.9463  0.0114
  116MPD2     N 1777   4.088   0.330  17.036 -0.0529  0.8810 -0.3275
  116MPD2    H5 1778   4.114   0.370  17.125  0.4941 -0.6914  0.2152
  116MPD2    N1 1779   4.049   4.626  16.769 -0.5206 -0.5914 -0.3363
  116MPD2    H7 1780   4.040   4.525  16.768 -0.5467 -0.5892 -0.2448
  117TMC2    C1 1781   2.995   1.720  14.027 -0.2870  0.2796  0.0502
  117TMC2    C2 1782   2.957   1.697  14.157  0.3083  0.1423 -0.5572
  117TMC2    C3 1783   3.055   1.728  14.253 -0.8203 -0.7256  0.4294
  117TMC2    C4 1784   3.125   1.757  13.993  0.1644 -0.2879 -0.3077
  117TMC2    C5 1785   3.213   1.788  14.087 -0.3452  0.3790  0.8165
  117TMC2    C6 1786   3.179   1.760  14.220  0.3736 -0.4864 -0.1860
  117TMC2     C 1787   2.902   1.786  13.938 -1.0029  0.2565 -0.8013
  117TMC2     O 1788   2.954   1.873  13.866 -0.0672 -0.1229  0.4326
  117TMC2     H 1789   2.858   1.662  14.181  0.7544 -1.0031 -0.4233
  117TMC2    H1 1790   3.153   1.777  13.890  0.4429  0.6533 -0.0477
  117TMC2    H2 1791   3.242   1.808  14.293  2.4182 -0.5930 -1.8870
  117TMC2    C7 1792   3.278   1.910  14.079  0.4003  0.0589 -0.3078
  117TMC2    C8 1793   3.028   1.683  14.393 -0.0495  0.5296  0.3821
  117TMC2    O1 1794   3.390   1.921  14.127  0.4534 -0.2930 -0.0769
  117TMC2    O2 1795   2.921   1.650  14.437  0.1605 -0.3201 -0.5315
  117TMC2    O5 1796   3.150   1.635  14.443  0.2344 -0.7160 -0.0030
  117TMC2    H5 1797   3.232   1.660  14.397  1.1512 -1.5033  1.1975
  118MPD2     C 1798   3.150   2.195  13.890  0.1854  0.2605 -0.1135
  118MPD2    C1 1799   3.225   2.137  13.986  0.4772  0.1429 -0.1815
  118MPD2    C2 1800   3.337   2.202  14.031 -0.5696 -0.0342 -0.4965
  118MPD2    C3 1801   3.367   2.334  13.993 -0.5002 -0.0307  0.2048
  118MPD2    C4 1802   3.288   2.392  13.900  0.4909 -0.5648  0.4994
  118MPD2    C5 1803   3.178   2.324  13.850  0.0507 -0.8040  0.2339
  118MPD2     H 1804   3.408   2.154  14.097  0.1239 -0.5332 -1.6088
  118MPD2    H1 1805   3.309   2.494  13.869 -3.5833 -0.7826 -3.0847
  118MPD2    H2 1806   3.063   2.150  13.845 -0.0466  0.6874 -0.0941
  118MPD2    H3 1807   3.118   2.366  13.769  1.0590 -1.9457 -1.1031
  118MPD2     N 1808   3.494   2.388  14.014 -0.7193 -0.2423 -0.8369
  118MPD2    H5 1809   3.514   2.477  13.968  2.9388 -0.2753  0.6318
  118MPD2    N1 1810   3.193   2.004  14.023  0.3709 -0.6811 -0.0047
  118MPD2    H7 1811   3.113   1.971  13.970  0.5779 -1.0791 -0.0691
  119MPD2     C 1812   2.072   3.070  13.248 -0.3966 -0.1580 -0.0508
  119MPD2    C1 1813   1.952   3.087  13.310  0.4373  0.0814  0.1813
  119MPD2    C2 1814   1.839   3.012  13.275 -0.3484  0.4148 -0.1101
  119MPD2    C3 1815   1.852   2.917  13.169 -0.2892  0.5947  0.5235
  119MPD2    C4 1816   1.973   2.905  13.112  0.0768  0.9400  0.2439
  119MPD2    C5 1817   2.081   2.982  13.150  0.1749 -0.0625  0.9776
  119MPD2     H 1818   1.742   3.045  13.310 -1.4410 -1.1397 -1.6731
  119MPD2    H1 1819   1.983   2.838  13.026 -2.6688  1.3754 -0.4088
  119MPD2    H2 1820   2.162   3.117  13.287  0.2154 -1.7849  0.4961
  119MPD2    H3 1821   2.178   2.979  13.102 -0.3970  1.1281 -0.2512
  119MPD2     N 1822   1.748   2.857  13.097 -0.3548  0.4134 -0.2649
  119MPD2    H5 1823   1.768   2.798  13.016 -2.3169 -1.0768  0.3470
  119MPD2    N1 1824   1.953   3.185  13.408  0.0633 -0.2899  0.4107
  119MPD2    H7 1825   2.026   3.255  13.396  0.0697 -0.5165 -0.8818
  120TCq2    C1 1826   1.614   2.871  13.129  0.6001 -0.0157  0.6818
  120TCq2    O2 1827   1.575   2.901  13.239  0.3214  0.2509  0.2838
  120TCq2    C2 1828   1.528   2.805  13.038 -0.3137  0.3541 -0.2299
  120TCq2    C3 1829   1.564   2.796  12.907 -0.1874 -0.7251  0.7877
  120TCq2    C4 1830   1.470   2.738  12.822 -0.3755  0.1512  0.1979
  120TCq2    C5 1831   1.342   2.705  12.863  0.7130 -0.2266  0.7992
  120TCq2    C6 1832   1.322   2.713  13.004 -0.3867 -0.4015 -1.1136
  120TCq2    C7 1833   1.413   2.763  13.091  0.6804  0.0899 -0.0920
  120TCq2    C8 1834   1.185   2.698  13.044 -0.1197 -0.4002 -0.2231
  120TCq2    O4 1835   1.106   2.694  12.954 -0.1220  0.4086 -0.1112
  120TCq2    C9 1836   1.511   2.710  12.683  0.6500 -0.5687  0.5290
  120TCq2    O5 1837   1.414   2.687  12.605  0.5766  0.5698 -0.4462
  120TCq2    O6 1838   1.632   2.709  12.656  0.2876  0.7227  0.1793
  120TCq2    H2 1839   1.663   2.818  12.870 -0.8749  0.2959 -0.4464
  120TCq2    H3 1840   1.271   2.665  12.792 -0.4011  0.3800  1.5656
  120TCq2    H4 1841   1.396   2.775  13.198  1.1362 -0.5844  0.0524
  121TMC2    C1 1842   2.299   4.571  13.353  0.0451 -0.4275  1.0162
  121TMC2    C2 1843   2.366   4.460  13.320  0.0536  0.5959 -0.0740
  121TMC2    C3 1844   2.302   4.339  13.331  0.1270 -0.0548  0.0573
  121TMC2    C4 1845   2.173   4.563  13.403 -0.0379  0.3222  0.3882
  121TMC2    C5 1846   2.122   4.444  13.422 -0.3400  0.2758 -0.0824
  121TMC2    C6 1847   2.186   4.328  13.398  0.2208  0.2534 -0.3159
  121TMC2     C 1848   2.328   4.699  13.288  0.5661  0.5771 -0.5089
  121TMC2     O 1849   2.237   0.056  13.273  0.2636 -0.6513  0.5497
  121TMC2     H 1850   2.470   4.468  13.290  0.1542 -0.0464  0.1028
  121TMC2    H1 1851   2.113   4.647  13.437 -1.2855  1.0235 -3.5495
  121TMC2    H2 1852   2.151   4.226  13.408  1.9158 -0.0189  2.8163
  121TMC2    C7 1853   1.991   4.430  13.490  0.2741  0.1864  0.0294
  121TMC2    C8 1854   2.347   4.221  13.252 -0.1609 -0.0626  0.6786
  121TMC2    O1 1855   1.969   4.322  13.544  0.1566  0.0131  0.3438
  121TMC2    O2 1856   2.278   4.124  13.225 -0.4096  0.4930  0.3552
  121TMC2    O5 1857   2.471   4.243  13.211 -0.0973  0.0924  0.1898
  121TMC2    H5 1858   2.506   4.335  13.218 -0.7142  0.4087 -0.9858
  122MPD2     C 1859   2.439   0.208  13.141 -0.7963  0.0836  0.0578
  122MPD2    C1 1860   2.520   0.102  13.177 -0.3111  0.2202 -0.2994
  122MPD2    C2 1861   2.652   0.113  13.147 -0.2635  0.0698 -0.0344
  122MPD2    C3 1862   2.709   0.224  13.088 -0.5114  0.1653 -0.5988
  122MPD2    C4 1863   2.630   0.328  13.066  0.0186  0.0473 -0.1817
  122MPD2    C5 1864   2.498   0.313  13.080  0.4927 -0.4313  0.2043
  122MPD2     H 1865   2.707   0.023  13.168  0.3025  0.3445 -0.3334
  122MPD2    H1 1866   2.661   0.410  13.003  2.9920 -0.1984  0.9601
  122MPD2    H2 1867   2.330   0.207  13.141 -0.7946 -0.0421 -2.2766
  122MPD2    H3 1868   2.441   0.400  13.052  2.0393  0.6630  0.4124
  122MPD2     N 1869   2.847   0.238  13.054  0.4937 -0.2215  0.9988
  122MPD2    H5 1870   2.871   0.325  13.008  0.6364 -1.0050 -0.3907
  122MPD2    N1 1871   2.464   4.710  13.245 -0.3715 -0.2016 -0.4373
  122MPD2    H7 1872   2.528   4.636  13.271  0.5832 -0.6037 -4.0313
  123MPD2     C 1873   1.975   3.320   9.256 -0.6034  0.2694 -0.5019
  123MPD2    C1 1874   1.841   3.317   9.218  0.3258 -0.0368 -0.0103
  123MPD2    C2 1875   1.775   3.207   9.243  0.1600 -0.2964 -0.4125
  123MPD2    C3 1876   1.836   3.096   9.307  0.0673 -0.7602 -0.0068
  123MPD2    C4 1877   1.971   3.093   9.338  0.1391  0.8739 -0.7906
  123MPD2    C5 1878   2.036   3.209   9.309  0.1312  0.0254 -0.9553
  123MPD2     H 1879   1.667   3.208   9.240  0.2005 -0.3122 -2.0636
  123MPD2    H1 1880   2.031   3.009   9.372  1.3017  1.6542 -0.8946
  123MPD2    H2 1881   2.045   3.398   9.227 -0.8761  0.3154 -1.0426
  123MPD2    H3 1882   2.142   3.206   9.327  0.1313 -0.1388 -0.9857
  123MPD2     N 1883   1.754   2.981   9.322  0.2713  0.2014 -0.1963
  123MPD2    H5 1884   1.658   2.993   9.290  0.0661 -0.8072  0.0476
  123MPD2    N1 1885   1.786   3.429   9.144 -0.0262 -0.4108  0.0338
  123MPD2    H7 1886   1.852   3.506   9.134 -1.6357  0.8909 -0.5896
  124TCq2    C1 1887   1.784   2.867   9.391  0.0882  0.0345 -0.0874
  124TCq2    O2 1888   1.880   2.849   9.463  0.1580 -0.1605  0.2468
  124TCq2    C2 1889   1.685   2.762   9.371 -0.5122  0.2382 -0.2605
  124TCq2    C3 1890   1.556   2.789   9.318 -0.4876  0.4618 -0.4357
  124TCq2    C4 1891   1.459   2.699   9.339  0.0244 -0.0189 -0.3764
  124TCq2    C5 1892   1.469   2.583   9.411 -0.4532  0.5702 -0.3931
  124TCq2    C6 1893   1.598   2.565   9.464  0.4680  0.3098  0.5391
  124TCq2    C7 1894   1.699   2.654   9.450  0.3744  0.0436  0.2905
  124TCq2    C8 1895   1.613   2.470   9.571 -0.1768 -0.2459  0.5946
  124TCq2    O4 1896   1.722   2.476   9.626 -0.2304 -0.7699 -0.0417
  124TCq2    C9 1897   1.326   2.736   9.291 -0.6587  0.9541 -1.1896
  124TCq2    O5 1898   1.318   2.837   9.220 -0.2821  0.7795  0.0785
  124TCq2    O6 1899   1.227   2.661   9.319  0.2266 -0.7265  0.8162
  124TCq2    H2 1900   1.531   2.872   9.253  1.1326  1.4626  0.2051
  124TCq2    H3 1901   1.391   2.508   9.411 -0.4934  0.6155 -0.0324
  124TCq2    H4 1902   1.802   2.636   9.477 -0.6767 -0.5371  3.9297
  125TMC2    C1 1903   3.565   4.247   9.163  0.1142  0.1457 -0.2877
  125TMC2    C2 1904   3.480   4.134   9.167 -0.1022  0.7593  0.3908
  125TMC2    C3 1905   3.497   4.035   9.079  0.3119 -0.2707  0.3938
  125TMC2    C4 1906   3.668   4.254   9.072 -0.3398  0.0053  0.4187
  125TMC2    C5 1907   3.691   4.148   8.991  0.7406 -0.8620 -0.2179
  125TMC2    C6 1908   3.602   4.036   8.989  0.1532 -0.3097 -0.2558
  125TMC2     C 1909   3.554   4.345   9.270 -0.2267  0.2501 -0.2150
  125TMC2     O 1910   3.648   4.353   9.346 -0.0173  0.1216  0.6129
  125TMC2     H 1911   3.394   4.126   9.233  1.1711  0.9050  2.0560
  125TMC2    H1 1912   3.742   4.333   9.087  0.7172 -0.7151 -1.0761
  125TMC2    H2 1913   3.617   3.940   8.942  0.3555 -0.1942 -0.4321
  125TMC2    C7 1914   3.809   4.128   8.907  0.2695 -0.2457 -0.0410
  125TMC2    C8 1915   3.400   3.929   9.056 -0.0285  0.1893  0.0302
  125TMC2    O1 1916   3.841   4.015   8.886  0.4302  0.6602  0.0129
  125TMC2    O2 1917   3.433   3.828   8.995  0.0664 -0.2322 -0.4080
  125TMC2    O5 1918   3.283   3.993   9.040  0.0127 -0.2008  0.0040
  125TMC2    H5 1919   3.293   4.078   9.088  0.2767  0.3665 -1.0492
  126MPD1     C 1920   3.320   0.012   9.503  1.1819 -0.1267 -0.1714
  126MPD1    C1 1921   3.237   4.677   9.406 -0.2986  0.3010 -0.6924
  126MPD1    C2 1922   3.278   4.559   9.343  0.2852  0.8218 -0.1308
  126MPD1    C3 1923   3.397   4.507   9.365 -0.3668 -0.3734 -0.1965
  126MPD1    C4 1924   3.483   4.565   9.461  0.2151  0.1245 -0.5518
  126MPD1    C5 1925   3.439   4.669   9.533 -0.6418 -0.3143 -0.1980
  126MPD1     H 1926   3.217   4.502   9.274  0.2854  0.6135  0.0441
  126MPD1    H1 1927   3.578   4.525   9.494 -1.0774 -1.6478  1.0232
  126MPD1    H2 1928   3.303   0.099   9.564 -0.9789 -1.4029  1.0744
  126MPD1    H3 1929   3.510   4.704   9.607  0.4936  0.5040 -1.6709
  126MPD1     N 1930   3.433   4.401   9.282  0.0690  0.4609  1.1410
  126MPD1    H5 1931   3.367   4.366   9.213  0.1396  1.4350  0.5717
  126MPD1    N1 1932   3.110   0.001   9.388 -0.3366  0.5168 -0.2371
  126MPD1    H6 1933   3.081   0.000   9.290 -0.3752  2.7534 -0.2578
  126MPD1    H7 1934   3.101   0.101   9.409  0.0775  0.6712 -0.7988
  127MPD2     C 1935   4.361   3.429   9.031 -0.4301 -0.3892  1.2129
  127MPD2    C1 1936   4.378   3.394   9.161  0.1753 -0.3013 -0.8790
  127MPD2    C2 1937   4.451   3.477   9.243  0.0982  0.4508 -0.5254
  127MPD2    C3 1938   4.494   3.599   9.199  0.2303 -0.0556 -0.4251
  127MPD2    C4 1939   4.471   3.640   9.069 -0.5571  0.1413 -0.3942
  127MPD2    C5 1940   4.413   3.547   8.985 -0.1268 -0.7199  0.0601
  127MPD2     H 1941   4.460   3.449   9.348 -0.8464 -1.2882 -0.8910
  127MPD2    H1 1942   4.500   3.737   9.029  0.1212 -0.6150 -1.7533
  127MPD2    H2 1943   4.296   3.372   8.967  0.8232 -1.0970  0.5692
  127MPD2    H3 1944   4.380   3.584   8.889 -1.3806  0.3151  0.8886
  127MPD2     N 1945   4.542   3.693   9.293 -0.0110 -0.1369  0.3373
  127MPD2    H5 1946   4.525   3.661   9.388  0.6818  0.1742  0.5591
  127MPD2    N1 1947   4.307   3.288   9.212  0.2527  0.2866  0.9558
  127MPD2    H7 1948   4.249   3.231   9.150  1.7411 -1.0845  0.8365
  128TCq2    C1 1949   4.324   3.235   9.338 -0.1573  0.4178 -0.4047
  128TCq2    O2 1950   4.361   3.294   9.443 -0.2637  0.2007 -0.5386
  128TCq2    C2 1951   4.240   3.117   9.357  0.0030 -0.6959 -0.1274
  128TCq2    C3 1952   4.156   3.113   9.468  0.0976  0.7323  0.8479
  128TCq2    C4 1953   4.077   3.000   9.480 -0.7230  0.6874  0.1576
  128TCq2    C5 1954   4.089   2.890   9.394  0.1486 -0.2277 -0.1331
  128TCq2    C6 1955   4.183   2.892   9.291 -0.5447 -0.5346 -0.2942
  128TCq2    C7 1956   4.259   3.005   9.280 -0.2783  0.4283  0.0356
  128TCq2    C8 1957   4.171   2.809   9.174 -0.5224 -0.4049 -0.6916
  128TCq2    O4 1958   4.236   2.832   9.078 -0.3394 -0.1739  0.3563
  128TCq2    C9 1959   3.972   3.012   9.579 -0.5275  0.4246  0.2591
  128TCq2    O5 1960   3.893   2.916   9.593 -0.1698 -0.0661  0.5921
  128TCq2    O6 1961   3.968   3.123   9.641  0.7157 -0.1024 -0.2047
  128TCq2    H2 1962   4.149   3.198   9.535  0.1606  1.5151 -0.1247
  128TCq2    H3 1963   4.019   2.808   9.407  1.5471 -1.3539  0.3492
  128TCq2    H4 1964   4.335   3.004   9.203 -0.8823  1.4070 -0.5812
  129MPD2     C 1965   1.388   4.100   1.653 -0.4256  0.0131  0.0317
  129MPD2    C1 1966   1.527   4.108   1.687  0.9209 -0.4520  0.2178
  129MPD2    C2 1967   1.609   4.199   1.620  0.4863  0.1487  0.0616
  129MPD2    C3 1968   1.560   4.271   1.512 -0.1121  0.1819 -0.7672
  129MPD2    C4 1969   1.428   4.258   1.478 -0.1957  0.7311 -1.0084
  129MPD2    C5 1970   1.346   4.180   1.550 -0.2781 -0.1939 -0.4356
  129MPD2     H 1971   1.712   4.215   1.651  0.8541  0.8431 -1.5504
  129MPD2    H1 1972   1.389   4.306   1.389  1.6540  3.0387 -0.5770
  129MPD2    H2 1973   1.313   4.034   1.697 -0.9923  0.6528  0.0190
  129MPD2    H3 1974   1.242   4.179   1.520 -0.1326 -0.1114 -0.9367
  129MPD2     N 1975   1.652   4.355   1.445  0.0024 -0.6604  0.4599
  129MPD2    H5 1976   1.748   4.352   1.478  0.9854 -0.5197 -2.3653
  129MPD2    N1 1977   1.592   4.023   1.782  0.0559  0.0159  0.3093
  129MPD2    H7 1978   1.693   4.020   1.791  0.2412 -2.1565 -2.7291
  130TCq2    C1 1979   1.529   3.932   1.863  0.3280 -0.3509 -0.6412
  130TCq2    O2 1980   1.409   3.903   1.874 -0.3945 -0.3958 -0.1077
  130TCq2    C2 1981   1.619   3.849   1.943 -0.0388 -0.5990 -0.3355
  130TCq2    C3 1982   1.748   3.892   1.966 -0.2618  0.0405 -0.1580
  130TCq2    C4 1983   1.837   3.793   1.981 -1.1205  0.2550  0.6271
  130TCq2    C5 1984   1.799   3.663   1.982 -0.0439  0.3548  0.2675
  130TCq2    C6 1985   1.670   3.623   1.967 -0.4651  0.1439 -0.1649
  130TCq2    C7 1986   1.578   3.715   1.947  0.2375  0.8208 -0.3422
  130TCq2    C8 1987   1.649   3.499   1.914  0.4866  0.3238 -0.3392
  130TCq2    O4 1988   1.564   3.480   1.826 -0.1690 -0.7591 -0.3293
  130TCq2    C9 1989   1.977   3.836   1.983  0.5792 -0.1763  0.0477
  130TCq2    O5 1990   2.057   3.742   2.009  0.5412  0.2134 -0.0166
  130TCq2    O6 1991   2.004   3.959   1.981  0.7879 -0.3204  0.1975
  130TCq2    H2 1992   1.773   3.997   1.977 -0.3736  0.2205 -1.7347
  130TCq2    H3 1993   1.881   3.594   1.996  0.3791  0.9605  0.7849
  130TCq2    H4 1994   1.472   3.693   1.940  0.7550 -1.8520  0.1730
  131MPD2     C 1995   1.990   4.245   9.209  0.3666  0.5789 -0.2069
  131MPD2    C1 1996   2.053   4.128   9.170 -0.1787 -0.5895 -0.0414
  131MPD2    C2 1997   1.972   4.017   9.145  0.3385 -0.2070 -0.5838
  131MPD2    C3 1998   1.836   4.030   9.153  0.4690 -0.3039  0.1708
  131MPD2    C4 1999   1.774   4.147   9.199 -0.3264 -0.0154 -0.3928
  131MPD2    C5 2000   1.856   4.254   9.220 -0.6628 -0.0687 -0.8236
  131MPD2     H 2001   2.014   3.927   9.102 -0.3236  0.5794 -2.8787
  131MPD2    H1 2002   1.667   4.158   9.190 -0.0697  2.2420 -0.7574
  131MPD2    H2 2003   2.047   4.335   9.227 -1.7250  1.4034  2.4032
  131MPD2    H3 2004   1.814   4.350   9.246  1.6014  0.6148  0.3001
  131MPD2     N 2005   1.763   3.912   9.131 -0.6730 -0.4417  0.4340
  131MPD2    H5 2006   1.814   3.827   9.109 -2.0142 -1.1537  0.1320
  131MPD2    N1 2007   2.193   4.123   9.159  0.1786  0.1570 -0.3377
  131MPD2    H7 2008   2.244   4.211   9.158  0.4823  0.0125  2.0426
  132TCq2    C1 2009   2.589   4.336   8.941 -0.1070  0.1504  0.3479
  132TCq2    O2 2010   2.487   4.385   8.889 -0.0894  0.2110 -0.7020
  132TCq2    C2 2011   2.569   4.212   9.022  0.0269  0.1276 -0.1169
  132TCq2    C3 2012   2.671   4.125   9.037  1.0828 -0.1420 -0.1880
  132TCq2    C4 2013   2.643   4.007   9.096 -0.3146  0.1641 -0.2665
  132TCq2    C5 2014   2.514   3.977   9.128  0.7038  1.0511 -0.4673
  132TCq2    C6 2015   2.406   4.054   9.100  0.4979  0.0526 -0.4888
  132TCq2    C7 2016   2.439   4.179   9.046  0.1675 -0.0856 -0.2344
  132TCq2    C8 2017   2.267   4.013   9.129 -0.3109  0.1917 -0.0229
  132TCq2    O4 2018   2.238   3.895   9.141  0.4035 -0.6976 -0.1859
  132TCq2    C9 2019   2.754   3.925   9.131 -0.4759 -0.3154 -0.3051
  132TCq2    O5 2020   2.739   3.812   9.181  0.5084  0.4528  0.4834
  132TCq2    O6 2021   2.863   3.964   9.099  0.3559 -0.0115  0.1166
  132TCq2    H2 2022   2.771   4.153   9.008  1.2432  0.8571  1.3030
  132TCq2    H3 2023   2.489   3.884   9.178 -0.6623  1.8391  0.3195
  132TCq2    H4 2024   2.355   4.243   9.021  0.0826  0.0568  0.4379
  133MPD2     C 2025   0.116   3.468   8.706  0.0802 -0.5016 -0.1242
  133MPD2    C1 2026   0.221   3.398   8.656 -0.0020 -0.9269  0.2260
  133MPD2    C2 2027   0.349   3.444   8.690 -0.7623 -0.1477  0.1113
  133MPD2    C3 2028   0.364   3.553   8.773 -0.8360 -1.1476 -0.9090
  133MPD2    C4 2029   0.252   3.616   8.827 -0.2897 -1.1131 -0.5779
  133MPD2    C5 2030   0.127   3.576   8.794  0.1874  0.5702 -0.1042
  133MPD2     H 2031   0.440   3.399   8.652 -0.6783  0.2742 -0.1886
  133MPD2    H1 2032   0.259   3.694   8.903 -0.0259  0.4551 -2.2062
  133MPD2    H2 2033   0.022   3.423   8.676 -0.6611 -2.1691  4.6845
  133MPD2    H3 2034   0.032   3.618   8.823  0.2982  1.4877 -1.0480
  133MPD2     N 2035   0.492   3.594   8.817 -0.4510 -0.1149  0.2592
  133MPD2    H5 2036   0.487   3.674   8.878  2.4137  0.6317 -0.5119
  133MPD2    N1 2037   0.201   3.290   8.564  0.4642 -0.2070  0.2976
  133MPD2    H7 2038   0.103   3.266   8.551  0.5283 -0.0600 -0.5021
  134TCq2    C1 2039   0.291   3.235   8.469  0.3198  0.5149 -0.4910
  134TCq2    O2 2040   0.403   3.274   8.451 -0.1113 -0.6412  0.0807
  134TCq2    C2 2041   0.228   3.125   8.400 -0.7415 -0.3075 -0.3081
  134TCq2    C3 2042   0.311   3.053   8.322  0.0123  0.6866  0.3639
  134TCq2    C4 2043   0.264   2.937   8.266  0.1260 -0.4305 -0.5724
  134TCq2    C5 2044   0.136   2.887   8.287  0.4824  0.5525 -0.5189
  134TCq2    C6 2045   0.062   2.952   8.380  0.3739 -0.2508 -0.1215
  134TCq2    C7 2046   0.103   3.073   8.433  0.7911  0.1192 -0.0292
  134TCq2    C8 2047   4.676   2.882   8.452 -0.1263  0.3998  0.2108
  134TCq2    O4 2048   4.628   2.945   8.545  0.2227  0.2134 -0.1816
  134TCq2    C9 2049   0.358   2.861   8.183 -0.3897 -0.2589  0.6040
  134TCq2    O5 2050   0.322   2.746   8.164 -0.1043 -0.2475  0.1380
  134TCq2    O6 2051   0.473   2.908   8.163 -0.5170  0.0942 -0.4430
  134TCq2    H2 2052   0.414   3.081   8.304 -0.4587  1.6612 -0.7730
  134TCq2    H3 2053   0.102   2.795   8.243  0.5546 -0.2232  1.0261
  134TCq2    H4 2054   0.034   3.133   8.491 -0.1359 -0.7831 -0.1980
  135MPD2     C 2055   3.738   0.434   8.511 -0.2511  0.0386  0.4831
  135MPD2    C1 2056   3.779   0.513   8.620  0.1148 -0.0392  0.3276
  135MPD2    C2 2057   3.909   0.553   8.623 -0.8237 -1.0793  0.1169
  135MPD2    C3 2058   4.000   0.522   8.518 -0.4815 -0.5480 -0.8464
  135MPD2    C4 2059   3.965   0.434   8.419 -0.5125 -0.2640  0.5395
  135MPD2    C5 2060   3.831   0.390   8.413  0.3692 -0.6204 -0.4177
  135MPD2     H 2061   3.941   0.611   8.708  0.3676 -0.1075 -0.9928
  135MPD2    H1 2062   4.031   0.392   8.344  1.8659 -1.4998  3.3199
  135MPD2    H2 2063   3.633   0.405   8.510 -0.9858  2.5463  2.9272
  135MPD2    H3 2064   3.801   0.316   8.340 -0.8273 -0.9749  0.4214
  135MPD2     N 2065   4.133   0.565   8.528  0.6883 -0.0552  0.1186
  135MPD2    H5 2066   4.195   0.529   8.456 -1.1225  0.7408 -1.8479
  135MPD2    N1 2067   3.703   0.545   8.733  0.2827  0.2792  0.2884
  135MPD2    H7 2068   3.745   0.592   8.812  1.7049  1.9753 -1.4733
  136TCq2    C1 2069   3.569   0.511   8.749 -0.8531  0.2956  0.3314
  136TCq2    O2 2070   3.488   0.469   8.669 -0.2214  0.3593  0.3348
  136TCq2    C2 2071   3.526   0.554   8.876  0.6487 -0.6360 -0.2512
  136TCq2    C3 2072   3.398   0.603   8.888  0.6866  0.5709 -0.2171
  136TCq2    C4 2073   3.357   0.621   9.014  0.6683  0.4594  0.0305
  136TCq2    C5 2074   3.432   0.595   9.124 -0.2545  0.7872 -0.0271
  136TCq2    C6 2075   3.564   0.557   9.105 -0.1915 -0.0578 -0.0912
  136TCq2    C7 2076   3.602   0.520   8.980 -0.4971  0.0897 -0.5607
  136TCq2    C8 2077   3.649   0.491   9.210 -0.4745  0.1609 -0.1546
  136TCq2    O4 2078   3.769   0.478   9.186  0.3198 -0.3582  0.4275
  136TCq2    C9 2079   3.235   0.680   9.042  0.3180 -0.6569 -0.0506
  136TCq2    O5 2080   3.144   0.691   8.957 -0.6540 -0.0047  0.2085
  136TCq2    O6 2081   3.220   0.724   9.163  0.4501  0.2053  0.0871
  136TCq2    H2 2082   3.330   0.622   8.806 -2.3209 -2.1165  1.6374
  136TCq2    H3 2083   3.401   0.612   9.226 -0.1372 -2.6937  0.5778
  136TCq2    H4 2084   3.694   0.464   8.966 -1.4538 -1.1741 -1.7691
  137MPD2     C 2085   3.782   3.748   9.141 -0.3230  0.7907  0.2869
  137MPD2    C1 2086   3.804   3.860   9.205  0.0557  0.7278  0.6602
  137MPD2    C2 2087   3.716   3.902   9.308 -0.8991 -0.7863  0.4561
  137MPD2    C3 2088   3.613   3.816   9.338  0.4303  0.0586 -0.0839
  137MPD2    C4 2089   3.590   3.700   9.263 -0.0076  1.3349  0.5674
  137MPD2    C5 2090   3.680   3.665   9.167  0.8760  0.1282  0.1012
  137MPD2     H 2091   3.717   3.998   9.359  1.2981 -1.8006  2.3022
  137MPD2    H1 2092   3.501   3.639   9.275  1.2026 -0.8308 -1.6641
  137MPD2    H2 2093   3.849   3.717   9.062  1.3306  3.2798  0.6944
  137MPD2    H3 2094   3.673   3.583   9.097 -0.0871 -0.8238  1.3040
  137MPD2     N 2095   3.533   3.848   9.448 -0.0549 -0.4528  0.7258
  137MPD2    H5 2096   3.547   3.942   9.485 -1.0760  0.4325 -1.1016
  137MPD2    N1 2097   3.910   3.941   9.160  0.0082 -0.1484 -0.1255
  137MPD2    H7 2098   3.964   3.922   9.077  0.9030  0.2533  0.3602
  138TCq2    C1 2099   3.942   4.068   9.206  0.6908 -0.3511  0.1060
  138TCq2    O2 2100   3.865   4.142   9.267 -0.1386  0.4140 -0.2000
  138TCq2    C2 2101   4.063   4.122   9.164 -0.1968 -0.3065 -0.5902
  138TCq2    C3 2102   4.142   4.066   9.066 -0.4776 -0.1285 -0.4953
  138TCq2    C4 2103   4.262   4.122   9.030  0.6637  1.1476  0.6877
  138TCq2    C5 2104   4.286   4.255   9.060  0.3866  0.1428  0.1986
  138TCq2    C6 2105   4.187   4.317   9.134 -0.7475 -0.3671 -0.4898
  138TCq2    C7 2106   4.088   4.252   9.199 -0.0527 -0.1307 -0.1940
  138TCq2    C8 2107   4.201   4.459   9.152  0.1724 -0.0229  0.4107
  138TCq2    O4 2108   4.297   4.527   9.113  0.1675  0.3337 -0.4634
  138TCq2    C9 2109   4.361   4.032   8.971  0.1972  0.0817  0.2789
  138TCq2    O5 2110   4.321   3.920   8.933  0.2571 -0.5405 -0.2505
  138TCq2    O6 2111   4.474   4.079   8.944 -0.2802  0.1962  0.0192
  138TCq2    H2 2112   4.118   3.969   9.025 -0.9245 -0.5773  0.8471
  138TCq2    H3 2113   4.367   4.309   9.013  0.4441  0.0651  0.2076
  138TCq2    H4 2114   4.034   4.293   9.283 -0.2086 -1.3002  0.2741
  139TMC2    C1 2115   3.204   2.623  13.072 -0.5813  0.4942 -0.6810
  139TMC2    C2 2116   3.303   2.697  13.001  0.2001  0.1820 -0.5823
  139TMC2    C3 2117   3.270   2.812  12.932 -0.6441 -0.3925  0.3238
  139TMC2    C4 2118   3.070   2.660  13.058  0.3176 -0.4131  0.5125
  139TMC2    C5 2119   3.041   2.773  12.994 -0.3244 -0.0292 -0.8329
  139TMC2    C6 2120   3.136   2.841  12.920 -0.5409  0.2835 -0.6274
  139TMC2     C 2121   3.249   2.514  13.161  0.2933 -0.1439 -0.0408
  139TMC2     O 2122   3.366   2.512  13.179 -0.0046  0.3391  0.5746
  139TMC2     H 2123   3.406   2.666  13.018  0.6788  1.1162 -1.7633
  139TMC2    H1 2124   2.998   2.617  13.127  1.6186 -0.5803  1.7735
  139TMC2    H2 2125   3.108   2.923  12.855  0.0763  1.5742  0.7588
  139TMC2    C7 2126   2.907   2.839  13.017 -0.2840  0.6386  0.3807
  139TMC2    C8 2127   3.356   2.844  12.817 -0.3380  0.0859 -0.0798
  139TMC2    O1 2128   2.921   2.960  13.006 -0.1999  0.4754 -0.2794
  139TMC2    O2 2129   3.422   2.756  12.755  1.0277  0.0412  0.0119
  139TMC2    O5 2130   3.335   2.971  12.785  0.0518  0.4045  0.0482
  139TMC2    H5 2131   3.297   3.035  12.850  0.1035  0.6807 -0.1901
  140MPD2     C 2132   3.065   2.219  13.271  0.2400 -0.3927 -0.4996
  140MPD2    C1 2133   3.180   2.296  13.248 -0.2685  0.0379  0.4625
  140MPD2    C2 2134   3.311   2.239  13.273  0.1685  0.0918 -0.0078
  140MPD2    C3 2135   3.322   2.106  13.323  0.4557  0.5677  1.3298
  140MPD2    C4 2136   3.204   2.035  13.339 -0.0834  0.3685 -0.4523
  140MPD2    C5 2137   3.085   2.093  13.322 -0.1611  0.3068 -0.2789
  140MPD2     H 2138   3.397   2.304  13.262 -0.9992  1.7815  0.8428
  140MPD2    H1 2139   3.198   1.938  13.387 -0.4018  0.9748  0.7337
  140MPD2    H2 2140   2.963   2.245  13.244 -0.5076  0.0043  2.7345
  140MPD2    H3 2141   3.005   2.027  13.354 -1.1112  1.9148  0.6260
  140MPD2     N 2142   3.450   2.049  13.359  1.0223  0.1459  0.2856
  140MPD2    H5 2143   3.537   2.095  13.336  1.1737 -0.2088  0.1436
  140MPD2    N1 2144   3.154   2.429  13.197 -0.3593  0.0295  0.3375
  140MPD2    H7 2145   3.057   2.449  13.178 -0.8359 -2.3197  0.2825
  141TCq2    C1 2146   3.719   3.382  14.031  0.2705 -0.1856  0.7203
  141TCq2    O2 2147   3.749   3.495  13.981  0.3743 -0.5586  0.4492
  141TCq2    C2 2148   3.667   3.373  14.165 -0.2292  0.3722 -0.0340
  141TCq2    C3 2149   3.595   3.264  14.207  0.8144 -0.0406 -0.4157
  141TCq2    C4 2150   3.523   3.265  14.322  0.4822 -0.3316  0.1341
  141TCq2    C5 2151   3.508   3.380  14.387 -0.2159  0.3295  0.1745
  141TCq2    C6 2152   3.581   3.486  14.346  0.7287  0.3096  0.3313
  141TCq2    C7 2153   3.660   3.490  14.235  0.3166 -0.2582 -0.4850
  141TCq2    C8 2154   3.516   3.616  14.386 -0.1389 -0.0335  0.6408
  141TCq2    O4 2155   3.436   3.610  14.481 -0.3995  0.0811  0.7956
  141TCq2    C9 2156   3.450   3.147  14.369 -0.5168  0.1323  0.3621
  141TCq2    O5 2157   3.418   3.064  14.282  0.2787 -0.2891 -0.3676
  141TCq2    O6 2158   3.434   3.142  14.496 -0.2576 -0.0026 -0.3620
  141TCq2    H2 2159   3.613   3.170  14.156  0.7032 -0.7871  0.9016
  141TCq2    H3 2160   3.447   3.384  14.477 -0.0008 -0.0241  0.3369
  141TCq2    H4 2161   3.722   3.572  14.202 -1.9013  1.2012 -1.0123
  142MPD2     C 2162   1.720   1.580  10.727  0.3079  0.0254  0.7098
  142MPD2    C1 2163   1.744   1.548  10.601  1.3440 -0.6444  0.4989
  142MPD2    C2 2164   1.814   1.631  10.513 -0.1766  0.6160  0.7009
  142MPD2    C3 2165   1.864   1.759  10.555 -0.2507  0.5040  0.0146
  142MPD2    C4 2166   1.844   1.793  10.688  0.0207 -0.2384 -0.0134
  142MPD2    C5 2167   1.770   1.702  10.764 -0.2749  0.0012 -0.5204
  142MPD2     H 2168   1.832   1.598  10.412 -0.8355  0.8875  0.4955
  142MPD2    H1 2169   1.879   1.885  10.733  0.3209 -0.1944 -0.3415
  142MPD2    H2 2170   1.666   1.522  10.801  0.1441 -0.9789 -0.1998
  142MPD2    H3 2171   1.765   1.740  10.865  0.6552 -1.7843  0.2125
  142MPD2     N 2172   1.909   1.855  10.460  0.2651 -0.0617  0.0726
  142MPD2    H5 2173   1.959   1.936  10.495  1.2051 -0.3045 -0.6828
  142MPD2    N1 2174   1.697   1.424  10.544 -0.5938  0.0387  0.3074
  142MPD2    H7 2175   1.648   1.364  10.609  1.3283  0.5005  2.1969
  143TCq2    C1 2176   1.864   1.850  10.331  0.7450 -0.4289  0.2832
  143TCq2    O2 2177   1.772   1.795  10.277 -0.0933  0.0854 -0.2202
  143TCq2    C2 2178   1.920   1.954  10.255  0.0003 -0.0361 -0.1417
  143TCq2    C3 2179   2.038   2.015  10.286  0.0397 -1.1047  0.2248
  143TCq2    C4 2180   2.087   2.112  10.202  0.0264  0.4152  0.1356
  143TCq2    C5 2181   2.019   2.150  10.090  0.2085  0.1724 -0.1719
  143TCq2    C6 2182   1.895   2.101  10.076  0.4875 -0.4397 -0.1377
  143TCq2    C7 2183   1.843   1.997  10.152  0.4072  0.3804  0.3011
  143TCq2    C8 2184   1.812   2.177   9.983 -0.1336 -0.0485 -0.2276
  143TCq2    O4 2185   1.849   2.285   9.939 -0.2477 -0.1458 -0.0385
  143TCq2    C9 2186   2.217   2.175  10.228 -0.5150 -0.4890  0.2403
  143TCq2    O5 2187   2.241   2.280  10.165  0.1112  0.0612  0.3570
  143TCq2    O6 2188   2.284   2.124  10.323  0.0855  0.1473 -0.0335
  143TCq2    H2 2189   2.102   1.978  10.365  0.6303  1.9152  1.1430
  143TCq2    H3 2190   2.053   2.232  10.028  0.9803  0.0598  0.1067
  143TCq2    H4 2191   1.739   1.967  10.144  0.5679 -0.1912  0.3397
  144MPD2     C 2192   3.942   1.148   0.438 -0.7313  0.3009 -0.0510
  144MPD2    C1 2193   4.024   1.076   0.356  0.4030  0.4511  0.2655
  144MPD2    C2 2194   4.161   1.100   0.355 -0.2370  0.1409 -0.2800
  144MPD2    C3 2195   4.213   1.183   0.451 -0.8535 -0.4319 -0.0710
  144MPD2    C4 2196   4.127   1.261   0.529 -0.0932  0.1758 -0.4499
  144MPD2    C5 2197   3.995   1.240   0.520 -0.6534  0.4292  0.2645
  144MPD2     H 2198   4.221   1.050   0.281  0.1884 -1.3918  1.1168
  144MPD2    H1 2199   4.169   1.329   0.602  0.9961  1.1092 -1.9244
  144MPD2    H2 2200   3.834   1.142   0.430 -0.7611  2.4329 -1.2082
  144MPD2    H3 2201   3.922   1.295   0.579  1.9180  2.2949  1.7187
  144MPD2     N 2202   4.351   1.205   0.471  0.3597 -0.1467 -0.6438
  144MPD2    H5 2203   4.370   1.276   0.541  0.4905  1.8919 -2.7569
  144MPD2    N1 2204   3.975   1.000   0.247  0.9845 -0.8727  0.2360
  144MPD2    H7 2205   4.041   0.981   0.172  1.0513 -2.8321  0.7734
  145TCq2    C1 2206   4.459   1.142   0.405 -0.5075  0.1110  0.9828
  145TCq2    O2 2207   4.464   1.075   0.304 -0.0122 -0.0683 -0.1018
  145TCq2    C2 2208   4.586   1.201   0.448  1.0860  0.5106 -0.8280
  145TCq2    C3 2209   4.693   1.192   0.365  0.3154  1.0248  0.2466
  145TCq2    C4 2210   0.091   1.228   0.412  0.0190  1.0462 -0.4370
  145TCq2    C5 2211   0.117   1.259   0.543  0.5805  0.5269  0.4963
  145TCq2    C6 2212   0.010   1.269   0.628 -0.1465 -0.8257  0.3750
  145TCq2    C7 2213   4.603   1.243   0.577  0.0855 -0.4826  0.9105
  145TCq2    C8 2214   0.036   1.270   0.772  0.2707  0.1079  0.3081
  145TCq2    O4 2215   0.135   1.206   0.808  0.4127 -0.3620  0.5333
  145TCq2    C9 2216   0.205   1.213   0.324  0.1894  0.3080 -0.0634
  145TCq2    O5 2217   0.196   1.125   0.233 -0.7044 -0.0378 -0.3299
  145TCq2    O6 2218   0.312   1.249   0.372 -0.3186  0.0116  0.3175
  145TCq2    H2 2219   4.686   1.163   0.261  2.1131  0.0063  0.4066
  145TCq2    H3 2220   0.217   1.287   0.574  0.8333 -0.4766  0.5687
  145TCq2    H4 2221   4.526   1.214   0.647 -0.5515 -0.7410  0.1173
  146TMC2    C1 2222   0.917   4.590  12.537 -0.6187 -0.0150 -0.3544
  146TMC2    C2 2223   0.866   4.576  12.413  0.3566 -0.0046  0.0166
  146TMC2    C3 2224   0.946   4.512  12.321 -0.3912 -0.1966 -0.0856
  146TMC2    C4 2225   1.034   4.533  12.575  0.1626 -0.4147 -0.3820
  146TMC2    C5 2226   1.118   4.486  12.474 -0.4158  0.0597 -0.2968
  146TMC2    C6 2227   1.071   4.466  12.351 -0.4765 -0.2187  0.2286
  146TMC2     C 2228   0.861   4.701  12.612 -0.2411 -0.1514  0.9528
  146TMC2     O 2229   0.810   0.070  12.544  0.2341  0.2009 -0.2954
  146TMC2     H 2230   0.783   4.640  12.386  0.0317  1.4494  4.3602
  146TMC2    H1 2231   1.069   4.541  12.677 -1.3031 -1.2542  0.1950
  146TMC2    H2 2232   1.119   4.411  12.271  1.6889  0.9109  0.7828
  146TMC2    C7 2233   1.210   4.380  12.519 -0.0946  0.2495 -0.2986
  146TMC2    C8 2234   0.879   4.459  12.204 -0.0104 -0.1496 -0.1854
  146TMC2    O1 2235   1.299   4.334  12.444  0.0329  0.0645 -0.0147
  146TMC2    O2 2236   0.935   4.459  12.095  0.2939  0.1637  0.0669
  146TMC2    O5 2237   0.776   4.378  12.248  0.9702 -0.4548 -0.0950
  146TMC2    H5 2238   0.797   4.366  12.343  2.8437  0.7942 -0.3642
  147MPD2     C 2239   1.366   4.004  12.826 -1.5098 -0.2315  0.1647
  147MPD2    C1 2240   1.228   4.033  12.843 -0.2996 -0.5193 -0.5476
  147MPD2    C2 2241   1.168   4.139  12.783 -0.2854  0.6349 -0.3525
  147MPD2    C3 2242   1.241   4.224  12.708 -0.3069  0.2647  0.1463
  147MPD2    C4 2243   1.377   4.201  12.693 -0.2688  0.5525  0.4487
  147MPD2    C5 2244   1.441   4.091  12.744 -0.5882 -0.8345  0.6852
  147MPD2     H 2245   1.062   4.159  12.790 -0.5429 -0.2038 -1.7784
  147MPD2    H1 2246   1.440   4.264  12.632 -0.1204 -0.6939 -0.6907
  147MPD2    H2 2247   1.403   3.916  12.878 -1.4757  0.3747  1.1662
  147MPD2    H3 2248   1.549   4.083  12.744 -0.5614 -0.4366  1.0962
  147MPD2     N 2249   1.174   4.325  12.636 -0.1760 -0.0020 -0.0368
  147MPD2    H5 2250   1.091   4.366  12.677 -0.4889 -0.1476 -0.5101
  147MPD2    N1 2251   1.153   3.953  12.937  0.3346  0.1486 -0.2154
  147MPD2    H7 2252   1.216   3.888  12.983 -0.5902  0.0103  0.8419
  148MPD2     C 2253   1.665   2.979  10.711 -0.5498  0.1656 -0.1501
  148MPD2    C1 2254   1.686   3.007  10.574  0.4265 -0.3891 -0.1393
  148MPD2    C2 2255   1.595   2.976  10.478  0.4515 -0.7720  0.5245
  148MPD2    C3 2256   1.478   2.909  10.512  0.2710  0.2848  0.3634
  148MPD2    C4 2257   1.467   2.864  10.642 -0.2436 -0.4344  0.2083
  148MPD2    C5 2258   1.554   2.897  10.741 -0.0640 -0.1021  0.3072
  148MPD2     H 2259   1.605   3.012  10.376  1.5364  0.8577  1.2069
  148MPD2    H1 2260   1.401   2.784  10.674 -0.2562 -1.2646 -1.8366
  148MPD2    H2 2261   1.738   2.992  10.790  0.5602  0.5091 -1.2312
  148MPD2    H3 2262   1.545   2.845  10.836  0.2119 -0.5693  0.0763
  148MPD2     N 2263   1.369   2.893  10.426  0.4015 -0.0564  1.3454
  148MPD2    H5 2264   1.283   2.857  10.467  0.0907 -1.3723 -0.4825
  148MPD2    N1 2265   1.801   3.073  10.525 -0.0871 -0.0800 -0.1590
  148MPD2    H7 2266   1.817   3.084  10.425 -2.1796 -2.8040 -0.7677
  149TCq2    C1 2267   1.907   3.116  10.602  0.0055  0.1086 -0.3425
  149TCq2    O2 2268   1.914   3.144  10.721 -0.1493 -0.1579  0.1494
  149TCq2    C2 2269   2.020   3.153  10.529 -0.2812  0.4886  0.0353
  149TCq2    C3 2270   2.067   3.280  10.533  0.2398  0.1489  0.3987
  149TCq2    C4 2271   2.141   3.329  10.428 -0.1072 -0.2470 -0.3877
  149TCq2    C5 2272   2.145   3.260  10.314 -0.6557  0.6102 -0.3827
  149TCq2    C6 2273   2.108   3.131  10.309  0.0416 -0.3057  0.0244
  149TCq2    C7 2274   2.041   3.077  10.418 -0.0402 -0.8183  0.3532
  149TCq2    C8 2275   2.091   3.066  10.180 -0.7662 -0.0346  0.0792
  149TCq2    O4 2276   2.046   2.953  10.182  0.2015  0.0261 -0.1154
  149TCq2    C9 2277   2.169   3.476  10.418 -0.3096  0.2463 -0.0492
  149TCq2    O5 2278   2.152   3.542  10.523 -0.3470 -0.4561 -0.1755
  149TCq2    O6 2279   2.227   3.520  10.317 -0.1529 -0.6818 -0.3382
  149TCq2    H2 2280   2.048   3.346  10.618 -0.8351  0.3608 -0.0119
  149TCq2    H3 2281   2.188   3.316  10.233 -0.7998 -0.7382 -1.3991
  149TCq2    H4 2282   2.011   2.973  10.421 -0.2701 -0.7536  0.3430
  150MPD2     C 2283   2.996   2.474  12.085  0.1791 -0.1673 -0.1816
  150MPD2    C1 2284   3.000   2.563  11.976  0.8354 -0.0670 -0.3186
  150MPD2    C2 2285   3.127   2.627  11.953 -0.4802 -0.3433  0.3399
  150MPD2    C3 2286   3.235   2.615  12.045 -0.3164 -0.5467  0.4787
  150MPD2    C4 2287   3.216   2.527  12.151 -0.1396  0.1955 -0.2687
  150MPD2    C5 2288   3.103   2.459  12.162  0.2659  0.0804  0.1392
  150MPD2     H 2289   3.142   2.700  11.874  3.4850 -2.3212 -0.7348
  150MPD2    H1 2290   3.287   2.519  12.232  0.7443 -0.5909 -1.1330
  150MPD2    H2 2291   2.901   2.429  12.109  0.1075 -0.1956 -0.5236
  150MPD2    H3 2292   3.100   2.405  12.256  2.6994 -1.3440 -0.6076
  150MPD2     N 2293   3.350   2.695  12.035  0.6814  0.2051 -0.0123
  150MPD2    H5 2294   3.343   2.761  11.958 -0.3098 -0.2889 -0.3433
  150MPD2    N1 2295   2.881   2.580  11.892  0.0716  0.3539  0.3733
  150MPD2    H7 2296   2.793   2.538  11.919 -1.3388  1.9519 -1.7809
  151TCq2    C1 2297   3.460   2.693  12.123 -0.3694  0.7275  0.9603
  151TCq2    O2 2298   3.504   2.608  12.199 -0.8352  0.2038 -0.2863
  151TCq2    C2 2299   3.546   2.809  12.093  0.2482 -0.3622  0.0580
  151TCq2    C3 2300   3.501   2.914  12.019 -0.2403 -0.1209 -0.1104
  151TCq2    C4 2301   3.590   3.016  12.007 -0.2037  0.2074 -0.8906
  151TCq2    C5 2302   3.711   3.029  12.067  0.4768 -0.5846  0.3992
  151TCq2    C6 2303   3.750   2.927  12.148 -0.2268  0.5770  0.5381
  151TCq2    C7 2304   3.667   2.817  12.164  0.5420 -0.2548 -0.2964
  151TCq2    C8 2305   3.884   2.932  12.213  0.5870 -0.1455  0.4276
  151TCq2    O4 2306   3.922   3.047  12.246  0.2012 -0.0471  0.2278
  151TCq2    C9 2307   3.539   3.126  11.927 -0.3374 -0.1768 -0.5735
  151TCq2    O5 2308   3.611   3.226  11.907 -0.8632 -0.3162  0.0473
  151TCq2    O6 2309   3.421   3.132  11.898 -0.0645  0.0657 -0.2523
  151TCq2    H2 2310   3.410   2.923  11.961 -0.2138 -0.1448 -0.1549
  151TCq2    H3 2311   3.772   3.118  12.059  1.5292 -1.4533 -1.1684
  151TCq2    H4 2312   3.691   2.737  12.233 -2.0208 -1.0657 -0.3356
  152MPD2     C 2313   2.742   2.169  12.578  0.1480  0.5477 -0.0065
  152MPD2    C1 2314   2.760   2.293  12.516  0.1469  0.3816  0.5014
  152MPD2    C2 2315   2.653   2.343  12.446 -0.1839  0.2011 -0.3384
  152MPD2    C3 2316   2.536   2.269  12.433 -0.0865  0.0651  0.3158
  152MPD2    C4 2317   2.524   2.143  12.490  0.3606  0.3904 -0.0197
  152MPD2    C5 2318   2.627   2.101  12.571 -0.4056  0.9225 -0.1034
  152MPD2     H 2319   2.642   2.446  12.414  0.5988  0.5470  0.5066
  152MPD2    H1 2320   2.440   2.075  12.487 -1.5931  2.7704  0.6667
  152MPD2    H2 2321   2.824   2.136  12.641  0.9582  0.4055 -1.1485
  152MPD2    H3 2322   2.620   2.008  12.627 -0.6306 -0.3661 -2.2364
  152MPD2     N 2323   2.438   2.322  12.346  0.3017 -0.1999 -0.0358
  152MPD2    H5 2324   2.458   2.418  12.320  1.0595 -0.3997 -0.1772
  152MPD2    N1 2325   2.887   2.355  12.526 -0.2788 -0.8298 -0.1372
  152MPD2    H7 2326   2.971   2.317  12.568  1.2958 -0.3492 -2.8608
  153TCq2    C1 2327   2.901   2.487  12.496 -0.0959 -0.5125 -0.2236
  153TCq2    O2 2328   2.824   2.576  12.456  0.1224 -0.1231  0.3515
  153TCq2    C2 2329   3.043   2.522  12.486 -0.2604  0.0084 -0.0557
  153TCq2    C3 2330   3.142   2.424  12.509  0.0611 -0.0912  0.0682
  153TCq2    C4 2331   3.272   2.468  12.512 -0.2073 -0.6757 -0.6408
  153TCq2    C5 2332   3.311   2.602  12.498 -0.5313 -0.3117  0.0927
  153TCq2    C6 2333   3.207   2.692  12.477  0.5005  0.2881 -0.1319
  153TCq2    C7 2334   3.076   2.654  12.461 -0.2277  0.0666 -0.7185
  153TCq2    C8 2335   3.243   2.817  12.416  0.6228  0.1554  0.4692
  153TCq2    O4 2336   3.175   2.859  12.323  0.5393  0.1197 -0.3330
  153TCq2    C9 2337   3.377   2.367  12.527 -0.0172 -0.1560 -0.8390
  153TCq2    O5 2338   3.494   2.406  12.562 -0.1409  0.2124  0.6499
  153TCq2    O6 2339   3.345   2.246  12.556 -0.3010  0.2938  0.4302
  153TCq2    H2 2340   3.138   2.317  12.523 -0.4976 -0.2046 -0.9989
  153TCq2    H3 2341   3.412   2.639  12.511 -0.7263 -0.9953  3.4522
  153TCq2    H4 2342   3.003   2.728  12.433  1.3494  1.4947 -1.0380
  154MPD2     C 2343   4.420   1.768   0.103 -0.1415 -0.1103  0.6535
  154MPD2    C1 2344   4.430   1.849   0.217  0.9223 -0.2589 -0.5186
  154MPD2    C2 2345   4.303   1.888   0.261 -0.1291  0.4295  0.3118
  154MPD2    C3 2346   4.182   1.884   0.187 -0.4665  0.5477  0.2912
  154MPD2    C4 2347   4.183   1.811   0.074  0.6789 -0.4592 -0.7460
  154MPD2    C5 2348   4.302   1.752   0.033 -0.1957 -0.1056 -0.4374
  154MPD2     H 2349   4.303   1.957   0.345  1.3252 -0.6438  1.1972
  154MPD2    H1 2350   4.096   1.794   0.011  0.5081 -0.6228 -0.4674
  154MPD2    H2 2351   4.510   1.736   0.052 -0.1150 -0.8661  1.1574
  154MPD2    H3 2352   4.301   1.695  17.627  0.5817  2.4177 -1.9692
  154MPD2     N 2353   4.081   1.974   0.228  0.1281  0.0820  0.0020
  154MPD2    H5 2354   4.090   2.021   0.318 -0.4768  0.3951 -0.1044
  154MPD2    N1 2355   4.552   1.876   0.277  0.6403 -0.0004  0.0468
  154MPD2    H7 2356   4.635   1.845   0.227  0.4598 -0.0999 -0.1927
  155TCq2    C1 2357   4.563   1.941   0.398 -0.0962 -0.0070 -0.2390
  155TCq2    O2 2358   4.479   1.959   0.485  0.7824 -0.3575  0.3829
  155TCq2    C2 2359   4.694   1.968   0.449 -0.0719 -0.2283 -0.3506
  155TCq2    C3 2360   4.714   1.946   0.581  0.0744  0.3048 -0.7326
  155TCq2    C4 2361   0.122   1.959   0.625 -0.3897 -0.4689  0.0161
  155TCq2    C5 2362   0.230   1.961   0.542 -0.6414 -0.5916  0.5369
  155TCq2    C6 2363   0.208   1.987   0.407 -0.5951  0.2163 -0.8525
  155TCq2    C7 2364   0.078   1.990   0.365  0.0064  0.0499  0.2574
  155TCq2    C8 2365   0.308   1.965   0.313 -0.3052  0.0438  0.9118
  155TCq2    O4 2366   0.411   1.906   0.349 -0.2849 -0.5312 -0.5318
  155TCq2    C9 2367   0.140   1.971   0.763 -0.0685  0.5226  0.0389
  155TCq2    O5 2368   0.035   1.979   0.834  0.2172 -0.3144 -0.1896
  155TCq2    O6 2369   0.246   2.038   0.794 -0.3522  0.2813  0.1935
  155TCq2    H2 2370   4.636   1.915   0.649 -1.7341  1.0802 -2.4315
  155TCq2    H3 2371   0.331   1.955   0.580 -0.8634 -3.4239  0.7039
  155TCq2    H4 2372   0.041   2.021   0.268 -0.8678  0.1977  0.6417
  156MPD2     C 2373   3.351   4.697  11.271 -0.2835 -0.0938 -0.8635
  156MPD2    C1 2374   3.312   0.085  11.195 -0.5518 -0.3979 -0.2615
  156MPD2    C2 2375   3.246   0.199  11.256 -0.4964 -0.2684  0.1405
  156MPD2    C3 2376   3.229   0.195  11.391 -0.1378 -0.1652  0.4773
  156MPD2    C4 2377   3.268   0.091  11.468  0.0007  0.3080 -0.0295
  156MPD2    C5 2378   3.328   4.705  11.406  0.5340  0.2742 -0.1109
  156MPD2     H 2379   3.203   0.272  11.189 -0.9417 -1.3548 -0.7696
  156MPD2    H1 2380   3.251   0.089  11.575 -0.5240 -2.7808 -0.1793
  156MPD2    H2 2381   3.397   4.605  11.238 -3.1447 -1.7713 -0.1780
  156MPD2    H3 2382   3.355   4.622  11.470 -0.0549 -0.0255 -0.2474
  156MPD2     N 2383   3.162   0.303  11.445  0.2588  0.2468  0.2259
  156MPD2    H5 2384   3.121   0.378  11.390  0.2305  0.4377  0.5047
  156MPD2    N1 2385   3.303   0.089  11.057 -0.0758  0.4768  0.3586
  156MPD2    H7 2386   3.261   0.171  11.015  0.3861  1.0793  1.0787
  157TCq2    C1 2387   3.341   4.706  10.979  0.9329  0.3306  1.1169
  157TCq2    O2 2388   3.404   4.609  11.018 -0.4999 -0.0007  0.6158
  157TCq2    C2 2389   3.306   0.002  10.840  0.3245 -0.1107 -0.0714
  157TCq2    C3 2390   3.299   4.610  10.766  0.1981  0.2984 -1.1646
  157TCq2    C4 2391   3.235   4.620  10.647  0.2892  0.3123 -0.9870
  157TCq2    C5 2392   3.175   0.010  10.605 -0.7624  0.2744  0.2320
  157TCq2    C6 2393   3.170   0.117  10.688 -0.4248  0.0037  1.1088
  157TCq2    C7 2394   3.244   0.116  10.801 -0.6263  0.0086 -0.3176
  157TCq2    C8 2395   3.125   0.241  10.639 -0.0298 -0.5505  0.1916
  157TCq2    O4 2396   3.165   0.346  10.677  0.2793 -0.4360 -0.4001
  157TCq2    C9 2397   3.217   4.499  10.569  0.1393  0.0808  0.2604
  157TCq2    O5 2398   3.246   4.393  10.632 -0.4577  0.1294 -0.5959
  157TCq2    O6 2399   3.191   4.517  10.448 -0.1438  0.5327 -0.1304
  157TCq2    H2 2400   3.343   4.518  10.802 -0.9248 -0.0812 -0.7732
  157TCq2    H3 2401   3.123   0.018  10.510  2.1904  1.4070 -1.3002
  157TCq2    H4 2402   3.271   0.204  10.856  1.7425 -1.3832  0.7215
  158TMC2    C1 2403   3.334   4.079  13.649  0.2697 -0.2696 -0.3579
  158TMC2    C2 2404   3.387   4.199  13.664  0.2151  0.2178 -0.2957
  158TMC2    C3 2405   3.358   4.298  13.573  0.5038 -0.6202  0.2623
  158TMC2    C4 2406   3.267   4.048  13.536 -0.1116  0.3233 -0.9790
  158TMC2    C5 2407   3.247   4.144  13.443 -0.3744  0.1112 -0.3034
  158TMC2    C6 2408   3.289   4.273  13.457 -0.5595 -0.2465  0.4949
  158TMC2     C 2409   3.357   3.987  13.764 -0.1706 -0.4053 -0.4247
  158TMC2     O 2410   3.426   4.024  13.858 -0.1316  0.3392  0.0782
  158TMC2     H 2411   3.454   4.226  13.746 -4.0238  2.3057  2.4820
  158TMC2    H1 2412   3.229   3.949  13.510 -1.3982  0.1433  1.6368
  158TMC2    H2 2413   3.272   4.351  13.384  3.1977  1.0813  1.0457
  158TMC2    C7 2414   3.125   4.135  13.357 -0.2001  0.1421 -0.1303
  158TMC2    C8 2415   3.429   4.422  13.574  0.1585  0.3470 -0.2205
  158TMC2    O1 2416   3.091   4.229  13.287  0.4852 -0.3886 -0.7927
  158TMC2    O2 2417   3.363   4.523  13.549 -0.6389 -0.0018 -0.0482
  158TMC2    O5 2418   3.559   4.409  13.596 -0.4612  0.5299  0.4748
  158TMC2    H5 2419   3.601   4.320  13.605 -2.6353 -0.6608 -0.9817
  159MPD2     C 2420   3.352   3.531  13.961 -0.2062  0.0772 -0.3818
  159MPD2    C1 2421   3.247   3.539  13.876  0.7560 -0.9590 -0.2853
  159MPD2    C2 2422   3.229   3.656  13.811 -0.4761 -0.7715 -0.0070
  159MPD2    C3 2423   3.310   3.761  13.834 -0.2190 -0.9469  0.8021
  159MPD2    C4 2424   3.421   3.750  13.913  0.3230 -0.6735 -0.0704
  159MPD2    C5 2425   3.446   3.628  13.970 -0.4917 -0.0931  0.0319
  159MPD2     H 2426   3.158   3.673  13.730 -0.6604 -1.5687 -0.0176
  159MPD2    H1 2427   3.492   3.830  13.930 -1.7035  1.1398 -0.0314
  159MPD2    H2 2428   3.377   3.433  14.000  0.8237  0.0652 -1.0776
  159MPD2    H3 2429   3.530   3.618  14.038  0.0331 -1.4521 -0.8336
  159MPD2     N 2430   3.291   3.870  13.751 -0.4559  0.7318 -0.3053
  159MPD2    H5 2431   3.205   3.877  13.698 -1.3188  0.1050  1.0277
  159MPD2    N1 2432   3.165   3.425  13.856  0.1481  0.7984  0.1211
  159MPD2    H7 2433   3.188   3.342  13.910  0.7621 -0.3900 -1.9642
  160TMC2    C1 2434   2.100   1.816   1.340  0.0146 -0.6594 -0.2682
  160TMC2    C2 2435   1.967   1.817   1.326  0.1525 -0.0384  0.4056
  160TMC2    C3 2436   1.906   1.697   1.293  0.5678 -0.0848  0.2491
  160TMC2    C4 2437   2.170   1.700   1.315 -0.3691  0.1148 -0.5990
  160TMC2    C5 2438   2.108   1.589   1.261 -0.0438 -0.6088 -0.0673
  160TMC2    C6 2439   1.977   1.584   1.252  0.4881  0.1240 -0.4670
  160TMC2     C 2440   2.176   1.937   1.378  0.3173 -0.4917  0.4061
  160TMC2     O 2441   2.288   1.911   1.429 -0.4656  0.5631  0.1004
  160TMC2     H 2442   1.909   1.904   1.354  0.2559  0.1713 -0.0370
  160TMC2    H1 2443   2.276   1.702   1.336 -0.8654 -0.7097  1.9221
  160TMC2    H2 2444   1.934   1.491   1.218 -0.7091  0.6186 -0.3129
  160TMC2    C7 2445   2.171   1.459   1.272 -0.4867  0.1903 -0.5753
  160TMC2    C8 2446   1.769   1.710   1.242 -0.3321  0.9433  0.2316
  160TMC2    O1 2447   2.092   1.372   1.317  0.0096 -0.6147  0.5520
  160TMC2    O2 2448   1.722   1.814   1.191  0.0314  0.2915  0.2281
  160TMC2    O5 2449   1.699   1.596   1.261  0.6147  0.0726  0.1492
  160TMC2    H5 2450   1.737   1.535   1.328  2.1289 -0.7082 -1.4339
  161MPD2     C 2451   2.265   2.189   1.496  0.1562  0.0768  0.1833
  161MPD2    C1 2452   2.150   2.175   1.427 -0.2120  0.3116  0.2251
  161MPD2    C2 2453   2.063   2.280   1.432 -0.3412 -0.4588 -0.5058
  161MPD2    C3 2454   2.095   2.398   1.495  0.1431  0.0423 -0.2396
  161MPD2    C4 2455   2.220   2.411   1.551  0.7807  0.2749  0.1596
  161MPD2    C5 2456   2.303   2.304   1.554 -0.2949 -0.3071  0.3947
  161MPD2     H 2457   1.967   2.280   1.381 -1.2182  1.4789  1.1549
  161MPD2    H1 2458   2.261   2.499   1.601 -0.1250 -0.8310  2.8429
  161MPD2    H2 2459   2.343   2.114   1.506 -0.4856 -0.6984 -0.6993
  161MPD2    H3 2460   2.397   2.305   1.608 -0.2714 -0.3713  0.3555
  161MPD2     N 2461   2.000   2.504   1.500 -0.3391  0.0559  0.2985
  161MPD2    H5 2462   1.920   2.501   1.437 -0.1763 -2.1242  0.2016
  161MPD2    N1 2463   2.106   2.055   1.369 -0.1852 -0.2912 -0.3217
  161MPD2    H7 2464   2.021   2.050   1.313 -0.1970 -1.4819 -0.2061
  162TMC2    C1 2465   0.948   3.840   1.068  0.3521  0.5958 -0.0315
  162TMC2    C2 2466   1.000   3.909   1.169 -0.4615  0.0728 -0.1289
  162TMC2    C3 2467   1.007   3.849   1.295 -0.2672  0.2735  0.4827
  162TMC2    C4 2468   0.899   3.712   1.089 -0.0910 -0.0223  0.2359
  162TMC2    C5 2469   0.893   3.664   1.215 -0.5410 -0.5594 -0.6232
  162TMC2    C6 2470   0.948   3.728   1.320  0.3382  0.7196  0.2980
  162TMC2     C 2471   0.974   3.872   0.922  0.3449 -0.0012  0.0963
  162TMC2     O 2472   0.906   3.810   0.843 -0.3441  0.0519 -0.4934
  162TMC2     H 2473   1.028   4.013   1.152 -0.4437  0.1426  0.3354
  162TMC2    H1 2474   0.887   3.652   1.000 -1.7329  0.2378  0.2877
  162TMC2    H2 2475   0.950   3.688   1.422  0.0267 -0.9953 -0.3626
  162TMC2    C7 2476   0.824   3.538   1.226 -0.4560 -0.5977 -0.1164
  162TMC2    C8 2477   1.047   3.943   1.400  0.3048  0.0197  0.0041
  162TMC2    O1 2478   0.743   3.514   1.136  0.2722 -0.4125  0.2879
  162TMC2    O2 2479   1.020   3.901   1.508  0.0096  0.6945 -0.1177
  162TMC2    O5 2480   1.163   3.999   1.364 -0.0719  0.3299  0.2864
  162TMC2    H5 2481   1.181   4.013   1.269 -2.0558  0.6721 -0.0464
  163MPD2     C 2482   1.230   4.028   0.504 -0.6975 -0.0485  0.1593
  163MPD2    C1 2483   1.097   3.983   0.522  0.4829 -0.5384  0.5930
  163MPD2    C2 2484   1.053   3.961   0.654  0.4213  0.0851 -0.5749
  163MPD2    C3 2485   1.131   3.982   0.760  0.0427 -0.6738 -0.3088
  163MPD2    C4 2486   1.258   4.031   0.739 -0.1125 -0.3193  0.1391
  163MPD2    C5 2487   1.301   4.052   0.614 -0.4427  0.3294  0.1442
  163MPD2     H 2488   0.947   3.939   0.665  0.8556 -2.3189 -1.2279
  163MPD2    H1 2489   1.329   4.037   0.821  1.3163 -0.0982 -1.1141
  163MPD2    H2 2490   1.278   4.040   0.408  2.8447 -0.4146  1.8746
  163MPD2    H3 2491   1.404   4.075   0.591 -0.5762  0.0413 -0.7442
  163MPD2     N 2492   1.091   3.944   0.893 -0.2659 -0.3085 -0.3165
  163MPD2    H5 2493   1.143   3.981   0.972 -2.4772 -1.5206  1.7009
  163MPD2    N1 2494   1.002   3.959   0.425  0.6665  0.0170 -0.3950
  163MPD2    H7 2495   0.907   3.944   0.458  0.9947 -2.8185 -0.7655
  164TCq2    C1 2496   1.815   3.161  11.098 -0.1273 -0.8019  0.0537
  164TCq2    O2 2497   1.789   3.134  11.218 -0.1950  0.3797 -0.4591
  164TCq2    C2 2498   1.775   3.296  11.049  0.3185  0.6277  0.0867
  164TCq2    C3 2499   1.856   3.360  10.965  0.2425 -0.4470  0.2679
  164TCq2    C4 2500   1.864   3.494  10.966  0.0521 -0.1680 -0.4734
  164TCq2    C5 2501   1.778   3.564  11.048  0.5000 -0.2070  0.0647
  164TCq2    C6 2502   1.686   3.500  11.126  0.8454  0.1567 -0.7277
  164TCq2    C7 2503   1.687   3.365  11.129 -0.7022 -0.1471  0.2667
  164TCq2    C8 2504   1.564   3.565  11.167 -0.1881 -0.6792 -0.2807
  164TCq2    O4 2505   1.456   3.500  11.150 -0.2296  0.5813  0.5824
  164TCq2    C9 2506   1.967   3.564  10.897 -0.4767  0.9639 -0.3301
  164TCq2    O5 2507   2.047   3.502  10.825  0.2150 -0.3417  0.2791
  164TCq2    O6 2508   1.938   3.682  10.868  0.4085  1.0323  0.0221
  164TCq2    H2 2509   1.929   3.300  10.910 -1.2536 -0.6270 -1.5044
  164TCq2    H3 2510   1.782   3.672  11.042  1.1001 -0.1867  0.8035
  164TCq2    H4 2511   1.611   3.305  11.178  0.1444 -2.2126 -0.9798
  165MPD2     C 2512   2.579   0.002   2.461 -0.8944 -0.0387 -0.3013
  165MPD2    C1 2513   2.673   4.647   2.388  0.0424  0.0833 -0.1048
  165MPD2    C2 2514   2.801   4.693   2.366  0.0126  0.5034  0.3609
  165MPD2    C3 2515   2.839   0.088   2.431  0.7463 -0.2424 -0.4386
  165MPD2    C4 2516   2.751   0.151   2.516  0.1183 -0.1816  0.2471
  165MPD2    C5 2517   2.619   0.116   2.530 -0.7755  0.3943 -1.0205
  165MPD2     H 2518   2.871   4.637   2.305  0.6839 -1.6832  3.0885
  165MPD2    H1 2519   2.769   0.242   2.573 -1.8241  1.0687 -1.1020
  165MPD2    H2 2520   2.476   4.692   2.474 -0.2758 -1.9128  0.1607
  165MPD2    H3 2521   2.555   0.171   2.598  0.3651 -1.6195  1.6768
  165MPD2     N 2522   2.966   0.151   2.417 -0.3222 -0.2038  0.4848
  165MPD2    H5 2523   2.971   0.246   2.452 -1.0749  0.8768 -2.3305
  165MPD2    N1 2524   2.621   4.529   2.329 -0.3148 -0.0130  0.1724
  165MPD2    H7 2525   2.522   4.513   2.343 -0.4246  0.9953  0.5304
  166TCq2    C1 2526   3.081   0.084   2.376  0.0522  0.5140 -0.7172
  166TCq2    O2 2527   3.098   4.683   2.373 -0.0220 -0.3160  0.3873
  166TCq2    C2 2528   3.189   0.177   2.346  0.0867  0.1877  0.5556
  166TCq2    C3 2529   3.310   0.115   2.307  0.0738 -0.1508 -0.4333
  166TCq2    C4 2530   3.409   0.186   2.254 -0.0126  0.2513  0.1800
  166TCq2    C5 2531   3.390   0.322   2.232  0.3129 -0.6464 -0.2408
  166TCq2    C6 2532   3.268   0.382   2.264 -0.3770 -0.3271 -1.4270
  166TCq2    C7 2533   3.167   0.306   2.319 -0.7248 -0.7947 -0.7695
  166TCq2    C8 2534   3.255   0.514   2.196  0.3831  0.4386  0.8344
  166TCq2    O4 2535   3.350   0.568   2.146  0.9344  0.2023  0.0876
  166TCq2    C9 2536   3.521   0.116   2.207  0.3600  0.3387 -0.3321
  166TCq2    O5 2537   3.593   0.175   2.123  0.0785  0.1667  0.4480
  166TCq2    O6 2538   3.526   4.715   2.230 -0.1967  0.2423  0.2241
  166TCq2    H2 2539   3.321   0.008   2.322 -0.0368 -0.3544 -1.8112
  166TCq2    H3 2540   3.471   0.382   2.192 -0.3772  0.4549  0.0194
  166TCq2    H4 2541   3.075   0.355   2.350 -1.2299 -0.6387 -2.5436
  167TMC2    C1 2542   0.688   3.917  12.389 -0.1082 -0.1851 -1.2805
  167TMC2    C2 2543   0.587   3.971  12.461  0.4383 -0.0851  0.1012
  167TMC2    C3 2544   0.538   3.901  12.563  0.4920  0.4148  0.4489
  167TMC2    C4 2545   0.744   3.795  12.424 -0.3995 -0.9943  0.0278
  167TMC2    C5 2546   0.678   3.726  12.527 -0.2279  0.3657  0.0407
  167TMC2    C6 2547   0.574   3.777  12.595  0.1160 -0.2190 -0.4860
  167TMC2     C 2548   0.729   3.978  12.263  0.7652  0.1862  0.1804
  167TMC2     O 2549   0.665   4.077  12.231  0.3779 -0.0008  0.3273
  167TMC2     H 2550   0.552   4.070  12.433 -1.7395 -0.0855  2.8743
  167TMC2    H1 2551   0.821   3.744  12.368  0.7916  0.5226  0.2707
  167TMC2    H2 2552   0.525   3.719  12.673  0.8485  0.2170  0.3031
  167TMC2    C7 2553   0.729   3.598  12.568  0.6478 -0.6832  0.2790
  167TMC2    C8 2554   0.433   3.958  12.652  0.2187 -0.4430  0.0844
  167TMC2    O1 2555   0.689   3.555  12.677  0.2098 -0.1625 -0.2590
  167TMC2    O2 2556   0.350   3.893  12.712  0.0988  0.3459 -0.4399
  167TMC2    O5 2557   0.486   4.070  12.702 -0.7825 -0.8957  0.7274
  167TMC2    H5 2558   0.575   4.090  12.664 -0.7290 -0.8621  0.8694
  168MPD2     C 2559   0.876   4.091  12.021 -0.3374 -0.0688 -0.3071
  168MPD2    C1 2560   0.888   3.962  12.073 -0.4143 -0.0036  0.0120
  168MPD2    C2 2561   0.965   3.868  12.003  0.0969  0.2901  0.4024
  168MPD2    C3 2562   1.019   3.902  11.881 -0.1998  0.4370  0.3469
  168MPD2    C4 2563   0.993   4.024  11.824 -0.7820  0.2059  0.5493
  168MPD2    C5 2564   0.931   4.124  11.900 -0.1929 -0.6180 -1.0600
  168MPD2     H 2565   0.969   3.766  12.039  2.2891  1.0619  2.3002
  168MPD2    H1 2566   1.033   4.050  11.727 -0.6465  1.4254  0.9334
  168MPD2    H2 2567   0.818   4.172  12.063  0.3277 -0.9508  2.2937
  168MPD2    H3 2568   0.928   4.226  11.863  0.8134 -0.5560 -0.9700
  168MPD2     N 2569   1.074   3.793  11.806 -0.1273  0.0816 -0.3472
  168MPD2    H5 2570   1.082   3.703  11.853 -2.4859  0.0349 -0.0201
  168MPD2    N1 2571   0.830   3.919  12.198  0.0458  0.0315  0.3608
  168MPD2    H7 2572   0.873   3.836  12.237  2.4931  0.9914 -0.3222
  169MPD1     C 2573   4.066   1.509   8.803  0.0657 -0.3702  0.2113
  169MPD1    C1 2574   3.949   1.539   8.861  0.1435  0.7097 -0.6782
  169MPD1    C2 2575   3.936   1.655   8.941  0.0826  0.1538  0.3242
  169MPD1    C3 2576   4.045   1.739   8.956  0.2057 -0.1322  0.1918
  169MPD1    C4 2577   4.166   1.703   8.897  0.8778 -0.5383  0.1394
  169MPD1    C5 2578   4.172   1.588   8.824  0.1702 -0.0385  0.7237
  169MPD1     H 2579   3.837   1.674   8.981  0.6691  0.4632  1.6100
  169MPD1    H1 2580   4.251   1.770   8.904  0.0346  0.3534  1.9211
  169MPD1    H2 2581   4.080   1.416   8.750  0.8480 -0.5278  0.6913
  169MPD1    H3 2582   4.265   1.547   8.787  0.0938  0.8198 -0.4149
  169MPD1     N 2583   4.015   1.859   9.024  0.2632 -0.4629  1.1785
  169MPD1    H5 2584   3.919   1.868   9.055  0.2107 -1.0079  1.1781
  169MPD1    N1 2585   3.829   1.463   8.834 -0.1098  0.2871  0.2323
  169MPD1    H6 2586   3.848   1.363   8.834 -1.8138 -0.0353  0.5293
  169MPD1    H7 2587   3.756   1.498   8.896  0.5447  0.6927  0.7653
  170MPD1     C 2588   1.473   0.262  12.818 -0.2826  0.2148  0.0445
  170MPD1    C1 2589   1.520   0.267  12.947 -0.0778  0.8254 -0.4978
  170MPD1    C2 2590   1.521   0.388  13.014  0.7741 -0.3437 -0.3249
  170MPD1    C3 2591   1.488   0.508  12.957 -0.3837  0.2728  0.8158
  170MPD1    C4 2592   1.445   0.499  12.826 -0.0304 -0.3493  0.5808
  170MPD1    C5 2593   1.446   0.379  12.756  0.1329  0.3905 -0.9063
  170MPD1     H 2594   1.557   0.385  13.116 -1.3053 -2.6534  0.3422
  170MPD1    H1 2595   1.417   0.585  12.767 -0.9222 -0.9704  0.1004
  170MPD1    H2 2596   1.460   0.178  12.750 -1.7268  1.1895 -0.8654
  170MPD1    H3 2597   1.411   0.388  12.654  0.2669  0.8849 -0.9109
  170MPD1     N 2598   1.497   0.627  13.034 -0.2882  0.9051 -0.1157
  170MPD1    H5 2599   1.531   0.609  13.129  0.2218 -1.9984 -0.8443
  170MPD1    N1 2600   1.533   0.142  13.017 -0.2879  0.1133  0.1879
  170MPD1    H6 2601   1.610   0.137  13.084 -0.0916  1.2786  0.0521
  170MPD1    H7 2602   1.570   0.068  12.958  1.1973  0.6043  0.5017
  171MPD1     C 2603   0.257   2.269  14.978 -0.3595  0.5517  0.5276
  171MPD1    C1 2604   0.211   2.148  14.923  0.6707  0.1078  0.8294
  171MPD1    C2 2605   0.258   2.036  14.982  0.1796 -0.1650 -0.0471
  171MPD1    C3 2606   0.357   2.033  15.081 -0.7782  0.3522  0.3203
  171MPD1    C4 2607   0.400   2.157  15.124 -0.1085 -0.6517  0.5297
  171MPD1    C5 2608   0.353   2.276  15.081 -0.5316  0.4919 -0.3921
  171MPD1     H 2609   0.214   1.941  14.955 -0.0840  0.1771 -0.8268
  171MPD1    H1 2610   0.484   2.168  15.191 -0.0798 -2.3288  0.7754
  171MPD1    H2 2611   0.204   2.361  14.953 -3.1423 -1.9085 -2.7869
  171MPD1    H3 2612   0.378   2.366  15.136 -0.5540  0.5645 -0.5018
  171MPD1     N 2613   0.405   1.914  15.141 -0.1801 -0.2335  0.0218
  171MPD1    H5 2614   0.486   1.935  15.199 -0.2705 -1.9206  0.7444
  171MPD1    N1 2615   0.102   2.140  14.839 -0.8285 -0.4898  0.3789
  171MPD1    H6 2616   0.095   2.057  14.781  0.0652 -0.7204  0.5987
  171MPD1    H7 2617   0.073   2.223  14.788  0.0328  0.0645  0.7973
  172MPD1     C 2618   4.351   0.534  17.656 -0.3050  0.1941 -0.6596
  172MPD1    C1 2619   4.241   0.616  17.670 -0.6590 -0.3013 -0.0049
  172MPD1    C2 2620   4.261   0.751  17.682  0.1741 -0.0911  0.8053
  172MPD1    C3 2621   4.383   0.808  17.687  0.5772 -0.1300  0.1508
  172MPD1    C4 2622   4.494   0.727  17.676 -0.4074  0.1794 -0.4325
  172MPD1    C5 2623   4.472   0.595  17.654  0.7533 -0.0451 -0.6959
  172MPD1     H 2624   4.179   0.821   0.006  1.2818  1.1958  0.8994
  172MPD1    H1 2625   4.596   0.762  17.682 -0.4055  0.3677 -1.5970
  172MPD1    H2 2626   4.343   0.430  17.628  0.7058 -0.5895  1.9653
  172MPD1    H3 2627   4.562   0.534  17.647 -0.1174 -1.2523 -1.4818
  172MPD1     N 2628   4.410   0.949   0.000  0.1664  0.2690  0.1194
  172MPD1    H5 2629   4.505   0.983   0.007 -0.5059  2.0303  0.9769
  172MPD1    N1 2630   4.112   0.559  17.661  0.3221  0.6546  0.4715
  172MPD1    H6 2631   4.114   0.470   0.023  0.3264  0.0384 -0.6600
  172MPD1    H7 2632   4.040   0.606   0.028  1.1421  0.0755  2.0748
  173MPD1     C 2633   0.734   1.662  13.982 -0.3560  0.6811  0.3855
  173MPD1    C1 2634   0.674   1.628  13.866 -0.1429  0.0865 -0.2131
  173MPD1    C2 2635   0.589   1.508  13.880 -0.1520 -0.4981  0.4528
  173MPD1    C3 2636   0.547   1.467  14.010 -0.0669 -0.0661 -0.1011
  173MPD1    C4 2637   0.595   1.529  14.125 -0.6455  0.2606  0.0301
  173MPD1    C5 2638   0.687   1.628  14.110 -0.7415 -0.4079  0.0856
  173MPD1     H 2639   0.550   1.454  13.794 -2.6087  1.8401  0.0751
  173MPD1    H1 2640   0.565   1.504  14.227 -1.3510 -0.7254 -0.4134
  173MPD1    H2 2641   0.802   1.747  13.975 -0.4074  0.7518  0.7597
  173MPD1    H3 2642   0.741   1.678  14.189  2.1013 -2.2249 -0.6808
  173MPD1     N 2643   0.453   1.357  14.022 -0.1613  0.5540 -0.6120
  173MPD1    H5 2644   0.420   1.314  13.936 -1.7711 -0.3072  0.4360
  173MPD1    N1 2645   0.722   1.674  13.742 -0.0905 -0.4343 -0.4778
  173MPD1    H6 2646   0.735   1.774  13.747 -2.6288  0.0127 -2.6710
  173MPD1    H7 2647   0.659   1.652  13.665 -1.6989 -0.2352  0.7878
  174MPD1     C 2648   0.055   0.594  13.566 -0.2597 -0.5051 -0.2968
  174MPD1    C1 2649   0.159   0.689  13.545 -0.2243  0.3049  0.3459
  174MPD1    C2 2650   0.207   0.755  13.658  0.4490 -0.2825  0.1427
  174MPD1    C3 2651   0.149   0.734  13.780  0.1545  0.3754  0.7070
  174MPD1    C4 2652   0.042   0.653  13.794  0.1952  0.2623 -0.0044
  174MPD1    C5 2653   4.717   0.576  13.689  0.2082 -0.6817 -0.2601
  174MPD1     H 2654   0.290   0.823  13.642  1.4460 -2.2388 -3.0934
  174MPD1    H1 2655   0.002   0.640  13.894  0.6942  1.2568  0.3224
  174MPD1    H2 2656   0.026   0.524  13.488  0.1967 -1.3834  0.3229
  174MPD1    H3 2657   4.635   0.506  13.704 -1.2448  0.6680 -1.9883
  174MPD1     N 2658   0.182   0.804  13.901  0.7350  0.3472  0.1958
  174MPD1    H5 2659   0.137   0.776  13.988  0.3096 -0.4230 -0.2754
  174MPD1    N1 2660   0.221   0.695  13.423 -0.2268 -0.0384 -0.3628
  174MPD1    H6 2661   0.276   0.780  13.411 -0.3237  0.1491  0.5434
  174MPD1    H7 2662   0.171   0.668  13.339 -0.3546 -0.0510 -0.2837
  175MPD1     C 2663   3.268   2.554  15.540 -0.0655 -0.2026 -0.1614
  175MPD1    C1 2664   3.306   2.424  15.573  0.0545  0.7087 -0.1275
  175MPD1    C2 2665   3.327   2.399  15.709  0.2104  0.8180 -0.0155
  175MPD1    C3 2666   3.299   2.489  15.810  0.3161 -0.2024  0.1507
  175MPD1    C4 2667   3.242   2.610  15.771 -1.0490 -0.6605 -0.0904
  175MPD1    C5 2668   3.238   2.645  15.631 -0.1138 -0.2928 -0.0045
  175MPD1     H 2669   3.369   2.301  15.732 -1.3532 -0.2673 -1.7473
  175MPD1    H1 2670   3.219   2.682  15.848 -0.6716 -1.1176  0.4470
  175MPD1    H2 2671   3.258   2.588  15.438  0.9337  0.5726 -0.0028
  175MPD1    H3 2672   3.208   2.746  15.605  0.7772  0.2406  1.0393
  175MPD1     N 2673   3.325   2.457  15.944 -0.1713 -0.8486 -0.4408
  175MPD1    H5 2674   3.285   2.527  16.007  0.6793  1.7750 -2.8294
  175MPD1    N1 2675   3.364   2.339  15.474  0.3889  0.0287 -0.0066
  175MPD1    H6 2676   3.298   2.344  15.397  1.7034 -0.8717 -1.1873
  175MPD1    H7 2677   3.384   2.244  15.505 -1.3971 -0.3215  0.1201
  176MPD1     C 2678   0.313   3.945  17.282 -0.2035 -0.1274  0.0986
  176MPD1    C1 2679   0.232   3.923  17.173  0.6064  0.1375  0.5119
  176MPD1    C2 2680   0.271   3.974  17.048  0.0264 -0.2238 -0.3908
  176MPD1    C3 2681   0.394   4.026  17.025  0.5885 -0.5771 -0.3850
  176MPD1    C4 2682   0.474   4.042  17.139  0.0205  0.0152  0.2341
  176MPD1    C5 2683   0.429   4.000  17.257  1.0088 -0.4170 -0.0390
  176MPD1     H 2684   0.203   3.966  16.964 -1.7005  1.9280  0.8137
  176MPD1    H1 2685   0.573   4.085  17.131  0.1896 -0.3953  0.1010
  176MPD1    H2 2686   0.282   3.920  17.383  0.2505  0.7342  0.4505
  176MPD1    H3 2687   0.494   4.022  17.342  0.3045  1.6513 -0.0489
  176MPD1     N 2688   0.422   4.086  16.895 -0.3061 -0.2281 -0.4420
  176MPD1    H5 2689   0.349   4.102  16.826 -1.4324 -1.6162  0.4408
  176MPD1    N1 2690   0.103   3.877  17.189 -0.2546  0.7504 -0.8122
  176MPD1    H6 2691   0.095   3.805  17.260  1.2447  1.7194  0.3156
  176MPD1    H7 2692   0.078   3.834  17.099  0.1839  0.1805 -0.6587
  177MPD1     C 2693   0.128   3.458  10.028  0.5331 -0.5028  0.0548
  177MPD1    C1 2694   0.000   3.448   9.974 -0.1117  0.1529  0.5025
  177MPD1    C2 2695   4.680   3.543   9.882 -0.0257 -0.5962  0.2280
  177MPD1    C3 2696   0.055   3.637   9.842  0.5124 -0.0898 -0.3297
  177MPD1    C4 2697   0.180   3.649   9.901  0.0603 -0.1148  0.1951
  177MPD1    C5 2698   0.213   3.556   9.993  0.1172  0.3755 -0.4555
  177MPD1     H 2699   4.580   3.539   9.840 -0.6340 -0.2894  1.6304
  177MPD1    H1 2700   0.257   3.716   9.867 -0.4386 -0.2880 -1.2682
  177MPD1    H2 2701   0.172   3.384  10.094 -0.8021  0.5714  2.1912
  177MPD1    H3 2702   0.311   3.559  10.041 -0.4736 -0.4064  0.8154
  177MPD1     N 2703   0.024   3.727   9.733  0.4322  0.0228  0.2705
  177MPD1    H5 2704   4.654   3.715   9.692 -0.3249  1.2748  1.5810
  177MPD1    N1 2705   4.637   3.347  10.015  0.0421 -0.2556  0.4303
  177MPD1    H6 2706   4.672   3.303  10.100 -0.2068 -0.5074  0.3998
  177MPD1    H7 2707   4.537   3.367  10.017  0.3445  1.4613 -2.0510
  178MPD1     C 2708   0.965   4.574   0.162 -0.8078  0.0886 -0.2634
  178MPD1    C1 2709   0.878   4.586   0.059 -0.0712 -0.4160 -0.0851
  178MPD1    C2 2710   0.929   4.607  17.619 -0.3822 -0.1670  0.0238
  178MPD1    C3 2711   1.065   4.634  17.596 -0.4066 -0.0353 -0.5776
  178MPD1    C4 2712   1.151   4.627   0.023 -0.0504 -0.2409 -0.2861
  178MPD1    C5 2713   1.103   4.593   0.148 -0.2755 -0.6198  0.1799
  178MPD1     H 2714   0.860   4.626  17.537  0.5444 -0.2561 -0.7794
  178MPD1    H1 2715   1.259   4.617   0.012  0.3113  1.8830  1.3405
  178MPD1    H2 2716   0.934   4.541   0.261  0.7162  0.3929  0.3254
  178MPD1    H3 2717   1.172   4.584   0.231  0.6140  0.8299 -0.4014
  178MPD1     N 2718   1.120   4.678  17.473 -0.0025  0.3354  0.2895
  178MPD1    H5 2719   1.220   4.700  17.477 -0.2706  1.6984 -0.8885
  178MPD1    N1 2720   0.738   4.549   0.081 -0.4113 -0.2944  0.1242
  178MPD1    H6 2721   0.677   4.591   0.012 -1.1088 -2.4059 -0.5192
  178MPD1    H7 2722   0.704   4.569   0.175 -1.6561  1.2468 -0.6510
  179MPD1     C 2723   1.401   3.591  15.418  0.5104  0.3632  0.4897
  179MPD1    C1 2724   1.283   3.541  15.356 -0.4857  0.0397 -0.1613
  179MPD1    C2 2725   1.237   3.418  15.391  0.6509  0.1932 -0.4567
  179MPD1    C3 2726   1.311   3.338  15.477  0.2942 -0.6425 -0.0732
  179MPD1    C4 2727   1.431   3.388  15.534  0.2873 -0.4962  0.3383
  179MPD1    C5 2728   1.471   3.511  15.498 -0.0613 -0.6425  0.1955
  179MPD1     H 2729   1.144   3.383  15.349  0.2310  1.5390 -0.6500
  179MPD1    H1 2730   1.493   3.333  15.605  0.2361  2.7738  2.8861
  179MPD1    H2 2731   1.447   3.688  15.406  0.5292  0.1868 -0.9300
  179MPD1    H3 2732   1.567   3.546  15.536 -0.5078  4.5243 -3.4993
  179MPD1     N 2733   1.266   3.206  15.510 -0.1002 -0.2636  0.1087
  179MPD1    H5 2734   1.310   3.175  15.596  1.0520 -0.0565 -0.4137
  179MPD1    N1 2735   1.204   3.633  15.283  0.2292 -0.3593 -0.2284
  179MPD1    H6 2736   1.146   3.578  15.221  0.3579 -1.8222  0.9526
  179MPD1    H7 2737   1.250   3.702  15.224  1.4902  0.6069  1.8747
  180MPD1     C 2738   1.783   0.349  14.506 -0.1089  0.2577 -0.2038
  180MPD1    C1 2739   1.826   0.218  14.525 -0.3606 -0.5151 -0.2440
  180MPD1    C2 2740   1.730   0.118  14.552 -0.2432  0.4838 -0.0509
  180MPD1    C3 2741   1.600   0.153  14.562  0.5455 -1.1604 -0.0174
  180MPD1    C4 2742   1.557   0.284  14.558  0.0474 -0.3094 -0.5365
  180MPD1    C5 2743   1.649   0.381  14.536 -0.5490 -0.6299 -0.0856
  180MPD1     H 2744   1.774   0.019  14.555  2.1118  1.4860 -2.1137
  180MPD1    H1 2745   1.454   0.316  14.571  0.5583  0.5868  1.2469
  180MPD1    H2 2746   1.853   0.432  14.503  0.5305 -0.2879 -0.4125
  180MPD1    H3 2747   1.625   0.487  14.525  0.1134 -0.5493 -0.7072
  180MPD1     N 2748   1.508   0.048  14.578 -0.5195  0.0043  0.1667
  180MPD1    H5 2749   1.555   4.681  14.560 -2.1102 -0.1967 -3.0115
  180MPD1    N1 2750   1.966   0.182  14.500  0.3653 -0.1428 -0.4602
  180MPD1    H6 2751   2.038   0.253  14.510 -0.9255  1.3616 -1.7191
  180MPD1    H7 2752   2.004   0.101  14.548 -1.7732 -0.3137  0.9507
  181MPD1     C 2753   3.049   0.963   9.970 -0.2313 -0.7364  0.3159
  181MPD1    C1 2754   3.103   0.911   9.853  0.1190 -0.5150 -0.7850
  181MPD1    C2 2755   3.240   0.934   9.831  0.0788 -0.7291  0.3877
  181MPD1    C3 2756   3.314   1.025   9.914  0.2402 -0.2478 -0.0508
  181MPD1    C4 2757   3.253   1.082  10.023  0.1437  0.0580 -0.0337
  181MPD1    C5 2758   3.125   1.043  10.055  0.4814 -0.0516  0.1165
  181MPD1     H 2759   3.277   0.889   9.740  0.8044  1.5520 -0.4337
  181MPD1    H1 2760   3.294   1.163  10.081  1.9219 -0.8603 -0.0248
  181MPD1    H2 2761   2.946   0.950  10.000 -0.4916  0.8029  0.0873
  181MPD1    H3 2762   3.065   1.085  10.134  0.5718 -2.0789  1.2410
  181MPD1     N 2763   3.453   1.038   9.902  0.4205 -0.0066  0.6187
  181MPD1    H5 2764   3.496   1.112   9.956  0.5976  0.5741 -0.3019
  181MPD1    N1 2765   3.028   0.830   9.770 -0.5117  0.3911 -0.3799
  181MPD1    H6 2766   3.025   0.840   9.669  2.8184 -2.7857 -0.7873
  181MPD1    H7 2767   2.930   0.826   9.799 -0.3760 -0.2822 -0.0114
  182MPD1     C 2768   4.613   0.395   1.404  0.0643 -0.5630 -0.9656
  182MPD1    C1 2769   4.547   0.483   1.482 -0.0740  0.0769 -0.1077
  182MPD1    C2 2770   4.411   0.493   1.465  0.1472 -0.0419 -0.4452
  182MPD1    C3 2771   4.342   0.405   1.388  0.2366 -0.0014  0.3773
  182MPD1    C4 2772   4.415   0.321   1.306 -0.4713 -0.4674  0.3479
  182MPD1    C5 2773   4.551   0.318   1.312 -0.5503  0.4409  0.6311
  182MPD1     H 2774   4.357   0.565   1.526  0.1426 -0.3964 -0.0278
  182MPD1    H1 2775   4.368   0.249   1.241  0.8822 -2.1917  1.2676
  182MPD1    H2 2776   4.721   0.395   1.404  0.0740 -0.6251 -2.5380
  182MPD1    H3 2777   4.621   0.263   1.251 -1.4508  1.1841 -1.0734
  182MPD1     N 2778   4.198   0.404   1.378 -0.1612  0.4005  0.4159
  182MPD1    H5 2779   4.155   0.374   1.291 -0.4361 -0.6492  0.9225
  182MPD1    N1 2780   4.623   0.575   1.555  0.5672  0.5793 -0.3777
  182MPD1    H6 2781   4.687   0.530   1.620 -2.0401 -0.4151  1.5189
  182MPD1    H7 2782   4.560   0.639   1.604  0.0810  0.5084 -0.9082
  183MPD1     C 2783   0.772   1.950   9.851  0.3698 -0.2092  0.3871
  183MPD1    C1 2784   0.696   1.998   9.745  0.3200  0.0526  0.6331
  183MPD1    C2 2785   0.578   1.929   9.721 -0.1267  0.1374 -0.4865
  183MPD1    C3 2786   0.543   1.819   9.794 -0.4353 -0.2999 -0.2417
  183MPD1    C4 2787   0.614   1.781   9.909  0.3331 -0.1273 -0.4708
  183MPD1    C5 2788   0.728   1.848   9.934  0.1289  0.3247  0.5569
  183MPD1     H 2789   0.511   1.958   9.641 -0.3671 -1.1252 -0.7320
  183MPD1    H1 2790   0.584   1.712   9.986  0.8111 -0.0644 -0.2324
  183MPD1    H2 2791   0.866   1.995   9.879 -0.0362  1.5829 -1.1617
  183MPD1    H3 2792   0.799   1.813  10.008  1.3225 -0.4826 -0.9400
  183MPD1     N 2793   0.429   1.747   9.752 -0.8861 -0.0849 -0.3570
  183MPD1    H5 2794   0.375   1.783   9.674 -0.0920 -0.9199 -1.2929
  183MPD1    N1 2795   0.726   2.116   9.677  0.3661  0.3541 -0.3566
  183MPD1    H6 2796   0.824   2.130   9.652  0.2490  0.6985 -0.6237
  183MPD1    H7 2797   0.677   2.118   9.588  3.4934 -0.6233 -2.1124
  184MPD1     C 2798   3.373   3.460   9.934 -0.2822 -0.5880 -0.0146
  184MPD1    C1 2799   3.449   3.574   9.927  0.5545  1.2414  0.1251
  184MPD1    C2 2800   3.541   3.599   9.826 -0.1216 -0.3136  0.2502
  184MPD1    C3 2801   3.559   3.513   9.721  0.2311  0.5282 -0.2131
  184MPD1    C4 2802   3.466   3.405   9.728  0.4901 -0.0531 -0.0441
  184MPD1    C5 2803   3.375   3.376   9.827 -0.4566 -0.0852 -0.4661
  184MPD1     H 2804   3.601   3.689   9.827 -0.0789 -0.3327 -0.1950
  184MPD1    H1 2805   3.485   3.334   9.648 -0.6429  1.0361 -1.2950
  184MPD1    H2 2806   3.296   3.440  10.008  0.2818  1.2983  1.0721
  184MPD1    H3 2807   3.317   3.286   9.812 -2.1292  0.7439  0.9936
  184MPD1     N 2808   3.665   3.523   9.624  0.0373 -1.0194  1.2422
  184MPD1    H5 2809   3.674   3.441   9.565  0.2933 -0.6828  0.8165
  184MPD1    N1 2810   3.442   3.663  10.037  0.2011 -0.0045  0.1720
  184MPD1    H6 2811   3.505   3.743  10.032 -1.3851  1.2973  1.2547
  184MPD1    H7 2812   3.346   3.687  10.060 -0.3192 -0.2675 -1.6893
  185MPD1     C 2813   3.759   2.906   9.069  0.1624 -0.6990 -0.2134
  185MPD1    C1 2814   3.829   2.998   8.992  0.1839  0.0110 -0.5500
  185MPD1    C2 2815   3.853   3.117   9.062 -0.5058 -0.3890 -0.3017
  185MPD1    C3 2816   3.823   3.137   9.195 -0.0361  0.4616  0.3453
  185MPD1    C4 2817   3.748   3.044   9.264 -0.2183  0.2748  0.0541
  185MPD1    C5 2818   3.723   2.929   9.202 -0.3761  0.2380 -0.5220
  185MPD1     H 2819   3.897   3.194   8.999  1.0587 -1.3180 -0.3255
  185MPD1    H1 2820   3.743   3.046   9.373  2.4189  0.5919  0.1845
  185MPD1    H2 2821   3.744   2.808   9.025 -0.2017 -0.9181  0.3986
  185MPD1    H3 2822   3.673   2.853   9.262 -1.7610 -0.0786 -2.0861
  185MPD1     N 2823   3.833   3.265   9.260 -0.4794  0.1615 -0.4420
  185MPD1    H5 2824   3.790   3.274   9.351  0.8204  1.0452  0.0962
  185MPD1    N1 2825   3.851   2.991   8.852 -0.0249  0.9167  0.0417
  185MPD1    H6 2826   3.858   2.892   8.828  0.1498  0.5282  1.7043
  185MPD1    H7 2827   3.932   3.042   8.818 -0.9761  1.6353 -1.1367
  186MPD1     C 2828   1.904   2.716  15.599 -0.6336 -0.0370 -0.0394
  186MPD1    C1 2829   1.840   2.644  15.693  0.4670 -0.9475 -0.0767
  186MPD1    C2 2830   1.753   2.705  15.788 -0.0904 -0.7571  0.7427
  186MPD1    C3 2831   1.734   2.841  15.776  0.0880 -0.9711  0.4187
  186MPD1    C4 2832   1.795   2.909  15.675  0.3719  0.1249 -0.2132
  186MPD1    C5 2833   1.875   2.849  15.578  0.3841  0.3131  0.0944
  186MPD1     H 2834   1.684   2.641  15.841  0.2429 -1.1173  0.7509
  186MPD1    H1 2835   1.769   3.012  15.657  1.1707  0.4785  0.6635
  186MPD1    H2 2836   1.964   2.672  15.520 -0.3830  0.0558  0.1001
  186MPD1    H3 2837   1.901   2.905  15.489 -0.2176  1.4212  0.6141
  186MPD1     N 2838   1.657   2.922  15.861 -0.5896  0.2168 -0.0718
  186MPD1    H5 2839   1.667   3.019  15.830  1.4626  0.2562  0.7352
  186MPD1    N1 2840   1.838   2.504  15.676 -0.4634 -0.1282  0.3784
  186MPD1    H6 2841   1.801   2.456  15.757  4.1298 -0.3925  2.2761
  186MPD1    H7 2842   1.935   2.480  15.658 -0.1808  1.4113 -0.2322
  187MPD1     C 2843   1.057   0.980   0.224  0.1082  0.1679 -0.4947
  187MPD1    C1 2844   0.932   0.960   0.179  0.4936 -0.2790 -0.4495
  187MPD1    C2 2845   0.915   0.860   0.083  0.6228  0.4946  0.1110
  187MPD1    C3 2846   1.024   0.785   0.029 -0.2958 -0.5782  0.0812
  187MPD1    C4 2847   1.153   0.813   0.071  0.2549  0.1788  0.3861
  187MPD1    C5 2848   1.160   0.907   0.172  0.3346 -0.6778 -0.1748
  187MPD1     H 2849   0.822   0.849   0.029 -0.1617 -3.1366  2.1912
  187MPD1    H1 2850   1.234   0.742   0.053  0.0017  0.0715 -0.3347
  187MPD1    H2 2851   1.084   1.061   0.290 -0.0450 -1.2107  1.2693
  187MPD1    H3 2852   1.258   0.918   0.217  1.0900  0.8318 -2.2159
  187MPD1     N 2853   1.009   0.674  17.630  0.0055 -0.0716 -0.7435
  187MPD1    H5 2854   1.094   0.626  17.602  0.8214  2.2823 -2.3215
  187MPD1    N1 2855   0.823   1.029   0.236 -0.3906 -0.2140  0.7833
  187MPD1    H6 2856   0.746   1.024   0.169  2.2396 -0.7280 -2.1981
  187MPD1    H7 2857   0.842   1.125   0.261 -0.8149 -0.3453  1.5964
  188MPD1     C 2858   1.148   0.508  10.232  0.6659  0.4691 -0.4618
  188MPD1    C1 2859   1.273   0.446  10.260 -0.7034 -0.1543  0.0260
  188MPD1    C2 2860   1.306   0.325  10.201  0.1916 -0.5595 -0.3577
  188MPD1    C3 2861   1.211   0.256  10.124 -0.3785 -0.1915  0.3649
  188MPD1    C4 2862   1.085   0.320  10.106  0.5054  0.2355 -0.1505
  188MPD1    C5 2863   1.057   0.438  10.163 -0.2929 -0.1987 -0.6736
  188MPD1     H 2864   1.403   0.284  10.225 -0.3984 -1.0561  1.1700
  188MPD1    H1 2865   1.012   0.274  10.039  0.5898 -1.6039  1.0257
  188MPD1    H2 2866   1.111   0.592  10.290  0.6868  0.4462 -0.4152
  188MPD1    H3 2867   0.965   0.491  10.139 -0.2906 -0.0684 -0.3949
  188MPD1     N 2868   1.238   0.134  10.067  0.3446 -0.0472  0.2087
  188MPD1    H5 2869   1.162   0.096  10.013  0.6864  1.4123 -1.2999
  188MPD1    N1 2870   1.362   0.500  10.352 -0.0645  0.4943  0.0172
  188MPD1    H6 2871   1.314   0.551  10.426 -1.2841  0.7903 -0.9943
  188MPD1    H7 2872   1.408   0.420  10.396 -0.3646  0.4380  0.2313
  189MPD1     C 2873   0.615   1.135  17.624  1.3395  0.0658  1.2759
  189MPD1    C1 2874   0.651   1.023  17.554  0.1888 -0.3431  0.2943
  189MPD1    C2 2875   0.781   1.019  17.503  0.2436 -0.0188  0.3346
  189MPD1    C3 2876   0.866   1.126  17.508 -0.1690 -0.2130  0.2332
  189MPD1    C4 2877   0.827   1.239  17.577  0.4175 -0.2809 -0.0930
  189MPD1    C5 2878   0.699   1.243  17.628 -0.1218  0.5271  1.0300
  189MPD1     H 2879   0.811   0.927  17.454  3.2490  1.6829 -1.0030
  189MPD1    H1 2880   0.885   1.331  17.578 -2.6891  1.7021 -1.3844
  189MPD1    H2 2881   0.514   1.138  17.663  1.2917 -0.7218  1.2049
  189MPD1    H3 2882   0.656   1.334  17.667 -0.8372  1.1505 -1.2207
  189MPD1     N 2883   0.998   1.115  17.444 -0.4253 -0.2560  0.1664
  189MPD1    H5 2884   1.015   1.025  17.400 -0.4431  0.1646 -0.6939
  189MPD1    N1 2885   0.582   0.901  17.581 -0.5969 -0.0938 -0.6218
  189MPD1    H6 2886   0.481   0.917  17.583 -1.2520 -4.0642 -1.8086
  189MPD1    H7 2887   0.609   0.837  17.506 -0.7066 -1.1442  0.2280
  190MPD1     C 2888   0.736   4.146  15.265 -0.0056  0.5932 -0.6577
  190MPD1    C1 2889   0.793   4.080  15.371  0.0085  0.3836  0.1404
  190MPD1    C2 2890   0.915   4.130  15.414  0.2946 -0.1584 -0.0932
  190MPD1    C3 2891   0.985   4.229  15.347  0.1612 -0.4637  0.2023
  190MPD1    C4 2892   0.928   4.287  15.239 -0.0655 -0.4414  0.0372
  190MPD1    C5 2893   0.800   4.253  15.210 -0.4978  1.1609 -0.6011
  190MPD1     H 2894   0.963   4.075  15.494  0.3358  0.2576  0.1698
  190MPD1    H1 2895   0.965   4.379  15.196  0.4226 -0.9485 -0.6313
  190MPD1    H2 2896   0.641   4.115  15.225 -0.6288  1.6451  0.0180
  190MPD1    H3 2897   0.754   4.313  15.132 -0.1475  2.1151 -0.0738
  190MPD1     N 2898   1.104   4.266  15.399 -0.0993 -0.1556  0.9423
  190MPD1    H5 2899   1.125   4.224  15.489 -0.5134 -2.0190  0.1739
  190MPD1    N1 2900   0.737   3.959  15.424  0.2138 -0.4002 -0.2506
  190MPD1    H6 2901   0.754   3.941  15.523 -0.9271 -1.8585 -0.3188
  190MPD1    H7 2902   0.638   3.945  15.407  0.0480  0.2129  0.2156
  191MPD1     C 2903   1.059   2.009  12.068  0.3407  0.2451  1.2102
  191MPD1    C1 2904   1.180   1.943  12.084  0.6312  0.0276 -0.1141
  191MPD1    C2 2905   1.271   1.946  11.977 -0.1774 -0.0941 -0.0709
  191MPD1    C3 2906   1.238   1.991  11.847  0.2765 -0.0628 -0.2948
  191MPD1    C4 2907   1.110   2.028  11.828  0.7067 -0.3441  0.2485
  191MPD1    C5 2908   1.029   2.046  11.936 -0.1982 -0.1566 -0.1210
  191MPD1     H 2909   1.367   1.897  11.985 -0.6453 -0.6128  2.3598
  191MPD1    H1 2910   1.073   2.044  11.727  0.8010 -0.0704  0.2578
  191MPD1    H2 2911   0.980   2.007  12.142 -0.1173  0.7194  0.7332
  191MPD1    H3 2912   0.930   2.085  11.919 -1.0589 -0.9864  2.9227
  191MPD1     N 2913   1.337   1.959  11.748 -0.4600  0.1307 -0.3398
  191MPD1    H5 2914   1.426   1.918  11.773  0.2056  2.3960  0.9823
  191MPD1    N1 2915   1.204   1.900  12.217 -0.8921 -0.4955  0.0118
  191MPD1    H6 2916   1.117   1.862  12.253 -1.3864  0.2199 -0.4489
  191MPD1    H7 2917   1.279   1.831  12.223 -1.2825 -1.0041 -0.9043
  192MPD1     C 2918   1.371   2.081  10.711 -0.4315  0.8122 -0.3829
  192MPD1    C1 2919   1.417   1.953  10.746  0.1647  0.2036 -0.8177
  192MPD1    C2 2920   1.426   1.933  10.882  0.3904 -0.1069  0.1779
  192MPD1    C3 2921   1.401   2.031  10.980  0.3572  0.5966 -0.1657
  192MPD1    C4 2922   1.368   2.156  10.943 -0.7294 -0.3063  0.0502
  192MPD1    C5 2923   1.359   2.180  10.812 -0.1840  0.4278  0.3146
  192MPD1     H 2924   1.450   1.831  10.909 -0.9440 -0.7112 -0.8871
  192MPD1    H1 2925   1.352   2.229  11.021  0.3526  2.1610 -2.0199
  192MPD1    H2 2926   1.332   2.110  10.614 -1.7415 -2.3256 -0.7723
  192MPD1    H3 2927   1.322   2.279  10.792 -0.2331  0.2150 -0.6191
  192MPD1     N 2928   1.420   2.009  11.117 -0.4609 -0.0479 -0.3083
  192MPD1    H5 2929   1.398   2.091  11.174  0.5983  0.0527 -0.0517
  192MPD1    N1 2930   1.415   1.847  10.653 -0.2784 -0.3608  0.5809
  192MPD1    H6 2931   1.443   1.891  10.566  1.1655 -1.5348  0.4623
  192MPD1    H7 2932   1.487   1.779  10.673  0.7719  0.7176  0.4478
  193MPD1     C 2933   4.666   1.403  16.119 -0.5839  0.0488 -0.3327
  193MPD1    C1 2934   4.602   1.523  16.146 -0.0750 -0.1306 -0.2223
  193MPD1    C2 2935   4.688   1.628  16.187 -0.6737  0.1487 -0.7642
  193MPD1    C3 2936   0.106   1.613  16.205 -0.2832 -0.7760  0.5366
  193MPD1    C4 2937   0.156   1.490  16.176  0.1275  0.1465 -0.2560
  193MPD1    C5 2938   0.080   1.386  16.133  0.3044 -0.5681 -0.5703
  193MPD1     H 2939   4.647   1.727  16.197  0.9208  0.8619 -1.3340
  193MPD1    H1 2940   0.263   1.475  16.175 -0.2159 -2.2742  1.1657
  193MPD1    H2 2941   4.619   1.320  16.069 -0.3362  0.9407 -2.0611
  193MPD1    H3 2942   0.128   1.296  16.095 -0.0519 -1.7767  1.7845
  193MPD1     N 2943   0.197   1.710  16.249 -0.2594  0.1979 -0.4441
  193MPD1    H5 2944   0.294   1.689  16.228 -0.3964 -0.0612 -0.8114
  193MPD1    N1 2945   4.469   1.540  16.107 -0.4160 -0.6118 -0.4832
  193MPD1    H6 2946   4.417   1.617  16.149  1.4899  1.1323 -1.3050
  193MPD1    H7 2947   4.419   1.453  16.125  0.7193 -1.1729 -0.0487
  194MPD1     C 2948   2.121   2.971   0.584 -0.2157 -0.2172 -0.9600
  194MPD1    C1 2949   2.049   2.982   0.462 -0.3305  0.2644  0.0872
  194MPD1    C2 2950   2.021   2.874   0.384 -0.0367 -0.0391 -0.4521
  194MPD1    C3 2951   2.055   2.747   0.439  0.6454  0.3471 -0.1317
  194MPD1    C4 2952   2.118   2.735   0.561 -1.0905 -0.0252 -0.2615
  194MPD1    C5 2953   2.147   2.849   0.632  0.0049 -0.3339 -0.1181
  194MPD1     H 2954   1.966   2.895   0.293 -0.8843 -1.5051 -0.2797
  194MPD1    H1 2955   2.143   2.638   0.603 -0.8180  0.6013  1.0096
  194MPD1    H2 2956   2.147   3.057   0.645  1.2305 -2.0819  1.0526
  194MPD1    H3 2957   2.211   2.845   0.719 -1.8493 -0.4039  1.2259
  194MPD1     N 2958   2.022   2.629   0.368  0.4032 -0.2603  0.6146
  194MPD1    H5 2959   2.064   2.544   0.404  0.3104 -0.8209 -0.5986
  194MPD1    N1 2960   2.036   3.115   0.416 -0.7559 -0.3941  0.1200
  194MPD1    H6 2961   2.027   3.176   0.497  0.8273  0.0676 -0.0398
  194MPD1    H7 2962   1.952   3.124   0.360 -0.8675  0.3421  0.4206
  195MPD1     C 2963   4.421   0.807  16.714 -0.4487 -0.1570  0.9793
  195MPD1    C1 2964   4.498   0.760  16.825  0.1636  0.6467 -0.6954
  195MPD1    C2 2965   4.484   0.627  16.855 -0.7296 -0.0938  0.7352
  195MPD1    C3 2966   4.411   0.541  16.777  0.2736  0.2438  0.5719
  195MPD1    C4 2967   4.362   0.585  16.661  0.5593  0.2315 -0.4335
  195MPD1    C5 2968   4.372   0.717  16.625 -0.7244 -0.0279  0.6673
  195MPD1     H 2969   4.551   0.583  16.928  0.6167 -1.1249 -1.1025
  195MPD1    H1 2970   4.314   0.521  16.588  0.6074  1.4596 -1.5335
  195MPD1    H2 2971   4.405   0.913  16.696  0.1074 -0.4148 -0.9850
  195MPD1    H3 2972   4.331   0.751  16.530  0.5663  3.9310  1.5192
  195MPD1     N 2973   4.393   0.401  16.806 -0.0285 -0.1287  0.3037
  195MPD1    H5 2974   4.336   0.352  16.737 -1.3047  1.1284  0.4721
  195MPD1    N1 2975   4.550   0.845  16.925  0.1849 -0.5100 -0.2473
  195MPD1    H6 2976   4.580   0.937  16.892 -1.2414 -0.0885 -0.4034
  195MPD1    H7 2977   4.626   0.802  16.977  0.8315  0.4892 -0.3655
  196MPD1     C 2978   0.307   3.942   0.477  0.0342  0.0640  0.6100
  196MPD1    C1 2979   0.382   4.045   0.422 -0.6378 -0.1168  0.0842
  196MPD1    C2 2980   0.410   4.159   0.491  0.5603 -0.9245  0.0381
  196MPD1    C3 2981   0.354   4.179   0.613  0.3563 -0.4946 -0.3462
  196MPD1    C4 2982   0.279   4.076   0.667 -0.7378  0.2102 -0.7908
  196MPD1    C5 2983   0.250   3.962   0.594 -0.9023  0.2761  0.1581
  196MPD1     H 2984   0.481   4.231   0.452 -2.1335  1.2116 -0.9416
  196MPD1    H1 2985   0.257   4.075   0.773 -0.2373  0.2281 -0.6834
  196MPD1    H2 2986   0.295   3.844   0.433  2.2227  0.2794 -0.4995
  196MPD1    H3 2987   0.205   3.879   0.647  0.2246 -0.0624  0.5710
  196MPD1     N 2988   0.374   4.292   0.694  0.5039  0.7540  0.7480
  196MPD1    H5 2989   0.329   4.288   0.785  0.4870 -0.5501  0.6840
  196MPD1    N1 2990   0.460   4.017   0.304  0.2944 -0.5243  0.1295
  196MPD1    H6 2991   0.460   4.095   0.238  2.9811 -1.8809 -1.4770
  196MPD1    H7 2992   0.439   3.933   0.249  0.6684 -0.0644 -0.7215
  197MPD1     C 2993   2.600   2.868  16.548  0.2847 -0.2567  0.2632
  197MPD1    C1 2994   2.664   2.986  16.589 -0.0727 -0.2346  0.3910
  197MPD1    C2 2995   2.802   2.993  16.611  0.3202 -0.2720 -0.0051
  197MPD1    C3 2996   2.887   2.887  16.564  0.7458  0.2698 -0.2487
  197MPD1    C4 2997   2.819   2.777  16.510  0.2982  0.4733 -0.4694
  197MPD1    C5 2998   2.681   2.765  16.507 -0.0167  0.3838 -0.7443
  197MPD1     H 2999   2.842   3.091  16.631 -1.5806  0.3311  0.8545
  197MPD1    H1 3000   2.879   2.697  16.469  0.4700  1.4774 -2.2166
  197MPD1    H2 3001   2.493   2.849  16.544  0.1851  0.0227  1.7504
  197MPD1    H3 3002   2.636   2.676  16.465  2.2278  0.0224 -2.3815
  197MPD1     N 3003   3.024   2.883  16.558  0.4758  0.3312  0.3756
  197MPD1    H5 3004   3.071   2.802  16.518  0.5195  0.1303  0.8325
  197MPD1    N1 3005   2.583   3.084  16.651  0.2316 -0.5116 -0.3357
  197MPD1    H6 3006   2.493   3.096  16.606 -0.1005 -0.2539  0.4022
  197MPD1    H7 3007   2.628   3.176  16.647 -1.1308  0.1686  0.2659
  198MPD1     C 3008   0.829   0.558  14.843 -0.5819  0.3494  0.3178
  198MPD1    C1 3009   0.893   0.675  14.828 -0.0790  0.3143 -1.2190
  198MPD1    C2 3010   0.909   0.755  14.943  0.0725  0.1673  1.1254
  198MPD1    C3 3011   0.852   0.722  15.063 -0.2151  0.3224 -0.0024
  198MPD1    C4 3012   0.779   0.606  15.068 -0.5674 -0.5565  0.2637
  198MPD1    C5 3013   0.773   0.525  14.959 -0.4236  0.0446 -0.0331
  198MPD1     H 3014   0.969   0.844  14.933  2.4639 -1.4963  0.5799
  198MPD1    H1 3015   0.736   0.582  15.165  1.1152  1.8474  1.6111
  198MPD1    H2 3016   0.815   0.488  14.762  1.5242  2.0950 -1.5346
  198MPD1    H3 3017   0.729   0.430  14.985  0.8960  0.2313  2.8940
  198MPD1     N 3018   0.880   0.806  15.175  0.9998  0.7202  0.4328
  198MPD1    H5 3019   0.930   0.892  15.156  1.8731  0.1078 -0.0531
  198MPD1    N1 3020   0.963   0.698  14.704 -0.6040 -0.3228 -0.3360
  198MPD1    H6 3021   0.961   0.796  14.674  2.8155  0.2777  1.4235
  198MPD1    H7 3022   0.912   0.645  14.634 -1.9489  0.7868 -0.2087
  199MPD1     C 3023   3.920   0.960   9.297  0.5112  0.0365  0.3247
  199MPD1    C1 3024   3.789   0.924   9.333  0.0049 -0.0845 -0.0623
  199MPD1    C2 3025   3.709   1.010   9.410  0.0736  0.1674  0.4597
  199MPD1    C3 3026   3.765   1.117   9.474  0.3367  0.1358 -0.5164
  199MPD1    C4 3027   3.899   1.142   9.458  0.0404 -0.1333  0.3168
  199MPD1    C5 3028   3.970   1.070   9.366  0.3676  0.5456  0.1250
  199MPD1     H 3029   3.607   0.983   9.434 -0.3878  0.1392 -1.5268
  199MPD1    H1 3030   3.950   1.230   9.495 -0.3446 -0.9640  2.7786
  199MPD1    H2 3031   3.981   0.908   9.225  0.5895  2.5034 -1.3745
  199MPD1    H3 3032   4.072   1.103   9.354  1.3438 -2.5404 -0.1180
  199MPD1     N 3033   3.693   1.206   9.556 -0.1394 -0.3519 -0.2694
  199MPD1    H5 3034   3.741   1.293   9.577  0.5999 -0.6721 -0.6236
  199MPD1    N1 3035   3.735   0.826   9.256 -1.0531  0.4014  0.0978
  199MPD1    H6 3036   3.652   0.788   9.301 -2.2840  1.0889 -1.6009
  199MPD1    H7 3037   3.806   0.759   9.227 -1.4110 -0.2698  0.7765
  200MPD1     C 3038   2.006   2.044  14.507 -0.0960  0.3501 -0.1506
  200MPD1    C1 3039   2.103   2.127  14.553 -0.4098 -0.1225  0.0348
  200MPD1    C2 3040   2.187   2.180  14.456  0.0087 -0.8173  0.3600
  200MPD1    C3 3041   2.188   2.146  14.327 -0.1314 -0.0594 -0.3490
  200MPD1    C4 3042   2.096   2.047  14.286 -0.2479  0.1225  0.0251
  200MPD1    C5 3043   2.002   2.003  14.377  0.4573  0.5361 -0.8494
  200MPD1     H 3044   2.251   2.262  14.485 -1.2793  0.2140  0.2787
  200MPD1    H1 3045   2.079   2.007  14.186  0.2390 -1.4130  0.5525
  200MPD1    H2 3046   1.932   2.006  14.576  0.0291  2.0162  0.9160
  200MPD1    H3 3047   1.919   1.938  14.351  0.5943  0.0073  0.0139
  200MPD1     N 3048   2.279   2.213  14.241  0.6117  0.2588 -0.1258
  200MPD1    H5 3049   2.340   2.281  14.284  0.2535  0.7620 -0.4033
  200MPD1    N1 3050   2.093   2.173  14.684 -0.6516 -0.3315  0.7049
  200MPD1    H6 3051   2.171   2.226  14.722 -1.4587  1.1666  0.2665
  200MPD1    H7 3052   2.070   2.094  14.744  0.3533 -1.2880 -0.1741
  201MPD1     C 3053   4.324   1.635  12.976 -0.3414 -0.0864 -0.2159
  201MPD1    C1 3054   4.239   1.539  13.030 -0.0847 -0.0540 -0.9719
  201MPD1    C2 3055   4.258   1.419  12.979 -0.6337  0.8646  0.4204
  201MPD1    C3 3056   4.354   1.378  12.884 -0.3268  0.5495  0.1144
  201MPD1    C4 3057   4.429   1.479  12.826 -0.0910 -0.2134  0.3183
  201MPD1    C5 3058   4.409   1.605  12.868  0.2718 -0.2645 -0.6596
  201MPD1     H 3059   4.213   1.338  13.036 -1.0009  0.5724 -0.2822
  201MPD1    H1 3060   4.507   1.466  12.752  1.0853 -0.6346  1.6270
  201MPD1    H2 3061   4.332   1.728  13.031  0.4290  0.2569 -0.9134
  201MPD1    H3 3062   4.468   1.687  12.829  1.2172 -1.4647 -1.7415
  201MPD1     N 3063   4.370   1.246  12.851  0.0269 -0.8098  0.0156
  201MPD1    H5 3064   4.307   1.179  12.893 -1.4856  0.5972  0.0074
  201MPD1    N1 3065   4.171   1.570  13.151 -0.2892  0.0130  0.2222
  201MPD1    H6 3066   4.164   1.671  13.164 -0.0606  0.0565 -0.0023
  201MPD1    H7 3067   4.083   1.520  13.161 -0.6468  0.9488  1.7561
  202MPD1     C 3068   1.049   0.971   9.311  0.5837  0.6114  0.1131
  202MPD1    C1 3069   1.128   0.898   9.402 -0.3054 -0.6441 -0.3841
  202MPD1    C2 3070   1.056   0.823   9.494  0.0424 -0.6187 -0.3598
  202MPD1    C3 3071   0.923   0.851   9.519  0.7849  0.6846  0.3091
  202MPD1    C4 3072   0.855   0.937   9.438 -0.1465 -0.4623 -0.1431
  202MPD1    C5 3073   0.920   0.994   9.334  0.5250 -0.4764  0.6262
  202MPD1     H 3074   1.107   0.754   9.560 -0.0574 -1.6326 -1.3462
  202MPD1    H1 3075   0.755   0.967   9.468  1.7975  4.6850  1.1580
  202MPD1    H2 3076   1.091   1.015   9.221 -2.9854 -0.0222 -1.8420
  202MPD1    H3 3077   0.869   1.067   9.272  1.2202 -1.0364 -0.6126
  202MPD1     N 3078   0.842   0.789   9.625 -0.0165 -0.7920  0.5114
  202MPD1    H5 3079   0.745   0.818   9.626  0.0889 -0.4395  0.6991
  202MPD1    N1 3080   1.245   0.845   9.346  0.5926  0.0958 -0.4787
  202MPD1    H6 3081   1.317   0.822   9.414  0.9360  0.7412 -0.6316
  202MPD1    H7 3082   1.303   0.909   9.293  0.5898 -0.8203 -1.5943
  203MPD1     C 3083   3.606   1.640  12.325  0.3622 -0.3504 -0.1825
  203MPD1    C1 3084   3.687   1.602  12.437 -0.1526 -0.8142  0.4477
  203MPD1    C2 3085   3.683   1.464  12.457  0.6445 -1.0845 -0.3027
  203MPD1    C3 3086   3.648   1.371  12.361 -0.5984  0.1317 -0.6369
  203MPD1    C4 3087   3.604   1.421  12.239  0.1121 -0.2690 -0.2040
  203MPD1    C5 3088   3.580   1.553  12.226  0.7092 -0.0236  0.0572
  203MPD1     H 3089   3.722   1.416  12.546  1.3294  0.7552  0.3803
  203MPD1    H1 3090   3.575   1.360  12.154 -1.5303  1.8025 -1.1442
  203MPD1    H2 3091   3.593   1.745  12.298  0.7199  0.1284  1.4852
  203MPD1    H3 3092   3.537   1.585  12.131 -0.7278 -1.8950  0.0481
  203MPD1     N 3093   3.647   1.236  12.398  0.4673  0.1964 -0.0037
  203MPD1    H5 3094   3.657   1.213  12.497 -2.0152  0.8841  0.3927
  203MPD1    N1 3095   3.734   1.698  12.530  1.0018  0.2167 -0.8287
  203MPD1    H6 3096   3.823   1.663  12.565  1.6375  1.4805 -1.1577
  203MPD1    H7 3097   3.763   1.785  12.485  0.2010  2.0649  2.2029
  204MPD1     C 3098   2.998   1.593   0.383 -0.4231  0.8050  0.2583
  204MPD1    C1 3099   2.931   1.473   0.374 -0.6048  0.3649  0.0423
  204MPD1    C2 3100   2.869   1.445   0.250  0.0785 -0.1193  0.3958
  204MPD1    C3 3101   2.893   1.512   0.137  0.0141  0.8182  0.1729
  204MPD1    C4 3102   2.980   1.620   0.142  0.9401  0.0607 -0.6175
  204MPD1    C5 3103   3.028   1.662   0.268 -0.0884 -0.3905 -0.6821
  204MPD1     H 3104   2.796   1.364   0.259  1.3943 -1.3821 -0.3253
  204MPD1    H1 3105   3.013   1.679   0.057  2.4408 -2.1554 -1.5886
  204MPD1    H2 3106   3.049   1.629   0.471  1.4316 -0.1555 -0.4168
  204MPD1    H3 3107   3.092   1.750   0.274 -0.0010 -0.5030  0.0550
  204MPD1     N 3108   2.821   1.482   0.022 -0.0003  0.3259 -0.5182
  204MPD1    H5 3109   2.753   1.408   0.030 -3.8693  3.9561 -0.0473
  204MPD1    N1 3110   2.903   1.397   0.490 -0.3913  0.5981 -0.2837
  204MPD1    H6 3111   2.845   1.315   0.472 -1.2527  1.1087  0.1701
  204MPD1    H7 3112   2.992   1.369   0.530 -0.1967 -0.5294 -1.5060
  205MPD1     C 3113   2.959   0.229  16.392  0.2432 -0.1219  0.5126
  205MPD1    C1 3114   2.840   0.256  16.459  0.5022  0.3840  0.3368
  205MPD1    C2 3115   2.845   0.309  16.586 -0.5153 -0.3152  0.5933
  205MPD1    C3 3116   2.967   0.344  16.645  0.2534 -0.1056  0.1725
  205MPD1    C4 3117   3.085   0.309  16.577  0.5007 -0.5369  0.5378
  205MPD1    C5 3118   3.076   0.259  16.451 -0.1043 -0.2231 -0.2996
  205MPD1     H 3119   2.754   0.343  16.633 -0.4749  1.1211 -0.3658
  205MPD1    H1 3120   3.181   0.328  16.624  0.3670 -1.1133  1.0431
  205MPD1    H2 3121   2.961   0.215  16.284  2.4281 -0.7405  0.6489
  205MPD1    H3 3122   3.162   0.235  16.390  1.6570 -0.7254  2.4024
  205MPD1     N 3123   2.972   0.415  16.769  0.2368  0.5857 -0.1520
  205MPD1    H5 3124   3.066   0.420  16.808 -0.2915 -0.5578  1.2869
  205MPD1    N1 3125   2.720   0.221  16.399 -0.7070 -1.0424  0.4629
  205MPD1    H6 3126   2.726   0.231  16.298  3.8453  1.6985  1.0321
  205MPD1    H7 3127   2.646   0.288  16.423  0.5518  1.2741 -2.1428
  206MPD1     C 3128   3.295   4.100  15.841 -0.6198  0.1990 -0.1830
  206MPD1    C1 3129   3.237   4.091  15.970 -0.0315  0.5576 -1.6198
  206MPD1    C2 3130   3.094   4.091  15.962  0.2309  0.1482  0.0389
  206MPD1    C3 3131   3.015   4.117  15.849  0.2823  0.5642  0.0524
  206MPD1    C4 3132   3.085   4.138  15.731  0.8230  0.0185 -0.2299
  206MPD1    C5 3133   3.221   4.127  15.732 -0.6977  0.1370  0.2744
  206MPD1     H 3134   3.049   4.081  16.060  1.4566  1.4328  0.7330
  206MPD1    H1 3135   3.039   4.147  15.633 -0.7199  0.3977  0.5238
  206MPD1    H2 3136   3.400   4.077  15.831 -0.5611 -0.3474  1.7613
  206MPD1    H3 3137   3.272   4.130  15.637 -1.4242 -1.2300 -0.1513
  206MPD1     N 3138   2.878   4.108  15.841  0.0192 -0.0879  0.7117
  206MPD1    H5 3139   2.836   4.122  15.749  0.9212 -2.9267 -0.1176
  206MPD1    N1 3140   3.317   4.054  16.076 -0.2680 -0.5919  0.5266
  206MPD1    H6 3141   3.407   4.100  16.066  0.4090 -2.1703 -0.6736
  206MPD1    H7 3142   3.286   4.096  16.163 -1.4836  0.7986 -0.6060
  207MPD1     C 3143   1.691   0.650   9.727 -0.0775 -0.3075  0.0569
  207MPD1    C1 3144   1.784   0.749   9.748  0.1553  0.1678 -0.3577
  207MPD1    C2 3145   1.764   0.832   9.853  0.3016 -0.1732 -0.1668
  207MPD1    C3 3146   1.659   0.819   9.946  0.4759 -0.1908  0.6151
  207MPD1    C4 3147   1.580   0.706   9.927 -0.0221 -0.5546 -0.1913
  207MPD1    C5 3148   1.594   0.626   9.816  0.0403  0.1092 -0.9598
  207MPD1     H 3149   1.827   0.919   9.867 -2.9666  2.3244 -0.9695
  207MPD1    H1 3150   1.500   0.669   9.989  0.6268 -0.0185  0.9588
  207MPD1    H2 3151   1.696   0.581   9.644 -2.9094 -2.5368  1.7454
  207MPD1    H3 3152   1.530   0.541   9.793  1.7482 -1.6640  0.9286
  207MPD1     N 3153   1.627   0.903  10.054 -0.0034 -0.0749  0.4664
  207MPD1    H5 3154   1.544   0.872  10.104  1.0890 -2.6948  0.6787
  207MPD1    N1 3155   1.884   0.772   9.652  0.1870 -0.5135 -0.5186
  207MPD1    H6 3156   1.933   0.687   9.626  0.3200 -0.2161 -1.2439
  207MPD1    H7 3157   1.950   0.844   9.679 -0.2409 -1.0732  2.0977
  208MPD1     C 3158   3.324   1.378   0.288  0.6890  0.1990  0.7263
  208MPD1    C1 3159   3.444   1.353   0.353 -0.5122  0.1306 -0.6593
  208MPD1    C2 3160   3.475   1.229   0.386 -0.1524 -0.0436 -0.5836
  208MPD1    C3 3161   3.389   1.116   0.353 -0.2017 -0.3747  0.3540
  208MPD1    C4 3162   3.270   1.149   0.292 -0.3949 -0.0768 -0.1378
  208MPD1    C5 3163   3.239   1.282   0.259 -0.3394  0.4088 -0.1483
  208MPD1     H 3164   3.571   1.216   0.436 -0.9737  3.9106  1.9344
  208MPD1    H1 3165   3.196   1.071   0.275  0.8358 -1.0632 -0.9656
  208MPD1    H2 3166   3.298   1.479   0.259  0.4628 -0.1282 -0.2014
  208MPD1    H3 3167   3.148   1.307   0.205 -1.6372  0.1128  1.8833
  208MPD1     N 3168   3.433   0.987   0.386  0.4989 -0.2341  0.1247
  208MPD1    H5 3169   3.518   0.983   0.442  1.1672  1.3598 -0.7694
  208MPD1    N1 3170   3.544   1.454   0.369  0.2948 -0.2236 -0.0011
  208MPD1    H6 3171   3.602   1.437   0.451 -0.0994  2.2394  0.7834
  208MPD1    H7 3172   3.498   1.544   0.378 -3.0322 -1.9781  0.7550
  209MPD1     C 3173   0.211   1.932  10.068  0.3002 -0.0670 -0.0531
  209MPD1    C1 3174   0.125   1.830  10.107 -0.5349 -0.1027 -0.4561
  209MPD1    C2 3175   0.174   1.718  10.157 -0.2960 -0.0825  0.2932
  209MPD1    C3 3176   0.311   1.703  10.179 -0.6736 -0.1120 -0.5480
  209MPD1    C4 3177   0.400   1.802  10.144  0.6087 -0.7101  0.2793
  209MPD1    C5 3178   0.349   1.920  10.090  0.4194 -0.4913 -0.6200
  209MPD1     H 3179   0.112   1.632  10.180 -0.2569  0.1383  1.2255
  209MPD1    H1 3180   0.504   1.808  10.174  0.7595 -0.2813 -0.3413
  209MPD1    H2 3181   0.171   2.022  10.024  0.6549 -0.3661 -0.9876
  209MPD1    H3 3182   0.412   2.004  10.066  0.6503 -1.5981 -3.9347
  209MPD1     N 3183   0.357   1.582  10.239  0.1175 -0.3882 -0.2585
  209MPD1    H5 3184   0.293   1.505  10.254 -0.4079 -0.1181 -1.0608
  209MPD1    N1 3185   4.710   1.846  10.110  0.2993  0.0576  0.0391
  209MPD1    H6 3186   4.661   1.757  10.105 -1.8388  1.2284  0.1330
  209MPD1    H7 3187   4.669   1.907  10.040 -1.2286 -1.7776 -0.6311
  210MPD1     C 3188   4.569   1.116  10.672  0.1210  0.5225 -0.2015
  210MPD1    C1 3189   4.631   1.036  10.574 -0.0694 -0.2709  0.0318
  210MPD1    C2 3190   0.033   1.069  10.532  0.5104 -0.0379  0.5363
  210MPD1    C3 3191   0.096   1.180  10.569 -0.0173 -0.4681  0.5754
  210MPD1    C4 3192   0.033   1.262  10.662  0.2526  0.0180  0.8614
  210MPD1    C5 3193   4.628   1.231  10.705  0.2516  0.1470  0.3067
  210MPD1     H 3194   0.084   0.995  10.471 -0.2430 -1.3807  1.5611
  210MPD1    H1 3195   0.071   1.346  10.720 -2.4366  0.0790  2.5181
  210MPD1    H2 3196   4.481   1.090  10.729  0.6578  0.2866  0.5176
  210MPD1    H3 3197   4.598   1.301  10.782  0.5873  0.2801  0.3156
  210MPD1     N 3198   0.226   1.217  10.528  0.2544  0.2355 -0.1430
  210MPD1    H5 3199   0.266   1.300  10.571 -0.4103  0.5401 -0.1101
  210MPD1    N1 3200   4.587   0.903  10.555 -0.6289  0.0628 -0.6893
  210MPD1    H6 3201   4.489   0.890  10.581  0.4345 -0.4697  3.0404
  210MPD1    H7 3202   4.601   0.868  10.460 -3.4729 -1.9028 -0.3859
  211MPD1     C 3203   3.382   0.485  16.338  0.0103 -0.5015 -1.0981
  211MPD1    C1 3204   3.367   0.609  16.396  0.3312 -0.4109 -0.2272
  211MPD1    C2 3205   3.242   0.669  16.376 -0.0726  0.1595 -0.3572
  211MPD1    C3 3206   3.154   0.617  16.283  0.4792 -0.2731 -0.4126
  211MPD1    C4 3207   3.173   0.491  16.228 -0.1315 -0.4976 -1.2499
  211MPD1    C5 3208   3.290   0.426  16.257  0.0962 -0.4290 -0.0120
  211MPD1     H 3209   3.239   0.772  16.408  0.9752 -0.4705  1.8004
  211MPD1    H1 3210   3.091   0.445  16.173 -0.5494 -0.5208 -0.6021
  211MPD1    H2 3211   3.479   0.438  16.347 -0.7854 -2.3648 -2.3318
  211MPD1    H3 3212   3.308   0.324  16.223 -3.4025 -1.0965  0.0456
  211MPD1     N 3213   3.039   0.700  16.251  0.1110  0.5723  0.5360
  211MPD1    H5 3214   3.028   0.785  16.306  0.0576  0.4525  0.7100
  211MPD1    N1 3215   3.461   0.643  16.493  0.1598 -0.2007 -0.7681
  211MPD1    H6 3216   3.467   0.744  16.492  0.0485 -0.1510  3.1555
  211MPD1    H7 3217   3.549   0.606  16.457 -0.8978  1.0220 -4.5295
  212MPD1     C 3218   2.562   3.895  16.342 -0.1322 -0.0855 -0.3659
  212MPD1    C1 3219   2.556   3.767  16.396  0.2173  0.0968  0.0891
  212MPD1    C2 3220   2.432   3.725  16.433  0.2259 -0.3068 -0.2277
  212MPD1    C3 3221   2.316   3.800  16.430  0.1996  0.2317 -0.4095
  212MPD1    C4 3222   2.332   3.928  16.385 -0.0918  0.4128 -0.1736
  212MPD1    C5 3223   2.448   3.971  16.325 -0.2950  0.0701 -0.0218
  212MPD1     H 3224   2.416   3.620  16.454 -0.9428 -0.3172 -1.1763
  212MPD1    H1 3225   2.246   3.995  16.385  0.8611  1.6318  0.8674
  212MPD1    H2 3226   2.651   3.927  16.289  0.2011  0.5472  0.5731
  212MPD1    H3 3227   2.460   4.067  16.277  0.8808  0.3838  0.8973
  212MPD1     N 3228   2.195   3.748  16.477 -0.1350 -0.2536 -0.6845
  212MPD1    H5 3229   2.197   3.656  16.520  0.7320 -0.8824 -2.0817
  212MPD1    N1 3230   2.664   3.682  16.388 -0.0061  0.6266 -0.2540
  212MPD1    H6 3231   2.687   3.622  16.466 -0.5595 -0.5486 -0.9847
  212MPD1    H7 3232   2.749   3.737  16.376 -0.1970  0.5754 -1.8736
  213MPD1     C 3233   0.616   0.177  15.294  0.5808  0.4058  0.0820
  213MPD1    C1 3234   0.501   0.114  15.333 -0.4022 -0.4597  0.2146
  213MPD1    C2 3235   0.403   0.111  15.240 -0.5175  0.2913 -0.3676
  213MPD1    C3 3236   0.406   0.189  15.126 -0.0488 -0.6407 -0.5119
  213MPD1    C4 3237   0.517   0.266  15.092 -0.1505 -0.2942  0.3003
  213MPD1    C5 3238   0.623   0.259  15.181 -0.5014 -0.2665  0.1507
  213MPD1     H 3239   0.319   0.043  15.251 -0.0653 -0.1869  0.1643
  213MPD1    H1 3240   0.534   0.321  15.000 -1.9715 -2.2855 -1.2090
  213MPD1    H2 3241   0.708   0.169  15.349  2.1171  0.5874 -2.4538
  213MPD1    H3 3242   0.719   0.305  15.158 -0.7788 -0.2774 -1.0369
  213MPD1     N 3243   0.298   0.178  15.032 -0.9396  0.9590  0.0778
  213MPD1    H5 3244   0.236   0.098  15.037  1.3120 -0.8029 -0.7036
  213MPD1    N1 3245   0.510   4.720  15.413 -0.0398  0.0997  0.0592
  213MPD1    H6 3246   0.561   0.024  15.497 -0.7566  1.0945  0.1969
  213MPD1    H7 3247   0.413   4.699  15.434  0.2476 -0.2087  1.0825
  214MPD1     C 3248   4.325   4.404  14.872  0.0261  0.2266  0.7636
  214MPD1    C1 3249   4.398   4.386  14.758  0.5900 -0.3027 -0.4989
  214MPD1    C2 3250   4.515   4.454  14.738 -0.0534 -0.2088  0.6910
  214MPD1    C3 3251   4.549   4.557  14.826  0.5270 -0.5531 -0.4252
  214MPD1    C4 3252   4.467   4.585  14.937 -0.9037  0.1823 -0.4711
  214MPD1    C5 3253   4.364   4.505  14.960 -0.2773 -0.6212 -0.2120
  214MPD1     H 3254   4.575   4.427  14.651  0.1535  1.3219  0.3581
  214MPD1    H1 3255   4.484   4.669  15.003 -1.3267 -0.7625  0.8161
  214MPD1    H2 3256   4.231   4.352  14.889 -0.6636  0.9037 -0.9292
  214MPD1    H3 3257   4.298   4.518  15.044 -0.6618 -1.5633 -0.3657
  214MPD1     N 3258   4.659   4.647  14.817 -0.1126  0.3091 -0.8082
  214MPD1    H5 3259   4.660   0.006  14.879  1.0254  0.4442 -0.9984
  214MPD1    N1 3260   4.370   4.273  14.683 -0.4037 -0.0338  0.2394
  214MPD1    H6 3261   4.269   4.272  14.673 -0.5804  3.7485  1.4010
  214MPD1    H7 3262   4.405   4.276  14.588  2.5946  0.9106  1.3700
  215MPD1     C 3263   0.207   1.853  10.576 -0.4988 -0.2944  0.4202
  215MPD1    C1 3264   0.325   1.884  10.516  0.2190  0.3146  0.1673
  215MPD1    C2 3265   0.443   1.816  10.551 -0.2060  0.0867  0.7884
  215MPD1    C3 3266   0.440   1.707  10.635  0.2629 -0.2425 -0.0550
  215MPD1    C4 3267   0.315   1.671  10.694 -0.5680 -0.1744  0.0227
  215MPD1    C5 3268   0.210   1.746  10.666 -0.6234  0.1363 -0.5271
  215MPD1     H 3269   0.531   1.841  10.493 -0.9644  1.2826  0.1346
  215MPD1    H1 3270   0.307   1.588  10.764 -2.2254  1.1851  1.4389
  215MPD1    H2 3271   0.113   1.905  10.558 -0.2204  0.2763  0.6087
  215MPD1    H3 3272   0.112   1.715  10.701 -1.2278  0.6802 -1.7286
  215MPD1     N 3273   0.557   1.634  10.651  0.4882  0.4576 -0.2580
  215MPD1    H5 3274   0.638   1.690  10.628 -0.2495  1.7080  0.1905
  215MPD1    N1 3275   0.336   1.993  10.424 -0.4718 -0.1479 -0.3020
  215MPD1    H6 3276   0.262   2.007  10.356  0.3058 -0.5905 -1.2292
  215MPD1    H7 3277   0.426   2.000  10.378 -0.1374 -0.0616  0.3629
  216MPD1     C 3278   1.568   3.455   0.230 -0.5665  0.4792  0.2170
  216MPD1    C1 3279   1.529   3.324   0.187 -1.0528 -0.0664  0.1412
  216MPD1    C2 3280   1.570   3.216   0.263  0.2734  0.0698 -0.8181
  216MPD1    C3 3281   1.645   3.233   0.380  0.2255 -0.5161  0.2511
  216MPD1    C4 3282   1.674   3.362   0.419 -0.2287 -0.0991 -0.0176
  216MPD1    C5 3283   1.634   3.470   0.346  0.2981  0.4233 -0.1437
  216MPD1     H 3284   1.561   3.114   0.229  2.1443 -1.2328  2.5875
  216MPD1    H1 3285   1.736   3.380   0.507 -1.7437  2.0715  0.6122
  216MPD1    H2 3286   1.553   3.545   0.172  0.5521  2.8536  3.6320
  216MPD1    H3 3287   1.685   3.561   0.377  0.0598 -0.5603  3.0653
  216MPD1     N 3288   1.670   3.119   0.458 -0.0516 -0.2240 -0.6149
  216MPD1    H5 3289   1.644   3.030   0.419  0.9798 -0.5622 -0.5224
  216MPD1    N1 3290   1.478   3.306   0.060 -0.0800  0.2803 -0.2710
  216MPD1    H6 3291   1.401   3.239   0.052 -0.1494  0.5752 -2.0979
  216MPD1    H7 3292   1.443   3.389   0.014 -0.1678  0.4953  0.1895
  217MPD1     C 3293   0.230   1.085   9.070  0.1852 -0.0602 -0.1235
  217MPD1    C1 3294   0.133   1.152   8.995  0.4705  0.0021 -0.0625
  217MPD1    C2 3295   0.028   1.087   8.926 -0.2510  0.0319  0.5903
  217MPD1    C3 3296   0.027   0.942   8.938  0.1401 -0.2920 -0.0543
  217MPD1    C4 3297   0.129   0.883   9.015  0.0080  0.8304 -0.7697
  217MPD1    C5 3298   0.229   0.948   9.079  0.0312 -0.0757 -0.3959
  217MPD1     H 3299   4.672   1.142   8.873  1.0674  1.7309  0.4591
  217MPD1    H1 3300   0.124   0.774   9.016 -1.7470  0.9042 -0.9914
  217MPD1    H2 3301   0.303   1.137   9.130 -1.5196 -0.3149  2.1748
  217MPD1    H3 3302   0.302   0.900   9.143 -1.3916 -2.7771 -0.8120
  217MPD1     N 3303   4.666   0.850   8.870 -0.0612 -0.8543 -0.1139
  217MPD1    H5 3304   4.678   0.753   8.896  1.3264 -0.5935  0.2410
  217MPD1    N1 3305   0.125   1.288   9.021 -0.7523 -0.4619 -0.6524
  217MPD1    H6 3306   0.087   1.342   8.944  2.3470  1.0280 -1.1701
  217MPD1    H7 3307   0.221   1.320   9.034 -1.5913  0.3535  3.4289
  218MPD1     C 3308   0.293   0.537  11.481 -0.4046 -0.4493  0.2863
  218MPD1    C1 3309   0.385   0.515  11.585  0.5171  0.4327  0.1431
  218MPD1    C2 3310   0.345   0.547  11.716 -0.2875  0.3565  0.6030
  218MPD1    C3 3311   0.226   0.605  11.753  0.1793 -0.1632  0.5973
  218MPD1    C4 3312   0.144   0.634  11.645 -0.1023 -0.4308 -0.7772
  218MPD1    C5 3313   0.176   0.603  11.515  0.4268  0.0313  0.2825
  218MPD1     H 3314   0.413   0.520  11.796 -2.2170 -1.8685  1.4913
  218MPD1    H1 3315   0.043   0.671  11.654  0.5105  1.3916 -1.2074
  218MPD1    H2 3316   0.321   0.506  11.381  2.4282 -1.5199  1.3981
  218MPD1    H3 3317   0.112   0.635  11.433 -0.6768  1.9086  1.8839
  218MPD1     N 3318   0.198   0.629  11.888 -0.0159 -0.1882  0.0315
  218MPD1    H5 3319   0.276   0.639  11.952 -1.4741  0.0814  1.7706
  218MPD1    N1 3320   0.501   0.440  11.565 -0.5304 -0.6311 -0.0724
  218MPD1    H6 3321   0.544   0.443  11.473 -0.7183 -3.1588 -0.2371
  218MPD1    H7 3322   0.569   0.462  11.637  0.6270  1.6315 -1.8839
  219MPD1     C 3323   4.337   1.334  12.287  0.2547 -0.3774 -0.8760
  219MPD1    C1 3324   4.439   1.323  12.378 -0.2999 -1.0800  0.5901
  219MPD1    C2 3325   4.548   1.240  12.341  0.2415 -0.7540  0.4850
  219MPD1    C3 3326   4.542   1.158  12.229 -0.0575 -0.0013 -0.5160
  219MPD1    C4 3327   4.442   1.177  12.143 -0.0358  0.2953  0.0153
  219MPD1    C5 3328   4.341   1.261  12.167  0.2350 -0.1297 -0.2927
  219MPD1     H 3329   4.639   1.226  12.398  0.8424 -0.8987 -0.5033
  219MPD1    H1 3330   4.452   1.119  12.052 -1.2441 -0.8011  0.5806
  219MPD1    H2 3331   4.254   1.401  12.311 -1.0279 -1.1864 -3.0406
  219MPD1    H3 3332   4.270   1.282  12.087 -1.0889  0.7867  1.1247
  219MPD1     N 3333   4.621   1.045  12.213 -0.9693  0.1231  0.1840
  219MPD1    H5 3334   4.587   0.973  12.150 -3.4780 -0.8504  2.6747
  219MPD1    N1 3335   4.433   1.421  12.483  0.2390  0.2184  0.4175
  219MPD1    H6 3336   4.492   1.389  12.560  3.5111 -0.9070 -2.5280
  219MPD1    H7 3337   4.338   1.437  12.516 -1.2210 -2.8567 -2.2947
  220MPD1     C 3338   1.695   1.072   9.223  0.8447  0.3963 -0.1662
  220MPD1    C1 3339   1.738   1.065   9.355  0.4228 -0.1700 -0.0269
  220MPD1    C2 3340   1.642   1.098   9.449 -0.5966 -0.3415 -0.4579
  220MPD1    C3 3341   1.513   1.135   9.421 -0.9808  0.6711 -0.1178
  220MPD1    C4 3342   1.472   1.147   9.289 -0.6843 -0.3014 -0.5798
  220MPD1    C5 3343   1.570   1.114   9.199  0.3788 -0.6506  0.2393
  220MPD1     H 3344   1.666   1.081   9.553 -1.0091 -1.0191 -0.4750
  220MPD1    H1 3345   1.373   1.184   9.265 -1.2109 -1.9205 -0.8855
  220MPD1    H2 3346   1.763   1.045   9.143 -0.5307 -0.0972 -1.1620
  220MPD1    H3 3347   1.554   1.137   9.095  1.1320  0.6699  0.4098
  220MPD1     N 3348   1.416   1.154   9.529  0.1475 -0.3160  0.3549
  220MPD1    H5 3349   1.440   1.124   9.623 -0.5626  0.0143  0.6450
  220MPD1    N1 3350   1.860   1.001   9.385  0.2141 -0.5333  0.2656
  220MPD1    H6 3351   1.935   1.009   9.316 -0.3955  1.7086 -0.1426
  220MPD1    H7 3352   1.897   1.030   9.475 -1.1723 -0.7810  0.9148
  221MPD1     C 3353   2.596   0.326  17.344  0.0213 -0.6035  0.2870
  221MPD1    C1 3354   2.698   0.238  17.344 -0.0668 -0.2347 -0.0727
  221MPD1    C2 3355   2.737   0.174  17.230  0.2508 -0.2655 -0.2160
  221MPD1    C3 3356   2.663   0.199  17.115  0.3524 -0.1940 -0.2183
  221MPD1    C4 3357   2.566   0.291  17.104 -0.0255  0.0384 -0.0923
  221MPD1    C5 3358   2.529   0.354  17.228  0.0473  0.3296 -0.7086
  221MPD1     H 3359   2.820   0.105  17.238  2.3962  2.2354 -0.7629
  221MPD1    H1 3360   2.514   0.320  17.013  1.9973  1.0995 -0.8890
  221MPD1    H2 3361   2.550   0.363  17.435 -1.6530 -2.6697  0.2869
  221MPD1    H3 3362   2.448   0.426  17.235 -0.5434 -0.3078 -1.0815
  221MPD1     N 3363   2.708   0.146  16.996 -0.3311 -0.3342  0.1584
  221MPD1    H5 3364   2.658   0.169  16.911 -1.5892 -1.0725  0.7060
  221MPD1    N1 3365   2.752   0.198  17.469  0.1807 -0.2696  0.1358
  221MPD1    H6 3366   2.736   0.272  17.536 -0.5979  0.6827 -1.1067
  221MPD1    H7 3367   2.852   0.178  17.477  0.1283 -0.0385  1.2925
  222MPD1     C 3368   2.104   3.578  16.946 -0.7728 -0.5911  1.0083
  222MPD1    C1 3369   1.986   3.598  17.017  0.5687  0.3422  0.1218
  222MPD1    C2 3370   1.938   3.726  17.020 -0.3233  0.3167  0.6480
  222MPD1    C3 3371   1.986   3.839  16.948  0.0824 -0.6999  0.5260
  222MPD1    C4 3372   2.094   3.808  16.871 -0.2215 -0.7251  1.1596
  222MPD1    C5 3373   2.148   3.683  16.872  0.1472 -0.2638  0.1133
  222MPD1     H 3374   1.858   3.748  17.090  1.8286  0.2719  3.1297
  222MPD1    H1 3375   2.151   3.880  16.813  1.9321 -1.2575  2.5781
  222MPD1    H2 3376   2.169   3.492  16.946  1.0950  0.8214 -0.9217
  222MPD1    H3 3377   2.238   3.670  16.814  0.2045 -2.5504  0.7236
  222MPD1     N 3378   1.931   3.975  16.943 -0.6425 -0.0060 -0.1895
  222MPD1    H5 3379   1.977   4.044  16.883  1.7072 -0.6927  0.8216
  222MPD1    N1 3380   1.930   3.493  17.089 -0.0238  0.4717  0.1053
  222MPD1    H6 3381   1.953   3.404  17.044  0.1296  0.5720 -0.0163
  222MPD1    H7 3382   1.830   3.509  17.097 -0.5701 -3.0620  0.5320
  223MPD1     C 3383   1.355   4.423  17.518 -0.5320 -0.2348 -0.1638
  223MPD1    C1 3384   1.481   4.478  17.514 -0.3824 -0.0055 -0.3137
  223MPD1    C2 3385   1.544   4.488  17.390  0.0952 -0.1630  0.4044
  223MPD1    C3 3386   1.485   4.440  17.274  0.4858  0.4014  0.0149
  223MPD1    C4 3387   1.361   4.369  17.291 -0.0608  0.3165 -0.3804
  223MPD1    C5 3388   1.303   4.367  17.404  0.5907  0.1903  0.1571
  223MPD1     H 3389   1.635   4.547  17.385 -1.0054  1.4695 -0.6129
  223MPD1    H1 3390   1.300   4.334  17.208 -0.3047  0.0711 -0.0977
  223MPD1    H2 3391   1.298   4.430  17.610  1.1880 -0.2449  0.8969
  223MPD1    H3 3392   1.197   4.345  17.396  0.7199 -0.6460  0.8101
  223MPD1     N 3393   1.556   4.442  17.157  0.3834 -0.2203 -0.3072
  223MPD1    H5 3394   1.651   4.478  17.158 -0.2194  1.4164 -0.8382
  223MPD1    N1 3395   1.532   4.563  17.620 -0.3583  0.0573 -0.3678
  223MPD1    H6 3396   1.522   4.504   0.016  0.9289 -2.4014 -1.9242
  223MPD1    H7 3397   1.633   4.571  17.610 -0.7694 -0.3794 -4.7500
  224MPD1     C 3398   0.310   1.540   9.444  0.3099 -0.2058  0.4072
  224MPD1    C1 3399   0.378   1.430   9.472 -0.1812  0.3522 -0.6713
  224MPD1    C2 3400   0.320   1.306   9.458 -0.7813 -0.0848 -0.3804
  224MPD1    C3 3401   0.192   1.295   9.414 -0.1451  0.1400 -0.4255
  224MPD1    C4 3402   0.122   1.411   9.381 -0.4714  0.6083 -0.1459
  224MPD1    C5 3403   0.181   1.530   9.396  0.1447  0.0597  0.2071
  224MPD1     H 3404   0.365   1.214   9.493 -0.0063 -0.0355 -1.2509
  224MPD1    H1 3405   0.017   1.427   9.358 -0.6543  0.2419  0.4226
  224MPD1    H2 3406   0.355   1.639   9.451 -1.7439  0.6702  1.5876
  224MPD1    H3 3407   0.122   1.616   9.370  0.0664 -0.3581 -1.0368
  224MPD1     N 3408   0.131   1.170   9.395 -0.6939 -0.3085 -0.1273
  224MPD1    H5 3409   0.033   1.172   9.370 -0.5386 -0.7271 -0.7792
  224MPD1    N1 3410   0.506   1.441   9.530 -0.0162 -0.3398  0.3947
  224MPD1    H6 3411   0.562   1.373   9.479  0.1317 -0.2935  0.4944
  224MPD1    H7 3412   0.547   1.531   9.505  0.9636 -1.1779 -1.0148
  225MPD1     C 3413   0.929   2.450  11.496 -0.4665  0.1729  0.3405
  225MPD1    C1 3414   0.875   2.332  11.449  0.2711  0.0877  0.2261
  225MPD1    C2 3415   0.809   2.250  11.540  0.3258 -0.1150 -0.8126
  225MPD1    C3 3416   0.791   2.287  11.670 -0.3284 -0.4084  1.0425
  225MPD1    C4 3417   0.826   2.415  11.707 -0.4629 -0.5442  0.5497
  225MPD1    C5 3418   0.900   2.497  11.621  0.3875  0.5471  0.5360
  225MPD1     H 3419   0.784   2.151  11.504 -1.1459  0.0771 -0.2955
  225MPD1    H1 3420   0.793   2.453  11.803 -0.2273 -0.3142  0.5388
  225MPD1    H2 3421   0.981   2.517  11.429  0.7174 -0.4966  0.5911
  225MPD1    H3 3422   0.946   2.588  11.658  1.9471 -0.5779  1.3652
  225MPD1     N 3423   0.727   2.206  11.767 -0.3574  0.6533 -0.5427
  225MPD1    H5 3424   0.730   2.247  11.860  3.0138  1.6220 -1.0848
  225MPD1    N1 3425   0.905   2.290  11.315  0.1028  0.5492 -0.2881
  225MPD1    H6 3426   0.841   2.220  11.279  0.1642  0.6922 -0.6717
  225MPD1    H7 3427   0.932   2.359  11.245 -1.2139  1.1295 -0.2056
  226MPD1     C 3428   3.113   1.588   9.444 -0.5340  0.4243  0.1055
  226MPD1    C1 3429   3.174   1.707   9.410  0.0521  0.2081  0.0094
  226MPD1    C2 3430   3.299   1.701   9.346 -0.7537 -0.7500 -0.5123
  226MPD1    C3 3431   3.358   1.581   9.321  0.2668  1.0066  0.0690
  226MPD1    C4 3432   3.301   1.459   9.360  0.5842  0.7059  0.1177
  226MPD1    C5 3433   3.171   1.469   9.417 -0.5342 -0.3650  0.0378
  226MPD1     H 3434   3.352   1.795   9.331 -1.1100 -0.1902  1.8373
  226MPD1    H1 3435   3.348   1.362   9.341 -2.0119 -0.4952 -0.1061
  226MPD1    H2 3436   3.013   1.586   9.486 -1.0143  1.8824 -0.9725
  226MPD1    H3 3437   3.109   1.383   9.440 -0.9731 -0.3447 -1.0910
  226MPD1     N 3438   3.488   1.588   9.264 -0.1239  0.5071 -0.3546
  226MPD1    H5 3439   3.517   1.676   9.223 -2.4722  0.4767 -2.0572
  226MPD1    N1 3440   3.115   1.829   9.450 -0.0548  0.2535  0.0175
  226MPD1    H6 3441   3.015   1.825   9.436 -0.1787  0.2235  0.9128
  226MPD1    H7 3442   3.154   1.901   9.389  1.6368  0.1655  1.0085
  227MPD1     C 3443   4.473   1.056   9.107  0.2858 -0.3919 -0.0890
  227MPD1    C1 3444   4.490   1.183   9.155  0.1090 -0.4100 -0.4064
  227MPD1    C2 3445   4.375   1.256   9.182 -0.0937 -0.1300 -0.1728
  227MPD1    C3 3446   4.243   1.218   9.142  0.2329 -0.2158 -0.9853
  227MPD1    C4 3447   4.229   1.089   9.100  0.3597 -0.0114  0.0240
  227MPD1    C5 3448   4.344   1.015   9.084  0.5826 -0.5574  0.8735
  227MPD1     H 3449   4.395   1.354   9.225  0.6846  0.1679 -1.2284
  227MPD1    H1 3450   4.137   1.033   9.089  1.4616 -2.0767  1.4483
  227MPD1    H2 3451   4.554   0.986   9.091  0.4528 -0.5066  1.2248
  227MPD1    H3 3452   4.336   0.911   9.053 -0.4750 -1.1408  3.0729
  227MPD1     N 3453   4.141   1.311   9.167  0.5660 -0.3770 -0.3710
  227MPD1    H5 3454   4.160   1.388   9.230  1.8092 -0.8904 -0.1143
  227MPD1    N1 3455   4.614   1.231   9.205 -0.4180  0.2549 -0.2534
  227MPD1    H6 3456   4.693   1.201   9.149 -0.8502  2.5321 -2.0843
  227MPD1    H7 3457   4.625   1.331   9.188  0.1114  0.4408  1.2450
  228MPD1     C 3458   1.654   3.717  13.225 -0.1921  0.5689 -0.8625
  228MPD1    C1 3459   1.614   3.678  13.099  0.5372  0.6673 -0.0341
  228MPD1    C2 3460   1.484   3.639  13.084  0.3970  0.1160 -0.2209
  228MPD1    C3 3461   1.388   3.654  13.187 -0.2846  0.5116 -0.0218
  228MPD1    C4 3462   1.435   3.695  13.310  0.7192 -0.2461  0.7133
  228MPD1    C5 3463   1.568   3.725  13.322  1.3265  0.6121 -0.3976
  228MPD1     H 3464   1.448   3.603  12.988 -2.2972 -1.6161  1.4290
  228MPD1    H1 3465   1.378   3.695  13.402  0.6773 -0.3905  0.6884
  228MPD1    H2 3466   1.754   3.749  13.251 -0.1621  0.1077 -0.4139
  228MPD1    H3 3467   1.608   3.771  13.412 -1.0881  1.5863  0.1845
  228MPD1     N 3468   1.253   3.620  13.161 -0.3293 -0.8191 -0.1663
  228MPD1    H5 3469   1.232   3.581  13.069 -0.1085  1.7428 -1.2910
  228MPD1    N1 3470   1.714   3.639  13.001  0.2960  0.6514  0.6499
  228MPD1    H6 3471   1.802   3.688  12.999  0.7400 -0.2665 -1.4810
  228MPD1    H7 3472   1.676   3.634  12.907  3.6988  2.2311 -0.7688
  229MPD1     C 3473   0.801   3.659  14.209 -0.4776  0.1217  0.4866
  229MPD1    C1 3474   0.877   3.572  14.136  0.0178 -0.3864  0.3317
  229MPD1    C2 3475   0.982   3.499  14.193  0.7426  0.3690 -0.0793
  229MPD1    C3 3476   1.006   3.512  14.330 -0.1831 -0.1747  0.1052
  229MPD1    C4 3477   0.919   3.593  14.402 -0.6708 -0.5631  0.1882
  229MPD1    C5 3478   0.822   3.669  14.343  0.7724  0.1008  1.1260
  229MPD1     H 3479   1.056   3.448  14.132 -0.7146 -0.3555 -1.2372
  229MPD1    H1 3480   0.930   3.610  14.508 -1.3647  0.7509  0.0468
  229MPD1    H2 3481   0.722   3.713  14.157 -2.8877 -0.7330  3.2300
  229MPD1    H3 3482   0.765   3.745  14.395 -1.3699 -0.0226 -1.0724
  229MPD1     N 3483   1.114   3.452  14.400 -0.6086 -0.3677 -0.0129
  229MPD1    H5 3484   1.108   3.460  14.501  2.0613 -1.3217  0.2190
  229MPD1    N1 3485   0.861   3.567  13.999 -0.4239  0.0172  0.1340
  229MPD1    H6 3486   0.768   3.600  13.971 -0.0834 -2.0281 -3.4446
  229MPD1    H7 3487   0.886   3.480  13.952 -1.0969  0.3428 -0.8231
  230MPD1     C 3488   1.710   3.478  15.199 -0.0702  0.6649  0.0666
  230MPD1    C1 3489   1.760   3.370  15.131  0.5857 -0.2045  0.3345
  230MPD1    C2 3490   1.701   3.336  15.006  0.4375  0.2578  0.7014
  230MPD1    C3 3491   1.600   3.413  14.954 -0.9678  0.2271  0.2605
  230MPD1    C4 3492   1.553   3.525  15.029  0.1707 -0.4254  0.0431
  230MPD1    C5 3493   1.606   3.553  15.147  0.7545 -0.3483 -0.5456
  230MPD1     H 3494   1.738   3.251  14.952 -0.2890  0.6630 -0.4474
  230MPD1    H1 3495   1.472   3.591  15.001 -0.3033 -0.1652  2.0583
  230MPD1    H2 3496   1.741   3.502  15.300  0.6785  2.7272 -0.6489
  230MPD1    H3 3497   1.570   3.644  15.194  1.4320  0.1184 -0.9161
  230MPD1     N 3498   1.548   3.365  14.830 -0.1859  0.7084 -0.5585
  230MPD1    H5 3499   1.603   3.291  14.787 -0.1371 -0.4030  1.4414
  230MPD1    N1 3500   1.861   3.294  15.182 -0.0129  0.2804  0.7244
  230MPD1    H6 3501   1.920   3.346  15.248  2.5884  0.3470 -1.6366
  230MPD1    H7 3502   1.903   3.240  15.107  0.4877  1.4000  0.2019
  231MPD1     C 3503   3.928   4.632  15.260 -0.2733  0.1006  0.5159
  231MPD1    C1 3504   3.938   4.558  15.146 -0.6093  0.3272 -0.2945
  231MPD1    C2 3505   4.019   4.612  15.050 -0.3436  0.5490  0.2039
  231MPD1    C3 3506   4.078   0.016  15.053  0.3751 -0.8765  0.1134
  231MPD1    C4 3507   4.051   0.089  15.167  0.2224 -0.4242  0.0899
  231MPD1    C5 3508   3.978   0.040  15.264  0.6713  0.0487  0.4677
  231MPD1     H 3509   4.045   4.545  14.969 -2.2443 -0.2026  0.2056
  231MPD1    H1 3510   4.076   0.194  15.179  1.3417 -0.2971 -3.3367
  231MPD1    H2 3511   3.868   4.603  15.346 -0.5575  1.3534  0.7376
  231MPD1    H3 3512   3.954   0.091  15.357  1.0428 -0.7314  0.9934
  231MPD1     N 3513   4.156   0.054  14.946 -0.3347  0.7592  0.3307
  231MPD1    H5 3514   4.155   4.718  14.862  1.1877 -1.1001  1.5769
  231MPD1    N1 3515   3.884   4.424  15.145  0.2304 -0.5910 -0.0800
  231MPD1    H6 3516   3.876   4.390  15.050 -0.1104 -0.6618 -0.0257
  231MPD1    H7 3517   3.787   4.426  15.176  0.3214 -0.1904  0.1781
  232MPD1     C 3518   1.712   4.014   0.450  0.3236  0.5895 -0.5914
  232MPD1    C1 3519   1.609   3.945   0.389  0.1518  0.3896 -0.2317
  232MPD1    C2 3520   1.552   3.835   0.449  0.3672  0.3720  0.3232
  232MPD1    C3 3521   1.594   3.797   0.575 -0.3584 -0.3670  0.8105
  232MPD1    C4 3522   1.692   3.868   0.643 -0.0960  0.0579 -0.4267
  232MPD1    C5 3523   1.752   3.974   0.579  0.4880 -0.0231  0.0001
  232MPD1     H 3524   1.479   3.782   0.389  0.7626 -2.3453  2.2475
  232MPD1    H1 3525   1.722   3.833   0.741  0.0139 -0.5897 -0.6886
  232MPD1    H2 3526   1.759   4.097   0.398  1.3414  0.3510 -0.0525
  232MPD1    H3 3527   1.839   4.005   0.637 -0.4131  1.3062  0.6510
  232MPD1     N 3528   1.551   3.677   0.624  0.2924  0.4030  0.1613
  232MPD1    H5 3529   1.474   3.633   0.575  0.4487 -0.4446  0.6765
  232MPD1    N1 3530   1.586   3.964   0.251 -0.4463  0.2048  0.2736
  232MPD1    H6 3531   1.493   3.933   0.222  0.5190 -0.9415 -1.6344
  232MPD1    H7 3532   1.603   4.058   0.217 -0.5436 -1.2231 -3.7517
  233MPD1     C 3533   2.343   0.060   2.073  0.0251  0.1647  0.1070
  233MPD1    C1 3534   2.411   0.145   2.153  0.1720  0.7666 -0.3214
  233MPD1    C2 3535   2.552   0.153   2.151  0.2839  0.2634 -0.0686
  233MPD1    C3 3536   2.618   0.060   2.075 -0.6267 -0.0254  0.5149
  233MPD1    C4 3537   2.546   4.683   2.010 -0.5894 -0.1899 -0.3017
  233MPD1    C5 3538   2.407   4.685   2.006 -0.2348 -0.0874  0.2729
  233MPD1     H 3539   2.607   0.232   2.200 -1.5145  2.1268 -1.0853
  233MPD1    H1 3540   2.603   4.606   1.960  0.5874  0.3615  0.1845
  233MPD1    H2 3541   2.235   0.061   2.067  0.0282 -2.4450 -0.4327
  233MPD1    H3 3542   2.343   4.607   1.966 -0.6808 -0.1867  1.1795
  233MPD1     N 3543   2.754   0.056   2.045  0.6646  0.8887  0.8683
  233MPD1    H5 3544   2.787   4.702   1.985 -0.5811  0.6903  0.4319
  233MPD1    N1 3545   2.346   0.242   2.230 -0.2923 -0.7269  0.4426
  233MPD1    H6 3546   2.267   0.204   2.281 -0.1485 -0.1840  1.0713
  233MPD1    H7 3547   2.416   0.285   2.291 -0.8797 -0.6460  1.0514
  234MPD1     C 3548   0.327   3.837   9.335 -0.0995  0.4538  0.3574
  234MPD1    C1 3549   0.409   3.939   9.391  0.0966  0.7472  0.0676
  234MPD1    C2 3550   0.388   4.069   9.358  0.1780 -0.2167  0.1399
  234MPD1    C3 3551   0.299   4.098   9.256 -0.4181  0.4316  0.6483
  234MPD1    C4 3552   0.231   3.997   9.189 -0.0422 -0.0827 -0.0370
  234MPD1    C5 3553   0.241   3.869   9.237  0.2206 -0.0736 -0.2044
  234MPD1     H 3554   0.449   4.142   9.410 -1.3189  0.8591  0.3745
  234MPD1    H1 3555   0.160   4.021   9.110 -0.3443 -1.1808 -0.0971
  234MPD1    H2 3556   0.337   3.732   9.359  3.7230  0.7824  0.1893
  234MPD1    H3 3557   0.180   3.785   9.205 -0.3567  0.1242  0.3795
  234MPD1     N 3558   0.288   4.234   9.216  0.0874  0.4047 -0.3230
  234MPD1    H5 3559   0.341   4.301   9.272 -1.0702  0.7667  0.3386
  234MPD1    N1 3560   0.490   3.902   9.503  0.6874 -0.5968  0.1861
  234MPD1    H6 3561   0.571   3.962   9.516  1.3610 -1.2457 -1.1052
  234MPD1    H7 3562   0.519   3.805   9.500  1.1423 -0.5018  1.3066
  235MPD1     C 3563   0.956   3.847   8.526 -0.5431  0.0295  0.3054
  235MPD1    C1 3564   1.039   3.947   8.571 -0.6123 -0.6423  0.1310
  235MPD1    C2 3565   1.156   3.910   8.638  0.0317  0.0096 -0.3401
  235MPD1    C3 3566   1.177   3.781   8.679  0.1425 -0.8525 -0.3406
  235MPD1    C4 3567   1.088   3.684   8.648 -0.0770  0.5083  0.1918
  235MPD1    C5 3568   0.983   3.719   8.564 -0.1332  0.1772 -0.3149
  235MPD1     H 3569   1.240   3.977   8.651 -1.8719  2.3055  0.0683
  235MPD1    H1 3570   1.098   3.580   8.674  1.3118  0.6678  0.2685
  235MPD1    H2 3571   0.873   3.855   8.456 -0.6736  1.9302  0.6807
  235MPD1    H3 3572   0.905   3.647   8.540 -1.7540  0.3098  4.5077
  235MPD1     N 3573   1.299   3.758   8.755  0.0390  0.1423  0.6997
  235MPD1    H5 3574   1.344   3.844   8.785 -0.3367  0.0220  1.6086
  235MPD1    N1 3575   1.027   4.075   8.513 -0.5532 -0.3704 -0.2590
  235MPD1    H6 3576   1.086   4.152   8.542  0.9117 -1.0193 -1.5054
  235MPD1    H7 3577   0.930   4.103   8.494 -0.0736  0.4704 -1.5473
  236MPD1     C 3578   0.913   3.512   9.837  0.0411 -0.2147 -0.0813
  236MPD1    C1 3579   0.856   3.393   9.795 -0.3170  0.2852 -0.4916
  236MPD1    C2 3580   0.920   3.269   9.820  0.1078  0.0363  0.3834
  236MPD1    C3 3581   1.047   3.273   9.881  0.4703  0.3860 -0.3917
  236MPD1    C4 3582   1.113   3.394   9.909 -0.1247 -0.4428 -0.1777
  236MPD1    C5 3583   1.036   3.510   9.892 -0.3393  0.1503  0.3882
  236MPD1     H 3584   0.865   3.177   9.804 -0.9848  0.8533 -0.5420
  236MPD1    H1 3585   1.217   3.408   9.936 -0.8696  0.6795  2.0885
  236MPD1    H2 3586   0.862   3.607   9.822  1.7716  0.4442 -1.8274
  236MPD1    H3 3587   1.084   3.602   9.924  2.7556 -1.8451  1.4537
  236MPD1     N 3588   1.119   3.147   9.915  0.0733 -0.9558  0.1560
  236MPD1    H5 3589   1.211   3.153   9.956  0.2598 -0.0915 -0.3899
  236MPD1    N1 3590   0.716   3.394   9.770  0.1759  0.3853 -0.1457
  236MPD1    H6 3591   0.694   3.471   9.706 -2.4871  1.3364  1.9197
  236MPD1    H7 3592   0.675   3.319   9.714 -0.4821  0.2095  0.5673
  237MPD1     C 3593   0.304   1.022  16.207 -0.3590  0.1893 -0.7372
  237MPD1    C1 3594   0.325   1.057  16.074  0.2466 -0.0999  0.2008
  237MPD1    C2 3595   0.217   1.070  15.988  0.6766  0.1473 -0.1771
  237MPD1    C3 3596   0.086   1.040  16.030 -0.1924  0.4282 -0.4862
  237MPD1    C4 3597   0.071   1.009  16.166  0.0428  0.2494 -0.1630
  237MPD1    C5 3598   0.178   0.988  16.247 -0.5220  0.4149 -0.1070
  237MPD1     H 3599   0.239   1.098  15.886  2.8349  3.8999  1.3110
  237MPD1    H1 3600   4.690   0.990  16.196  1.1016 -0.5574  2.9962
  237MPD1    H2 3601   0.382   1.008  16.281 -0.1953 -1.0694 -1.1485
  237MPD1    H3 3602   0.160   0.961  16.350 -0.7655  0.7777 -0.0560
  237MPD1     N 3603   4.697   1.051  15.946 -0.3911  0.2513  0.7201
  237MPD1    H5 3604   4.607   1.021  15.984 -0.5830 -0.1787 -0.0797
  237MPD1    N1 3605   0.455   1.092  16.035 -0.1156  0.1931  0.1188
  237MPD1    H6 3606   0.524   1.035  16.082 -0.3692  0.5953  0.9679
  237MPD1    H7 3607   0.468   1.079  15.935 -0.8022 -1.4383  0.2369
  238MPD1     C 3608   1.277   0.716  15.608 -0.1657  0.1705 -0.3962
  238MPD1    C1 3609   1.355   0.758  15.502  0.3078 -0.4177  0.0708
  238MPD1    C2 3610   1.296   0.728  15.378 -0.4281 -0.9793 -0.5806
  238MPD1    C3 3611   1.202   0.623  15.362 -0.0029  0.5713 -0.1856
  238MPD1    C4 3612   1.133   0.582  15.476 -0.4564 -0.4260  0.4903
  238MPD1    C5 3613   1.174   0.634  15.603 -0.1426  0.4524  0.6055
  238MPD1     H 3614   1.351   0.777  15.298  2.3106  2.0754  3.1427
  238MPD1    H1 3615   1.057   0.504  15.471  0.2028 -1.0892  0.8409
  238MPD1    H2 3616   1.288   0.754  15.709  2.0017 -0.5792 -0.3573
  238MPD1    H3 3617   1.119   0.605  15.692 -0.4336 -0.4983  0.1181
  238MPD1     N 3618   1.153   0.578  15.239 -0.6288 -0.4120  0.1102
  238MPD1    H5 3619   1.084   0.505  15.248  0.5346 -1.7715 -1.9894
  238MPD1    N1 3620   1.458   0.847  15.528  0.3333  0.8492  0.3583
  238MPD1    H6 3621   1.514   0.884  15.451 -0.1290  0.8604  0.0307
  238MPD1    H7 3622   1.515   0.832  15.611  1.7512  0.9868 -0.5930
  239MPD1     C 3623   1.776   0.818  14.782  0.8683  0.2959  0.1599
  239MPD1    C1 3624   1.671   0.906  14.755  0.1835 -0.1223 -0.2375
  239MPD1    C2 3625   1.667   0.986  14.645 -0.8797 -0.3590  0.1169
  239MPD1    C3 3626   1.768   0.967  14.543 -0.1939  0.2123  0.3075
  239MPD1    C4 3627   1.864   0.874  14.562  0.8081  0.8352  0.3314
  239MPD1    C5 3628   1.868   0.804  14.679  0.0820  0.1592  0.1649
  239MPD1     H 3629   1.591   1.062  14.636 -0.7624 -0.1879  0.5862
  239MPD1    H1 3630   1.935   0.843  14.486 -2.2301 -2.7861 -1.0498
  239MPD1    H2 3631   1.770   0.752  14.868  2.0884 -2.4389 -1.8562
  239MPD1    H3 3632   1.934   0.718  14.682 -1.7260 -1.2792 -0.7269
  239MPD1     N 3633   1.767   1.040  14.419 -0.6512 -0.2256  0.0047
  239MPD1    H5 3634   1.836   1.022  14.347 -0.0558  0.6906  0.3328
  239MPD1    N1 3635   1.583   0.911  14.857 -0.0244  0.4886  0.6782
  239MPD1    H6 3636   1.587   0.831  14.920  0.3845 -0.1899 -0.2172
  239MPD1    H7 3637   1.494   0.895  14.810  0.5239  0.0155 -0.1863
  240MPD1     C 3638   0.717   0.927  13.289 -0.0172  0.1191  0.5243
  240MPD1    C1 3639   0.650   0.809  13.331  0.1348 -0.2029 -0.1724
  240MPD1    C2 3640   0.657   0.775  13.468 -0.4332  0.4723  0.2319
  240MPD1    C3 3641   0.763   0.830  13.543 -0.0354  0.1765 -0.2924
  240MPD1    C4 3642   0.858   0.916  13.487  0.1328  0.1049  0.6781
  240MPD1    C5 3643   0.820   0.976  13.370  0.8511 -0.3349  0.4341
  240MPD1     H 3644   0.583   0.712  13.515 -0.4330  0.3640  0.0852
  240MPD1    H1 3645   0.940   0.956  13.545  0.4752  0.6076 -0.1530
  240MPD1    H2 3646   0.698   0.969  13.190  1.2984  0.3992  0.3881
  240MPD1    H3 3647   0.893   1.041  13.323  0.3142  0.8331  1.2292
  240MPD1     N 3648   0.764   0.785  13.671  0.2398 -0.3189 -0.0024
  240MPD1    H5 3649   0.674   0.749  13.703  1.7433 -3.1477  1.1084
  240MPD1    N1 3650   0.555   0.756  13.240  0.1345  0.1225  0.4780
  240MPD1    H6 3651   0.544   0.658  13.265  1.2524  0.2282  1.4002
  240MPD1    H7 3652   0.607   0.742  13.154 -0.2575 -0.1088  0.2773
  241MPD1     C 3653   1.125   1.092  14.560  0.0525 -0.5858  0.4749
  241MPD1    C1 3654   1.009   1.016  14.564 -0.3238  0.7994 -0.0918
  241MPD1    C2 3655   0.974   0.926  14.462 -0.0494  0.0012  0.2415
  241MPD1    C3 3656   1.051   0.929  14.349  0.5558 -0.4214  0.1218
  241MPD1    C4 3657   1.159   1.021  14.343  0.1664 -0.4235 -0.0710
  241MPD1    C5 3658   1.200   1.088  14.451  0.0678 -0.4268  0.0584
  241MPD1     H 3659   0.883   0.871  14.483  0.0775 -0.5217 -0.6076
  241MPD1    H1 3660   1.211   1.024  14.248  0.3979  1.5146  0.1127
  241MPD1    H2 3661   1.168   1.146  14.643 -0.5813  0.0867  0.3639
  241MPD1    H3 3662   1.290   1.147  14.442 -1.6825  2.2007 -0.4528
  241MPD1     N 3663   1.026   0.853  14.232 -0.1323 -0.5256 -1.0083
  241MPD1    H5 3664   1.085   0.860  14.150 -0.2036 -2.2232 -1.1892
  241MPD1    N1 3665   0.941   1.007  14.687  0.3052  0.4440  0.2695
  241MPD1    H6 3666   0.843   0.996  14.660  0.1532 -3.3225  2.2566
  241MPD1    H7 3667   0.949   1.084  14.753  1.2342  2.0235 -1.6834
  242MPD1     C 3668   0.816   3.433  15.674 -0.5078 -0.0287  0.0117
  242MPD1    C1 3669   0.815   3.379  15.553 -0.1062 -0.1253  0.6407
  242MPD1    C2 3670   0.813   3.463  15.443 -0.0723  0.4775  0.3229
  242MPD1    C3 3671   0.787   3.602  15.455 -0.4656  0.2956  0.6963
  242MPD1    C4 3672   0.790   3.653  15.581  1.1308 -0.3955  0.2224
  242MPD1    C5 3673   0.796   3.568  15.690  0.1733 -0.7022 -0.0423
  242MPD1     H 3674   0.834   3.419  15.346 -1.6273  2.6249 -1.0065
  242MPD1    H1 3675   0.794   3.758  15.607  2.3228  0.0873 -1.9012
  242MPD1    H2 3676   0.828   3.378  15.767  1.2489  0.9486  0.3766
  242MPD1    H3 3677   0.770   3.604  15.789 -0.5119  0.2993 -0.5955
  242MPD1     N 3678   0.783   3.687  15.343  0.1542 -0.7501  0.0175
  242MPD1    H5 3679   0.797   3.786  15.357 -2.6755 -0.2713 -0.5826
  242MPD1    N1 3680   0.844   3.239  15.546 -0.1551 -0.0393 -0.3347
  242MPD1    H6 3681   0.825   3.210  15.450  0.0572  1.1413 -0.7394
  242MPD1    H7 3682   0.784   3.178  15.600 -1.8953  0.1913 -1.9751
  243MPD1     C 3683   2.488   1.668   0.518 -0.9107 -0.1019  0.1037
  243MPD1    C1 3684   2.550   1.705   0.405 -0.4434  0.3916 -0.4232
  243MPD1    C2 3685   2.458   1.730   0.301 -0.2948  0.4873  0.0736
  243MPD1    C3 3686   2.323   1.738   0.316  0.9572  0.3703 -0.3204
  243MPD1    C4 3687   2.272   1.691   0.431 -0.2581 -0.2052  0.7015
  243MPD1    C5 3688   2.353   1.658   0.534  0.7034 -0.5320  0.3977
  243MPD1     H 3689   2.509   1.757   0.209 -0.9977  1.5065 -0.0180
  243MPD1    H1 3690   2.165   1.694   0.443 -0.3311 -3.7424  0.8506
  243MPD1    H2 3691   2.552   1.640   0.600  1.2018  1.6875 -0.9099
  243MPD1    H3 3692   2.314   1.621   0.628 -0.2701  0.7836  0.5135
  243MPD1     N 3693   2.252   1.793   0.206 -0.0138 -0.1745  0.1304
  243MPD1    H5 3694   2.313   1.814   0.128 -0.1533 -1.4202 -0.3174
  243MPD1    N1 3695   2.685   1.739   0.390 -0.0855 -1.1442  0.1297
  243MPD1    H6 3696   2.707   1.729   0.291  0.0179 -2.1062  0.2495
  243MPD1    H7 3697   2.751   1.683   0.444 -0.9738 -3.1387 -0.8420
  244MPD1     C 3698   1.337   2.010   0.139 -0.2932  0.2996 -0.2387
  244MPD1    C1 3699   1.437   2.001   0.231  0.1615  0.3250  0.1972
  244MPD1    C2 3700   1.565   1.975   0.187  0.2021  0.0417  0.5383
  244MPD1    C3 3701   1.589   1.964   0.054 -0.3345  0.0674 -0.5225
  244MPD1    C4 3702   1.493   1.999  17.648 -0.3126  1.2137 -0.1388
  244MPD1    C5 3703   1.363   2.027   0.007 -0.4731 -0.0313 -0.3144
  244MPD1     H 3704   1.642   1.962   0.262  1.8853  0.3022 -1.1418
  244MPD1    H1 3705   1.496   1.992  17.539 -0.3123 -0.9481 -0.0022
  244MPD1    H2 3706   1.234   2.011   0.174  0.2266  3.2309  1.2157
  244MPD1    H3 3707   1.283   2.043  17.623  1.0000  2.7814 -1.3390
  244MPD1     N 3708   1.720   1.927   0.021  0.1529 -0.8477  0.5994
  244MPD1    H5 3709   1.789   1.925   0.095  0.2439  4.9825  0.7090
  244MPD1    N1 3710   1.409   1.992   0.373 -0.2915 -0.5291 -0.4597
  244MPD1    H6 3711   1.505   2.011   0.400 -0.0173 -2.2695 -0.2737
  244MPD1    H7 3712   1.339   2.051   0.417  0.7159  0.9971 -0.9004
  245MPD1     C 3713   4.234   2.930  12.901 -0.6858  0.7792  0.1664
  245MPD1    C1 3714   4.214   2.930  13.038  0.4004  0.0348  0.5322
  245MPD1    C2 3715   4.258   3.034  13.116 -0.0627 -0.0554  0.2706
  245MPD1    C3 3716   4.307   3.149  13.049 -0.1875 -0.0942  0.3729
  245MPD1    C4 3717   4.314   3.150  12.907 -0.1846 -0.2586  0.5242
  245MPD1    C5 3718   4.285   3.037  12.842  0.1148  0.7063  0.7915
  245MPD1     H 3719   4.258   3.030  13.224  1.8329  0.0654  0.2693
  245MPD1    H1 3720   4.355   3.232  12.848  0.9419 -1.0971  0.1416
  245MPD1    H2 3721   4.228   2.843  12.836  1.2330  1.2108 -0.6018
  245MPD1    H3 3722   4.296   3.034  12.734  0.5611  2.3489  0.7989
  245MPD1     N 3723   4.365   3.246  13.133  0.3344  0.1583  0.4899
  245MPD1    H5 3724   4.353   3.236  13.234  0.7734  1.0764  0.6311
  245MPD1    N1 3725   4.168   2.811  13.100  0.0697  0.0359 -0.4995
  245MPD1    H6 3726   4.121   2.820  13.190  0.4855 -1.1221 -0.1628
  245MPD1    H7 3727   4.119   2.749  13.036 -0.1033  0.9137 -1.2081
  246MPD1     C 3728   4.330   2.520   8.536  0.4088 -0.2879 -0.7763
  246MPD1    C1 3729   4.399   2.483   8.425 -0.3028  0.0924 -0.5719
  246MPD1    C2 3730   4.505   2.556   8.383 -0.1141 -0.6468 -0.2989
  246MPD1    C3 3731   4.541   2.675   8.449  0.5993  0.1602  0.7284
  246MPD1    C4 3732   4.470   2.706   8.563 -0.1393  1.1704  0.1436
  246MPD1    C5 3733   4.355   2.636   8.595  0.7563 -0.3527  0.7016
  246MPD1     H 3734   4.567   2.519   8.302 -0.3630 -0.5129 -0.5479
  246MPD1    H1 3735   4.476   2.801   8.614 -1.8021  2.2999 -1.7525
  246MPD1    H2 3736   4.257   2.455   8.583  0.9796 -1.1989 -1.1538
  246MPD1    H3 3737   4.298   2.659   8.684 -0.7649  0.0595 -0.3937
  246MPD1     N 3738   4.648   2.754   8.409  0.3830 -0.7119  0.2306
  246MPD1    H5 3739   4.708   2.712   8.338  1.6861 -2.0245  2.1307
  246MPD1    N1 3740   4.389   2.349   8.374  0.3041  0.6632 -0.4711
  246MPD1    H6 3741   4.407   2.329   8.275 -0.1481 -0.5548 -0.3128
  246MPD1    H7 3742   4.294   2.317   8.388  0.1666  1.8113  1.1722
  247MPD1     C 3743   3.624   3.883  16.133 -0.3805 -0.3510  0.1751
  247MPD1    C1 3744   3.634   3.871  15.998  0.6794  0.2994  0.6855
  247MPD1    C2 3745   3.644   3.746  15.945  0.1491 -0.3384  0.8935
  247MPD1    C3 3746   3.624   3.636  16.021  0.4819  0.5002  0.0010
  247MPD1    C4 3747   3.605   3.647  16.157  0.6473 -0.1766 -0.3325
  247MPD1    C5 3748   3.615   3.771  16.217 -0.2807 -0.3018  0.7706
  247MPD1     H 3749   3.656   3.732  15.838  2.8069  2.1328  0.8829
  247MPD1    H1 3750   3.568   3.569  16.222  0.1326  1.7577  1.7023
  247MPD1    H2 3751   3.625   3.986  16.167 -1.8632  0.4464 -2.2024
  247MPD1    H3 3752   3.604   3.778  16.325  1.0855 -2.1610  1.0334
  247MPD1     N 3753   3.607   3.509  15.971  0.2416 -0.4277 -0.1330
  247MPD1    H5 3754   3.593   3.442  16.046 -1.8412  0.5500  0.3214
  247MPD1    N1 3755   3.657   3.980  15.914 -0.1811  0.1684 -0.1529
  247MPD1    H6 3756   3.607   4.063  15.947  1.9895  1.0389  0.9879
  247MPD1    H7 3757   3.612   3.964  15.824  1.2620 -0.1945 -0.8070
  248MPD1     C 3758   0.541   2.123  17.564  0.5295 -0.0189  0.0002
  248MPD1    C1 3759   0.415   2.179  17.570  0.4802 -0.7972 -0.4297
  248MPD1    C2 3760   0.331   2.137  17.676 -0.7166  0.3266 -0.2496
  248MPD1    C3 3761   0.379   2.053   0.087  0.6067 -0.2360  1.2063
  248MPD1    C4 3762   0.506   1.996   0.076  0.1542 -0.6104  0.0486
  248MPD1    C5 3763   0.585   2.039  17.659 -0.1932 -0.5666  0.1907
  248MPD1     H 3764   0.230   2.172   0.005 -0.5503  0.5406  0.3583
  248MPD1    H1 3765   0.534   1.917   0.145  0.5235  0.2453  0.8713
  248MPD1    H2 3766   0.608   2.151  17.484 -0.1376 -0.2656 -0.6369
  248MPD1    H3 3767   0.688   2.004  17.657  0.2705  0.7716  1.5059
  248MPD1     N 3768   0.285   2.030   0.195  0.2302 -0.2575  0.7062
  248MPD1    H5 3769   0.208   2.096   0.199 -2.1832 -3.0110 -0.3545
  248MPD1    N1 3770   0.367   2.251  17.462  0.3104  0.0016 -0.1522
  248MPD1    H6 3771   0.438   2.313  17.422  0.6519 -0.3266 -0.0572
  248MPD1    H7 3772   0.287   2.312  17.476  1.0851  0.7650  0.8857
  249MPD1     C 3773   0.876   0.961  11.447 -0.1824  0.4428  0.0271
  249MPD1    C1 3774   0.845   0.865  11.355 -0.2846  0.7254 -0.3595
  249MPD1    C2 3775   0.943   0.822  11.257 -0.1938 -0.1189 -0.3645
  249MPD1    C3 3776   1.051   0.904  11.233  0.7062 -0.7679  0.7296
  249MPD1    C4 3777   1.064   1.012  11.316 -0.1915 -0.4741  0.3759
  249MPD1    C5 3778   0.987   1.039  11.427 -0.9289  0.8245 -0.0711
  249MPD1     H 3779   0.928   0.738  11.190 -0.2027  1.5420 -2.4366
  249MPD1    H1 3780   1.139   1.091  11.310 -0.6258 -0.1423 -0.7609
  249MPD1    H2 3781   0.805   0.973  11.529  2.2652 -2.9928  2.6762
  249MPD1    H3 3782   0.999   1.122  11.495  1.6291 -1.0698  1.8187
  249MPD1     N 3783   1.135   0.873  11.126 -0.0518 -0.4740  0.3078
  249MPD1    H5 3784   1.118   0.788  11.074 -0.2522 -1.2916  1.7451
  249MPD1    N1 3785   0.734   0.778  11.368 -0.7233  0.0732 -0.0459
  249MPD1    H6 3786   0.660   0.829  11.416 -1.2074 -0.4920 -0.1860
  249MPD1    H7 3787   0.699   0.756  11.275  0.4656 -1.5824 -0.1200
  250MPD2     C 3788   3.312   1.405  12.590  0.3069 -0.5610  0.7207
  250MPD2    C1 3789   3.216   1.432  12.679 -0.3770  0.2887 -0.5501
  250MPD2    C2 3790   3.132   1.324  12.710 -0.0097 -0.0312  0.3726
  250MPD2    C3 3791   3.134   1.204  12.631  0.6159  0.0903 -0.0010
  250MPD2    C4 3792   3.242   1.177  12.545 -0.1424 -0.2566 -0.0994
  250MPD2    C5 3793   3.328   1.282  12.531 -0.3770 -0.6280 -0.2446
  250MPD2     H 3794   3.051   1.335  12.781  0.9318 -0.0123  1.4597
  250MPD2    H1 3795   3.252   1.093  12.477 -3.2921  0.5658 -1.5576
  250MPD2    H2 3796   3.375   1.492  12.573 -2.2639  1.8214  3.4268
  250MPD2    H3 3797   3.413   1.275  12.464  1.0524  3.7597  1.0703
  250MPD2     N 3798   3.033   1.111  12.641 -0.1135 -0.2373  0.8115
  250MPD2    H5 3799   3.059   1.021  12.601  1.7472  0.3645  0.6645
  250MPD2    N1 3800   3.208   1.561  12.744  0.1839 -0.3482  0.2928
  250MPD2    H7 3801   3.290   1.621  12.744  0.2681 -0.4673 -0.0081
  251TMC3    C1 3802   3.137   1.730  12.893  0.0901 -0.3116  0.4096
  251TMC3    C2 3803   3.032   1.802  12.931  0.2555 -0.0485 -0.0416
  251TMC3    C3 3804   3.064   1.928  12.963  0.5025 -1.1848  0.1644
  251TMC3    C4 3805   3.271   1.764  12.918 -0.3792  0.0534 -0.7280
  251TMC3    C5 3806   3.296   1.892  12.956 -0.2225  0.1881 -0.0170
  251TMC3    C6 3807   3.194   1.981  12.970 -0.4412  0.6194  0.1702
  251TMC3     C 3808   3.103   1.605  12.830  0.8726 -0.6993  0.4473
  251TMC3     O 3809   2.994   1.557  12.848 -0.3878 -0.3664  0.3879
  251TMC3     H 3810   2.927   1.775  12.925  0.7676 -1.6236 -1.9822
  251TMC3    H1 3811   3.348   1.688  12.909  0.2033  0.4688  0.7794
  251TMC3    H2 3812   3.209   2.078  13.016 -0.7359  0.4422  0.6415
  251TMC3    C7 3813   3.429   1.917  13.005  0.3213 -0.2975 -1.0090
  251TMC3    C8 3814   2.958   2.023  12.946  0.5470 -0.1293 -0.2456
  251TMC3    O1 3815   3.487   1.833  13.072  0.1250 -0.1747  0.3122
  251TMC3    O2 3816   2.841   1.987  12.970 -0.4958  0.3265 -0.7102
  252TMC3    C1 3817   4.069   2.077   9.117  0.0388  0.7466 -0.3397
  252TMC3    C2 3818   4.162   2.173   9.131 -0.2642  0.5270  0.0520
  252TMC3    C3 3819   4.150   2.284   9.209  0.0170  0.2558 -0.2137
  252TMC3    C4 3820   3.965   2.085   9.196 -0.0606 -0.3225 -0.6515
  252TMC3    C5 3821   3.956   2.192   9.288 -0.1848 -0.4570 -0.5733
  252TMC3    C6 3822   4.049   2.293   9.301 -0.1950 -0.3089  0.3216
  252TMC3     C 3823   4.112   1.957   9.054 -0.2259  0.1947  1.0517
  252TMC3     O 3824   4.233   1.963   9.028  0.1495 -0.1282 -0.5699
  252TMC3     H 3825   4.247   2.170   9.064 -1.7919  1.1700 -1.9218
  252TMC3    H1 3826   3.889   2.008   9.193  1.0604 -1.4814  0.7277
  252TMC3    H2 3827   4.029   2.384   9.356 -1.5860 -0.4693  0.0756
  252TMC3    C7 3828   3.845   2.201   9.367  0.2284  0.2819 -0.2605
  252TMC3    C8 3829   4.257   2.385   9.211  0.2438  0.3745 -0.4282
  252TMC3    O1 3830   3.819   2.316   9.404  0.0507 -0.6643  0.9806
  252TMC3    O2 3831   4.332   2.395   9.117  0.1374  0.1465 -0.2984
  253MPD2     C 3832   3.582   1.189  15.242  0.5089  0.0200  0.2428
  253MPD2    C1 3833   3.486   1.287  15.251  0.0520 -0.4250  0.2282
  253MPD2    C2 3834   3.457   1.345  15.377 -0.3501 -0.4051  0.3782
  253MPD2    C3 3835   3.540   1.316  15.487  0.6672 -0.8502  0.6155
  253MPD2    C4 3836   3.629   1.215  15.483 -0.1040  0.3614 -0.5927
  253MPD2    C5 3837   3.650   1.155  15.357 -0.0326  0.6886 -0.1624
  253MPD2     H 3838   3.377   1.419  15.371 -0.4751 -0.5346  0.4300
  253MPD2    H1 3839   3.688   1.180  15.567 -0.8909 -0.0065 -0.1933
  253MPD2    H2 3840   3.609   1.148  15.145  1.3891 -0.4836  0.7051
  253MPD2    H3 3841   3.716   1.069  15.353 -1.3010 -0.3464  0.8857
  253MPD2     N 3842   3.525   1.387  15.611 -0.8737  0.0637  0.4950
  253MPD2    H5 3843   3.574   1.343  15.689  1.1337 -0.3369 -0.9754
  253MPD2    N1 3844   3.414   1.331  15.138 -0.7516  0.3847 -0.0635
  253MPD2    H7 3845   3.335   1.390  15.160 -1.2447  0.1387 -1.1822
  254TMC3    C1 3846   3.471   1.556  15.756 -0.1662  0.2245 -0.2727
  254TMC3    C2 3847   3.426   1.684  15.754 -0.7015  0.1126  0.4323
  254TMC3    C3 3848   3.482   1.771  15.847  0.2048  0.5851  0.3242
  254TMC3    C4 3849   3.565   1.507  15.842  0.5938  0.2639  0.3509
  254TMC3    C5 3850   3.620   1.599  15.932  0.2033 -0.3338 -0.0942
  254TMC3    C6 3851   3.588   1.729  15.924  0.5240  0.6392  0.1668
  254TMC3     C 3852   3.426   1.482  15.644 -0.2069  0.2536 -0.3272
  254TMC3     O 3853   3.338   1.519  15.569 -0.2716 -0.2507 -0.4451
  254TMC3     H 3854   3.333   1.698  15.700  0.1166  1.5176 -0.6358
  254TMC3    H1 3855   3.581   1.402  15.860 -1.4685 -0.3438 -1.4253
  254TMC3    H2 3856   3.628   1.796  16.000  1.5732 -2.2832  2.1599
  254TMC3    C7 3857   3.673   1.548  16.057  0.1776  0.4128  0.1654
  254TMC3    C8 3858   3.400   1.869  15.919  0.1182 -0.1186 -0.1657
  254TMC3    O1 3859   3.603   1.476  16.130  0.2067 -0.4011  0.1149
  254TMC3    O2 3860   3.408   1.859  16.041  0.2729  0.3051 -0.1537
  255MPD2     C 3861   2.910   4.381   9.731 -0.1108 -0.3148  1.1443
  255MPD2    C1 3862   3.029   4.397   9.790 -0.6611  0.0079 -0.0879
  255MPD2    C2 3863   3.109   4.288   9.819 -0.2779  0.2433  0.0662
  255MPD2    C3 3864   3.055   4.164   9.799  0.8661 -0.3556 -0.4133
  255MPD2    C4 3865   2.925   4.145   9.768 -0.5843  0.4245 -0.1445
  255MPD2    C5 3866   2.851   4.259   9.731  0.2551  0.5648  0.2958
  255MPD2     H 3867   3.213   4.307   9.842  0.0378 -0.3432 -0.8684
  255MPD2    H1 3868   2.887   4.044   9.756  1.4238 -0.4024  0.5240
  255MPD2    H2 3869   2.845   4.461   9.699  1.2375 -0.7105 -2.5855
  255MPD2    H3 3870   2.753   4.252   9.686  0.4392  1.5894 -0.2687
  255MPD2     N 3871   3.146   4.060   9.832 -0.3779  0.6065  0.4729
  255MPD2    H5 3872   3.238   4.083   9.867  0.1778 -1.2859  0.2544
  255MPD2    N1 3873   3.080   4.523   9.795 -0.1739 -0.0293  0.2791
  255MPD2    H7 3874   3.037   4.588   9.730  0.0264  0.6809  0.8602
  256TMC3    C1 3875   3.208   4.712   9.861  0.0019  0.7793  0.3976
  256TMC3    C2 3876   3.331   0.024   9.899  0.6097 -0.6482 -0.2384
  256TMC3    C3 3877   3.362   0.156   9.912 -0.9874  0.1153  0.3854
  256TMC3    C4 3878   3.121   0.088   9.818  0.1889  0.5759  0.5572
  256TMC3    C5 3879   3.150   0.221   9.829  0.3975  0.0682  0.4834
  256TMC3    C6 3880   3.268   0.253   9.879 -0.3105 -0.3534  0.1421
  256TMC3     C 3881   3.183   4.567   9.875  0.0097  1.3294  0.2436
  256TMC3     O 3882   3.238   4.505   9.962 -0.0925 -0.6834 -0.1201
  256TMC3     H 3883   3.409   4.678   9.933 -2.4255 -3.4792  1.1284
  256TMC3    H1 3884   3.024   0.055   9.781  1.1422 -0.6120 -0.8890
  256TMC3    H2 3885   3.294   0.357   9.890 -0.4648 -0.2450 -0.5547
  256TMC3    C7 3886   3.129   0.292   9.704  0.1587 -0.0212  0.3623
  256TMC3    C8 3887   3.493   0.191   9.863  0.3192 -0.3497 -0.0136
  256TMC3    O1 3888   3.227   0.348   9.659  0.4617 -0.3172  0.0691
  256TMC3    O2 3889   3.587   0.122   9.904 -0.4021 -0.2199  0.6701
  257MPD2     C 3890   2.068   1.512  12.930 -0.3328  0.6028 -0.8588
  257MPD2    C1 3891   1.993   1.458  12.828  0.3088 -0.5672 -0.2542
  257MPD2    C2 3892   1.907   1.350  12.861  0.4337  0.0415 -0.0645
  257MPD2    C3 3893   1.900   1.313  12.989  0.0007  0.4853  0.4155
  257MPD2    C4 3894   1.975   1.371  13.098  0.4505 -0.4777  0.3268
  257MPD2    C5 3895   2.052   1.476  13.057 -0.2194 -0.2682 -0.3335
  257MPD2     H 3896   1.859   1.287  12.788  0.5475 -0.2792  0.1403
  257MPD2    H1 3897   1.969   1.346  13.203 -0.0962 -1.0344  0.1636
  257MPD2    H2 3898   2.142   1.590  12.919  0.7319 -0.2119  0.4853
  257MPD2    H3 3899   2.108   1.534  13.129  0.1730  0.8410 -1.5311
  257MPD2     N 3900   1.802   1.205  13.018  0.1282 -0.2861 -0.3775
  257MPD2    H5 3901   1.727   1.188  12.952 -0.7276  3.9179 -0.5360
  257MPD2    N1 3902   2.010   1.509  12.696 -0.2037 -0.3801  0.5896
  257MPD2    H7 3903   2.060   1.597  12.683  1.1163 -1.3254 -0.6886
  258TMC3    C1 3904   1.692   1.040  13.150 -0.3093  0.3514 -0.0064
  258TMC3    C2 3905   1.643   0.957  13.048 -0.2559 -0.3677 -0.6760
  258TMC3    C3 3906   1.568   0.850  13.086  0.4263  0.4557 -0.7595
  258TMC3    C4 3907   1.655   1.026  13.285 -0.0421  0.5185 -0.2070
  258TMC3    C5 3908   1.586   0.912  13.314  0.3601 -0.2395  0.3047
  258TMC3    C6 3909   1.539   0.829  13.216 -0.0862  0.7906 -0.4641
  258TMC3     C 3910   1.804   1.130  13.132 -1.3787  0.6120 -0.3744
  258TMC3     O 3911   1.899   1.112  13.209 -0.0803 -0.0487 -0.0004
  258TMC3     H 3912   1.696   0.952  12.953  1.0135 -0.8148  0.0659
  258TMC3    H1 3913   1.680   1.096  13.364 -1.6424  0.0020  0.7616
  258TMC3    H2 3914   1.481   0.741  13.244 -1.1314  1.2142 -1.2781
  258TMC3    C7 3915   1.581   0.856  13.453  0.7015 -0.3699  0.3046
  258TMC3    C8 3916   1.520   0.755  12.985  0.0096  0.1519  0.0145
  258TMC3    O1 3917   1.491   0.779  13.477 -0.2187 -0.2853  0.4744
  258TMC3    O2 3918   1.517   0.788  12.866  0.3038  0.2352  0.1178
  259MPD2     C 3919   0.159   2.601   0.664  0.1787  0.5362 -0.0204
  259MPD2    C1 3920   0.293   2.597   0.706  0.1210 -0.5676  0.1528
  259MPD2    C2 3921   0.382   2.654   0.616  0.5597 -0.6934  0.2189
  259MPD2    C3 3922   0.343   2.713   0.498 -0.2101 -0.2415 -0.1284
  259MPD2    C4 3923   0.208   2.731   0.467  0.8838  0.7507  0.1560
  259MPD2    C5 3924   0.120   2.674   0.553  0.4147 -1.1791 -0.3593
  259MPD2     H 3925   0.486   2.643   0.643  0.5588  1.3190  1.0726
  259MPD2    H1 3926   0.165   2.781   0.381  0.8309 -0.5338 -0.5585
  259MPD2    H2 3927   0.088   2.558   0.734  2.4819 -2.2161  0.6399
  259MPD2    H3 3928   0.019   2.655   0.518  0.5427  0.4334 -1.6428
  259MPD2     N 3929   0.444   2.753   0.409 -0.1612  0.2465  0.2819
  259MPD2    H5 3930   0.537   2.734   0.445 -0.4798  0.1095  1.0292
  259MPD2    N1 3931   0.326   2.529   0.829  0.0795 -0.1415 -0.1870
  259MPD2    H7 3932   0.250   2.506   0.892 -0.0388 -0.4305 -0.4318
  260TMC3    C1 3933   0.558   2.810   0.210 -0.4402  0.6714 -0.4772
  260TMC3    C2 3934   0.605   2.935   0.165 -0.2736 -0.2108 -0.2618
  260TMC3    C3 3935   0.742   2.960   0.174 -0.2266 -0.1087 -0.6217
  260TMC3    C4 3936   0.647   2.712   0.242  0.3993 -0.0759 -0.3042
  260TMC3    C5 3937   0.780   2.736   0.237  0.3583  0.2831  0.1450
  260TMC3    C6 3938   0.830   2.864   0.218  0.6596  0.4639 -0.0067
  260TMC3     C 3939   0.434   2.812   0.291  0.1921  0.5889  0.1654
  260TMC3     O 3940   0.343   2.887   0.262  0.1303  0.0204 -0.2256
  260TMC3     H 3941   0.534   3.009   0.132 -0.9693 -0.1957  1.2505
  260TMC3    H1 3942   0.606   2.615   0.269  2.4076 -1.2360 -1.4423
  260TMC3    H2 3943   0.934   2.885   0.195  1.2023 -1.5862  0.5840
  260TMC3    C7 3944   0.861   2.623   0.197 -0.0027 -0.2727  0.4237
  260TMC3    C8 3945   0.783   3.097   0.166 -0.1951 -0.6012  0.2628
  260TMC3    O1 3946   0.979   2.632   0.232  0.1812  0.2923 -0.2519
  260TMC3    O2 3947   0.718   3.178   0.096 -0.6595  0.7118 -0.9247
  261MPD2     C 3948   2.261   1.149  12.408 -0.2651  0.1040  1.1318
  261MPD2    C1 3949   2.394   1.186  12.420 -0.7164 -0.2594 -0.6792
  261MPD2    C2 3950   2.440   1.290  12.332 -0.5657  0.1818 -0.4834
  261MPD2    C3 3951   2.347   1.347  12.243  0.4113 -0.0393 -0.2367
  261MPD2    C4 3952   2.216   1.311  12.236 -0.3113 -0.2124 -0.9394
  261MPD2    C5 3953   2.176   1.210  12.319  0.1024  0.4455 -0.2779
  261MPD2     H 3954   2.542   1.326  12.333  0.3291 -2.4245  1.6898
  261MPD2    H1 3955   2.144   1.344  12.162  0.2754  1.3039 -0.8233
  261MPD2    H2 3956   2.213   1.086  12.482 -1.9310 -1.1875 -1.0401
  261MPD2    H3 3957   2.076   1.168  12.323  0.8388 -1.3843 -1.3848
  261MPD2     N 3958   2.411   1.426  12.144  0.7637  0.7550 -0.5926
  261MPD2    H5 3959   2.512   1.425  12.145  0.7659  0.5046 -1.3041
  261MPD2    N1 3960   2.491   1.120  12.502 -0.4134  0.6499  0.0340
  261MPD2    H7 3961   2.574   1.175  12.520  0.2582 -0.9902  1.8814
  262TMC3    C1 3962   2.434   1.573  11.963 -0.2501  0.3021 -0.0900
  262TMC3    C2 3963   2.381   1.687  11.915 -0.4826  0.2071 -0.8704
  262TMC3    C3 3964   2.428   1.739  11.799 -0.8915  0.1697 -0.1353
  262TMC3    C4 3965   2.531   1.504  11.895 -0.0985 -0.6587  0.3283
  262TMC3    C5 3966   2.571   1.555  11.773  0.1515  0.5060 -0.0695
  262TMC3    C6 3967   2.527   1.674  11.733 -0.0850 -0.1872 -0.2255
  262TMC3     C 3968   2.345   1.507  12.064 -0.1182  0.2516  0.1238
  262TMC3     O 3969   2.229   1.535  12.041 -0.2068  0.1877 -1.1280
  262TMC3     H 3970   2.304   1.740  11.969 -0.3287 -0.6440  0.1734
  262TMC3    H1 3971   2.565   1.409  11.934  1.8358  0.3291  1.0680
  262TMC3    H2 3972   2.563   1.718  11.640 -1.2185 -0.5413 -0.8246
  262TMC3    C7 3973   2.698   1.502  11.722 -0.0023 -1.3736 -1.0092
  262TMC3    C8 3974   2.435   1.878  11.776 -0.3948 -0.2956  0.8881
  262TMC3    O1 3975   2.755   1.428  11.801  0.2842 -0.1904  0.6322
  262TMC3    O2 3976   2.533   1.922  11.722 -0.4812 -0.4643 -0.3178
  263MPD2     C 3977   3.641   0.746  10.785  0.4656 -0.3569 -0.6888
  263MPD2    C1 3978   3.687   0.829  10.879  0.3669 -0.5464 -0.1776
  263MPD2    C2 3979   3.752   0.949  10.847  0.1697 -0.6133  0.3511
  263MPD2    C3 3980   3.765   0.984  10.712 -0.1649 -0.5958 -0.1159
  263MPD2    C4 3981   3.719   0.898  10.618 -0.2835 -0.0730  0.5460
  263MPD2    C5 3982   3.654   0.785  10.653  0.0389  0.6822  0.1788
  263MPD2     H 3983   3.798   1.008  10.926 -1.3828 -1.3130  1.7822
  263MPD2    H1 3984   3.724   0.915  10.511  0.5674 -2.6210  0.1887
  263MPD2    H2 3985   3.596   0.648  10.796 -0.6156  0.0650 -1.2840
  263MPD2    H3 3986   3.610   0.719  10.580  1.2659  0.3233 -0.2272
  263MPD2     N 3987   3.832   1.097  10.677 -0.0701 -0.3533  0.1277
  263MPD2    H5 3988   3.867   1.099  10.581 -0.7005  1.1192 -0.0826
  263MPD2    N1 3989   3.690   0.774  11.013  0.3238 -0.1323  0.1525
  263MPD2    H7 3990   3.663   0.677  11.026  1.1115 -0.5030 -0.9700
  264TMC3    C1 3991   3.912   1.320  10.688  0.7143  0.2586 -0.3024
  264TMC3    C2 3992   3.877   1.443  10.740 -0.1208 -0.2127  0.2188
  264TMC3    C3 3993   3.941   1.553  10.694  0.4048 -0.0296  0.0453
  264TMC3    C4 3994   4.015   1.307  10.598 -0.1304 -0.0057 -0.3331
  264TMC3    C5 3995   4.080   1.423  10.559 -0.2049 -0.2423 -0.1352
  264TMC3    C6 3996   4.045   1.548  10.607 -0.8691  0.2117 -0.1174
  264TMC3     C 3997   3.855   1.206  10.761 -0.4743 -0.2800  0.6298
  264TMC3     O 3998   3.799   1.231  10.864 -0.4684 -0.4023 -0.5506
  264TMC3     H 3999   3.782   1.450  10.793  1.2682 -0.0168  2.6810
  264TMC3    H1 4000   4.043   1.211  10.554  0.7853  0.2007 -0.1983
  264TMC3    H2 4001   4.105   1.636  10.588  1.3975 -1.2373  0.2552
  264TMC3    C7 4002   4.198   1.403  10.478 -0.0996  0.2381 -0.1598
  264TMC3    C8 4003   3.909   1.683  10.750  0.8036  0.4337 -0.3279
  264TMC3    O1 4004   4.199   1.293  10.427  0.2590 -0.4811 -0.1235
  264TMC3    O2 4005   3.979   1.776  10.707  0.1044  0.3532 -0.1629
  265MPD2     C 4006   0.497   1.058  15.094 -0.0964 -1.5883  0.1118
  265MPD2    C1 4007   0.468   1.172  15.027  0.1688  0.0537  0.1587
  265MPD2    C2 4008   0.493   1.177  14.887  0.4643  0.3321 -0.4056
  265MPD2    C3 4009   0.552   1.068  14.826 -0.3614 -0.0080 -0.0350
  265MPD2    C4 4010   0.569   0.953  14.894  0.2031  0.3923 -0.3710
  265MPD2    C5 4011   0.532   0.944  15.029  0.6618  0.6394  0.5651
  265MPD2     H 4012   0.477   1.269  14.831 -2.1473  0.7007  0.9481
  265MPD2    H1 4013   0.625   0.869  14.854  1.5261  0.3300  1.6032
  265MPD2    H2 4014   0.485   1.055  15.202  0.4037 -0.9309  0.1849
  265MPD2    H3 4015   0.561   0.857  15.088 -1.3450 -0.2083  0.2950
  265MPD2     N 4016   0.579   1.062  14.688  0.3194 -0.3146  0.0663
  265MPD2    H5 4017   0.610   0.971  14.653  1.1292 -0.7465  1.8765
  265MPD2    N1 4018   0.431   1.292  15.095 -0.0997  0.2659 -0.5397
  265MPD2    H7 4019   0.420   1.373  15.036  2.3004  0.3016 -0.9287
  266TMC3    C1 4020   0.447   1.458  15.264 -0.0506 -0.4750  0.2123
  266TMC3    C2 4021   0.430   1.487  15.399 -0.7591 -0.7731 -0.6634
  266TMC3    C3 4022   0.422   1.621  15.441  0.5658 -0.0413 -0.1850
  266TMC3    C4 4023   0.435   1.565  15.178  0.1181 -0.2426 -0.1828
  266TMC3    C5 4024   0.414   1.692  15.219  0.7204  0.2208  0.0828
  266TMC3    C6 4025   0.402   1.719  15.350 -0.0694 -0.3878 -0.2446
  266TMC3     C 4026   0.434   1.314  15.226  0.9156 -0.6563  0.3725
  266TMC3     O 4027   0.440   1.242  15.325  0.0149  0.0057 -0.1390
  266TMC3     H 4028   0.457   1.406  15.466 -0.6695 -0.6269 -0.5225
  266TMC3    H1 4029   0.437   1.544  15.072 -0.8069 -1.5891  0.0698
  266TMC3    H2 4030   0.389   1.824  15.376  1.7308 -0.3211  0.3892
  266TMC3    C7 4031   0.366   1.787  15.112 -0.4204  0.1771  0.0022
  266TMC3    C8 4032   0.470   1.648  15.576  0.7106 -0.2105  0.2085
  266TMC3    O1 4033   0.314   1.742  15.011 -1.0248  0.5089  0.0664
  266TMC3    O2 4034   0.523   1.549  15.627 -0.1882 -0.0877 -0.4363
  267MPD2     C 4035   2.259   2.733   1.254 -0.1147  0.4571 -0.2650
  267MPD2    C1 4036   2.208   2.646   1.165  0.6334 -0.5948  0.0394
  267MPD2    C2 4037   2.119   2.690   1.072  0.0184  0.1246  0.4858
  267MPD2    C3 4038   2.087   2.822   1.062  0.5449 -0.2067  0.0645
  267MPD2    C4 4039   2.140   2.915   1.150 -0.1672 -0.0141  0.5980
  267MPD2    C5 4040   2.226   2.867   1.249  0.4276 -0.8550  0.0740
  267MPD2     H 4041   2.071   2.613   1.013  0.2441  0.2711  0.1137
  267MPD2    H1 4042   2.114   3.020   1.139 -2.6024 -0.6088  0.6389
  267MPD2    H2 4043   2.319   2.696   1.337 -0.4943  1.3902  0.4141
  267MPD2    H3 4044   2.262   2.946   1.314 -1.3734 -0.6611  0.8430
  267MPD2     N 4045   1.991   2.867   0.966  0.3875  0.3001  0.4482
  267MPD2    H5 4046   1.989   2.968   0.955 -0.8884  0.3055  0.7402
  267MPD2    N1 4047   2.246   2.512   1.160  0.2925 -0.7950  0.2820
  267MPD2    H7 4048   2.202   2.458   1.087  0.5040  1.6315 -1.6381
  268TMC3    C1 4049   2.363   2.304   1.189 -0.9054 -0.3787  0.6181
  268TMC3    C2 4050   2.251   2.251   1.126  0.5092  0.0547  0.1785
  268TMC3    C3 4051   2.265   2.139   1.048  0.2257  0.0242  0.5843
  268TMC3    C4 4052   2.488   2.247   1.176  0.3346 -0.8669  0.0837
  268TMC3    C5 4053   2.492   2.120   1.125 -0.6898  0.6606 -0.3519
  268TMC3    C6 4054   2.384   2.075   1.047  0.8982  0.6955  0.7145
  268TMC3     C 4055   2.359   2.452   1.216  0.0481  0.3577 -0.6412
  268TMC3     O 4056   2.456   2.510   1.264 -0.1694  0.0831 -0.5795
  268TMC3     H 4057   2.152   2.293   1.138  1.1322  1.3312  0.8077
  268TMC3    H1 4058   2.577   2.282   1.228 -0.1878  0.5037  0.0392
  268TMC3    H2 4059   2.403   1.981   0.996  0.0262  0.1041  1.5133
  268TMC3    C7 4060   2.603   2.031   1.144  0.0121  0.4202  0.4903
  268TMC3    C8 4061   2.180   2.133   0.932 -0.1616 -0.6323  0.2370
  268TMC3    O1 4062   2.578   1.910   1.160 -0.1449 -0.3033 -0.1370
  268TMC3    O2 4063   2.110   2.229   0.901  0.2443  0.0983  0.2652
  269MPD2     C 4064   3.077   1.881  15.526  0.7518  0.2000  0.5327
  269MPD2    C1 4065   2.968   1.955  15.579 -0.0394 -0.0255  0.5559
  269MPD2    C2 4066   2.938   2.077  15.527 -0.2172 -0.1866  0.0631
  269MPD2    C3 4067   3.008   2.130  15.419 -0.3461 -0.6450 -0.2277
  269MPD2    C4 4068   3.102   2.052  15.358  0.0487 -0.0094  0.1464
  269MPD2    C5 4069   3.139   1.931  15.413 -0.2033  0.4022 -0.2484
  269MPD2     H 4070   2.867   2.137  15.582 -1.9438 -2.8238  0.6885
  269MPD2    H1 4071   3.165   2.079  15.273 -0.1151  0.8193  0.2861
  269MPD2    H2 4072   3.093   1.779  15.558 -1.1370  0.2912  1.7131
  269MPD2    H3 4073   3.205   1.856  15.372  1.0412  2.2986 -1.6973
  269MPD2     N 4074   2.978   2.262  15.387 -0.2613 -0.1192  0.4232
  269MPD2    H5 4075   2.901   2.304  15.438 -0.8804 -3.2218  2.0172
  269MPD2    N1 4076   2.895   1.890  15.681 -0.3770 -0.1151 -0.1833
  269MPD2    H7 4077   2.916   1.793  15.703 -0.4260  0.3553  2.0135
  270TMC3    C1 4078   2.730   1.855  15.845 -0.3906  0.2443  0.1963
  270TMC3    C2 4079   2.596   1.861  15.813  0.1266 -0.5396 -0.3768
  270TMC3    C3 4080   2.531   1.750  15.772  0.0831  0.3182  0.0193
  270TMC3    C4 4081   2.796   1.731  15.849  0.0711 -0.2953  0.4208
  270TMC3    C5 4082   2.724   1.617  15.805 -0.0014 -0.3947  0.5946
  270TMC3    C6 4083   2.593   1.627  15.769  0.5109  0.5046  0.2757
  270TMC3     C 4084   2.805   1.949  15.760  0.1557 -0.5873  0.4411
  270TMC3     O 4085   2.748   2.056  15.747 -0.3295  0.6332 -0.0909
  270TMC3     H 4086   2.550   1.959  15.805  0.3808 -0.3216  0.7883
  270TMC3    H1 4087   2.897   1.725  15.886  0.9656 -1.2349 -2.2209
  270TMC3    H2 4088   2.524   1.545  15.750  2.2879 -0.8375 -0.2942
  270TMC3    C7 4089   2.785   1.491  15.798  0.0338 -0.0807  0.4411
  270TMC3    C8 4090   2.434   1.772  15.666 -0.0358  0.4191  0.5496
  270TMC3    O1 4091   2.906   1.491  15.779  0.7686 -0.1380  0.7322
  270TMC3    O2 4092   2.377   1.876  15.679  0.4997  0.3764  0.1942
  271MPD2     C 4093   1.943   1.724  13.802 -0.1396 -0.2207 -0.8275
  271MPD2    C1 4094   1.901   1.662  13.909  0.3104 -0.4402 -0.0182
  271MPD2    C2 4095   1.764   1.626  13.915 -0.3091  0.5466 -0.5632
  271MPD2    C3 4096   1.672   1.660  13.822  0.0803 -0.2794 -0.0031
  271MPD2    C4 4097   1.723   1.709  13.704 -0.2573 -1.0351  0.2167
  271MPD2    C5 4098   1.854   1.753  13.704  0.5317 -0.3231 -0.1249
  271MPD2     H 4099   1.740   1.574  14.007  1.2597  0.2577 -0.3138
  271MPD2    H1 4100   1.657   1.728  13.620 -0.6770 -1.4611  0.4517
  271MPD2    H2 4101   2.043   1.765  13.788  0.3320 -1.2562 -0.5082
  271MPD2    H3 4102   1.894   1.805  13.618  1.3933 -1.4769 -0.4098
  271MPD2     N 4103   1.533   1.621  13.835  0.2054  0.3075  0.7343
  271MPD2    H5 4104   1.473   1.645  13.757  0.5586 -0.6290  0.1803
  271MPD2    N1 4105   1.979   1.641  14.027  0.0682 -0.2745 -0.1552
  271MPD2    H7 4106   1.938   1.594  14.107 -1.8378  1.6501 -0.0282
  272TMC3    C1 4107   2.153   1.656  14.179  0.2843 -0.0068 -0.7798
  272TMC3    C2 4108   2.272   1.593  14.183 -0.2116 -0.2647 -0.1103
  272TMC3    C3 4109   2.321   1.544  14.305  0.1088  0.1706 -0.3416
  272TMC3    C4 4110   2.083   1.680  14.289  0.5736 -0.6149  0.5699
  272TMC3    C5 4111   2.135   1.636  14.406 -0.1524 -0.7388 -0.6950
  272TMC3    C6 4112   2.247   1.560  14.417  0.1302 -0.3767  0.7567
  272TMC3     C 4113   2.106   1.690  14.046 -0.1049 -0.1209 -0.0346
  272TMC3     O 4114   2.177   1.761  13.974  0.3763 -0.2117 -0.0536
  272TMC3     H 4115   2.315   1.555  14.091 -1.1624 -1.0498 -0.2252
  272TMC3    H1 4116   1.994   1.741  14.295  0.2039 -1.4528  3.9798
  272TMC3    H2 4117   2.284   1.524  14.513  1.1336  0.4904  0.6937
  272TMC3    C7 4118   2.063   1.671  14.522  0.4893 -0.2143  0.2890
  272TMC3    C8 4119   2.444   1.462  14.294 -0.5837 -0.0663 -0.3757
  272TMC3    O1 4120   1.942   1.684  14.511  0.5073 -0.5871  0.4108
  272TMC3    O2 4121   2.504   1.472  14.188  0.3553  0.0176 -0.4853
  273MPD2     C 4122   4.287   4.278  11.713  0.4325 -0.0784  0.4444
  273MPD2    C1 4123   4.373   4.371  11.653 -0.1173 -0.2370 -0.3791
  273MPD2    C2 4124   4.384   4.379  11.512  0.1681 -0.4418 -0.4663
  273MPD2    C3 4125   4.305   4.306  11.424  0.0305 -0.0348  0.0585
  273MPD2    C4 4126   4.234   4.204  11.488  0.6045 -0.0214 -0.2371
  273MPD2    C5 4127   4.223   4.193  11.624 -0.2862  0.6621  0.6675
  273MPD2     H 4128   4.454   4.452  11.473  1.0085 -1.8913 -1.6988
  273MPD2    H1 4129   4.189   4.128  11.426 -0.2440 -0.6824  1.1752
  273MPD2    H2 4130   4.275   4.269  11.820  0.7148 -0.4862  0.4429
  273MPD2    H3 4131   4.161   4.115  11.666  1.5421 -0.5578  1.0805
  273MPD2     N 4132   4.317   4.307  11.281 -0.3434 -0.3589 -0.1580
  273MPD2    H5 4133   4.263   4.234  11.235 -3.6201  2.0113 -0.0641
  273MPD2    N1 4134   4.444   4.451  11.746 -0.4045  0.1425  0.2203
  273MPD2    H7 4135   4.422   4.437  11.844  1.6909  0.8605  0.8136
  274TMC3    C1 4136   4.362   4.400  11.069 -0.2767  0.1291  0.3148
  274TMC3    C2 4137   4.252   4.337  11.020  0.3885  0.3820 -0.2615
  274TMC3    C3 4138   4.165   4.406  10.938  0.2282  0.0931  0.3379
  274TMC3    C4 4139   4.393   4.531  11.038 -0.3639 -0.0586  1.0114
  274TMC3    C5 4140   4.306   4.596  10.963  0.4451  0.2980  0.1652
  274TMC3    C6 4141   4.199   4.533  10.905  0.0038 -0.0219  0.7223
  274TMC3     C 4142   4.397   4.390  11.205  0.3951 -1.0928 -0.5644
  274TMC3     O 4143   4.473   4.477  11.241  0.0233 -0.0471  0.1608
  274TMC3     H 4144   4.223   4.237  11.050 -0.0325  0.7000  0.3901
  274TMC3    H1 4145   4.496   4.561  11.048  0.3813 -1.6312 -2.0131
  274TMC3    H2 4146   4.128   4.596  10.852 -1.3829 -0.4359  2.0964
  274TMC3    C7 4147   4.271   0.006  11.023  0.0311  0.4404 -0.5980
  274TMC3    C8 4148   4.116   4.325  10.825  0.6115  0.5386  0.0656
  274TMC3    O1 4149   4.186   0.074  10.960 -0.4013 -0.2752 -0.1740
  274TMC3    O2 4150   4.037   4.232  10.849 -0.3530  0.9165 -0.0916
  275MPD2     C 4151   3.694   2.695  14.388 -0.4585 -0.5146 -0.2286
  275MPD2    C1 4152   3.668   2.559  14.413  0.2461  0.3831 -0.2189
  275MPD2    C2 4153   3.536   2.515  14.391 -0.4314 -0.4295 -0.5965
  275MPD2    C3 4154   3.440   2.591  14.332  0.4543 -0.1493  0.6860
  275MPD2    C4 4155   3.470   2.720  14.292 -0.5193  0.1951 -0.2397
  275MPD2    C5 4156   3.594   2.765  14.324 -0.2893 -0.3499  0.1444
  275MPD2     H 4157   3.514   2.417  14.431 -0.3161  0.2289  1.1154
  275MPD2    H1 4158   3.405   2.786  14.236 -1.5519 -0.7642 -0.1675
  275MPD2    H2 4159   3.783   2.741  14.429 -0.3279  0.1201 -1.2401
  275MPD2    H3 4160   3.608   2.872  14.312 -1.6790 -0.4094 -2.1153
  275MPD2     N 4161   3.307   2.552  14.299 -0.0335  0.1038 -0.2823
  275MPD2    H5 4162   3.263   2.612  14.230  1.7331  1.3459 -0.3328
  275MPD2    N1 4163   3.757   2.467  14.476  0.6931  0.6333  0.4897
  275MPD2    H7 4164   3.725   2.372  14.490  0.5322  0.5776 -0.2137
  276TMC3    C1 4165   3.944   2.409  14.607  0.7223 -0.4704  0.0811
  276TMC3    C2 4166   3.870   2.325  14.687  0.9096 -0.5357 -0.3383
  276TMC3    C3 4167   3.934   2.262  14.789  0.6360  0.0840  0.7668
  276TMC3    C4 4168   4.067   2.446  14.647 -0.0387  0.6349  0.2993
  276TMC3    C5 4169   4.120   2.389  14.757  0.4465  0.0026 -0.1608
  276TMC3    C6 4170   4.059   2.295  14.827  0.2458  0.1926 -0.5113
  276TMC3     C 4171   3.889   2.495  14.504 -0.4012 -0.4327 -0.0545
  276TMC3     O 4172   3.954   2.589  14.461  0.8142  0.4405  0.0829
  276TMC3     H 4173   3.774   2.289  14.651  0.8580 -1.7205  0.9770
  276TMC3    H1 4174   4.127   2.513  14.585 -0.6128  1.0135  0.1526
  276TMC3    H2 4175   4.109   2.256  14.915  0.6728 -1.5107 -1.5143
  276TMC3    C7 4176   4.228   2.458  14.819 -0.4178  0.5996  0.4665
  276TMC3    C8 4177   3.844   2.226  14.895 -1.0707 -0.1874 -0.5084
  276TMC3    O1 4178   4.216   2.466  14.944  0.0583 -0.5869  0.1540
  276TMC3    O2 4179   3.863   2.266  15.009  0.1288 -0.4301  0.1534
  277MPD2     C 4180   0.597   1.448  13.073 -0.1444 -0.0662  0.1112
  277MPD2    C1 4181   0.481   1.512  13.106 -0.4855 -0.3075 -0.2015
  277MPD2    C2 4182   0.423   1.471  13.224  0.3721  0.5486 -0.0324
  277MPD2    C3 4183   0.467   1.366  13.298  0.2814  0.4074 -0.3497
  277MPD2    C4 4184   0.588   1.300  13.269  0.0424  0.0066 -0.6067
  277MPD2    C5 4185   0.651   1.348  13.155  0.2675 -0.0075 -0.7184
  277MPD2     H 4186   0.338   1.528  13.259  1.1182  2.1826 -0.8966
  277MPD2    H1 4187   0.627   1.228  13.340  1.6136 -0.0929 -1.5602
  277MPD2    H2 4188   0.660   1.482  12.992  0.5340 -1.0973  0.2020
  277MPD2    H3 4189   0.745   1.302  13.127 -0.3975 -3.3589  2.4901
  277MPD2     N 4190   0.387   1.328  13.406 -0.9866  0.1109  0.2907
  277MPD2    H5 4191   0.310   1.391  13.426 -1.3466 -0.4897  0.8271
  277MPD2    N1 4192   0.439   1.618  13.026 -0.1159  0.4001  0.0968
  277MPD2    H7 4193   0.503   1.665  12.963 -2.3894  1.4400 -1.4579
  278TMC3    C1 4194   0.298   1.223  13.591  0.0425  0.4332 -0.5282
  278TMC3    C2 4195   0.233   1.108  13.616 -0.3207  0.4322 -0.3450
  278TMC3    C3 4196   0.120   1.119  13.696 -0.9496 -0.6084  0.4025
  278TMC3    C4 4197   0.257   1.346  13.628  0.4565  0.6680 -0.5428
  278TMC3    C5 4198   0.145   1.361  13.711  1.0635 -0.5471  0.1623
  278TMC3    C6 4199   0.072   1.244  13.745  0.1212  0.2293 -0.1538
  278TMC3     C 4200   0.406   1.225  13.493 -0.0457  0.1292 -0.1318
  278TMC3     O 4201   0.473   1.123  13.472  0.3484 -0.1391 -0.0506
  278TMC3     H 4202   0.267   1.013  13.576  2.6092  1.0279  0.7685
  278TMC3    H1 4203   0.315   1.434  13.603 -0.9265  1.3575 -1.3430
  278TMC3    H2 4204   4.699   1.239  13.798  0.7471  0.0473  0.9364
  278TMC3    C7 4205   0.082   1.502  13.704 -0.2884  0.6506 -0.8086
  278TMC3    C8 4206   0.021   1.016  13.684  0.8969  0.8099  0.5097
  278TMC3    O1 4207   0.142   1.590  13.645  0.0042 -0.0161  0.4600
  278TMC3    O2 4208   4.641   1.024  13.753 -0.1342  0.0821 -0.3333
  279MPD2     C 4209   0.073   1.548  17.439 -0.5180  0.0369  0.7874
  279MPD2    C1 4210   4.665   1.577  17.484  0.1529  0.5094  0.3139
  279MPD2    C2 4211   4.596   1.692  17.442 -0.3821 -0.3462 -0.2160
  279MPD2    C3 4212   4.642   1.766  17.339 -0.2357  0.0709  0.0406
  279MPD2    C4 4213   0.041   1.734  17.282  0.2282 -0.2017 -0.3545
  279MPD2    C5 4214   0.112   1.623  17.329 -0.3925 -0.3902  0.1624
  279MPD2     H 4215   4.499   1.715  17.483  0.2073  2.1639 -0.2487
  279MPD2    H1 4216   0.082   1.790  17.199  0.7871  2.2847  1.5705
  279MPD2    H2 4217   0.128   1.459  17.469  1.3141  1.1259  0.6570
  279MPD2    H3 4218   0.194   1.587  17.268  0.8260 -0.0420  1.5891
  279MPD2     N 4219   4.578   1.884  17.290  0.1886  0.0812 -0.4319
  279MPD2    H5 4220   4.625   1.931  17.213  0.8050 -0.0748 -0.1465
  279MPD2    N1 4221   4.603   1.505  17.590  0.3528 -0.0371  0.0271
  279MPD2    H7 4222   4.524   1.552  17.633  0.9494  0.3024  0.7675
  280TMC3    C1 4223   4.544   1.332   0.044 -0.3459  0.5022 -0.0080
  280TMC3    C2 4224   4.502   1.202   0.015 -0.4825  0.2919  0.5814
  280TMC3    C3 4225   4.369   1.182   0.037  0.1670  0.2520  0.4272
  280TMC3    C4 4226   4.461   1.423   0.112 -0.0145  0.5363 -0.4725
  280TMC3    C5 4227   4.329   1.393   0.126  0.0263  0.0136  0.3633
  280TMC3    C6 4228   4.284   1.277   0.093  0.0595 -0.5926 -0.3721
  280TMC3     C 4229   4.649   1.388  17.647  0.5117  0.1630  0.3228
  280TMC3     O 4230   0.026   1.320  17.622 -0.1839  0.1455 -0.1126
  280TMC3     H 4231   4.560   1.138  17.638  0.4032 -0.5701  2.2400
  280TMC3    H1 4232   4.508   1.515   0.143 -1.2523 -0.0983  3.2610
  280TMC3    H2 4233   4.194   1.238   0.139 -0.1596 -1.9005 -1.9040
  280TMC3    C7 4234   4.257   1.479   0.215 -0.5388  0.4475  0.5284
  280TMC3    C8 4235   4.319   1.046   0.014  0.5037 -0.4552  0.1049
  280TMC3    O1 4236   4.324   1.542   0.297 -0.2275 -0.2985  0.1248
  280TMC3    O2 4237   4.195   1.042   0.017 -0.6696 -0.1834  0.7610
  281TMC3    C1 4238   3.589   1.869  13.429  0.0133  0.1497 -0.0784
  281TMC3    C2 4239   3.694   1.929  13.377  0.0407  0.1815  0.2741
  281TMC3    C3 4240   3.779   1.851  13.307  1.1102 -0.5286 -0.2437
  281TMC3    C4 4241   3.580   1.732  13.436  0.3668 -0.3482 -0.5423
  281TMC3    C5 4242   3.670   1.659  13.355  0.1171 -0.4999  0.0123
  281TMC3    C6 4243   3.777   1.712  13.283 -0.0534 -0.4209  0.5896
  281TMC3     C 4244   3.461   1.937  13.436  0.2137 -0.5385 -0.2217
  281TMC3     O 4245   3.379   1.884  13.510  0.0913  0.2109  0.0688
  281TMC3     H 4246   3.709   2.037  13.380  0.1550  0.1681  0.1565
  281TMC3    H1 4247   3.507   1.691  13.505  0.9882 -0.4436  0.0547
  281TMC3    H2 4248   3.849   1.653  13.227 -0.5685  0.1768 -0.6892
  281TMC3    C7 4249   3.616   1.552  13.278 -0.2688 -0.4743  0.2648
  281TMC3    C8 4250   3.910   1.904  13.270 -0.2179  0.3112  0.3285
  281TMC3    O1 4251   3.691   1.465  13.236 -0.4603 -0.2500  0.2372
  281TMC3    O2 4252   4.011   1.841  13.288 -0.3422  0.2945  0.1240
  282MPD2     C 4253   0.710   3.040  14.969 -0.3332 -0.0178 -0.1120
  282MPD2    C1 4254   0.571   3.058  14.992 -0.0045  1.1010  0.9426
  282MPD2    C2 4255   0.486   3.047  14.879  0.7635 -0.5714  0.2143
  282MPD2    C3 4256   0.534   3.015  14.752 -0.4080 -0.2464  0.3640
  282MPD2    C4 4257   0.672   2.993  14.737 -0.4063 -0.6282  1.1852
  282MPD2    C5 4258   0.755   2.998  14.846 -0.6297  0.3416  0.7098
  282MPD2     H 4259   0.379   3.066  14.887  0.8250  0.0287 -0.4263
  282MPD2    H1 4260   0.728   2.963  14.649 -0.1784  2.4470  0.2763
  282MPD2    H2 4261   0.788   3.044  15.044 -1.5811 -1.4614  1.2727
  282MPD2    H3 4262   0.861   2.978  14.839 -0.8927 -1.7747  2.9480
  282MPD2     N 4263   0.449   3.020  14.642  0.1022 -0.0909  0.2180
  282MPD2    H5 4264   0.350   3.028  14.662  0.0305  0.9896 -0.5738
  282MPD2    N1 4265   0.527   3.096  15.120  0.2957  0.1972  0.3085
  282MPD2    H7 4266   0.425   3.096  15.124  0.2828  2.0043 -0.1233
  283TMC3    C1 4267   0.512   3.177  15.335 -0.0369  0.0371  0.0374
  283TMC3    C2 4268   0.524   3.304  15.382  0.2574  0.5275  0.3137
  283TMC3    C3 4269   0.454   3.342  15.497  0.4582  0.0663 -0.1012
  283TMC3    C4 4270   0.420   3.087  15.384 -0.2094 -0.4706 -0.2137
  283TMC3    C5 4271   0.342   3.128  15.490 -0.3488 -0.0559  0.8121
  283TMC3    C6 4272   0.362   3.252  15.550  0.3392  0.7761 -0.5720
  283TMC3     C 4273   0.597   3.128  15.234  0.2233  0.7223 -0.6268
  283TMC3     O 4274   0.713   3.162  15.239 -0.1370  0.1876  0.1771
  283TMC3     H 4275   0.601   3.372  15.348  0.4158  0.7263  1.0561
  283TMC3    H1 4276   0.414   2.986  15.346 -0.7878  0.5017 -2.7009
  283TMC3    H2 4277   0.299   3.288  15.631  1.2126  1.3366 -0.1460
  283TMC3    C7 4278   0.238   3.035  15.545  0.4820 -0.1140 -0.2828
  283TMC3    C8 4279   0.442   3.477  15.549 -0.0021  0.0188 -0.4213
  283TMC3    O1 4280   0.212   3.055  15.663  0.1160 -0.2485 -0.2488
  283TMC3    O2 4281   0.410   3.490  15.666  0.2695 -0.7314 -0.0378
  284MPD2     C 4282   4.008   2.353  11.819 -0.9401 -0.3629 -0.2703
  284MPD2    C1 4283   4.092   2.344  11.709  0.2125  0.0769 -0.6185
  284MPD2    C2 4284   4.078   2.241  11.613  0.2218 -0.0078 -0.9217
  284MPD2    C3 4285   3.978   2.141  11.642  0.1624  0.3326 -0.4331
  284MPD2    C4 4286   3.898   2.155  11.753 -0.4291  1.3755  0.1641
  284MPD2    C5 4287   3.918   2.254  11.843 -0.7968  0.2672 -0.3171
  284MPD2     H 4288   4.140   2.234  11.525  0.1683  2.4482 -1.1443
  284MPD2    H1 4289   3.822   2.085  11.786  1.2232 -0.9049 -0.8041
  284MPD2    H2 4290   4.018   2.430  11.894  0.1127  0.7610 -1.5779
  284MPD2    H3 4291   3.865   2.252  11.937  1.0993  0.7522  0.7639
  284MPD2     N 4292   3.974   2.021  11.576 -0.3362  0.0799 -0.6855
  284MPD2    H5 4293   3.908   1.958  11.621  0.3471 -1.2311 -1.4930
  284MPD2    N1 4294   4.191   2.443  11.694 -0.4436 -0.5870  0.7413
  284MPD2    H7 4295   4.238   2.442  11.605 -1.3670 -2.3717  0.2709
  285TMC3    C1 4296   4.356   2.597  11.718 -0.0217 -0.1536  0.6252
  285TMC3    C2 4297   4.427   2.530  11.625 -0.4018  0.3117 -0.4423
  285TMC3    C3 4298   4.540   2.585  11.571 -0.4573 -0.2354  0.4478
  285TMC3    C4 4299   4.400   2.718  11.758 -0.0111 -0.3934  0.3051
  285TMC3    C5 4300   4.493   2.779  11.689 -0.2683 -0.4931 -0.1655
  285TMC3    C6 4301   4.574   2.718  11.595 -0.2016  0.3207 -0.3867
  285TMC3     C 4302   4.236   2.539  11.778 -0.3225 -0.4827 -0.2805
  285TMC3     O 4303   4.213   2.552  11.898 -0.5071  0.4216  0.0699
  285TMC3     H 4304   4.411   2.424  11.613  0.2664  0.1590 -0.0431
  285TMC3    H1 4305   4.353   2.770  11.841 -1.2127 -0.7978 -0.1237
  285TMC3    H2 4306   4.654   2.771  11.544 -0.3193 -0.0918 -1.0096
  285TMC3    C7 4307   4.510   2.922  11.713 -0.2920  0.0549  0.0522
  285TMC3    C8 4308   4.551   2.552  11.429  0.5793 -0.0271 -0.0483
  285TMC3    O1 4309   4.419   3.001  11.718 -0.6756  0.0791 -0.2966
  285TMC3    O2 4310   4.472   2.463  11.404  0.1490 -0.2262  0.3845
  286MPD2     C 4311   3.890   0.830   1.556  0.0287  0.0879  1.1870
  286MPD2    C1 4312   3.830   0.854   1.435 -0.0261 -0.0673 -0.2294
  286MPD2    C2 4313   3.912   0.842   1.328 -0.0916 -0.3018 -0.4268
  286MPD2    C3 4314   4.048   0.802   1.340  0.3456 -0.3304  0.6985
  286MPD2    C4 4315   4.104   0.797   1.464  0.7538 -0.0642  0.3778
  286MPD2    C5 4316   4.021   0.819   1.575  0.8841  0.3109 -0.0065
  286MPD2     H 4317   3.866   0.852   1.230 -0.5428  0.2468 -0.1650
  286MPD2    H1 4318   4.208   0.770   1.481  0.7704 -0.0918  0.2323
  286MPD2    H2 4319   3.832   0.827   1.648  1.3339 -1.1821  1.9801
  286MPD2    H3 4320   4.070   0.816   1.672  1.1490 -0.0904 -0.1534
  286MPD2     N 4321   4.139   0.768   1.236 -0.0259  0.3109 -0.0933
  286MPD2    H5 4322   4.237   0.767   1.261 -0.0673 -2.7399  0.0049
  286MPD2    N1 4323   3.686   0.878   1.424 -0.3666 -0.1614 -0.0986
  286MPD2    H7 4324   3.655   0.896   1.329 -1.0566 -0.5448  0.0517
  287TMC3    C1 4325   4.215   0.701   1.019 -0.8667 -0.5201  0.1989
  287TMC3    C2 4326   4.195   0.687   0.882 -0.4932  0.1387 -0.3188
  287TMC3    C3 4327   4.297   0.633   0.812  0.1633  1.5204  0.0161
  287TMC3    C4 4328   4.326   0.661   1.084  0.4668 -0.1815 -0.4905
  287TMC3    C5 4329   4.432   0.616   1.001  0.2521 -0.9737  0.0452
  287TMC3    C6 4330   4.417   0.598   0.870 -0.8329  0.6638 -0.0762
  287TMC3     C 4331   4.107   0.760   1.100  1.1218  0.4836 -0.5080
  287TMC3     O 4332   3.999   0.776   1.039  0.0735  0.2864  0.6160
  287TMC3     H 4333   4.095   0.713   0.848 -0.1908  1.6322 -0.0726
  287TMC3    H1 4334   4.340   0.678   1.191 -0.9933 -2.7374  0.1158
  287TMC3    H2 4335   4.493   0.552   0.807 -1.1933  1.8746 -1.3810
  287TMC3    C7 4336   4.563   0.602   1.060  0.2690  0.5471 -0.5431
  287TMC3    C8 4337   4.265   0.571   0.691  0.3012  0.0892 -0.2453
  287TMC3    O1 4338   4.579   0.655   1.167 -0.3373  0.1526 -0.4292
  287TMC3    O2 4339   4.143   0.574   0.673 -0.5249  0.1796 -0.6498
  288TMC3    C1 4340   0.257   0.980  14.019  0.2752  0.7242 -0.2062
  288TMC3    C2 4341   0.222   0.919  14.133  0.0517 -0.7081 -0.4077
  288TMC3    C3 4342   0.237   0.989  14.247  0.1907  0.5713  0.6631
  288TMC3    C4 4343   0.324   1.100  14.014 -0.2967  0.1243  0.3303
  288TMC3    C5 4344   0.341   1.171  14.128 -0.2280 -0.6968 -0.3835
  288TMC3    C6 4345   0.303   1.113  14.249  0.6758 -0.4856  0.6392
  288TMC3     C 4346   0.275   0.903  13.901  0.2312 -0.0171  0.0413
  288TMC3     O 4347   0.357   0.939  13.812 -0.0788  0.5119 -0.3142
  288TMC3     H 4348   0.193   0.816  14.143 -0.5966 -0.4365  0.4692
  288TMC3    H1 4349   0.369   1.131  13.921  0.4901  0.0187  0.6750
  288TMC3    H2 4350   0.329   1.159  14.344  0.2987 -0.5062  0.7513
  288TMC3    C7 4351   0.402   1.304  14.142 -0.7497  0.2878 -0.3840
  288TMC3    C8 4352   0.235   0.921  14.377  0.0321  0.4185  0.9306
  288TMC3    O1 4353   0.414   1.348  14.252  0.4404 -0.1446 -0.5234
  288TMC3    O2 4354   0.276   0.990  14.468  0.5915 -0.1561 -0.5922
  289MPD2     C 4355   0.603   0.206  14.276  0.0187  0.1228  0.0473
  289MPD2    C1 4356   0.566   0.272  14.162  0.2615 -0.1140  0.3962
  289MPD2    C2 4357   0.458   0.241  14.091  0.1448  0.1406  0.7980
  289MPD2    C3 4358   0.384   0.130  14.131  0.2738  0.0034 -0.3926
  289MPD2    C4 4359   0.421   0.063  14.246  0.0894 -0.1800  0.1997
  289MPD2    C5 4360   0.536   0.097  14.322 -0.3326  0.2671  0.1007
  289MPD2     H 4361   0.437   0.293  13.998  0.1954 -1.2126  0.0294
  289MPD2    H1 4362   0.368   4.692  14.270 -0.8585  0.6267  1.1750
  289MPD2    H2 4363   0.689   0.235  14.335  1.0825 -0.7873 -1.0616
  289MPD2    H3 4364   0.560   0.038  14.409 -3.9107  1.7848  2.0932
  289MPD2     N 4365   0.260   0.100  14.072  0.6781  0.2004 -0.1599
  289MPD2    H5 4366   0.225   0.007  14.094  0.6326  0.6842  1.8213
  289MPD2    N1 4367   0.658   0.380  14.127 -0.0220 -0.1341  0.1787
  289MPD2    H7 4368   0.730   0.396  14.197 -0.5914 -0.8485  0.9370
  290TMC3    C1 4369   0.055   0.135  13.939 -0.0544  0.3082 -0.0268
  290TMC3    C2 4370   4.684   0.231  13.902 -0.6828  0.1572  0.2132
  290TMC3    C3 4371   4.556   0.197  13.862 -0.4594 -0.1564  0.0195
  290TMC3    C4 4372   0.037   0.006  13.930 -0.6505 -0.3331 -0.3574
  290TMC3    C5 4373   4.634   4.694  13.880 -1.2225 -0.2981 -0.5209
  290TMC3    C6 4374   4.529   0.062  13.860  0.2749 -0.0527 -0.1484
  290TMC3     C 4375   0.183   0.193  13.996  0.0236 -0.2113 -0.8913
  290TMC3     O 4376   0.209   0.308  13.965  0.5004 -1.1730  0.1582
  290TMC3     H 4377   4.711   0.336  13.895  0.9455 -0.2493  0.2056
  290TMC3    H1 4378   0.121   4.659  13.926  1.4166  2.1612  0.4810
  290TMC3    H2 4379   4.431   0.033  13.825 -0.0288 -1.4255  1.8511
  290TMC3    C7 4380   4.597   4.550  13.877  0.1675  0.1288 -0.0471
  290TMC3    C8 4381   4.456   0.300  13.845  0.1270  0.3965  0.3485
  290TMC3    O1 4382   4.497   4.522  13.816 -0.0026  0.2428  0.7846
  290TMC3    O2 4383   4.369   0.271  13.762  0.6137 -0.1058 -0.3302
  291MPD2     C 4384   4.278   4.668  17.624  0.3463  0.6424 -0.6096
  291MPD2    C1 4385   4.253   4.574  17.528 -0.2427  0.6213  0.2173
  291MPD2    C2 4386   4.321   4.585  17.404  0.1945 -0.1893 -0.5155
  291MPD2    C3 4387   4.414   4.682  17.381  0.4864  0.0284 -0.8093
  291MPD2    C4 4388   4.448   0.051  17.478  0.1644  0.1418 -0.3340
  291MPD2    C5 4389   4.378   0.041  17.601  0.9051  0.1929 -0.1301
  291MPD2     H 4390   4.288   4.517  17.327 -0.3091 -0.3009 -0.2044
  291MPD2    H1 4391   4.526   0.120  17.449 -0.3093  0.3080 -1.2113
  291MPD2    H2 4392   4.220   4.677   0.028 -1.5226  1.2682 -1.8673
  291MPD2    H3 4393   4.400   0.121  17.670 -1.6256 -0.8468  1.8889
  291MPD2     N 4394   4.475   4.701  17.256 -0.1106 -0.2056 -0.4949
  291MPD2    H5 4395   4.517   0.072  17.252 -2.1552  0.7258 -0.1419
  291MPD2    N1 4396   4.146   4.481  17.540  0.0497 -0.5527 -0.3076
  291MPD2    H7 4397   4.135   4.423  17.457  1.6882  0.2683 -1.0968
  292TMC3    C1 4398   3.963   4.367  17.649  0.6490  0.1220 -0.4894
  292TMC3    C2 4399   3.889   4.356   0.081  0.0511 -0.5881  0.0140
  292TMC3    C3 4400   3.815   4.244   0.090  0.6040 -0.3716 -0.1975
  292TMC3    C4 4401   3.947   4.276  17.543 -0.5339  0.3580 -0.0795
  292TMC3    C5 4402   3.848   4.184  17.555  0.7329  0.1699  0.0467
  292TMC3    C6 4403   3.785   4.159  17.676  0.2175 -0.4108  0.2018
  292TMC3     C 4404   4.070   4.464  17.655  0.8330  0.0902 -0.1136
  292TMC3     O 4405   4.098   4.495   0.084 -0.2542  0.1149 -0.2974
  292TMC3     H 4406   3.898   4.420   0.168 -0.8026 -1.6962  0.9308
  292TMC3    H1 4407   3.993   4.296  17.447  0.8087  0.1005  0.5161
  292TMC3    H2 4408   3.704   4.090   0.006  0.0200  0.0775  1.2589
  292TMC3    C7 4409   3.813   4.109  17.437 -0.1894 -0.8607 -0.7117
  292TMC3    C8 4410   3.761   4.218   0.225 -0.2161  0.0379 -0.5586
  292TMC3    O1 4411   3.890   4.117  17.342 -0.2093  0.4447  0.6195
  292TMC3    O2 4412   3.744   4.315   0.300  0.4389  0.3812  0.2937
  293MPD2     C 4413   2.025   0.814  12.647 -0.1803  0.6872 -0.2828
  293MPD2    C1 4414   1.930   0.902  12.696 -0.1320  0.2762  0.0308
  293MPD2    C2 4415   1.962   0.983  12.807  0.6698  0.1296  0.0035
  293MPD2    C3 4416   2.098   0.999  12.844  0.2564 -0.3504 -0.3610
  293MPD2    C4 4417   2.190   0.914  12.786  0.3326 -0.2037  0.8873
  293MPD2    C5 4418   2.155   0.819  12.694  0.6585  0.0592  0.1158
  293MPD2     H 4419   1.885   1.053  12.838 -1.3536 -1.5343 -1.2561
  293MPD2    H1 4420   2.293   0.908  12.822  1.6760 -2.7053 -3.3683
  293MPD2    H2 4421   2.002   0.741  12.570 -0.5738  0.8297 -0.2967
  293MPD2    H3 4422   2.220   0.738  12.663 -1.5190 -0.5729 -2.8114
  293MPD2     N 4423   2.131   1.090  12.950  0.2861 -0.9930  0.3589
  293MPD2    H5 4424   2.058   1.148  12.988  1.0602  0.3557 -0.2079
  293MPD2    N1 4425   1.799   0.895  12.628 -0.1621 -1.2252  0.0977
  293MPD2    H7 4426   1.775   0.827  12.556 -1.6719  1.3657 -1.8261
  294TMC3    C1 4427   1.578   0.945  12.576  0.2575  0.2957 -0.0292
  294TMC3    C2 4428   1.533   0.821  12.566 -0.3264 -0.2952  0.1327
  294TMC3    C3 4429   1.436   0.802  12.468  0.2991  0.2594 -0.1573
  294TMC3    C4 4430   1.528   1.055  12.505 -0.8228 -0.0350  0.2487
  294TMC3    C5 4431   1.425   1.031  12.422 -0.9766  0.1190  0.1567
  294TMC3    C6 4432   1.379   0.904  12.398 -0.0113  0.0316  1.6745
  294TMC3     C 4433   1.693   0.976  12.661 -0.6412 -0.0142 -0.0166
  294TMC3     O 4434   1.689   1.076  12.738  0.8386 -0.4917  0.5503
  294TMC3     H 4435   1.569   0.738  12.625  0.0786  0.1756  0.5429
  294TMC3    H1 4436   1.568   1.156  12.508 -0.1884 -0.2409 -0.8749
  294TMC3    H2 4437   1.302   0.887  12.324  1.1106 -0.1025  0.5450
  294TMC3    C7 4438   1.429   1.116  12.306 -1.0131 -0.4142  0.1114
  294TMC3    C8 4439   1.397   0.663  12.435 -0.2739 -0.3631  0.0153
  294TMC3    O1 4440   1.316   1.123  12.256  0.2462 -0.2764  0.2352
  294TMC3    O2 4441   1.400   0.587  12.534 -0.0126 -0.1521  0.2074
  295MPD2     C 4442   1.489   4.707   0.580  1.1031 -0.4448 -0.2937
  295MPD2    C1 4443   1.627   4.711   0.587 -0.1879 -0.1873 -0.3845
  295MPD2    C2 4444   1.685   4.718   0.712 -0.0082  0.1317  0.0240
  295MPD2    C3 4445   1.614   4.711   0.827 -0.4022  0.1236  0.0702
  295MPD2    C4 4446   1.473   4.695   0.819  0.4865 -0.0361 -0.0634
  295MPD2    C5 4447   1.415   4.690   0.696  0.1968 -0.2790 -0.2506
  295MPD2     H 4448   1.794   4.718   0.710 -0.0742  1.6564 -3.3239
  295MPD2    H1 4449   1.412   4.693   0.909 -0.1706 -1.5669 -0.5419
  295MPD2    H2 4450   1.433   4.707   0.488  0.4243 -2.2983  0.1231
  295MPD2    H3 4451   1.308   4.678   0.684  0.1349 -1.0367  1.0697
  295MPD2     N 4452   1.671   4.711   0.953 -0.2080  0.3446 -0.1693
  295MPD2    H5 4453   1.604   4.685   1.024  0.4134 -0.6488  0.0511
  295MPD2    N1 4454   1.715   4.720   0.479  0.3089 -0.1770  0.5053
  295MPD2    H7 4455   1.810   0.018   0.507  0.2255 -1.0081  1.3719
  296TMC3    C1 4456   1.827   4.640   1.110 -0.5411 -0.5730  0.6984
  296TMC3    C2 4457   1.954   4.624   1.160  0.2411  0.0204 -0.0026
  296TMC3    C3 4458   1.965   4.540   1.272 -0.1989  0.5027  0.7118
  296TMC3    C4 4459   1.721   4.585   1.177  0.4058 -0.0454 -0.3534
  296TMC3    C5 4460   1.739   4.513   1.294 -0.1490 -0.0860 -0.1316
  296TMC3    C6 4461   1.864   4.492   1.350  0.2482  0.4983  0.5382
  296TMC3     C 4462   1.804   4.717   0.987 -0.2312 -0.0156 -0.2972
  296TMC3     O 4463   1.897   0.049   0.921  0.2638 -0.4631 -0.0094
  296TMC3     H 4464   2.037   4.657   1.099  0.9966 -0.7775  0.5724
  296TMC3    H1 4465   1.618   4.595   1.146 -0.1620  0.1888  1.5766
  296TMC3    H2 4466   1.884   4.463   1.452  2.3489  1.2596  0.3382
  296TMC3    C7 4467   1.620   4.438   1.340 -0.3767 -0.3267 -0.4146
  296TMC3    C8 4468   2.105   4.502   1.306 -0.3622 -0.2247  0.2568
  296TMC3    O1 4469   1.511   4.453   1.283 -0.3900  0.6304 -1.0984
  296TMC3    O2 4470   2.191   4.556   1.236 -0.0061 -0.0981 -0.4748
  297MPD2     C 4471   3.948   2.269  16.452  0.1510  0.1907  0.4060
  297MPD2    C1 4472   3.914   2.342  16.336  0.2113 -0.6853  0.2440
  297MPD2    C2 4473   4.004   2.400  16.251  0.0596 -0.1256 -0.0859
  297MPD2    C3 4474   4.136   2.378  16.267 -0.4203  0.8698 -0.1455
  297MPD2    C4 4475   4.172   2.296  16.378 -0.0905  0.7350  0.6412
  297MPD2    C5 4476   4.080   2.247  16.470  0.0872  0.2704 -0.0202
  297MPD2     H 4477   3.970   2.463  16.170 -1.1550 -0.5551  0.0863
  297MPD2    H1 4478   4.277   2.274  16.392 -0.6292 -1.4072  1.2347
  297MPD2    H2 4479   3.882   2.236  16.531 -1.5050  0.6884 -0.7761
  297MPD2    H3 4480   4.098   2.183  16.556 -0.1152  0.9439  0.5280
  297MPD2     N 4481   4.231   2.426  16.181 -0.3003 -0.0835  0.4210
  297MPD2    H5 4482   4.193   2.472  16.098 -0.7722 -2.5891 -0.7341
  297MPD2    N1 4483   3.776   2.366  16.316  0.0310 -0.5257 -0.4813
  297MPD2    H7 4484   3.752   2.407  16.226 -1.6580  1.1977  0.7485
  298TMC3    C1 4485   3.541   2.342  16.321 -0.3229  0.3494 -0.0023
  298TMC3    C2 4486   3.535   2.343  16.189  0.2343 -0.1225  0.0987
  298TMC3    C3 4487   3.410   2.360  16.129 -0.2704  0.1376  0.5246
  298TMC3    C4 4488   3.435   2.376  16.399  0.2618 -0.3865 -0.2667
  298TMC3    C5 4489   3.316   2.380  16.340 -0.9948 -0.4165 -0.1696
  298TMC3    C6 4490   3.294   2.375  16.199  0.3007  0.2330  0.9259
  298TMC3     C 4491   3.669   2.341  16.395 -0.3780  0.8831  0.5523
  298TMC3     O 4492   3.671   2.293  16.507 -0.4317  0.0134 -0.3815
  298TMC3     H 4493   3.622   2.325  16.126  0.1137 -4.3297  1.1419
  298TMC3    H1 4494   3.444   2.358  16.506  2.9284 -1.3046 -0.6346
  298TMC3    H2 4495   3.199   2.389  16.150  0.0814  2.0533  1.8933
  298TMC3    C7 4496   3.200   2.411  16.425  1.2512  0.8616 -0.3401
  298TMC3    C8 4497   3.408   2.358  15.990  0.3632 -0.4071 -0.1471
  298TMC3    O1 4498   3.215   2.376  16.543 -0.1404 -0.2084  0.0385
  298TMC3    O2 4499   3.490   2.293  15.933 -0.8132 -0.6044 -0.6129
  299MPD2     C 4500   0.682   2.303   9.939 -0.4508  0.2235  0.5271
  299MPD2    C1 4501   0.623   2.255  10.056 -0.4309 -0.4019 -0.1813
  299MPD2    C2 4502   0.488   2.277  10.076  0.2165 -0.1361  0.3997
  299MPD2    C3 4503   0.413   2.349   9.985 -0.9875  0.0557  0.1516
  299MPD2    C4 4504   0.472   2.390   9.863 -0.5771 -1.0332 -0.5090
  299MPD2    C5 4505   0.611   2.370   9.845  0.2617  0.2273 -0.2567
  299MPD2     H 4506   0.435   2.230  10.159 -0.1863  0.3290  0.4021
  299MPD2    H1 4507   0.415   2.433   9.782  0.8588  1.3553 -0.2579
  299MPD2    H2 4508   0.790   2.295   9.928 -0.2502  1.4386  1.5149
  299MPD2    H3 4509   0.657   2.388   9.749 -1.5523 -2.6159 -1.6507
  299MPD2     N 4510   0.280   2.381  10.020  0.8446 -0.8817 -0.7066
  299MPD2    H5 4511   0.251   2.347  10.111 -0.8649 -0.4937 -1.1212
  299MPD2    N1 4512   0.703   2.176  10.139  0.4643  0.5282 -0.0158
  299MPD2    H7 4513   0.803   2.178  10.121  0.0566 -1.4289 -2.5398
  300TMC3    C1 4514   0.074   2.491  10.025  0.3745 -0.6714  0.7088
  300TMC3    C2 4515   0.113   2.546  10.150 -0.4832  0.1271 -0.1001
  300TMC3    C3 4516   0.016   2.607  10.222  0.7737 -0.4474 -0.7143
  300TMC3    C4 4517   4.667   2.498   9.973 -0.9474 -0.6228 -0.4390
  300TMC3    C5 4518   4.570   2.567  10.053  0.6662 -0.7877 -0.7060
  300TMC3    C6 4519   4.610   2.623  10.176 -0.2742  0.7404 -0.2284
  300TMC3     C 4520   0.186   2.448   9.946  0.0676 -0.1193 -0.4491
  300TMC3     O 4521   0.176   2.447   9.826 -0.3099 -0.1248  0.1208
  300TMC3     H 4522   0.216   2.553  10.184 -0.5911 -1.1985  0.5088
  300TMC3    H1 4523   4.642   2.440   9.885  0.5460 -2.9215  0.6568
  300TMC3    H2 4524   4.534   2.673  10.235  1.1174  1.2886  1.1076
  300TMC3    C7 4525   4.425   2.545  10.036 -0.5209  1.0197  0.3220
  300TMC3    C8 4526   0.068   2.652  10.354  0.6276  0.4271  0.2474
  300TMC3    O1 4527   4.390   2.515   9.921  0.8965  0.1488  0.5973
  300TMC3    O2 4528   0.166   2.593  10.399  0.1141  0.0678  0.4167
  301MPD2     C 4529   2.012   3.518   1.702  0.4279 -0.2996  0.2347
  301MPD2    C1 4530   1.911   3.483   1.625 -0.2515  0.2206  0.6430
  301MPD2    C2 4531   1.889   3.349   1.604 -0.6549  0.2812  0.2872
  301MPD2    C3 4532   1.968   3.247   1.653  0.4460 -0.9505 -0.1299
  301MPD2    C4 4533   2.070   3.286   1.736  0.5169  0.4246  0.0287
  301MPD2    C5 4534   2.090   3.420   1.760 -0.7911  0.7515 -0.2743
  301MPD2     H 4535   1.797   3.330   1.550  0.7518 -0.6797 -1.7837
  301MPD2    H1 4536   2.134   3.211   1.782  0.8170  1.5238  1.3849
  301MPD2    H2 4537   2.029   3.622   1.727  0.7044  0.2457 -2.2033
  301MPD2    H3 4538   2.175   3.456   1.816 -1.0388 -0.4208  0.8650
  301MPD2     N 4539   1.942   3.109   1.631  0.4916 -0.0401  0.1939
  301MPD2    H5 4540   2.000   3.036   1.671  2.1413  1.2923  0.2488
  301MPD2    N1 4541   1.819   3.580   1.569  0.5395 -0.2827 -0.0289
  301MPD2    H7 4542   1.741   3.551   1.510  0.5843 -3.2327  1.3614
  302TMC3    C1 4543   1.821   2.930   1.539  0.1445  0.1589  0.0404
  302TMC3    C2 4544   1.926   2.847   1.565  0.6221 -0.0229  0.9374
  302TMC3    C3 4545   1.904   2.712   1.563 -0.1591  0.5622 -0.1787
  302TMC3    C4 4546   1.699   2.891   1.517 -0.3224  0.2335 -0.3573
  302TMC3    C5 4547   1.678   2.757   1.541  0.2488  0.8254  0.2131
  302TMC3    C6 4548   1.774   2.668   1.559  0.5955 -0.4528  0.0973
  302TMC3     C 4549   1.847   3.069   1.547  0.2670 -0.5590 -0.7411
  302TMC3     O 4550   1.768   3.133   1.478  0.5877  0.1510 -0.8621
  302TMC3     H 4551   2.027   2.886   1.573 -0.4034  2.4872  1.5728
  302TMC3    H1 4552   1.614   2.956   1.497  1.1527  1.3884 -2.8736
  302TMC3    H2 4553   1.750   2.562   1.553  1.4990 -0.7289  1.1795
  302TMC3    C7 4554   1.552   2.696   1.505 -1.1584 -0.2716 -0.0599
  302TMC3    C8 4555   2.014   2.625   1.561  0.5010 -0.4370 -0.3285
  302TMC3    O1 4556   1.530   2.580   1.518  0.3055  0.2986 -0.5864
  302TMC3    O2 4557   2.104   2.670   1.631  0.7586  0.2763 -0.8739
  303MPD2     C 4558   2.877   0.295  10.040  0.0382  0.3535  0.2936
  303MPD2    C1 4559   2.800   0.237   9.951  0.3559 -0.4909  0.6102
  303MPD2    C2 4560   2.749   0.313   9.840 -0.3036  0.3646 -0.3714
  303MPD2    C3 4561   2.785   0.444   9.823  0.1218 -0.4033 -0.1761
  303MPD2    C4 4562   2.871   0.496   9.921 -0.0899  0.3159  0.3772
  303MPD2    C5 4563   2.915   0.427  10.026  0.4808 -0.2130  0.4476
  303MPD2     H 4564   2.669   0.279   9.776  1.0914 -0.9599 -1.4258
  303MPD2    H1 4565   2.906   0.598   9.924 -1.2008  0.6733  1.1012
  303MPD2    H2 4566   2.907   0.241  10.129 -0.1913  0.1784  0.2634
  303MPD2    H3 4567   2.974   0.474  10.103 -3.3905 -0.5952  3.6740
  303MPD2     N 4568   2.734   0.535   9.729 -0.0783 -0.1926  0.4894
  303MPD2    H5 4569   2.762   0.630   9.747  1.6150 -0.5191 -0.4408
  303MPD2    N1 4570   2.750   0.105   9.982  0.4763 -0.3267  0.1757
  303MPD2    H7 4571   2.780   0.075  10.074  1.0558 -0.7124 -0.1330
  304TMC3    C1 4572   2.620   4.629   9.973 -0.8072 -0.4269  0.1592
  304TMC3    C2 4573   2.532   4.659  10.074 -0.5843 -0.6661 -0.0063
  304TMC3    C3 4574   2.425   4.577  10.093 -0.3148  0.5711  0.7295
  304TMC3    C4 4575   2.606   4.517   9.901 -0.3661  0.2761  0.2816
  304TMC3    C5 4576   2.517   4.428   9.936 -0.0845  0.5842 -0.7272
  304TMC3    C6 4577   2.433   4.445  10.043 -0.3790  0.4944 -0.2028
  304TMC3     C 4578   2.671   0.024   9.902  0.0607  0.1324  0.7358
  304TMC3     O 4579   2.633   0.044   9.785 -0.5945 -0.1466 -0.4017
  304TMC3     H 4580   2.526   0.038  10.115  0.2371 -0.9032  0.7063
  304TMC3    H1 4581   2.658   4.504   9.806 -1.1588  1.8958 -0.3860
  304TMC3    H2 4582   2.348   4.380  10.060  0.1755  0.3162  1.8371
  304TMC3    C7 4583   2.455   4.367   9.832  0.2010 -0.3311  0.1008
  304TMC3    C8 4584   2.292   4.638  10.102  0.3603 -0.5225 -0.6867
  304TMC3    O1 4585   2.526   4.328   9.738 -0.3984 -0.1753  0.6472
  304TMC3    O2 4586   2.202   4.561  10.077  0.5138 -1.1051  0.6440
  305MPD2     C 4587   0.353   3.355  13.658  0.3426  0.1790  0.4133
  305MPD2    C1 4588   0.464   3.290  13.671 -0.8640  0.4994 -0.2446
  305MPD2    C2 4589   0.544   3.251  13.566 -0.1209  0.6285  0.4348
  305MPD2    C3 4590   0.491   3.274  13.434  0.6880  0.1801 -0.2820
  305MPD2    C4 4591   0.387   3.362  13.419  0.3748  0.3358  0.1028
  305MPD2    C5 4592   0.319   3.405  13.531 -0.3181 -0.9445 -0.3053
  305MPD2     H 4593   0.632   3.191  13.583 -0.1359  0.4460 -0.1245
  305MPD2    H1 4594   0.340   3.388  13.325  0.4320  2.2651  0.6069
  305MPD2    H2 4595   0.287   3.387  13.738  0.0628  0.7246 -0.0360
  305MPD2    H3 4596   0.233   3.469  13.520 -0.6336 -0.8465  2.5754
  305MPD2     N 4597   0.568   3.243  13.322  0.3051 -0.4558 -0.1287
  305MPD2    H5 4598   0.538   3.284  13.234  2.0169 -3.6574 -2.2241
  305MPD2    N1 4599   0.506   3.265  13.807 -0.4560 -0.2474  0.5222
  305MPD2    H7 4600   0.432   3.295  13.870  1.9583  2.6398  1.9692
  306TMC3    C1 4601   0.642   3.241  13.992  0.2258  0.1799  0.2446
  306TMC3    C2 4602   0.748   3.178  14.045 -0.0732 -0.1522 -0.3818
  306TMC3    C3 4603   0.767   3.189  14.177 -0.2181  0.3390 -0.4364
  306TMC3    C4 4604   0.545   3.306  14.064 -0.3119 -0.2745  0.2146
  306TMC3    C5 4605   0.575   3.308  14.197  0.5498  0.1190 -0.4572
  306TMC3    C6 4606   0.670   3.240  14.262 -0.3467 -0.0067 -0.3262
  306TMC3     C 4607   0.630   3.230  13.847  0.4076  0.5280 -0.4068
  306TMC3     O 4608   0.734   3.191  13.788 -0.5808  0.2388 -0.1359
  306TMC3     H 4609   0.819   3.121  13.985 -2.0932 -1.5004 -1.4921
  306TMC3    H1 4610   0.466   3.364  14.017  0.5849  1.2644  0.6023
  306TMC3    H2 4611   0.667   3.222  14.369 -0.7342  1.1534 -0.1480
  306TMC3    C7 4612   0.494   3.403  14.270 -0.0912 -0.1185  0.0180
  306TMC3    C8 4613   0.846   3.084  14.237 -0.5918 -0.2932  0.1191
  306TMC3    O1 4614   0.395   3.429  14.206  0.0473  0.5272  0.3664
  306TMC3    O2 4615   0.858   2.981  14.177  0.6938 -0.0495 -0.1461
  307MPD2     C 4616   2.326   0.296   1.003 -0.2922  0.4381 -0.1711
  307MPD2    C1 4617   2.349   0.420   0.938 -0.5499  0.2289 -0.3607
  307MPD2    C2 4618   2.239   0.500   0.911 -0.2846 -0.2922 -0.2815
  307MPD2    C3 4619   2.119   0.467   0.966  0.6438  0.4438  0.3451
  307MPD2    C4 4620   2.102   0.338   1.022  0.2260 -0.3782 -0.2843
  307MPD2    C5 4621   2.203   0.256   1.038  0.5228  0.4053  0.2293
  307MPD2     H 4622   2.249   0.596   0.862 -1.4386 -1.3469 -2.5722
  307MPD2    H1 4623   2.003   0.300   1.046 -0.8020  0.1720 -3.5314
  307MPD2    H2 4624   2.410   0.234   1.033 -0.6902  2.5533  5.3188
  307MPD2    H3 4625   2.193   0.156   1.079 -1.4116  0.9281  1.0310
  307MPD2     N 4626   2.014   0.565   0.958  0.2483 -0.2388  0.9435
  307MPD2    H5 4627   2.047   0.657   0.930  1.3582 -1.3157 -1.3180
  307MPD2    N1 4628   2.470   0.472   0.883  0.3962 -0.3455  0.2209
  307MPD2    H7 4629   2.465   0.567   0.847  2.5192 -0.0075  0.8361
  308TMC3    C1 4630   1.704   0.780   0.784 -0.1220 -0.1547  0.0437
  308TMC3    C2 4631   1.744   0.893   0.856  0.6162  0.4457  0.6609
  308TMC3    C3 4632   1.807   0.890   0.971 -0.5477 -0.6028 -0.0525
  308TMC3    C4 4633   1.731   0.659   0.844  0.5468  0.1789 -0.0373
  308TMC3    C5 4634   1.801   0.659   0.958 -0.1911 -0.1778  0.1925
  308TMC3    C6 4635   1.845   0.773   1.023 -0.4468 -0.2211  0.3326
  308TMC3     C 4636   1.699   0.780   0.639  0.6286  0.1041 -0.1313
  308TMC3     O 4637   1.716   0.672   0.582 -0.4181 -0.6258 -0.4920
  308TMC3     H 4638   1.712   0.987   0.813  0.4534  0.2303  0.3167
  308TMC3    H1 4639   1.727   0.563   0.794 -0.8650 -0.3261  1.0313
  308TMC3    H2 4640   1.894   0.762   1.119  0.0650  3.1667  0.4665
  308TMC3    C7 4641   1.877   0.538   0.982  0.9432 -0.2269 -0.4941
  308TMC3    C8 4642   1.915   0.988   0.997  0.9220 -0.4314  0.0844
  308TMC3    O1 4643   1.814   0.430   1.008 -0.8579  0.4746 -0.8772
  308TMC3    O2 4644   1.975   0.976   1.105 -0.5034  0.0745  0.2956
  309MPD2     C 4645   1.977   1.759  16.945  0.4216  0.3289 -0.6139
  309MPD2    C1 4646   1.911   1.799  16.825 -0.3966  0.5919  0.1952
  309MPD2    C2 4647   1.780   1.837  16.834  0.2499 -0.8899  0.1818
  309MPD2    C3 4648   1.712   1.850  16.956 -0.3407  0.0195 -0.3656
  309MPD2    C4 4649   1.778   1.811  17.069 -0.5513 -0.6044  0.2884
  309MPD2    C5 4650   1.903   1.777  17.060  0.5020 -0.2244  0.1491
  309MPD2     H 4651   1.739   1.884  16.746 -0.1231  0.2144  0.9517
  309MPD2    H1 4652   1.737   1.809  17.169 -1.5818  1.3706 -0.0882
  309MPD2    H2 4653   2.080   1.730  16.964  0.1942 -0.1847 -0.1598
  309MPD2    H3 4654   1.947   1.738  17.151 -0.8213 -2.2878 -0.0938
  309MPD2     N 4655   1.580   1.895  16.979  0.3523 -0.4398  0.1115
  309MPD2    H5 4656   1.545   1.890  17.074  0.0521  0.6696  0.0546
  309MPD2    N1 4657   1.969   1.804  16.698  0.4995  0.4431 -1.5386
  309MPD2    H7 4658   1.920   1.852  16.624  1.8680  2.8230 -0.8954
  310TMC3    C1 4659   2.152   1.782  16.546 -0.1873 -0.2470  0.6255
  310TMC3    C2 4660   2.087   1.853  16.448 -0.6341 -0.2991  0.2026
  310TMC3    C3 4661   2.132   1.833  16.319  0.1612  0.6169  0.5366
  310TMC3    C4 4662   2.258   1.698  16.522  0.2230  0.0153 -0.1512
  310TMC3    C5 4663   2.293   1.683  16.391  0.5108  0.4301 -0.0866
  310TMC3    C6 4664   2.232   1.745  16.288  0.0695  0.3592 -0.0175
  310TMC3     C 4665   2.099   1.768  16.678 -0.5578  0.4208 -0.7047
  310TMC3     O 4666   2.172   1.708  16.758  0.2820  0.1006  0.6539
  310TMC3     H 4667   2.015   1.930  16.475  1.9348  2.0691  0.2883
  310TMC3    H1 4668   2.306   1.637  16.597  0.1061 -0.4102 -0.4271
  310TMC3    H2 4669   2.264   1.734  16.185 -0.0140 -0.9605  0.1031
  310TMC3    C7 4670   2.390   1.591  16.369  0.8809 -0.0204 -0.0606
  310TMC3    C8 4671   2.062   1.891  16.204  0.0268  0.0819 -0.1128
  310TMC3    O1 4672   2.364   1.479  16.405 -0.0740  0.4083  0.6965
  310TMC3    O2 4673   2.119   1.875  16.097  0.0957  0.3648  0.0243
  311MPD2     C 4674   4.717   3.163  12.529 -0.1970 -0.2624 -0.6318
  311MPD2    C1 4675   4.687   3.296  12.521  0.0467  0.1954 -0.1637
  311MPD2    C2 4676   4.563   3.337  12.560 -1.2073 -0.0589 -0.0593
  311MPD2    C3 4677   4.460   3.245  12.579  0.6611 -0.1090  0.3754
  311MPD2    C4 4678   4.494   3.111  12.567  0.3180 -0.2031 -0.7090
  311MPD2    C5 4679   4.622   3.072  12.559  0.9254  0.2014 -0.6314
  311MPD2     H 4680   4.545   3.443  12.574 -1.3027  0.0220 -0.8387
  311MPD2    H1 4681   4.421   3.035  12.589 -1.5484  1.8694  0.2956
  311MPD2    H2 4682   0.098   3.127  12.524 -0.4406 -1.0978  0.4145
  311MPD2    H3 4683   4.657   2.969  12.564 -0.4201 -0.2802 -0.8481
  311MPD2     N 4684   4.328   3.295  12.598  0.1466  0.5476 -0.2921
  311MPD2    H5 4685   4.317   3.390  12.630 -0.7958  1.5556 -3.5779
  311MPD2    N1 4686   0.060   3.396  12.493 -0.7588 -0.1345 -1.0643
  311MPD2    H7 4687   0.027   3.491  12.510 -2.0653 -0.8996  0.6453
  312TMC3    C1 4688   4.096   3.293  12.607 -0.4220  0.3794 -0.5777
  312TMC3    C2 4689   3.986   3.225  12.576  0.1049  0.1573  0.1652
  312TMC3    C3 4690   3.888   3.197  12.667  0.4704  0.4434 -0.0206
  312TMC3    C4 4691   4.102   3.357  12.724  0.0301 -0.0952 -0.6404
  312TMC3    C5 4692   4.004   3.327  12.815  0.4548 -0.4118 -0.2178
  312TMC3    C6 4693   3.896   3.245  12.797  0.2761 -0.2146 -0.5181
  312TMC3     C 4694   4.218   3.226  12.566 -0.4792  0.1206 -0.6387
  312TMC3     O 4695   4.207   3.116  12.513  0.6688 -0.4178 -0.1457
  312TMC3     H 4696   3.977   3.176  12.480  1.0848 -0.2556  0.2836
  312TMC3    H1 4697   4.181   3.423  12.758  0.8776 -1.7602  0.6872
  312TMC3    H2 4698   3.820   3.229  12.873  0.3225 -0.1066 -0.4494
  312TMC3    C7 4699   4.007   3.416  12.928 -0.1681 -0.6481 -0.0825
  312TMC3    C8 4700   3.757   3.158  12.626  0.5510 -0.0019 -0.4511
  312TMC3    O1 4701   4.034   3.532  12.897 -0.2767 -0.8566 -0.1257
  312TMC3    O2 4702   3.677   3.145  12.721 -0.2052  0.4683  0.2635
  313MPD2     C 4703   3.504   2.266  11.168 -0.6552 -0.1311  0.1822
  313MPD2    C1 4704   3.529   2.284  11.030  0.0612 -1.0206 -0.8887
  313MPD2    C2 4705   3.475   2.189  10.948 -0.5285  0.0481  0.6191
  313MPD2    C3 4706   3.411   2.069  10.994  0.0872 -0.5049  0.4305
  313MPD2    C4 4707   3.388   2.062  11.126  0.1435 -0.2604 -0.2343
  313MPD2    C5 4708   3.431   2.158  11.216  0.5982 -0.2767  0.1060
  313MPD2     H 4709   3.504   2.189  10.844 -0.1523  1.9557  0.7226
  313MPD2    H1 4710   3.344   1.972  11.168 -1.8956 -0.1528 -2.1575
  313MPD2    H2 4711   3.533   2.340  11.242 -0.2595 -0.0733 -0.0304
  313MPD2    H3 4712   3.410   2.153  11.322  0.9794 -1.4821  0.1182
  313MPD2     N 4713   3.387   1.971  10.898  0.1636 -0.5027  0.1036
  313MPD2    H5 4714   3.442   1.989  10.814  1.8512  0.2435  1.3576
  313MPD2    N1 4715   3.604   2.390  10.979 -0.2392  0.2582  0.0277
  313MPD2    H7 4716   3.607   2.399  10.878 -0.9686 -1.7005 -0.1589
  314TMC3    C1 4717   3.753   2.578  10.993 -0.0094 -0.1885 -0.2800
  314TMC3    C2 4718   3.869   2.619  11.054 -0.0500 -0.3530  0.4610
  314TMC3    C3 4719   3.940   2.705  10.973  0.4883 -0.8290  0.3050
  314TMC3    C4 4720   3.714   2.622  10.867 -0.0203 -0.5322  0.0740
  314TMC3    C5 4721   3.780   2.718  10.798  0.1133  0.1028  0.3516
  314TMC3    C6 4722   3.908   2.753  10.842 -0.2024 -0.3712 -0.4156
  314TMC3     C 4723   3.669   2.483  11.061 -0.4682  0.4575  0.0246
  314TMC3     O 4724   3.687   2.484  11.184 -0.1101 -0.7126 -0.4488
  314TMC3     H 4725   3.891   2.586  11.155  1.1258 -0.8359  0.0396
  314TMC3    H1 4726   3.614   2.595  10.835 -0.3793  0.5706  0.2442
  314TMC3    H2 4727   3.958   2.839  10.800 -0.0296 -0.8436 -1.1791
  314TMC3    C7 4728   3.740   2.747  10.665 -0.4301 -0.3414  0.1653
  314TMC3    C8 4729   4.066   2.759  11.022 -0.4324 -0.3010 -0.0040
  314TMC3    O1 4730   3.619   2.732  10.642  0.4273 -0.5058 -0.3066
  314TMC3    O2 4731   4.129   2.827  10.940 -0.4690 -0.7255 -0.2663
  315MPD2     C 4732   3.250   1.153  17.597 -0.0793 -0.3030 -0.5622
  315MPD2    C1 4733   3.382   1.187  17.619  0.0872 -0.7468 -0.6441
  315MPD2    C2 4734   3.401   1.319  17.624 -0.6266  0.2193 -0.0585
  315MPD2    C3 4735   3.304   1.414  17.609 -0.8452  0.3129  0.0753
  315MPD2    C4 4736   3.178   1.377  17.589 -0.1789  0.0539  0.1832
  315MPD2    C5 4737   3.147   1.242  17.583 -0.1802  0.2661  0.1751
  315MPD2     H 4738   3.505   1.346  17.611 -0.7883  0.0092 -1.7473
  315MPD2    H1 4739   3.101   1.446  17.557 -1.0097 -1.9320 -2.1022
  315MPD2    H2 4740   3.217   1.051  17.577 -2.0412  0.1598  0.2657
  315MPD2    H3 4741   3.042   1.222  17.567  0.0144 -1.5341  1.0674
  315MPD2     N 4742   3.347   1.545  17.630 -0.0364  0.0320 -0.2584
  315MPD2    H5 4743   3.446   1.556  17.651  0.1980 -0.2127 -1.2352
  315MPD2    N1 4744   3.496   1.102  17.640  0.4622  0.2163 -0.5846
  315MPD2    H7 4745   3.586   1.147  17.648 -0.0490  1.0715  0.3906
  316TMC3    C1 4746   3.366   1.766  17.647 -0.2932 -0.0865  0.6987
  316TMC3    C2 4747   3.453   1.745   0.066  0.3079 -0.4883  0.1140
  316TMC3    C3 4748   3.512   1.855   0.121 -0.5041 -0.1815 -0.8410
  316TMC3    C4 4749   3.350   1.892  17.603 -0.4336  0.6018 -0.0038
  316TMC3    C5 4750   3.413   1.996  17.665  0.3851 -0.1829 -0.3136
  316TMC3    C6 4751   3.500   1.980   0.083 -0.2368 -0.1155  0.2433
  316TMC3     C 4752   3.275   1.661  17.613  0.3790  0.8236 -0.5358
  316TMC3     O 4753   3.165   1.677  17.568 -0.2198  0.5535 -0.2090
  316TMC3     H 4754   3.463   1.652   0.122  0.8317 -0.2466  0.4310
  316TMC3    H1 4755   3.292   1.904  17.512 -0.3439  1.9003  0.1209
  316TMC3    H2 4756   3.551   2.069   0.118 -1.3487 -0.1033  1.8317
  316TMC3    C7 4757   3.394   2.132  17.612 -0.0749 -0.3897  0.6351
  316TMC3    C8 4758   3.630   1.832   0.208 -0.2890 -0.4348  0.3102
  316TMC3    O1 4759   3.483   2.215  17.630 -0.0387 -0.3978  0.4982
  316TMC3    O2 4760   3.650   1.929   0.280  0.5405 -0.2420  0.5263
  317MPD2     C 4761   0.715   0.124  12.821 -0.1262 -0.8306 -0.1876
  317MPD2    C1 4762   0.806   0.027  12.845  0.2907 -0.1021  0.4212
  317MPD2    C2 4763   0.833   4.715  12.975  0.6322 -0.1184  0.0132
  317MPD2    C3 4764   0.763   0.040  13.086 -0.2051 -0.0959  1.0223
  317MPD2    C4 4765   0.673   0.144  13.060 -0.1380  0.2299 -0.1296
  317MPD2    C5 4766   0.646   0.177  12.928 -0.0517  0.0876  0.2607
  317MPD2     H 4767   0.889   4.627  13.004  1.6634  0.6388  0.2916
  317MPD2    H1 4768   0.611   0.194  13.133 -0.9952 -2.5440  1.0124
  317MPD2    H2 4769   0.668   0.155  12.728 -1.6155 -4.9526 -0.7798
  317MPD2    H3 4770   0.566   0.249  12.918 -0.3455 -0.1623  0.8284
  317MPD2     N 4771   0.780   4.700  13.212 -0.4926  0.0707  0.1072
  317MPD2    H5 4772   0.844   4.621  13.213  0.3966  0.8057  1.0549
  317MPD2    N1 4773   0.868   4.674  12.748  0.7029 -0.1035  0.1316
  317MPD2    H7 4774   0.921   4.595  12.784  1.6667  1.3775  1.9811
  318TMC3    C1 4775   0.723   4.645  13.434 -0.5052  0.4187 -0.0794
  318TMC3    C2 4776   0.615   4.566  13.467 -0.2839  0.7375 -0.1613
  318TMC3    C3 4777   0.623   4.434  13.505  0.1555 -0.3021  0.3853
  318TMC3    C4 4778   0.847   4.592  13.454 -0.6069  0.1144 -0.4865
  318TMC3    C5 4779   0.854   4.464  13.508 -0.0059 -0.4860  0.1795
  318TMC3    C6 4780   0.745   4.384  13.527 -0.1159 -0.5859 -0.6214
  318TMC3     C 4781   0.700   0.017  13.321 -0.1465  0.3660 -0.1806
  318TMC3     O 4782   0.593   0.076  13.324 -0.1632  0.3596 -0.5130
  318TMC3     H 4783   0.521   4.600  13.425 -0.1909  1.6698  0.3836
  318TMC3    H1 4784   0.939   4.641  13.423  0.3077 -0.6145  1.0521
  318TMC3    H2 4785   0.741   4.282  13.566  1.5391 -0.0490  0.9209
  318TMC3    C7 4786   0.988   4.408  13.514 -0.1144  0.1576  0.3697
  318TMC3    C8 4787   0.523   4.341  13.458  1.2579  0.0688  0.6891
  318TMC3    O1 4788   1.084   4.478  13.529  0.1364  0.6095  0.0961
  318TMC3    O2 4789   0.525   4.225  13.502 -0.3539 -0.1548 -0.0483
  319MPD2     C 4790   1.803   1.297  16.145  0.6421  0.4895  0.2175
  319MPD2    C1 4791   1.716   1.329  16.246  0.4206  0.2511  0.7022
  319MPD2    C2 4792   1.585   1.351  16.211  0.1961  0.8927  0.3414
  319MPD2    C3 4793   1.536   1.349  16.081 -0.5641  0.6857  0.1237
  319MPD2    C4 4794   1.629   1.328  15.983  0.2210  0.6201  0.2950
  319MPD2    C5 4795   1.757   1.301  16.019  0.3513  0.2643  0.0140
  319MPD2     H 4796   1.516   1.383  16.289  0.7265 -1.1080  1.6325
  319MPD2    H1 4797   1.605   1.325  15.878 -0.4482  2.1134  0.4026
  319MPD2    H2 4798   1.904   1.261  16.158  0.5364 -0.0018 -0.3639
  319MPD2    H3 4799   1.823   1.282  15.935  1.6540 -0.1424  1.1357
  319MPD2     N 4800   1.400   1.364  16.040  0.1011  0.2538 -0.1219
  319MPD2    H5 4801   1.377   1.355  15.942 -0.7874 -1.9720  0.2864
  319MPD2    N1 4802   1.745   1.338  16.385 -0.2444  0.0857 -0.3599
  319MPD2    H7 4803   1.670   1.360  16.449  0.9702 -0.3981  1.2188
  320TMC3    C1 4804   1.170   1.378  16.054  0.1444 -0.4153 -0.6127
  320TMC3    C2 4805   1.177   1.448  15.940  0.0719  0.0970 -0.6033
  320TMC3    C3 4806   1.079   1.431  15.845 -1.1044 -0.4164 -0.0437
  320TMC3    C4 4807   1.070   1.297  16.087 -0.4124 -0.2196 -0.1660
  320TMC3    C5 4808   0.970   1.282  15.992 -0.5243 -0.5967  0.3435
  320TMC3    C6 4809   0.982   1.337  15.871 -0.6673  0.7117  0.4579
  320TMC3     C 4810   1.294   1.366  16.127  0.1150  0.0826  0.1228
  320TMC3     O 4811   1.290   1.358  16.247  0.0366 -0.5766 -0.2763
  320TMC3     H 4812   1.254   1.521  15.918 -0.4096  0.7925  0.0049
  320TMC3    H1 4813   1.089   1.229  16.169  2.4187  3.0642  1.8793
  320TMC3    H2 4814   0.894   1.332  15.808 -0.3341 -0.6430  0.1132
  320TMC3    C7 4815   0.891   1.166  15.991 -0.3372  0.5786  0.2072
  320TMC3    C8 4816   1.056   1.528  15.743  0.3125 -0.4540 -0.4651
  320TMC3    O1 4817   0.862   1.110  15.887  0.2208 -0.3601 -0.2483
  320TMC3    O2 4818   1.106   1.639  15.748 -0.0984 -0.2568 -0.7936
  321TMC3    C1 4819   1.880   1.337  16.584  0.0860 -0.3586 -0.0196
  321TMC3    C2 4820   1.765   1.365  16.659  0.9329 -0.3105  0.2971
  321TMC3    C3 4821   1.800   1.412  16.780  0.3226  0.1013 -0.1075
  321TMC3    C4 4822   2.008   1.357  16.627 -0.5567  0.8557 -0.5375
  321TMC3    C5 4823   2.031   1.418  16.746  0.3852 -0.6564 -0.9738
  321TMC3    C6 4824   1.918   1.460  16.817  0.1836  0.0900 -0.2399
  321TMC3     C 4825   1.874   1.329  16.440 -0.2988 -0.6234  0.9718
  321TMC3     O 4826   1.982   1.311  16.384  0.0329  0.5855  0.1983
  321TMC3     H 4827   1.667   1.330  16.632  1.1337 -1.3908  0.9877
  321TMC3    H1 4828   2.090   1.327  16.563 -0.0358  0.7735  0.1728
  321TMC3    H2 4829   1.929   1.492  16.920 -0.9662  1.3585 -0.5087
  321TMC3    C7 4830   2.150   1.388  16.823  0.1046  0.4701  0.1379
  321TMC3    C8 4831   1.722   1.371  16.891  0.5439 -0.9483 -0.8036
  321TMC3    O1 4832   2.180   1.269  16.811 -0.0636  0.0368 -0.4697
  321TMC3    O2 4833   1.738   1.427  17.003 -0.3244  0.3430  0.3440
  322MPD2     C 4834   0.452   2.823  13.240  0.4003 -0.6019 -0.4813
  322MPD2    C1 4835   0.442   2.752  13.355 -0.2336 -0.3009 -0.1582
  322MPD2    C2 4836   0.423   2.616  13.347  0.0372  0.6291  0.4859
  322MPD2    C3 4837   0.428   2.546  13.220  0.1822  0.5496 -0.8432
  322MPD2    C4 4838   0.436   2.623  13.105 -0.8760  0.3672  0.7697
  322MPD2    C5 4839   0.448   2.759  13.116  0.3045  0.4829 -0.0725
  322MPD2     H 4840   0.417   2.556  13.437  0.2400  0.0382  0.1147
  322MPD2    H1 4841   0.441   2.581  13.005  0.1188  2.7451 -0.1696
  322MPD2    H2 4842   0.481   2.928  13.240  0.0886 -0.5163 -1.4179
  322MPD2    H3 4843   0.457   2.815  13.023  1.0942  3.5374  1.8296
  322MPD2     N 4844   0.423   2.401  13.222  0.2004  0.4688 -0.0349
  322MPD2    H5 4845   0.401   2.365  13.315  1.1975 -0.0599 -0.0079
  322MPD2    N1 4846   0.479   2.822  13.472  0.0575  0.3294  0.5677
  322MPD2    H7 4847   0.515   2.916  13.470 -2.2015  1.2006  0.6889
  323TMC3    C1 4848   0.539   2.830  13.700  0.0429 -0.7612  0.0285
  323TMC3    C2 4849   0.669   2.859  13.675  0.5453  0.3581  0.1113
  323TMC3    C3 4850   0.761   2.864  13.778 -0.3460 -0.1180  0.7788
  323TMC3    C4 4851   0.505   2.799  13.824 -0.4627  0.5054 -0.3136
  323TMC3    C5 4852   0.604   2.806  13.925 -0.0540  0.0894  0.1093
  323TMC3    C6 4853   0.739   2.841  13.905  0.1138  0.9967  0.0244
  323TMC3     C 4854   0.459   2.766  13.598  0.3479  0.3679 -0.2987
  323TMC3     O 4855   0.404   2.664  13.632  0.4699  0.2837  0.1518
  323TMC3     H 4856   0.700   2.874  13.573 -0.7996 -0.1235 -0.3701
  323TMC3    H1 4857   0.409   2.753  13.844 -0.0215 -0.1628  0.2542
  323TMC3    H2 4858   0.825   2.842  13.971 -0.0055 -1.5817  0.2358
  323TMC3    C7 4859   0.575   2.733  14.049 -0.2785 -0.2782  0.5241
  323TMC3    C8 4860   0.896   2.910  13.740 -0.3713  0.0078  0.6865
  323TMC3    O1 4861   0.481   2.651  14.051  0.0633 -0.3984  0.3028
  323TMC3    O2 4862   0.977   2.886  13.827  0.4044 -0.3629  0.3807
  324MPD2     C 4863   2.411   4.073  13.622 -0.5294  1.0275 -0.7286
  324MPD2    C1 4864   2.353   4.103  13.742  0.7292  0.7167  0.4202
  324MPD2    C2 4865   2.222   4.060  13.768  0.5609 -0.1185 -0.1026
  324MPD2    C3 4866   2.155   3.974  13.680 -0.3225  0.4479  0.6338
  324MPD2    C4 4867   2.220   3.939  13.564  0.1378  0.2544  0.3348
  324MPD2    C5 4868   2.343   3.985  13.537 -0.2026  0.2785 -0.1506
  324MPD2     H 4869   2.176   4.084  13.863 -0.5173 -0.5129 -0.5265
  324MPD2    H1 4870   2.175   3.878  13.487  2.4803  2.6901 -2.9905
  324MPD2    H2 4871   2.508   4.108  13.590  1.6538 -2.1011  2.4774
  324MPD2    H3 4872   2.388   3.969  13.440  0.5776  1.6644 -0.0177
  324MPD2     N 4873   2.020   3.935  13.711  0.5311 -0.2686 -0.1978
  324MPD2    H5 4874   1.985   3.874  13.637 -0.9181  0.4068 -0.0715
  324MPD2    N1 4875   2.414   4.176  13.847 -0.0572 -0.2638  0.0802
  324MPD2    H7 4876   2.355   4.167  13.929  0.0805 -0.2184  0.1833
  325TMC3    C1 4877   1.804   3.903  13.803 -0.7309  0.8123  0.2133
  325TMC3    C2 4878   1.800   3.777  13.751 -0.1382 -0.3440 -0.4301
  325TMC3    C3 4879   1.672   3.727  13.730 -1.0194  0.1349  1.0291
  325TMC3    C4 4880   1.694   3.981  13.827  0.2326 -0.3458 -0.8015
  325TMC3    C5 4881   1.574   3.920  13.824 -0.1219 -0.2344  0.0044
  325TMC3    C6 4882   1.562   3.799  13.761  0.0539  0.1871 -0.1087
  325TMC3     C 4883   1.938   3.954  13.822 -0.3335  0.1201  0.9465
  325TMC3     O 4884   1.959   4.042  13.908  0.0009 -0.4526  1.3264
  325TMC3     H 4885   1.889   3.718  13.730 -1.6154 -2.4181 -0.9469
  325TMC3    H1 4886   1.716   4.083  13.856 -1.3576 -0.1089 -0.4296
  325TMC3    H2 4887   1.463   3.776  13.723 -0.2153  0.2964  0.5222
  325TMC3    C7 4888   1.447   3.995  13.834  0.6271  0.1868  0.0367
  325TMC3    C8 4889   1.662   3.607  13.656 -0.5501  0.9247 -0.0012
  325TMC3    O1 4890   1.340   3.943  13.806 -0.6629 -0.2695  0.8400
  325TMC3    O2 4891   1.763   3.594  13.586  0.3100 -0.1782 -0.1398
  326MPD2     C 4892   3.716   4.496  10.844 -0.0976 -0.2558  0.3268
  326MPD2    C1 4893   3.716   4.545  10.719  0.6234  0.5451 -0.6285
  326MPD2    C2 4894   3.806   4.650  10.689  0.3819 -0.9081 -0.0329
  326MPD2    C3 4895   3.888   4.713  10.783 -0.0748  0.2492 -0.8778
  326MPD2    C4 4896   3.888   4.660  10.908  0.6694  0.3194 -0.6106
  326MPD2    C5 4897   3.796   4.561  10.941  0.2891 -0.3109  0.0185
  326MPD2     H 4898   3.808   4.688  10.587  1.1422 -1.1065 -0.0916
  326MPD2    H1 4899   3.940   4.701  10.994 -0.8754 -1.0508  0.9661
  326MPD2    H2 4900   3.661   4.405  10.869  0.1192 -0.1141  1.3147
  326MPD2    H3 4901   3.808   4.524  11.042 -0.1839 -0.2751  0.0887
  326MPD2     N 4902   3.977   0.100  10.750 -0.4432 -0.1770  0.3221
  326MPD2    H5 4903   4.029   0.145  10.824  1.4064 -1.5020 -0.1719
  326MPD2    N1 4904   3.635   4.495  10.614  0.4059 -0.4557  0.2398
  326MPD2    H7 4905   3.636   4.547  10.527 -1.7142 -0.4139  0.2509
  327TMC3    C1 4906   3.525   4.347  10.477 -0.2397 -0.1471 -0.0236
  327TMC3    C2 4907   3.477   4.448  10.405 -0.4488  0.2394 -0.2309
  327TMC3    C3 4908   3.504   4.463  10.274 -0.6874 -0.3621 -0.9048
  327TMC3    C4 4909   3.606   4.256  10.416 -0.6331 -0.5202  0.2964
  327TMC3    C5 4910   3.656   4.284  10.283 -0.3217  0.8324 -0.4889
  327TMC3    C6 4911   3.593   4.383  10.208  0.4925 -0.3035  0.7408
  327TMC3     C 4912   3.565   4.377  10.613  0.7136 -0.0653  0.5761
  327TMC3     O 4913   3.557   4.283  10.694 -0.0714  0.3342 -0.0971
  327TMC3     H 4914   3.440   4.536  10.457  0.1111 -0.7773  1.9070
  327TMC3    H1 4915   3.636   4.168  10.471 -0.8301 -0.8046 -0.0528
  327TMC3    H2 4916   3.619   4.418  10.108 -0.4684 -2.9683 -0.4524
  327TMC3    C7 4917   3.796   4.277  10.256  0.5339 -0.0840 -0.7624
  327TMC3    C8 4918   3.498   4.596  10.223 -0.2551 -0.1297 -0.3884
  327TMC3    O1 4919   3.829   4.352  10.161 -0.6812 -0.0392 -0.3217
  327TMC3    O2 4920   3.585   4.624  10.141  0.2555  0.4536  0.1472
  328MPD2     C 4921   0.753   0.002  16.908 -1.1586 -0.0153  0.3291
  328MPD2    C1 4922   0.692   4.700  16.781 -0.8000 -0.2057 -0.3755
  328MPD2    C2 4923   0.649   0.086  16.703 -0.2449 -0.0386  0.5683
  328MPD2    C3 4924   0.670   0.213  16.750  0.4586  0.3892 -0.1010
  328MPD2    C4 4925   0.741   0.235  16.865 -0.4243 -0.4682 -0.6130
  328MPD2    C5 4926   0.774   0.129  16.947 -0.1025  0.6440  0.1480
  328MPD2     H 4927   0.598   0.056  16.612  2.8387 -2.2003 -0.4563
  328MPD2    H1 4928   0.762   0.335  16.899 -0.0113 -1.2210  1.3013
  328MPD2    H2 4929   0.786   4.649  16.980 -0.3088 -0.7251 -0.7937
  328MPD2    H3 4930   0.831   0.143  17.038 -1.1471 -0.5207  0.9775
  328MPD2     N 4931   0.610   0.320  16.688  0.5347  0.1248  0.5052
  328MPD2    H5 4932   0.635   0.413  16.721  0.8588  0.6553 -1.2382
  328MPD2    N1 4933   0.682   4.567  16.745  0.2695  0.5003  0.2019
  328MPD2    H7 4934   0.696   4.504  16.824 -0.1492 -1.4728 -1.3024
  329TMC3    C1 4935   0.623   4.379  16.608  0.2098  0.8176 -0.4216
  329TMC3    C2 4936   0.530   4.349  16.507  0.7435 -0.8694 -0.6247
  329TMC3    C3 4937   0.436   4.256  16.524 -0.3126 -0.9535  0.1857
  329TMC3    C4 4938   0.640   4.303  16.716 -0.6472  0.5342 -0.0884
  329TMC3    C5 4939   0.551   4.198  16.729  0.0164  0.7756  0.2040
  329TMC3    C6 4940   0.450   4.177  16.645 -0.0229  0.4388 -0.3754
  329TMC3     C 4941   0.647   4.526  16.618 -0.2878 -0.2206  0.2384
  329TMC3     O 4942   0.621   4.589  16.512  0.0321 -0.3742 -0.3732
  329TMC3     H 4943   0.525   4.417  16.423 -0.7354 -2.1139 -1.5385
  329TMC3    H1 4944   0.733   4.312  16.770 -1.0224  2.3866  0.2505
  329TMC3    H2 4945   0.371   4.103  16.654  1.1813 -0.6641  1.1700
  329TMC3    C7 4946   0.547   4.134  16.860  0.8782 -0.5586 -0.0059
  329TMC3    C8 4947   0.312   4.277  16.459  0.3925 -0.2122 -0.6499
  329TMC3    O1 4948   0.651   4.136  16.923  0.4938 -0.1305  0.0195
  329TMC3    O2 4949   0.324   4.298  16.336  0.1522  0.1722 -0.3181
  330TMC3    C1 4950   0.008   4.089   9.470 -0.6090  0.2810  0.4134
  330TMC3    C2 4951   4.652   4.024   9.375  0.1006 -0.5994 -0.0812
  330TMC3    C3 4952   4.640   3.885   9.391  0.5998  0.7448  0.1339
  330TMC3    C4 4953   0.064   4.024   9.572  0.6002 -0.5338  0.3545
  330TMC3    C5 4954   0.055   3.890   9.573  0.8420  0.3630 -0.1785
  330TMC3    C6 4955   4.709   3.813   9.484  0.7332  0.1066 -0.2462
  330TMC3     C 4956   4.721   4.232   9.485 -0.0516 -0.2870  0.5517
  330TMC3     O 4957   0.025   4.274   9.598 -0.8315 -0.1829  0.2992
  330TMC3     H 4958   4.605   4.077   9.292  0.5728  0.1324  0.1245
  330TMC3    H1 4959   0.115   4.087   9.643  0.7800  1.4539 -1.5395
  330TMC3    H2 4960   4.706   3.705   9.488 -1.1609  0.1596 -0.5891
  330TMC3    C7 4961   0.101   3.837   9.697 -0.0277  0.2059  0.4595
  330TMC3    C8 4962   4.596   3.817   9.276  0.0036  0.0450 -0.3534
  330TMC3    O1 4963   0.185   3.903   9.756  0.1028 -0.2915  0.2539
  330TMC3    O2 4964   4.619   3.874   9.170  0.3659 -0.0231 -0.7907
  331MPD2     C 4965   1.652   2.909  12.332 -0.2899 -0.4236  1.0238
  331MPD2    C1 4966   1.778   2.951  12.341  0.1920 -1.0549  0.0924
  331MPD2    C2 4967   1.876   2.864  12.315 -0.2378  0.0261  0.0122
  331MPD2    C3 4968   1.853   2.728  12.290 -0.3715  0.4805 -0.5267
  331MPD2    C4 4969   1.727   2.683  12.298  0.4161 -0.3282  0.2021
  331MPD2    C5 4970   1.626   2.774  12.314 -0.2777  0.2392 -0.5369
  331MPD2     H 4971   1.976   2.905  12.302  0.0406 -0.2932  1.1773
  331MPD2    H1 4972   1.695   2.580  12.288 -0.3189 -0.3033  2.2894
  331MPD2    H2 4973   1.569   2.979  12.335  1.0703  1.2747 -0.6024
  331MPD2    H3 4974   1.524   2.738  12.317 -0.8742  2.0448  1.2524
  331MPD2     N 4975   1.968   2.646  12.257 -0.3470 -0.5313  0.0883
  331MPD2    H5 4976   2.058   2.692  12.260 -0.7922  0.2540  1.3483
  331MPD2    N1 4977   1.794   3.089  12.355  0.0932  0.2572 -0.0799
  331MPD2    H7 4978   1.716   3.153  12.345  0.8058  0.8958 -1.4879
  332TMC3    C1 4979   2.090   2.469  12.160  1.0061 -0.1792 -0.1510
  332TMC3    C2 4980   2.170   2.556  12.101  0.3299 -0.2160 -0.5409
  332TMC3    C3 4981   2.306   2.536  12.094 -0.0606  0.3716  0.8027
  332TMC3    C4 4982   2.140   2.351  12.202 -0.0934  0.0877  0.4547
  332TMC3    C5 4983   2.273   2.330  12.187  0.3041 -0.0744 -0.7100
  332TMC3    C6 4984   2.354   2.421  12.135 -0.5167 -0.0080  0.0857
  332TMC3     C 4985   1.963   2.512  12.221 -0.3274  0.1741  0.1700
  332TMC3     O 4986   1.875   2.430  12.228  0.5871  0.5323 -0.5048
  332TMC3     H 4987   2.124   2.649  12.067  1.3918 -0.0440 -1.5214
  332TMC3    H1 4988   2.071   2.277  12.239  1.4846 -2.9850 -2.7110
  332TMC3    H2 4989   2.453   2.394  12.100 -0.4711 -0.8914  0.8871
  332TMC3    C7 4990   2.328   2.257  12.297  0.3120 -0.6084 -0.6392
  332TMC3    C8 4991   2.400   2.611  12.013  0.1100  0.1679 -0.5460
  332TMC3    O1 4992   2.281   2.148  12.329 -0.4485 -0.5665  0.1948
  332TMC3    O2 4993   2.518   2.584  12.019 -0.1837  0.3478 -0.5288
  333MPD2     C 4994   2.299   3.291  11.069 -0.5819  0.2800 -0.4007
  333MPD2    C1 4995   2.414   3.229  11.099 -0.3585 -0.4200  0.5838
  333MPD2    C2 4996   2.412   3.114  11.172 -0.1022 -0.7234  0.0736
  333MPD2    C3 4997   2.295   3.068  11.229  0.0570  0.0603  0.3109
  333MPD2    C4 4998   2.176   3.131  11.197  0.0310  0.6070 -0.1945
  333MPD2    C5 4999   2.185   3.244  11.123 -0.2074 -0.0065  0.1359
  333MPD2     H 5000   2.502   3.061  11.201 -0.6143 -2.5074 -1.5612
  333MPD2    H1 5001   2.077   3.105  11.235 -1.2166  1.9166 -2.5663
  333MPD2    H2 5002   2.291   3.381  11.009  0.9270  1.1917  0.7826
  333MPD2    H3 5003   2.091   3.297  11.115 -0.2478 -0.2970 -1.3943
  333MPD2     N 5004   2.307   2.946  11.299  0.3976 -0.3376  0.1375
  333MPD2    H5 5005   2.392   2.892  11.288  0.7147  0.1159  0.3588
  333MPD2    N1 5006   2.536   3.289  11.048 -0.2154  0.5756  0.0307
  333MPD2    H7 5007   2.524   3.358  10.975 -0.3553  0.1088 -0.3888
  334TMC3    C1 5008   2.768   3.309  11.008  0.0255  0.1470 -0.2745
  334TMC3    C2 5009   2.894   3.291  11.059  0.3888 -0.2570 -0.0871
  334TMC3    C3 5010   3.002   3.318  10.978 -0.4371  0.1004 -0.2172
  334TMC3    C4 5011   2.744   3.341  10.882 -0.5640  0.3523 -0.4752
  334TMC3    C5 5012   2.853   3.376  10.813 -0.3069 -0.3123  0.1180
  334TMC3    C6 5013   2.979   3.370  10.852 -0.0044 -0.3002  0.6023
  334TMC3     C 5014   2.657   3.269  11.099 -0.7574 -0.2990  0.5148
  334TMC3     O 5015   2.681   3.215  11.207 -0.6512 -0.2431 -0.3952
  334TMC3     H 5016   2.907   3.236  11.151 -0.1427 -1.7871 -0.9245
  334TMC3    H1 5017   2.647   3.371  10.843 -0.2971 -0.1694 -1.5260
  334TMC3    H2 5018   3.062   3.412  10.796 -0.5414  3.3324  2.5055
  334TMC3    C7 5019   2.845   3.415  10.670  0.6455  0.0903 -0.0661
  334TMC3    C8 5020   3.131   3.283  11.020 -0.7288 -0.3031 -0.3516
  334TMC3    O1 5021   2.941   3.461  10.614  0.2870  0.2303 -0.4777
  334TMC3    O2 5022   3.160   3.276  11.142  0.0236 -0.3145  0.5367
  335TMC3    C1 5023   1.147   4.713  17.243  0.3860  1.0677 -0.2063
  335TMC3    C2 5024   1.114   4.664  17.114 -0.4076 -0.5971  0.4233
  335TMC3    C3 5025   1.219   4.653  17.023  0.4189 -0.1243 -0.0107
  335TMC3    C4 5026   1.273   0.026  17.269 -0.1889 -0.5839  0.4773
  335TMC3    C5 5027   1.370   0.025  17.169 -0.4874 -0.6746  0.4043
  335TMC3    C6 5028   1.349   4.695  17.043 -0.1965 -0.7442  0.5039
  335TMC3     C 5029   1.053   4.684  17.355 -0.5224 -0.1504 -0.1582
  335TMC3     O 5030   0.935   4.676  17.331 -0.1808  0.2698  0.6256
  335TMC3     H 5031   1.013   4.633  17.089 -0.5839 -0.5707  1.1047
  335TMC3    H1 5032   1.294   0.090  17.354  0.8556  0.5283 -0.6276
  335TMC3    H2 5033   1.418   4.692  16.960 -0.3915  1.9846  0.2400
  335TMC3    C7 5034   1.512   0.065  17.192  0.1471 -0.2902 -0.4589
  335TMC3    C8 5035   1.195   4.598  16.895  0.0962 -0.2561 -0.8082
  335TMC3    O1 5036   1.587   0.085  17.096  0.5601  0.9282  0.3774
  335TMC3    O2 5037   1.267   4.621  16.797 -0.1007 -0.5200  0.7212
  336MPD2     C 5038   1.258   2.661  16.019 -0.1182 -0.4163  0.7183
  336MPD2    C1 5039   1.257   2.589  15.897 -0.5897 -0.3287  0.5042
  336MPD2    C2 5040   1.276   2.454  15.903 -0.1718  0.1540  0.3396
  336MPD2    C3 5041   1.315   2.383  16.020  0.0505  0.1360 -0.2514
  336MPD2    C4 5042   1.311   2.453  16.140 -0.3039  0.4816 -0.0755
  336MPD2    C5 5043   1.281   2.587  16.134 -0.3622 -0.1543  0.0517
  336MPD2     H 5044   1.279   2.398  15.810  1.0571 -1.3341  1.2708
  336MPD2    H1 5045   1.339   2.410  16.235  0.7401 -1.1804 -1.1208
  336MPD2    H2 5046   1.238   2.766  16.032  0.4881  0.1030 -2.5358
  336MPD2    H3 5047   1.275   2.645  16.226 -0.1939 -0.3522  0.1865
  336MPD2     N 5048   1.332   2.242  16.014  0.6370  0.9288 -0.4526
  336MPD2    H5 5049   1.333   2.199  16.106  4.1144  1.0365 -0.4428
  336MPD2    N1 5050   1.223   2.649  15.776 -0.0617  0.6253  0.1557
  336MPD2    H7 5051   1.225   2.598  15.688  1.6647  2.0937 -0.6600
  337TMC3    C1 5052   1.174   2.838  15.634 -0.1860 -0.7017  0.1175
  337TMC3    C2 5053   1.065   2.764  15.589  0.1538  0.1392 -0.2878
  337TMC3    C3 5054   0.997   2.823  15.494  0.3011 -0.0320 -0.4368
  337TMC3    C4 5055   1.214   2.952  15.590  0.3201 -0.0580  0.0667
  337TMC3    C5 5056   1.136   3.016  15.496  0.7783 -0.4531  0.2558
  337TMC3    C6 5057   1.036   2.944  15.440  0.7983 -0.1581  0.1313
  337TMC3     C 5058   1.223   2.787  15.761 -0.0952 -0.7429  0.0566
  337TMC3     O 5059   1.291   2.870  15.821 -0.0909  0.5073  0.0499
  337TMC3     H 5060   1.037   2.667  15.629 -1.2759  1.0305  0.8725
  337TMC3    H1 5061   1.307   2.994  15.626 -0.2557  1.9023 -0.7180
  337TMC3    H2 5062   0.976   2.996  15.366 -0.0490  0.7084  1.4254
  337TMC3    C7 5063   1.180   3.135  15.430 -0.4185 -0.1132 -0.5575
  337TMC3    C8 5064   0.862   2.789  15.472 -0.1604  0.2077  0.9433
  337TMC3    O1 5065   1.116   3.170  15.334 -0.8320 -0.5370 -0.2261
  337TMC3    O2 5066   0.803   2.734  15.568 -0.2684 -0.2036 -0.5504
  338MPD2     C 5067   1.287   1.662   0.708 -0.5130  0.1162  0.6541
  338MPD2    C1 5068   1.340   1.762   0.632  0.0151  0.4861 -0.3832
  338MPD2    C2 5069   1.358   1.886   0.683 -0.1947 -0.4705  0.7039
  338MPD2    C3 5070   1.330   1.908   0.821 -0.3566  0.4276  0.6463
  338MPD2    C4 5071   1.273   1.810   0.898  0.1700 -0.7003 -0.6056
  338MPD2    C5 5072   1.245   1.689   0.833 -0.5249 -0.8498  0.2891
  338MPD2     H 5073   1.411   1.967   0.634 -2.4359  1.4016  1.3774
  338MPD2    H1 5074   1.241   1.827   1.000  1.5230  1.4214 -0.5232
  338MPD2    H2 5075   1.262   1.569   0.659 -1.0122 -0.7096  2.4936
  338MPD2    H3 5076   1.214   1.602   0.890 -0.5209 -0.9952  0.0706
  338MPD2     N 5077   1.368   2.025   0.893 -0.0274  0.3430  0.5283
  338MPD2    H5 5078   1.348   2.031   0.992 -0.2832  0.3807  0.4759
  338MPD2    N1 5079   1.383   1.734   0.502 -0.2338  0.5400  0.1863
  338MPD2    H7 5080   1.395   1.809   0.435 -0.0104  0.3971  0.0616
  339TMC3    C1 5081   1.468   2.234   0.944  0.1501  0.0479 -0.4603
  339TMC3    C2 5082   1.526   2.183   1.054  0.1867  0.1860 -0.1804
  339TMC3    C3 5083   1.539   2.265   1.162 -0.0512 -0.3989  0.4327
  339TMC3    C4 5084   1.436   2.366   0.936 -0.7889 -0.1459  0.1763
  339TMC3    C5 5085   1.455   2.445   1.047  0.0301 -0.3485 -0.0287
  339TMC3    C6 5086   1.501   2.394   1.164 -0.0246  0.7289  0.1082
  339TMC3     C 5087   1.416   2.142   0.841  0.3716  0.1970  0.2650
  339TMC3     O 5088   1.441   2.175   0.726  0.9462  0.5930  0.2355
  339TMC3     H 5089   1.576   2.087   1.047 -2.1063 -0.8496 -2.3158
  339TMC3    H1 5090   1.399   2.418   0.848 -1.3566  2.0895  1.7249
  339TMC3    H2 5091   1.505   2.449   1.258  1.1124 -0.7302  0.9271
  339TMC3    C7 5092   1.435   2.586   1.036  0.1648  0.3313  0.1441
  339TMC3    C8 5093   1.611   2.221   1.287 -0.7397 -0.1803  0.9004
  339TMC3    O1 5094   1.368   2.634   0.948 -0.1114  0.0614  0.3686
  339TMC3    O2 5095   1.659   2.311   1.355 -0.4224  0.1906  0.5464
  340MPD2     C 5096   2.911   0.338   9.253 -0.4877 -0.1414  0.1477
  340MPD2    C1 5097   3.039   0.335   9.289 -0.2978 -0.1684  0.0478
  340MPD2    C2 5098   3.075   0.315   9.418  0.2976 -0.4600 -0.7298
  340MPD2    C3 5099   2.981   0.295   9.516  0.0560 -0.5544 -0.0358
  340MPD2    C4 5100   2.853   0.294   9.479 -1.0318  0.3595  0.3571
  340MPD2    C5 5101   2.816   0.321   9.346 -0.2188 -0.8055 -0.0075
  340MPD2     H 5102   3.178   0.302   9.447  0.7359 -0.9458 -2.5374
  340MPD2    H1 5103   2.771   0.267   9.544 -0.9420  0.6825  0.6011
  340MPD2    H2 5104   2.886   0.362   9.151 -0.3672 -0.3067  0.0778
  340MPD2    H3 5105   2.710   0.326   9.327  0.1440  0.6421 -1.6577
  340MPD2     N 5106   3.009   0.269   9.648  0.7553  0.5472 -0.4325
  340MPD2    H5 5107   2.939   0.228   9.709 -0.7382  1.7266 -1.3671
  340MPD2    N1 5108   3.130   0.345   9.186 -0.4428 -0.5006  0.5907
  340MPD2    H7 5109   3.094   0.369   9.094  1.0821 -2.8514 -0.6503
  341TMC3    C1 5110   3.332   0.243   9.101  0.2796 -1.0243  0.7877
  341TMC3    C2 5111   3.238   0.167   9.032  0.1196 -0.0015 -0.7339
  341TMC3    C3 5112   3.265   0.039   9.013  0.1420 -0.2097 -0.2905
  341TMC3    C4 5113   3.452   0.195   9.138  0.3628 -0.2571  0.4371
  341TMC3    C5 5114   3.478   0.064   9.119  0.6129 -0.1047 -0.2446
  341TMC3    C6 5115   3.383   4.706   9.068  0.3418 -0.2201 -0.5734
  341TMC3     C 5116   3.264   0.308   9.207  0.1961 -0.0839  1.0313
  341TMC3     O 5117   3.333   0.328   9.304 -0.6156  0.0618 -0.2474
  341TMC3     H 5118   3.146   0.211   8.998 -1.8360 -2.3750  1.5073
  341TMC3    H1 5119   3.515   0.269   9.186 -0.2807  0.9028 -0.4897
  341TMC3    H2 5120   3.403   4.600   9.067  0.3914 -0.2213  0.6444
  341TMC3    C7 5121   3.611   0.006   9.118  0.5315  0.1056  0.6478
  341TMC3    C8 5122   3.168   4.664   8.957  0.2518  0.8021 -0.2760
  341TMC3    O1 5123   3.619   4.607   9.095 -0.3877  0.5925 -0.1166
  341TMC3    O2 5124   3.168   4.548   8.990 -0.1496  0.2063  0.0631
  342MPD2     C 5125   3.969   2.813  16.501  0.2944  0.7509  0.0626
  342MPD2    C1 5126   3.991   2.818  16.635  0.3156  0.3166  0.6644
  342MPD2    C2 5127   3.954   2.929  16.701 -0.4413  0.3499 -0.3914
  342MPD2    C3 5128   3.915   3.042  16.628  0.4939  0.3912 -0.1732
  342MPD2    C4 5129   3.899   3.039  16.496  0.0868 -0.2730 -0.3153
  342MPD2    C5 5130   3.928   2.925  16.431 -0.1619 -0.1923 -0.3116
  342MPD2     H 5131   3.988   2.934  16.803  0.8844 -0.4366 -0.7982
  342MPD2    H1 5132   3.873   3.127  16.438  0.8749  0.2292  0.0894
  342MPD2    H2 5133   3.993   2.724  16.444 -2.3220  1.3610 -2.0321
  342MPD2    H3 5134   3.915   2.929  16.324  1.6417 -1.5672 -0.5799
  342MPD2     N 5135   3.892   3.168  16.685  0.0241 -0.0862 -0.1880
  342MPD2    H5 5136   3.877   3.246  16.621  3.0601 -0.3046 -1.1634
  342MPD2    N1 5137   4.059   2.718  16.709  0.2152 -0.2882 -0.4370
  342MPD2    H7 5138   4.063   2.742  16.808  0.7820  1.0661 -0.7897
  343TMC3    C1 5139   4.203   2.546  16.753  0.6653 -1.2426  0.0139
  343TMC3    C2 5140   4.342   2.546  16.741 -0.2532 -0.0053  0.2913
  343TMC3    C3 5141   4.422   2.538  16.854  0.4002  0.3579  0.9571
  343TMC3    C4 5142   4.150   2.542  16.879 -0.8286 -0.4556 -0.7656
  343TMC3    C5 5143   4.228   2.534  16.990 -0.2584 -0.0163 -0.1836
  343TMC3    C6 5144   4.366   2.534  16.980 -0.1415 -0.1647  0.1142
  343TMC3     C 5145   4.130   2.619  16.651  0.0964 -0.4616  0.4562
  343TMC3     O 5146   4.165   2.607  16.533  0.2864  0.5999  0.4295
  343TMC3     H 5147   4.384   2.572  16.644 -3.0864  0.7362 -0.7354
  343TMC3    H1 5148   4.045   2.545  16.905 -0.6957 -0.5230 -0.2145
  343TMC3    H2 5149   4.431   2.540  17.066  0.4942 -0.3346 -0.3512
  343TMC3    C7 5150   4.173   2.463  17.106 -0.3564  0.5023 -0.4349
  343TMC3    C8 5151   4.562   2.557  16.840 -0.3850  0.3799  0.2664
  343TMC3    O1 5152   4.078   2.391  17.083  0.4959 -0.0542 -0.4982
  343TMC3    O2 5153   4.630   2.585  16.938  0.3083  0.1205  0.1077
  344MPD2     C 5154   1.281   2.464  10.466 -0.1681  0.1866  0.1737
  344MPD2    C1 5155   1.232   2.410  10.351  0.1734  0.0916  0.0741
  344MPD2    C2 5156   1.282   2.453  10.225  0.1575 -0.0963 -0.2292
  344MPD2    C3 5157   1.390   2.545  10.220 -0.0824  0.1969 -0.0535
  344MPD2    C4 5158   1.448   2.587  10.340 -0.0734 -0.0537 -0.3308
  344MPD2    C5 5159   1.387   2.548  10.458 -0.6607  0.1469  0.4947
  344MPD2     H 5160   1.238   2.408  10.136 -1.3633  1.5011 -0.2948
  344MPD2    H1 5161   1.536   2.649  10.351 -1.4682  1.5511  1.7164
  344MPD2    H2 5162   1.243   2.443  10.565 -0.2394  2.2765  0.5859
  344MPD2    H3 5163   1.445   2.583  10.542  2.4806  0.6175 -1.8821
  344MPD2     N 5164   1.443   2.592  10.100 -0.1324 -0.4745 -0.0520
  344MPD2    H5 5165   1.520   2.658  10.109 -0.3906 -0.3335  1.1082
  344MPD2    N1 5166   1.129   2.310  10.354  0.0087  0.5198 -0.2983
  344MPD2    H7 5167   1.106   2.275  10.261 -2.8034 -0.8796  0.9378
  345TMC3    C1 5168   1.451   2.637   9.870 -0.1352 -0.1122  0.2123
  345TMC3    C2 5169   1.586   2.655   9.882  0.3516  0.1807  0.2464
  345TMC3    C3 5170   1.634   2.760   9.806  0.2809 -0.4643 -0.2219
  345TMC3    C4 5171   1.366   2.713   9.793  0.0825  0.1674 -0.2055
  345TMC3    C5 5172   1.422   2.817   9.737 -0.2051 -0.1478 -0.5143
  345TMC3    C6 5173   1.555   2.835   9.730 -0.5227 -0.2428  0.0296
  345TMC3     C 5174   1.392   2.564   9.974  0.5111  0.2764 -0.0179
  345TMC3     O 5175   1.298   2.490   9.943 -0.4945  0.1978  0.2082
  345TMC3     H 5176   1.661   2.598   9.937 -1.0805  0.4039  2.4651
  345TMC3    H1 5177   1.259   2.712   9.808  0.7271 -0.3833  4.2409
  345TMC3    H2 5178   1.598   2.927   9.693 -0.6576  0.8175  2.5181
  345TMC3    C7 5179   1.340   2.921   9.681  0.3051  0.0201 -0.5731
  345TMC3    C8 5180   1.766   2.814   9.855 -0.8722 -0.1569  0.1547
  345TMC3    O1 5181   1.389   3.034   9.695 -0.4288  0.4463  0.5490
  345TMC3    O2 5182   1.808   2.778   9.965 -0.0335 -0.3821 -0.5132
  346MPD2     C 5183   0.479   4.403  14.448  0.2709  0.0567  0.0203
  346MPD2    C1 5184   0.554   4.414  14.331  0.0283  0.1155 -0.1714
  346MPD2    C2 5185   0.680   4.481  14.336 -0.4217  0.4444  0.0818
  346MPD2    C3 5186   0.743   4.508  14.457 -0.4784 -0.0682  0.1737
  346MPD2    C4 5187   0.674   4.475  14.570 -0.7141 -0.2096  0.3958
  346MPD2    C5 5188   0.539   4.442  14.567  0.6692 -0.0951  0.3679
  346MPD2     H 5189   0.732   4.492  14.242  0.3988 -0.9440  0.3742
  346MPD2    H1 5190   0.720   4.486  14.667  0.5196  2.0721 -0.4320
  346MPD2    H2 5191   0.380   4.360  14.450 -0.2488  1.3871  2.0054
  346MPD2    H3 5192   0.483   4.428  14.659 -0.5222  1.1273 -0.1817
  346MPD2     N 5193   0.879   4.545  14.452  0.0985  0.5056 -0.3133
  346MPD2    H5 5194   0.924   4.543  14.361  2.0931  1.3049  0.6637
  346MPD2    N1 5195   0.493   4.383  14.205  0.4355  0.1338 -0.0384
  346MPD2    H7 5196   0.539   4.420  14.122 -0.6678  1.6050 -0.0020
  347TMC3    C1 5197   1.103   4.563  14.531  0.0966  0.5718 -0.0381
  347TMC3    C2 5198   1.148   4.486  14.425  0.7742  0.4436 -0.4938
  347TMC3    C3 5199   1.284   4.501  14.400  0.2329 -0.1079  0.1118
  347TMC3    C4 5200   1.186   4.636  14.611  0.4362 -0.6141  0.2537
  347TMC3    C5 5201   1.319   4.635  14.583 -0.4953  0.1808  0.2198
  347TMC3    C6 5202   1.372   4.570  14.481 -0.3438  0.1439 -0.5535
  347TMC3     C 5203   0.960   4.565  14.565  0.2986 -0.1556  0.2025
  347TMC3     O 5204   0.930   4.585  14.682 -0.5901 -0.2931 -0.0315
  347TMC3     H 5205   1.092   4.413  14.368  0.7489 -1.5008  2.0415
  347TMC3    H1 5206   1.140   4.701  14.684  1.5343  1.4626 -0.9134
  347TMC3    H2 5207   1.476   4.574  14.449 -0.2866 -1.9434 -0.6713
  347TMC3    C7 5208   1.371   0.047  14.591  0.7604  0.3030  0.1919
  347TMC3    C8 5209   1.340   4.441  14.285  0.6940 -0.6473 -1.0707
  347TMC3    O1 5210   1.284   0.131  14.602 -0.1250  0.5565  0.1388
  347TMC3    O2 5211   1.462   4.425  14.277  0.3129  0.1086 -0.3175
  348MPD2     C 5212   4.520   3.874  11.614 -0.8591  0.4643  0.5101
  348MPD2    C1 5213   4.600   3.985  11.639 -0.8578 -0.1656  0.3997
  348MPD2    C2 5214   4.622   4.076  11.546 -0.5294  0.4006  0.0273
  348MPD2    C3 5215   4.563   4.066  11.421  0.1851  0.0776 -0.9299
  348MPD2    C4 5216   4.478   3.963  11.404 -0.0152  0.0450  0.2696
  348MPD2    C5 5217   4.454   3.866  11.501  0.0360  0.0348  0.5348
  348MPD2     H 5218   4.684   4.158  11.581  0.6766 -0.5173  0.0291
  348MPD2    H1 5219   4.424   3.955  11.310  0.4359 -0.8849  0.0918
  348MPD2    H2 5220   4.509   3.785  11.675 -1.5016 -0.3704 -0.8217
  348MPD2    H3 5221   4.390   3.781  11.478  0.8021 -0.1910 -0.7733
  348MPD2     N 5222   4.593   4.156  11.317  0.0632  0.0625 -0.2632
  348MPD2    H5 5223   4.538   4.150  11.232 -1.3860 -0.3330  0.7143
  348MPD2    N1 5224   4.677   3.998  11.762  0.0622 -0.0292  0.1525
  348MPD2    H7 5225   4.713   4.088  11.793  0.0925  0.2200 -0.5890
  349TMC3    C1 5226   0.067   3.928  11.952 -0.1817 -0.1280 -0.2603
  349TMC3    C2 5227   0.082   3.821  12.036  0.5960 -0.3544 -0.0913
  349TMC3    C3 5228   0.197   3.752  12.036  0.6283 -0.1048 -0.3832
  349TMC3    C4 5229   0.182   3.970  11.886  0.0887 -0.0695  0.4159
  349TMC3    C5 5230   0.302   3.907  11.895  0.1907  0.0104 -0.6795
  349TMC3    C6 5231   0.312   3.802  11.979  0.5577 -0.0757 -0.5750
  349TMC3     C 5232   4.695   3.896  11.855  0.7052  0.1065  0.2444
  349TMC3     O 5233   4.673   3.774  11.843  0.0829  0.4541  0.0802
  349TMC3     H 5234   4.711   3.785  12.080  0.7647 -1.7001 -0.8458
  349TMC3    H1 5235   0.182   4.051  11.815 -0.7488  0.4368  0.9874
  349TMC3    H2 5236   0.402   3.743  11.979  1.1653  0.8585  0.2513
  349TMC3    C7 5237   0.337   3.862  11.764  0.1068 -0.5744  0.1043
  349TMC3    C8 5238   0.192   3.608  12.048 -0.0341 -0.3049  0.1481
  349TMC3    O1 5239   0.332   3.743  11.741 -0.1926  0.9853 -0.1458
  349TMC3    O2 5240   0.295   3.540  12.055 -0.6864 -0.8188  0.2743
  350MPD2     C 5241   3.899   1.505  10.232 -0.3334  0.2500 -0.3442
  350MPD2    C1 5242   3.791   1.412  10.222 -0.3392  0.3731  0.1461
  350MPD2    C2 5243   3.673   1.448  10.288 -0.1259 -0.0903 -0.1434
  350MPD2    C3 5244   3.666   1.555  10.374 -0.1898  0.6844  1.3051
  350MPD2    C4 5245   3.776   1.638  10.383 -0.1824  0.3589  0.5582
  350MPD2    C5 5246   3.884   1.615  10.309 -0.2484  0.3599  0.5288
  350MPD2     H 5247   3.587   1.383  10.278  1.0382 -1.5447 -0.7397
  350MPD2    H1 5248   3.788   1.723  10.449 -2.0036 -1.2842  3.0094
  350MPD2    H2 5249   3.991   1.495  10.176  0.8121 -0.0737  1.6057
  350MPD2    H3 5250   3.976   1.669  10.331  0.6116 -1.0493  0.4066
  350MPD2     N 5251   3.550   1.572  10.454  0.0497  0.6049 -0.2386
  350MPD2    H5 5252   3.473   1.508  10.435 -1.0479  1.1944  2.2072
  350MPD2    N1 5253   3.781   1.306  10.129 -0.6467 -0.0989  0.2550
  350MPD2    H7 5254   3.690   1.263  10.118  0.3981 -2.6458  1.5735
  351TMC3    C1 5255   3.844   1.144   9.952 -0.0110  0.0978  0.1071
  351TMC3    C2 5256   3.937   1.105   9.859 -0.1778  0.1552 -0.4924
  351TMC3    C3 5257   3.898   1.007   9.768 -0.2945  0.0864 -0.0381
  351TMC3    C4 5258   3.719   1.085   9.952  0.2954  0.1195 -0.2036
  351TMC3    C5 5259   3.682   0.993   9.856 -0.5177 -0.1024  0.2531
  351TMC3    C6 5260   3.774   0.945   9.763  0.4963 -0.9151  0.5148
  351TMC3     C 5261   3.882   1.253  10.040 -0.0695  0.5308  0.9289
  351TMC3     O 5262   3.996   1.296  10.036  0.6232  0.6059 -0.3992
  351TMC3     H 5263   4.036   1.148   9.850 -0.3865  1.1273  1.9448
  351TMC3    H1 5264   3.655   1.099  10.038  2.0579 -0.1667  1.1525
  351TMC3    H2 5265   3.740   0.880   9.683 -1.5553 -0.9546  1.4215
  351TMC3    C7 5266   3.540   0.953   9.836 -0.3193  0.1845 -0.5124
  351TMC3    C8 5267   4.012   0.954   9.693  0.0223 -0.1455  0.1653
  351TMC3    O1 5268   3.522   0.850   9.773  0.1605  0.0348 -0.1675
  351TMC3    O2 5269   4.124   1.002   9.704  0.6281  0.1793  0.2314
  352MPD2     C 5270   1.903   4.314   0.952  0.3634  0.3464  0.0344
  352MPD2    C1 5271   1.763   4.290   0.961 -0.5539  0.0361  0.0753
  352MPD2    C2 5272   1.707   4.213   1.055 -0.3350 -0.8635 -0.2505
  352MPD2    C3 5273   1.790   4.169   1.161  0.4707 -0.0950  0.0131
  352MPD2    C4 5274   1.922   4.204   1.160 -0.4680  0.1316  0.2029
  352MPD2    C5 5275   1.980   4.276   1.057  0.3325  0.4296 -0.2358
  352MPD2     H 5276   1.601   4.193   1.060 -0.3332 -0.9873 -0.7551
  352MPD2    H1 5277   1.985   4.167   1.240  0.0583 -1.1122 -0.7849
  352MPD2    H2 5278   1.941   4.376   0.871  1.2530 -0.0840  0.1261
  352MPD2    H3 5279   2.085   4.294   1.040  1.0383 -2.3156  1.2070
  352MPD2     N 5280   1.752   4.090   1.266 -0.0506 -1.1421 -0.4321
  352MPD2    H5 5281   1.831   4.059   1.322 -0.1717  0.3176  0.5294
  352MPD2    N1 5282   1.689   4.336   0.854  0.0240  0.5812  0.0831
  352MPD2    H7 5283   1.747   4.375   0.780  0.9946 -0.7888  0.1305
  353TMC3    C1 5284   1.616   3.945   1.394 -0.0149 -0.1390  0.1234
  353TMC3    C2 5285   1.719   3.886   1.453  0.2135  0.7293 -0.2883
  353TMC3    C3 5286   1.716   3.766   1.510  0.2753 -0.1964 -0.6891
  353TMC3    C4 5287   1.491   3.893   1.404  0.5541 -0.0142  0.3070
  353TMC3    C5 5288   1.479   3.769   1.469  0.4556 -0.1561 -0.7353
  353TMC3    C6 5289   1.590   3.696   1.516 -0.2817 -0.4348 -0.5594
  353TMC3     C 5290   1.626   4.032   1.283 -0.6485 -0.2558 -0.4408
  353TMC3     O 5291   1.525   4.047   1.214 -0.6689 -0.1869 -0.7591
  353TMC3     H 5292   1.813   3.939   1.454  0.8428 -0.4686  1.8778
  353TMC3    H1 5293   1.400   3.946   1.379  0.4965 -0.5706 -0.6876
  353TMC3    H2 5294   1.577   3.611   1.582  0.1215 -0.5334 -0.6027
  353TMC3    C7 5295   1.396   3.681   1.395  0.4650 -0.1451 -0.3733
  353TMC3    C8 5296   1.831   3.716   1.582 -0.4978 -0.1725  0.1407
  353TMC3    O1 5297   1.392   3.565   1.435  0.3631 -0.1484  0.6471
  353TMC3    O2 5298   1.919   3.785   1.627 -0.3448 -0.0282  0.7502
  354TMC3    C1 5299   3.085   0.194  13.099 -0.0499 -0.3602  0.1507
  354TMC3    C2 5300   3.121   0.323  13.053 -0.4159  0.5761  0.3505
  354TMC3    C3 5301   3.255   0.348  13.055  0.6815 -0.2290 -0.1174
  354TMC3    C4 5302   3.178   0.099  13.134  0.6666 -0.1145  0.4664
  354TMC3    C5 5303   3.312   0.138  13.125  0.6352 -0.1084 -0.0019
  354TMC3    C6 5304   3.356   0.261  13.086 -0.1017 -0.2587  0.1994
  354TMC3     C 5305   2.946   0.152  13.109 -0.2125  0.0796  0.1265
  354TMC3     O 5306   2.931   0.049  13.175 -0.1128  0.1333  0.4753
  354TMC3     H 5307   3.050   0.402  13.036 -2.7967 -1.6550 -0.0885
  354TMC3    H1 5308   3.145   4.718  13.151 -1.1602  0.6222  1.2847
  354TMC3    H2 5309   3.455   0.304  13.093 -0.3991  0.2234  1.3546
  354TMC3    C7 5310   3.406   0.034  13.159  0.0093  0.0404  1.0831
  354TMC3    C8 5311   3.300   0.471  12.997  0.4067 -0.5810  0.0512
  354TMC3    O1 5312   3.376   4.665  13.234  0.3903 -0.4066 -0.3010
  354TMC3    O2 5313   3.406   0.474  12.931  0.0452 -0.6725 -0.5439
  355MPD2     C 5314   4.107   0.817  11.821 -0.3756 -0.4987  0.1624
  355MPD2    C1 5315   4.139   0.861  11.698 -0.5167  0.2364  0.1282
  355MPD2    C2 5316   4.274   0.850  11.657 -0.1619  0.0739 -0.2437
  355MPD2    C3 5317   4.366   0.783  11.733  0.1976  0.2572 -0.2712
  355MPD2    C4 5318   4.330   0.749  11.863  0.3079  0.0217  0.1456
  355MPD2    C5 5319   4.200   0.764  11.907 -0.4544 -0.0007 -0.1612
  355MPD2     H 5320   4.284   0.885  11.555  1.3418 -0.6588 -0.3455
  355MPD2    H1 5321   4.399   0.695  11.926 -0.5457  1.4008  2.2496
  355MPD2    H2 5322   4.006   0.817  11.863 -0.7679 -2.5092 -0.8125
  355MPD2    H3 5323   4.174   0.717  12.001 -2.0412  0.8542 -0.1725
  355MPD2     N 5324   4.497   0.786  11.696  0.6036 -0.2763  0.1830
  355MPD2    H5 5325   4.562   0.752  11.765  1.7435  0.8577 -0.3320
  355MPD2    N1 5326   4.040   0.904  11.612 -0.7869 -0.5460  0.8305
  355MPD2    H7 5327   3.954   0.935  11.657 -0.8291  2.2753 -1.1365
  356TMC3    C1 5328   4.671   0.911  11.593  0.5997 -0.8435 -0.0628
  356TMC3    C2 5329   0.022   0.942  11.481 -0.2860  0.0674 -0.1393
  356TMC3    C3 5330   0.108   1.044  11.499  0.2635  0.1134 -0.3543
  356TMC3    C4 5331   4.697   0.971  11.714 -0.0429  0.2823  0.3651
  356TMC3    C5 5332   0.076   1.069  11.727 -0.2258  0.1148  0.8380
  356TMC3    C6 5333   0.147   1.109  11.613  0.1811 -0.1010 -0.3608
  356TMC3     C 5334   4.539   0.841  11.578 -0.1505  0.2651  0.2764
  356TMC3     O 5335   4.483   0.854  11.470  0.1056 -0.2069 -0.1797
  356TMC3     H 5336   4.707   0.894  11.390 -1.0579  0.7046 -0.1731
  356TMC3    H1 5337   4.647   0.936  11.803  0.4313  0.1135  0.5622
  356TMC3    H2 5338   0.235   1.173  11.619 -0.1973  0.2485  1.5506
  356TMC3    C7 5339   0.072   1.148  11.847 -0.2283  0.6783 -0.3527
  356TMC3    C8 5340   0.165   1.093  11.382  0.4295 -0.2723  0.5773
  356TMC3    O1 5341   0.035   1.087  11.941  1.0545  0.1530 -0.2350
  356TMC3    O2 5342   0.173   1.006  11.299  0.6050 -0.5939 -0.6036
  357MPD2     C 5343   3.297   0.636   1.461  0.3779  0.2853 -0.8805
  357MPD2    C1 5344   3.396   0.551   1.520 -0.2474 -0.1285  0.3108
  357MPD2    C2 5345   3.352   0.462   1.620  0.2340 -0.5173  0.2590
  357MPD2    C3 5346   3.220   0.449   1.653  0.6824  0.5873  0.5082
  357MPD2    C4 5347   3.130   0.534   1.585 -0.4797  0.0180  0.2076
  357MPD2    C5 5348   3.168   0.628   1.495  0.2272  0.1714  0.0541
  357MPD2     H 5349   3.429   0.410   1.675 -1.1729  0.1523  2.8427
  357MPD2    H1 5350   3.023   0.523   1.597 -0.5065 -0.5032 -0.5195
  357MPD2    H2 5351   3.314   0.707   1.382  1.3684  0.5070 -0.4692
  357MPD2    H3 5352   3.099   0.694   1.444  3.6108 -0.1520 -4.9348
  357MPD2     N 5353   3.172   0.360   1.759 -0.0768  0.6088  0.3677
  357MPD2    H5 5354   3.072   0.355   1.774 -0.0109  0.6987  0.8202
  357MPD2    N1 5355   3.528   0.568   1.471  0.3882  0.0952  0.0727
  357MPD2    H7 5356   3.539   0.609   1.378 -0.1974 -0.7437 -0.3723
  358TMC3    C1 5357   3.747   0.503   1.437  0.0097  0.1140 -0.8137
  358TMC3    C2 5358   3.725   0.484   1.304  0.9305  0.5438 -0.5849
  358TMC3    C3 5359   3.845   0.477   1.229  0.2800  0.7588 -0.0168
  358TMC3    C4 5360   3.865   0.507   1.501  0.1701 -0.0400  0.1041
  358TMC3    C5 5361   3.976   0.473   1.418 -0.1287  0.0511  0.0482
  358TMC3    C6 5362   3.966   0.455   1.282  0.3226 -0.0606 -0.2374
  358TMC3     C 5363   3.636   0.512   1.530  0.3320  0.3433  0.2663
  358TMC3     O 5364   3.656   0.494   1.649  0.4761 -0.1002  0.3824
  358TMC3     H 5365   3.626   0.471   1.262  0.3772 -1.0514  1.2065
  358TMC3    H1 5366   3.881   0.519   1.607 -0.1207 -0.0030  0.1438
  358TMC3    H2 5367   4.052   0.480   1.221  0.1117 -0.0659 -0.5335
  358TMC3    C7 5368   4.111   0.461   1.466  0.7823  0.0317 -0.0577
  358TMC3    C8 5369   3.835   0.485   1.089 -0.6401 -0.2719  0.0046
  358TMC3    O1 5370   4.132   0.507   1.581 -0.9477  0.3040 -0.3205
  358TMC3    O2 5371   3.720   0.511   1.053  0.5697 -0.6372  0.1092
  359MPD2     C 5372   4.444   0.076  12.396 -0.4629  0.1933 -0.6681
  359MPD2    C1 5373   4.384   0.068  12.274  0.2954  0.5383  0.5124
  359MPD2    C2 5374   4.249   0.101  12.263  0.5823  0.2901 -0.0110
  359MPD2    C3 5375   4.175   0.144  12.371 -0.0023  0.1602 -0.3434
  359MPD2    C4 5376   4.245   0.145  12.496  0.3865  0.1177 -0.0476
  359MPD2    C5 5377   4.374   0.113  12.508 -0.2480 -0.0033 -0.6482
  359MPD2     H 5378   4.202   0.098  12.166  0.0360 -2.0201  0.3240
  359MPD2    H1 5379   4.200   0.190  12.584  0.8518  0.9673 -0.2388
  359MPD2    H2 5380   4.547   0.044  12.410 -1.1860 -2.3296 -1.1457
  359MPD2    H3 5381   4.429   0.116  12.602 -1.9909  2.0707  0.2977
  359MPD2     N 5382   4.040   0.186  12.371 -0.2798  0.2036  0.0354
  359MPD2    H5 5383   4.004   0.218  12.461 -1.3319 -0.3101 -0.2054
  359MPD2    N1 5384   4.462   0.032  12.154  0.0196  0.0354 -0.7692
  359MPD2    H7 5385   4.414   0.024  12.065 -2.0548  1.4183  0.2163
  360TMC3    C1 5386   4.653   4.690  12.034  0.0455 -0.0833 -0.5532
  360TMC3    C2 5387   0.047   0.032  11.991  0.3792 -0.9371 -0.8012
  360TMC3    C3 5388   0.078   0.024  11.857  0.0407 -0.0255  0.6526
  360TMC3    C4 5389   4.573   4.635  11.939  0.3807 -0.6468 -0.3296
  360TMC3    C5 5390   4.614   4.626  11.809 -0.3440 -1.1153 -0.5061
  360TMC3    C6 5391   0.012   4.672  11.767 -0.4406  0.1962 -0.3654
  360TMC3     C 5392   4.595   0.007  12.156 -0.3652  0.0671 -0.0974
  360TMC3     O 5393   4.681   0.014  12.244 -0.5395  0.0357 -0.5570
  360TMC3     H 5394   0.097   0.103  12.055 -2.1553  0.2303 -0.1559
  360TMC3    H1 5395   4.484   4.581  11.969 -0.9219  2.1760  0.8766
  360TMC3    H2 5396   0.050   4.676  11.666  2.1640 -0.3808  0.5820
  360TMC3    C7 5397   4.528   4.561  11.707  0.4629  0.2284 -0.1282
  360TMC3    C8 5398   0.203   0.081  11.809  0.4250  0.7538 -0.2805
  360TMC3    O1 5399   4.556   4.609  11.600  0.0663  0.0276 -0.0721
  360TMC3    O2 5400   0.234   0.198  11.837  0.0325  0.5181  0.1062
  361MPD2     C 5401   0.345   3.399  16.215 -0.8023  0.0509  0.3368
  361MPD2    C1 5402   0.403   3.484  16.308 -0.3547  0.2553 -0.2157
  361MPD2    C2 5403   0.470   3.427  16.415  0.3393  0.0175 -0.1896
  361MPD2    C3 5404   0.492   3.289  16.416 -0.4177  0.0403  0.0701
  361MPD2    C4 5405   0.435   3.204  16.318 -0.3065 -0.3083  0.5023
  361MPD2    C5 5406   0.355   3.261  16.224 -0.6687 -0.1366 -0.0155
  361MPD2     H 5407   0.503   3.493  16.494  2.8716 -1.6643  0.1475
  361MPD2    H1 5408   0.452   3.097  16.313  0.1827 -0.1588 -0.8747
  361MPD2    H2 5409   0.285   3.436  16.133  1.9246  0.4899 -1.4806
  361MPD2    H3 5410   0.314   3.205  16.141  0.7040 -0.0310 -0.7598
  361MPD2     N 5411   0.539   3.217  16.526 -0.6988 -0.0208  0.2320
  361MPD2    H5 5412   0.535   3.116  16.521 -0.7169 -0.0298  0.4328
  361MPD2    N1 5413   0.392   3.627  16.301 -0.3622  0.2510  0.3554
  361MPD2    H7 5414   0.410   3.681  16.385  1.6465 -1.3953  0.9810
  362TMC3    C1 5415   0.336   3.835  16.224  0.0733 -0.4258  0.4901
  362TMC3    C2 5416   0.274   3.856  16.344  0.0392 -0.3328  0.9054
  362TMC3    C3 5417   0.185   3.955  16.343 -0.5160  0.3935 -0.1202
  362TMC3    C4 5418   0.341   3.923  16.123  0.5223 -0.2521  0.0498
  362TMC3    C5 5419   0.248   4.024  16.129  0.3697 -0.3475 -0.2571
  362TMC3    C6 5420   0.165   4.038  16.234 -0.0283  0.0520 -0.1674
  362TMC3     C 5421   0.352   3.699  16.195  0.7957 -0.8927  0.6425
  362TMC3     O 5422   0.324   3.666  16.080  0.5574  0.8035  0.0707
  362TMC3     H 5423   0.268   3.788  16.428 -1.0364 -2.0221 -0.5442
  362TMC3    H1 5424   0.382   3.880  16.031  0.3448  0.3039 -0.2883
  362TMC3    H2 5425   0.091   4.116  16.241  0.0972  0.0959  0.7119
  362TMC3    C7 5426   0.233   4.123  16.023  1.2218 -0.6159  1.0591
  362TMC3    C8 5427   0.115   3.985  16.466  0.1685 -0.0884 -0.3267
  362TMC3    O1 5428   0.154   4.212  16.039  0.1491 -0.2636  0.5661
  362TMC3    O2 5429   0.160   3.940  16.568  0.7824 -0.3420 -0.0654
  363TMC3    C1 5430   0.242   1.597   9.770 -0.4793 -0.2487  0.8385
  363TMC3    C2 5431   0.214   1.465   9.773 -0.4814 -0.4766 -0.0358
  363TMC3    C3 5432   0.088   1.427   9.727  0.2090  0.0578 -0.4307
  363TMC3    C4 5433   0.143   1.690   9.753 -0.1481  0.1410  0.1795
  363TMC3    C5 5434   0.015   1.651   9.717  0.5193 -0.4753 -0.7953
  363TMC3    C6 5435   4.715   1.518   9.698 -0.0599 -0.3406 -0.5198
  363TMC3     C 5436   0.377   1.636   9.816 -0.0184 -0.2209  0.0861
  363TMC3     O 5437   0.437   1.552   9.882  0.7439  0.8407 -0.1331
  363TMC3     H 5438   0.297   1.396   9.784 -0.7583 -1.0534 -1.7149
  363TMC3    H1 5439   0.156   1.794   9.780  2.3685 -0.2652  0.4790
  363TMC3    H2 5440   4.623   1.475   9.660 -0.5741 -1.3617  1.9222
  363TMC3    C7 5441   4.641   1.747   9.675  0.4006 -0.7790 -0.3959
  363TMC3    C8 5442   0.047   1.288   9.731  0.0782  0.6181 -0.2214
  363TMC3    O1 5443   4.663   1.863   9.704 -0.2341  0.7785 -0.2035
  363TMC3    O2 5444   4.651   1.260   9.740 -0.4004 -0.0774 -0.4448
  364MPD2     C 5445   3.292   0.351  10.234  0.0340  0.1789  0.0302
  364MPD2    C1 5446   3.420   0.304  10.214  0.0682  0.2277  0.7921
  364MPD2    C2 5447   3.454   0.170  10.226  0.9424 -0.2095 -0.2377
  364MPD2    C3 5448   3.360   0.076  10.254 -0.5288  0.3030  0.0364
  364MPD2    C4 5449   3.231   0.125  10.272  0.1335 -0.2386  0.1533
  364MPD2    C5 5450   3.194   0.257  10.263 -0.4107  0.3226  0.3022
  364MPD2     H 5451   3.554   0.129  10.223  0.8391 -0.3763 -1.1826
  364MPD2    H1 5452   3.147   0.060  10.295  0.0638 -0.3354 -0.3787
  364MPD2    H2 5453   3.264   0.455  10.240  0.2143  0.1775  0.8838
  364MPD2    H3 5454   3.095   0.294  10.283 -0.2174  0.3169  1.2645
  364MPD2     N 5455   3.389   4.662  10.264 -0.8770  0.2079 -0.2079
  364MPD2    H5 5456   3.318   4.601  10.302 -0.6641  1.2835  1.8873
  364MPD2    N1 5457   3.509   0.410  10.179 -0.7801 -0.1321 -0.4860
  364MPD2    H7 5458   3.473   0.504  10.185 -0.9007 -0.1225 -1.3683
  365TMC3    C1 5459   3.707   0.514  10.107 -0.1569 -0.2124  0.2954
  365TMC3    C2 5460   3.834   0.504  10.046 -0.7984  0.2255 -0.6486
  365TMC3    C3 5461   3.901   0.623  10.032 -0.1071 -0.0370 -0.3222
  365TMC3    C4 5462   3.655   0.633  10.151 -0.0351 -0.0454  0.5673
  365TMC3    C5 5463   3.734   0.745  10.135 -0.0361  0.1662  0.7586
  365TMC3    C6 5464   3.854   0.746  10.067 -0.4304  0.2371  0.0961
  365TMC3     C 5465   3.641   0.390  10.141  0.2639  0.4544 -0.4568
  365TMC3     O 5466   3.695   0.283  10.124  0.5343 -0.4281 -0.3202
  365TMC3     H 5467   3.879   0.408  10.024 -1.4829 -0.0637 -0.7649
  365TMC3    H1 5468   3.567   0.637  10.214 -0.8419 -1.2421 -0.4859
  365TMC3    H2 5469   3.918   0.833  10.054  0.0688 -0.0628  0.5333
  365TMC3    C7 5470   3.701   0.868  10.207  0.1660  0.4400  0.3928
  365TMC3    C8 5471   4.031   0.621   9.958 -0.5532 -0.2434 -0.1072
  365TMC3    O1 5472   3.799   0.939  10.234  0.0648  0.2152 -0.3315
  365TMC3    O2 5473   4.105   0.717   9.974 -0.3147 -0.4845  0.0269
  366MPD2     C 5474   1.128   1.260  14.981 -0.0566  0.6179 -0.2146
  366MPD2    C1 5475   1.194   1.366  15.038  0.6526 -0.2801  0.3752
  366MPD2    C2 5476   1.334   1.365  15.036  0.2183  0.4626 -0.3486
  366MPD2    C3 5477   1.404   1.258  14.969 -0.2235 -0.3167 -0.3152
  366MPD2    C4 5478   1.333   1.155  14.914  0.4684  0.0310 -0.2788
  366MPD2    C5 5479   1.196   1.160  14.917  0.2894  0.6562 -0.1011
  366MPD2     H 5480   1.387   1.446  15.084 -1.0158 -0.1572  2.0980
  366MPD2    H1 5481   1.384   1.070  14.871 -1.5099 -0.7473 -1.0474
  366MPD2    H2 5482   1.020   1.250  14.987  0.2011 -1.1630  1.3181
  366MPD2    H3 5483   1.137   1.075  14.882  2.2602 -1.1316  0.9083
  366MPD2     N 5484   1.548   1.236  14.960  0.0120 -0.1575 -0.0504
  366MPD2    H5 5485   1.580   1.143  14.934 -0.1704 -0.1836 -0.1751
  366MPD2    N1 5486   1.129   1.480  15.084  0.5682 -0.3933  0.1581
  366MPD2    H7 5487   1.198   1.543  15.123  0.9584  0.9556 -2.7382
  367TMC3    C1 5488   0.988   1.661  15.072  0.1983  0.2146 -0.0329
  367TMC3    C2 5489   1.054   1.720  15.178 -0.2244 -0.2586  0.5978
  367TMC3    C3 5490   1.030   1.856  15.195  0.0683  0.2370 -0.3958
  367TMC3    C4 5491   0.896   1.725  14.989 -0.4414  0.0793  0.2192
  367TMC3    C5 5492   0.864   1.858  15.025 -0.1350 -0.1817 -0.1725
  367TMC3    C6 5493   0.939   1.923  15.122  0.2888 -0.4656  0.2369
  367TMC3     C 5494   1.003   1.519  15.058  0.2641  0.3248  0.1813
  367TMC3     O 5495   0.910   1.466  15.001  0.9921  0.3228 -0.3270
  367TMC3     H 5496   1.118   1.664  15.245  0.4469 -0.0800  0.1029
  367TMC3    H1 5497   0.850   1.671  14.907 -0.6637  0.3985  0.1362
  367TMC3    H2 5498   0.918   2.025  15.152  0.7990  0.5253 -2.7719
  367TMC3    C7 5499   0.781   1.943  14.946 -0.2266 -0.3742  0.3592
  367TMC3    C8 5500   1.149   1.928  15.239 -1.4232  0.3768  0.1521
  367TMC3    O1 5501   0.796   2.062  14.969 -0.2416 -0.0211  0.0132
  367TMC3    O2 5502   1.219   1.864  15.317 -0.4190 -0.5337 -0.7135
  368MPD2     C 5503   2.792   3.696  12.660  0.2596 -0.0675 -0.1441
  368MPD2    C1 5504   2.752   3.797  12.576 -1.1245 -0.2813  0.0124
  368MPD2    C2 5505   2.847   3.856  12.491 -0.4441 -0.1499 -0.1243
  368MPD2    C3 5506   2.980   3.810  12.496  0.4516 -0.0665  0.4075
  368MPD2    C4 5507   3.015   3.706  12.581  0.1203 -0.0648  0.2575
  368MPD2    C5 5508   2.920   3.645  12.660 -0.1012 -0.1774  0.0077
  368MPD2     H 5509   2.825   3.940  12.426  0.5689  1.4891  1.6512
  368MPD2    H1 5510   3.118   3.671  12.581  0.0708 -0.2624 -2.1404
  368MPD2    H2 5511   2.718   3.658  12.730 -0.4546  1.9166  0.1870
  368MPD2    H3 5512   2.935   3.560  12.726 -0.2024 -0.1612  0.0525
  368MPD2     N 5513   3.084   3.879  12.431  0.4009 -0.1392 -0.4751
  368MPD2    H5 5514   3.179   3.861  12.462  1.0656  1.7461 -1.3886
  368MPD2    N1 5515   2.624   3.846  12.604 -0.5757  0.2074  0.4097
  368MPD2    H7 5516   2.561   3.792  12.663 -1.4739 -1.1730 -1.7953
  369TMC3    C1 5517   2.435   3.978  12.568 -0.7415  0.2516  0.2572
  369TMC3    C2 5518   2.386   4.084  12.503 -0.0490  0.0475  0.0466
  369TMC3    C3 5519   2.261   4.075  12.451 -0.7908 -0.1508 -0.0631
  369TMC3    C4 5520   2.361   3.863  12.587 -0.6243 -0.9163  0.7172
  369TMC3    C5 5521   2.232   3.863  12.538  0.2544 -0.6933 -0.0724
  369TMC3    C6 5522   2.183   3.970  12.468 -0.5320  0.3837  0.0801
  369TMC3     C 5523   2.583   3.965  12.554 -0.8473 -0.5647 -0.1432
  369TMC3     O 5524   2.648   4.064  12.519 -0.1867 -0.0111  0.0845
  369TMC3     H 5525   2.451   4.165  12.470 -2.5716  2.4679  1.0514
  369TMC3    H1 5526   2.407   3.777  12.634 -0.4686 -0.8361  0.7108
  369TMC3    H2 5527   2.078   3.978  12.440 -0.1074 -3.5364 -2.6743
  369TMC3    C7 5528   2.160   3.737  12.556 -0.5580  0.4962  1.1386
  369TMC3    C8 5529   2.234   4.153  12.333 -0.8655 -0.3646  0.4308
  369TMC3    O1 5530   2.223   3.645  12.610  0.1830  0.8203 -0.1665
  369TMC3    O2 5531   2.334   4.197  12.275 -0.0486 -0.3655  1.0992
  370TMC3    C1 5532   1.588   4.113  16.114 -0.3258 -0.1373  0.6528
  370TMC3    C2 5533   1.523   4.014  16.183 -0.3169  0.5377 -0.2398
  370TMC3    C3 5534   1.470   3.909  16.112  0.4930 -0.1040  0.7007
  370TMC3    C4 5535   1.593   4.119  15.978 -0.7404  0.1252  0.9262
  370TMC3    C5 5536   1.548   4.013  15.909 -0.1692  0.2185  0.2818
  370TMC3    C6 5537   1.486   3.906  15.974  0.1303 -0.1977 -0.0762
  370TMC3     C 5538   1.632   4.232  16.192 -0.2450 -0.3102 -0.2126
  370TMC3     O 5539   1.648   4.204  16.309  0.2225 -0.0610  0.1568
  370TMC3     H 5540   1.520   4.016  16.292  0.8067 -2.2183 -0.1791
  370TMC3    H1 5541   1.628   4.202  15.917  3.1494 -2.2232 -0.0121
  370TMC3    H2 5542   1.449   3.817  15.926 -3.0958  1.1327 -0.0166
  370TMC3    C7 5543   1.606   3.994  15.782  0.2080  1.4153 -0.2862
  370TMC3    C8 5544   1.411   3.796  16.178  0.1418  0.2298  0.3631
  370TMC3    O1 5545   1.666   4.086  15.725  0.5524 -0.2251  0.4172
  370TMC3    O2 5546   1.424   3.679  16.147  0.3893  0.5709 -0.5603
  371TMC3    C1 5547   2.993   2.464  15.284  0.0593 -0.3347 -0.1141
  371TMC3    C2 5548   2.933   2.526  15.387  0.1446 -0.0506  0.3562
  371TMC3    C3 5549   2.877   2.657  15.373  0.3156 -0.7709  0.5673
  371TMC3    C4 5550   3.015   2.532  15.165  0.4585  0.1063  0.2419
  371TMC3    C5 5551   2.974   2.665  15.165  0.1011 -0.7792  0.1095
  371TMC3    C6 5552   2.895   2.732  15.259  0.0033 -0.2690  0.0463
  371TMC3     C 5553   3.052   2.337  15.295 -0.1855  0.0981  0.8905
  371TMC3     O 5554   3.145   2.303  15.223  0.0786  0.1445  0.0358
  371TMC3     H 5555   2.923   2.470  15.479  0.7571 -2.8362 -1.2876
  371TMC3    H1 5556   3.080   2.486  15.092 -0.1845 -0.7415  0.2060
  371TMC3    H2 5557   2.872   2.838  15.257  2.0591  0.2072  1.7426
  371TMC3    C7 5558   3.025   2.758  15.065  0.3961  0.8661 -0.1179
  371TMC3    C8 5559   2.826   2.731  15.495  0.0364  0.9769  0.3780
  371TMC3    O1 5560   3.006   2.876  15.088  0.4025 -0.0176  0.4785
  371TMC3    O2 5561   2.864   2.677  15.599  0.1596 -0.6101 -0.2876
  372MPD2     C 5562   2.871   4.086  13.226  0.2118  0.1791 -0.6104
  372MPD2    C1 5563   2.923   4.006  13.327 -0.5683 -0.7326 -0.3217
  372MPD2    C2 5564   2.838   3.905  13.373  0.0873  0.0460 -0.2606
  372MPD2    C3 5565   2.708   3.889  13.320 -0.1010 -0.1116  0.0585
  372MPD2    C4 5566   2.656   3.982  13.235  0.1729  0.7412 -0.2960
  372MPD2    C5 5567   2.742   4.076  13.186 -0.1564 -0.3908  0.0076
  372MPD2     H 5568   2.872   3.822  13.434  0.4347 -0.0849 -0.6345
  372MPD2    H1 5569   2.555   3.977  13.196  0.7526  0.1243 -1.6909
  372MPD2    H2 5570   2.931   4.160  13.174 -1.1649  2.2242  0.7403
  372MPD2    H3 5571   2.701   4.138  13.107 -0.6163 -2.0322 -1.0356
  372MPD2     N 5572   2.621   3.775  13.329 -0.2296 -0.1871 -0.2485
  372MPD2    H5 5573   2.528   3.785  13.291  0.3315  1.7348 -1.1107
  372MPD2    N1 5574   3.045   4.032  13.393 -0.2340  0.0164  0.0363
  372MPD2    H7 5575   3.070   3.973  13.471 -0.9580 -0.8860 -0.4149
  373TMC3    C1 5576   2.574   3.543  13.339  0.3403  0.2060  0.3701
  373TMC3    C2 5577   2.446   3.572  13.384  0.2986  0.7262  0.5882
  373TMC3    C3 5578   2.370   3.460  13.372  0.9626  0.0124 -0.2404
  373TMC3    C4 5579   2.619   3.426  13.285 -0.0382  0.5967  0.2694
  373TMC3    C5 5580   2.531   3.324  13.271 -0.5157  0.7676 -0.2600
  373TMC3    C6 5581   2.406   3.340  13.316  0.4775 -1.0841  0.1387
  373TMC3     C 5582   2.673   3.645  13.338  0.2083  1.0703 -1.0146
  373TMC3     O 5583   2.793   3.612  13.342  0.3542 -0.0600  0.2922
  373TMC3     H 5584   2.407   3.658  13.436  1.7088  0.1158  2.6805
  373TMC3    H1 5585   2.713   3.428  13.231  0.3242 -1.1834  0.8353
  373TMC3    H2 5586   2.331   3.263  13.302  1.2101 -1.8189  0.2928
  373TMC3    C7 5587   2.588   3.201  13.233  0.2133 -0.1776  0.0055
  373TMC3    C8 5588   2.241   3.447  13.438  0.2335 -0.0877 -0.1729
  373TMC3    O1 5589   2.704   3.206  13.206 -0.1855  0.1729 -0.1201
  373TMC3    O2 5590   2.150   3.393  13.377  0.1786 -0.5086 -0.1643
  374TMC3    C1 5591   3.849   3.587   9.502  0.1196 -0.2086  0.5751
  374TMC3    C2 5592   3.971   3.655   9.497 -0.7278  0.2293 -0.3239
  374TMC3    C3 5593   4.061   3.634   9.393 -0.3391  0.5789  0.5356
  374TMC3    C4 5594   3.832   3.492   9.409  0.1531 -0.0727  0.4764
  374TMC3    C5 5595   3.928   3.478   9.309 -0.5085  0.3204 -0.5083
  374TMC3    C6 5596   4.037   3.554   9.292  0.6955 -0.1057  0.3550
  374TMC3     C 5597   3.766   3.613   9.616  0.3480  0.5549 -0.3436
  374TMC3     O 5598   3.775   3.721   9.676 -0.8636 -0.3867  0.0788
  374TMC3     H 5599   3.981   3.731   9.573  0.2828 -0.1576 -0.0747
  374TMC3    H1 5600   3.734   3.447   9.406 -0.1712  0.5258  2.0333
  374TMC3    H2 5601   4.108   3.539   9.211  0.1230  1.1335 -0.3906
  374TMC3    C7 5602   3.911   3.369   9.214  0.1704 -0.0654 -0.3117
  374TMC3    C8 5603   4.161   3.729   9.375 -0.1632  0.2218 -0.1968
  374TMC3    O1 5604   3.976   3.382   9.110  0.2288  0.0761  0.0212
  374TMC3    O2 5605   4.180   3.771   9.261  0.2649  0.5339  0.3655
  375MPD2     C 5606   2.779   4.388  17.183 -0.4037  0.5364 -0.3087
  375MPD2    C1 5607   2.690   4.407  17.083  0.4920  0.7732  0.4008
  375MPD2    C2 5608   2.709   4.354  16.955  0.2497  0.3128  0.0851
  375MPD2    C3 5609   2.822   4.281  16.927  0.1437  0.5652 -0.7026
  375MPD2    C4 5610   2.902   4.255  17.039  0.0048  0.3919  0.1209
  375MPD2    C5 5611   2.885   4.316  17.162  0.3313  0.2043  0.5736
  375MPD2     H 5612   2.649   4.388  16.872  1.2108 -0.2746 -0.8548
  375MPD2    H1 5613   2.991   4.193  17.035  0.9100  1.7450 -0.6982
  375MPD2    H2 5614   2.756   4.441  17.274  2.3008 -0.1299  0.7512
  375MPD2    H3 5615   2.960   4.306  17.239  1.8589 -1.5879 -1.1444
  375MPD2     N 5616   2.862   4.244  16.790 -0.1424  0.6631  0.2190
  375MPD2    H5 5617   2.952   4.198  16.789  0.4651  1.8169  1.1241
  375MPD2    N1 5618   2.570   4.491  17.099 -0.1018  0.3448 -0.0719
  375MPD2    H7 5619   2.501   4.498  17.025 -1.1583  3.2105  1.2057
  376TMC3    C1 5620   2.843   4.242  16.543 -0.0416  0.4012  0.2147
  376TMC3    C2 5621   2.979   4.215  16.523  0.1130  0.8969 -0.0029
  376TMC3    C3 5622   3.031   4.230  16.398 -0.0749 -0.0371  0.6143
  376TMC3    C4 5623   2.759   4.280  16.438  0.0664  0.4656 -0.2139
  376TMC3    C5 5624   2.822   4.291  16.314  0.0508 -0.6024  0.7159
  376TMC3    C6 5625   2.956   4.265  16.291  0.3779  0.0201  0.5299
  376TMC3     C 5626   2.782   4.265  16.673 -0.0939  0.4226 -0.0169
  376TMC3     O 5627   2.670   4.307  16.675 -0.2929 -0.0714 -0.7016
  376TMC3     H 5628   3.042   4.184  16.606 -0.5660  0.8095  0.4850
  376TMC3    H1 5629   2.651   4.277  16.447  0.0227  1.6044 -0.4137
  376TMC3    H2 5630   2.991   4.263  16.188  0.9898 -1.1116  0.7629
  376TMC3    C7 5631   2.758   4.352  16.209 -0.7863 -0.1964 -0.2194
  376TMC3    C8 5632   3.164   4.194  16.364 -0.2982  0.2822 -0.0835
  376TMC3    O1 5633   2.840   4.414  16.148 -0.2881  0.0062  0.3695
  376TMC3    O2 5634   3.212   4.236  16.259  0.1242  0.3917  0.5244
  377MPD2     C 5635   1.404   4.229  11.900 -0.4184 -0.0978 -1.1446
  377MPD2    C1 5636   1.447   4.135  11.995 -0.6187  0.1152  0.1549
  377MPD2    C2 5637   1.367   4.093  12.102  0.5186 -0.3332  0.2464
  377MPD2    C3 5638   1.245   4.150  12.120  0.4318  0.0494  0.2390
  377MPD2    C4 5639   1.211   4.256  12.042  0.2409 -0.1013 -0.1472
  377MPD2    C5 5640   1.285   4.290  11.930 -0.1923 -0.5134 -0.3829
  377MPD2     H 5641   1.388   4.008  12.165 -0.2986 -1.0322 -0.4351
  377MPD2    H1 5642   1.125   4.317  12.067  1.0035  1.1721 -0.6528
  377MPD2    H2 5643   1.467   4.245  11.814  2.6604  1.5594  1.3961
  377MPD2    H3 5644   1.250   4.370  11.865 -0.5184 -0.6203 -0.3417
  377MPD2     N 5645   1.151   4.115  12.221  0.0823 -0.9729  0.3180
  377MPD2    H5 5646   1.066   4.170  12.216  0.5520 -0.4218 -1.4353
  377MPD2    N1 5647   1.574   4.073  11.973  0.3709  0.3087  0.7256
  377MPD2    H7 5648   1.632   4.113  11.900 -0.0715  0.7008  0.5915
  378TMC3    C1 5649   1.902   3.942  11.801  0.5234 -0.4212 -0.6130
  378TMC3    C2 5650   1.777   3.970  11.840  0.0104 -0.2098 -0.1620
  378TMC3    C3 5651   1.756   3.938  11.972 -0.6914 -0.3952 -0.4005
  378TMC3    C4 5652   2.009   3.913  11.883 -0.2146  0.0985 -0.1033
  378TMC3    C5 5653   1.989   3.894  12.016 -0.2662 -0.7511  1.0710
  378TMC3    C6 5654   1.859   3.897  12.050 -0.5968 -0.4849 -0.4461
  378TMC3     C 5655   1.932   3.965  11.659  0.3139  0.1026 -0.5024
  378TMC3     O 5656   1.850   4.032  11.600 -0.6807  0.0226 -0.0915
  378TMC3     H 5657   1.698   4.004  11.774  0.1513  0.9886  0.2795
  378TMC3    H1 5658   2.108   3.930  11.841 -0.5782 -0.7761 -1.3133
  378TMC3    H2 5659   1.839   3.880  12.156  2.4445  0.8193  0.3512
  378TMC3    C7 5660   2.090   3.856  12.115  0.4250  1.0904 -0.5235
  378TMC3    C8 5661   1.637   3.973  12.043 -0.0070  0.7387 -0.2440
  378TMC3    O1 5662   2.058   3.841  12.233 -0.7083  0.2529  0.6100
  378TMC3    O2 5663   1.608   3.917  12.147  0.1475  0.0146 -0.4175
  379MPD2     C 5664   1.711   2.183  15.990 -0.4618 -0.1728  0.3549
  379MPD2    C1 5665   1.811   2.111  15.925  0.1720  0.4223 -0.1636
  379MPD2    C2 5666   1.879   2.021  16.002 -0.2635  0.1162 -0.3729
  379MPD2    C3 5667   1.858   2.025  16.141  0.0036 -0.4058  0.5451
  379MPD2    C4 5668   1.752   2.094  16.199  0.4333 -0.5150  0.2242
  379MPD2    C5 5669   1.670   2.175  16.124 -0.4212  0.0846 -0.4016
  379MPD2     H 5670   1.956   1.961  15.954  0.7975  2.0109 -1.0331
  379MPD2    H1 5671   1.725   2.093  16.304 -3.6083 -2.5647 -0.8567
  379MPD2    H2 5672   1.652   2.252  15.930  0.6832  1.4491  1.1040
  379MPD2    H3 5673   1.595   2.245  16.158  0.0591 -0.2031  1.2494
  379MPD2     N 5674   1.944   1.955  16.233 -1.0527  0.6331 -0.3178
  379MPD2    H5 5675   1.916   1.957  16.331 -0.1311  1.1716 -0.0584
  379MPD2    N1 5676   1.835   2.126  15.778  0.3990  0.4692 -0.9083
  379MPD2    H7 5677   1.773   2.182  15.721 -0.2858  1.7254  1.0599
  380TMC3    C1 5678   1.950   2.107  15.574  0.3361  0.2299  0.1445
  380TMC3    C2 5679   2.075   2.128  15.519 -0.0849 -0.2213  0.6405
  380TMC3    C3 5680   2.082   2.137  15.380  0.2449  0.4439 -0.0187
  380TMC3    C4 5681   1.839   2.088  15.498  0.2382 -0.0334  0.7403
  380TMC3    C5 5682   1.846   2.105  15.366  0.2303 -0.4608  0.1015
  380TMC3    C6 5683   1.963   2.135  15.309  0.1321  0.4858 -0.0966
  380TMC3     C 5684   1.939   2.074  15.714 -0.0429  0.0230  0.2463
  380TMC3     O 5685   2.039   2.027  15.763  0.3124 -0.4386 -0.4005
  380TMC3     H 5686   2.164   2.145  15.579 -0.8556 -1.1783  2.0546
  380TMC3    H1 5687   1.741   2.068  15.540 -0.1178  0.5101  0.1665
  380TMC3    H2 5688   1.954   2.155  15.203  0.3925 -1.6733 -0.5140
  380TMC3    C7 5689   1.743   2.179  15.302 -0.6767 -0.3153 -0.0748
  380TMC3    C8 5690   2.188   2.218  15.315 -0.8158  0.3131 -0.3962
  380TMC3    O1 5691   1.772   2.278  15.239  0.2756  0.2468 -0.0876
  380TMC3    O2 5692   2.188   2.210  15.194 -0.0787  0.6169 -0.3733
  381TMC3    C1 5693   1.529   3.011  16.039  0.0184 -0.2502  0.0392
  381TMC3    C2 5694   1.560   3.138  15.999 -0.5242 -0.5832  0.3317
  381TMC3    C3 5695   1.542   3.243  16.075 -0.3206  0.4454  0.2309
  381TMC3    C4 5696   1.472   2.990  16.163 -0.1976 -0.2523 -0.1440
  381TMC3    C5 5697   1.445   3.105  16.232  0.3935 -0.3867  0.6463
  381TMC3    C6 5698   1.483   3.232  16.196  0.3854  0.2508  0.0221
  381TMC3     C 5699   1.582   2.897  15.973 -0.4558  0.5397 -0.1836
  381TMC3     O 5700   1.563   2.783  16.019  0.0644  0.0103 -0.4903
  381TMC3     H 5701   1.622   3.159  15.912  0.5231 -0.8811  1.0000
  381TMC3    H1 5702   1.451   2.888  16.192  0.1683 -0.1242  0.5893
  381TMC3    H2 5703   1.459   3.316  16.260 -0.8107 -0.8965  1.0773
  381TMC3    C7 5704   1.361   3.083  16.344  0.1922 -0.4672 -0.5208
  381TMC3    C8 5705   1.620   3.367  16.041  0.6610 -0.6090 -0.3886
  381TMC3    O1 5706   1.361   2.973  16.391 -0.7766  0.4973 -0.8057
  381TMC3    O2 5707   1.653   3.394  15.926  0.2441  0.2724 -0.3136
  382MPD2     C 5708   1.315   0.912  16.765 -0.3067  0.0943  0.1034
  382MPD2    C1 5709   1.245   0.974  16.862  0.1768 -0.7320  0.3918
  382MPD2    C2 5710   1.179   0.899  16.956 -0.1069 -0.0434 -0.4971
  382MPD2    C3 5711   1.182   0.760  16.950  0.1576  0.2918  0.5150
  382MPD2    C4 5712   1.239   0.699  16.845  0.2504 -0.3293 -0.0324
  382MPD2    C5 5713   1.309   0.773  16.757 -0.5897  0.7838 -0.1722
  382MPD2     H 5714   1.132   0.956  17.035 -0.1377  0.2994 -0.7612
  382MPD2    H1 5715   1.254   0.592  16.838  1.1331 -0.2865  1.1303
  382MPD2    H2 5716   1.357   0.962  16.679  0.0149  0.5753  0.5448
  382MPD2    H3 5717   1.361   0.723  16.675 -1.1002 -2.7750  1.6635
  382MPD2     N 5718   1.123   0.675  17.044 -0.4092 -0.3096 -0.4358
  382MPD2    H5 5719   1.118   0.577  17.018  0.2671 -0.2798 -0.6715
  382MPD2    N1 5720   1.240   1.114  16.875  0.3057  0.2379  0.1589
  382MPD2    H7 5721   1.189   1.145  16.956 -1.8476 -2.0780 -0.3012
  383TMC3    C1 5722   1.002   0.615  17.230  0.7183 -0.4252 -0.2389
  383TMC3    C2 5723   0.890   0.575  17.169 -0.0792  0.3550  0.0050
  383TMC3    C3 5724   0.787   0.526  17.245  0.1289 -0.1496  0.3189
  383TMC3    C4 5725   1.013   0.611  17.364 -0.2501  0.3989  0.3850
  383TMC3    C5 5726   0.907   0.573  17.437 -0.2132  0.3969 -0.0003
  383TMC3    C6 5727   0.794   0.524  17.381  0.3201 -0.3717 -0.0986
  383TMC3     C 5728   1.085   0.718  17.163 -0.2018 -0.3127  0.5827
  383TMC3     O 5729   1.094   0.829  17.216 -0.5274  0.1247 -0.5461
  383TMC3     H 5730   0.866   0.601  17.067  3.0595 -1.7795 -1.2412
  383TMC3    H1 5731   1.104   0.646  17.410 -0.7417  1.8867  0.2345
  383TMC3    H2 5732   0.727   0.475  17.450  0.6863  0.2386  0.6913
  383TMC3    C7 5733   0.894   0.635  17.567  0.4410 -0.1774 -0.0852
  383TMC3    C8 5734   0.678   0.480  17.163  0.1211 -0.6580  0.2098
  383TMC3    O1 5735   0.779   0.668  17.603 -0.2108  0.3697 -0.5588
  383TMC3    O2 5736   0.645   0.561  17.074 -0.0564  0.2593  0.0774
  384MPD2     C 5737   3.310   1.607  11.819 -0.3471 -0.3294 -0.2330
  384MPD2    C1 5738   3.275   1.515  11.918 -0.0802 -0.3462  0.4304
  384MPD2    C2 5739   3.276   1.381  11.877  0.1368 -0.2645 -0.2772
  384MPD2    C3 5740   3.308   1.337  11.753  0.2068 -0.2402 -0.0948
  384MPD2    C4 5741   3.330   1.437  11.658  0.3806 -0.1810 -0.4134
  384MPD2    C5 5742   3.329   1.568  11.689 -1.1322  0.2768  0.0277
  384MPD2     H 5743   3.252   1.310  11.955  0.0250 -0.6520 -0.6655
  384MPD2    H1 5744   3.334   1.410  11.553 -0.6882  1.6102 -0.9185
  384MPD2    H2 5745   3.314   1.714  11.837  0.7238 -0.1612 -1.5020
  384MPD2    H3 5746   3.351   1.646  11.616 -2.2047  0.2087 -0.3737
  384MPD2     N 5747   3.296   1.191  11.730  0.7951 -0.1684 -0.1562
  384MPD2    H5 5748   3.273   1.141  11.816 -0.0214  1.1672  0.4065
  384MPD2    N1 5749   3.244   1.541  12.056 -0.3038  0.1339  0.7179
  384MPD2    H7 5750   3.201   1.464  12.107 -0.9755 -3.1639 -4.7916
  385TMC3    C1 5751   3.257   0.987  11.627 -0.1635 -0.0147 -0.5974
  385TMC3    C2 5752   3.142   0.972  11.546 -0.5415  0.0784 -0.0275
  385TMC3    C3 5753   3.024   0.915  11.596  0.6361  0.2319  0.2341
  385TMC3    C4 5754   3.254   0.937  11.757  0.2786  0.3567  0.2932
  385TMC3    C5 5755   3.132   0.894  11.805  0.2215 -0.1853  0.3270
  385TMC3    C6 5756   3.017   0.872  11.724  0.6606 -0.1956 -0.0085
  385TMC3     C 5757   3.309   1.125  11.612  0.7341 -0.0950  0.1445
  385TMC3     O 5758   3.314   1.170  11.499 -0.0217 -0.6703  0.4542
  385TMC3     H 5759   3.135   1.034  11.458  2.9543  0.5628  0.0281
  385TMC3    H1 5760   3.341   0.954  11.820  1.5200 -2.2803 -0.7064
  385TMC3    H2 5761   2.917   0.854  11.761  0.4728  0.7403 -0.0562
  385TMC3    C7 5762   3.091   0.970  11.929 -0.4917  0.5530  0.3597
  385TMC3    C8 5763   2.907   0.917  11.514  0.0793  0.1543  0.6454
  385TMC3    O1 5764   3.175   1.063  11.952  0.0784 -0.3465  0.3952
  385TMC3    O2 5765   2.797   0.894  11.566  0.4389  0.7409  0.4543
  386TMC3    C1 5766   3.401   3.810  11.106 -0.5468  1.0834 -0.1334
  386TMC3    C2 5767   3.409   3.857  10.979  0.7173 -0.4612  0.6218
  386TMC3    C3 5768   3.312   3.946  10.942  0.4582 -0.4149 -0.2059
  386TMC3    C4 5769   3.296   3.839  11.197 -0.2611  0.1118 -0.6272
  386TMC3    C5 5770   3.200   3.931  11.154 -0.0094  0.7711  0.0144
  386TMC3    C6 5771   3.211   3.985  11.026 -0.1656  0.2227  0.1338
  386TMC3     C 5772   3.526   3.774  11.158  0.2723 -0.0944 -0.4166
  386TMC3     O 5773   3.619   3.845  11.124  0.4093 -0.0141 -0.4153
  386TMC3     H 5774   3.499   3.832  10.923  0.1467  0.7067 -0.8380
  386TMC3    H1 5775   3.303   3.807  11.300  0.4755 -0.9548 -1.0004
  386TMC3    H2 5776   3.139   4.065  11.013 -1.1011 -0.7978 -0.9083
  386TMC3    C7 5777   3.098   3.985  11.240 -0.3701  0.2987  0.2843
  386TMC3    C8 5778   3.299   3.997  10.805  1.1434  0.5277 -0.1772
  386TMC3    O1 5779   2.999   4.037  11.195  0.4828  0.2852 -0.0699
  386TMC3    O2 5780   3.201   4.069  10.784  0.2428 -0.0261  0.5046
  387MPD2     C 5781   1.086   4.411   9.433  0.1548  0.4458 -0.3035
  387MPD2    C1 5782   1.103   4.341   9.552 -0.5125 -0.2576 -0.4453
  387MPD2    C2 5783   1.085   4.209   9.555  0.0814  0.4123  0.3516
  387MPD2    C3 5784   1.061   4.134   9.445  0.4531 -0.0440  0.4256
  387MPD2    C4 5785   1.043   4.201   9.318  0.0920 -0.0880 -0.7093
  387MPD2    C5 5786   1.046   4.337   9.322 -0.8354  0.2787  0.2341
  387MPD2     H 5787   1.114   4.166   9.650  0.3539  0.5690  0.3397
  387MPD2    H1 5788   1.017   4.153   9.224  0.2283 -2.7315  0.6145
  387MPD2    H2 5789   1.086   4.519   9.427  0.5361  0.4989  0.8125
  387MPD2    H3 5790   1.016   4.388   9.231  0.1601  0.5336  0.0551
  387MPD2     N 5791   1.064   3.996   9.467  0.5452 -0.6566 -0.1112
  387MPD2    H5 5792   1.073   3.972   9.565 -2.4871  0.0759  0.3455
  387MPD2    N1 5793   1.143   4.401   9.674 -0.2398  0.2291 -0.2234
  387MPD2    H7 5794   1.138   4.340   9.755  0.5025  1.5327  0.8019
  388TMC3    C1 5795   1.268   4.538   9.817  0.6126  0.1089  0.2101
  388TMC3    C2 5796   1.268   4.656   9.889  0.2654 -0.1184  0.1039
  388TMC3    C3 5797   1.364   4.666   9.991 -0.5082 -0.1658  0.1663
  388TMC3    C4 5798   1.336   4.430   9.858 -0.2141 -0.3449  0.4415
  388TMC3    C5 5799   1.430   4.444   9.963  0.1377 -0.0173  0.3468
  388TMC3    C6 5800   1.452   4.571  10.027  0.2232 -0.0893  0.0875
  388TMC3     C 5801   1.202   4.529   9.687 -0.3844  0.2705 -0.3378
  388TMC3     O 5802   1.181   4.624   9.617  0.5753  0.6090 -0.0923
  388TMC3     H 5803   1.212   0.022   9.859  1.9977  1.4859  1.4879
  388TMC3    H1 5804   1.335   4.341   9.796  0.8305  0.3333 -0.5226
  388TMC3    H2 5805   1.520   4.584  10.110  0.2112  0.0440  0.0772
  388TMC3    C7 5806   1.510   4.323   9.991  0.0014 -0.1554 -0.0680
  388TMC3    C8 5807   1.359   0.068  10.070  0.3457 -0.2204  0.3971
  388TMC3    O1 5808   1.632   4.330  10.007 -0.4278 -0.4393 -0.6468
  388TMC3    O2 5809   1.466   0.114  10.112 -0.4300 -0.1147  0.3714
  389MPD2     C 5810   0.210   2.466  11.390  0.0663 -0.0016 -0.0732
  389MPD2    C1 5811   0.264   2.419  11.276 -0.2698 -0.0601 -0.0801
  389MPD2    C2 5812   0.229   2.288  11.238  1.1547 -0.2176 -0.7301
  389MPD2    C3 5813   0.130   2.216  11.304  0.1268 -0.6435 -0.2662
  389MPD2    C4 5814   0.084   2.261  11.428 -1.1768 -0.3317 -0.0934
  389MPD2    C5 5815   0.127   2.381  11.468 -0.4740 -0.3149 -0.1615
  389MPD2     H 5816   0.271   2.260  11.143  0.9575 -0.6702 -0.6836
  389MPD2    H1 5817   0.016   2.206  11.491 -1.1199 -0.8010 -0.4426
  389MPD2    H2 5818   0.231   2.567  11.426  2.9593 -1.2618  1.7836
  389MPD2    H3 5819   0.086   2.427  11.558 -0.6622  0.6185 -0.7186
  389MPD2     N 5820   0.092   2.084  11.273  0.0069 -0.1323  0.8861
  389MPD2    H5 5821   0.044   2.035  11.347 -0.6292 -0.1930  0.4316
  389MPD2    N1 5822   0.334   2.507  11.191 -0.4640 -0.5475  0.0322
  389MPD2    H7 5823   0.346   2.601  11.227 -0.6387 -0.9873  1.2187
  390TMC3    C1 5824   0.080   1.884  11.149 -0.0635  0.3072  0.4886
  390TMC3    C2 5825   0.064   1.817  11.265  0.1088  0.6143  0.4471
  390TMC3    C3 5826   0.069   1.681  11.249  0.8703  0.5105  0.3394
  390TMC3    C4 5827   0.093   1.820  11.024  0.1267  0.1018 -0.1198
  390TMC3    C5 5828   0.104   1.684  11.011 -0.6694 -1.0920 -0.0959
  390TMC3    C6 5829   0.099   1.617  11.128  0.3955  0.4066  0.0465
  390TMC3     C 5830   0.115   2.020  11.152 -0.0540 -0.9992 -0.8489
  390TMC3     O 5831   0.154   2.070  11.050  0.1373 -0.8113  0.2850
  390TMC3     H 5832   0.077   1.857  11.365 -0.4104  0.9810  0.3717
  390TMC3    H1 5833   0.097   1.887  10.939 -1.3732  0.8281  0.3907
  390TMC3    H2 5834   0.107   1.509  11.123 -0.7974  0.3698 -0.9482
  390TMC3    C7 5835   0.001   1.630  10.925  0.2825  0.2282  0.1846
  390TMC3    C8 5836   4.676   1.614  11.313  0.2001  0.3639 -0.0351
  390TMC3    O1 5837   0.020   1.517  10.887  0.0457 -0.2332 -0.0714
  390TMC3    O2 5838   4.662   1.498  11.274 -0.4180 -0.1919  0.1638
  391MPD2     C 5839   4.644   3.843  10.763  0.0490  0.3562 -0.0722
  391MPD2    C1 5840   4.716   3.956  10.753  0.6602 -0.4534  0.1998
  391MPD2    C2 5841   0.036   3.985  10.626 -0.6880 -0.1664 -0.1105
  391MPD2    C3 5842   4.721   3.907  10.517 -0.5876 -0.0717  0.0506
  391MPD2    C4 5843   4.631   3.800  10.529 -0.2962 -0.3809  0.1098
  391MPD2    C5 5844   4.600   3.765  10.658  0.5846  0.0879  0.6687
  391MPD2     H 5845   0.095   4.074  10.610  0.0632 -0.6474 -0.0552
  391MPD2    H1 5846   4.590   3.740  10.448 -0.7366  1.0986 -0.7711
  391MPD2    H2 5847   4.612   3.820  10.865  1.0965 -1.2081 -0.0956
  391MPD2    H3 5848   4.541   3.676  10.672 -0.7931  0.6591 -1.4733
  391MPD2     N 5849   0.048   3.945  10.388  0.7538  0.6597  0.6623
  391MPD2    H5 5850   0.106   4.028  10.376  1.8526 -0.3933 -1.3998
  391MPD2    N1 5851   0.030   4.033  10.867 -0.5681 -0.8399 -0.2091
  391MPD2    H7 5852   0.012   3.998  10.960  0.2935 -1.2689 -0.2042
  392TMC3    C1 5853   0.045   3.943  10.153 -0.4045  0.1326 -0.6739
  392TMC3    C2 5854   4.679   3.913  10.055  0.5127  0.0838  0.0675
  392TMC3    C3 5855   4.638   4.009   9.957  0.0603  0.1459 -0.0651
  392TMC3    C4 5856   0.099   4.069  10.148  0.0183  0.2279  0.9789
  392TMC3    C5 5857   0.069   4.157  10.047  0.0886 -0.5552 -0.1902
  392TMC3    C6 5858   4.706   4.131   9.945  0.0023 -1.0022  0.2468
  392TMC3     C 5859   0.022   3.870  10.274 -0.8459  0.1203  0.0836
  392TMC3     O 5860   4.692   3.761  10.257 -0.0246 -0.6920  0.0784
  392TMC3     H 5861   4.644   3.810  10.046 -1.5564  0.8345 -0.3832
  392TMC3    H1 5862   0.167   4.101  10.227 -0.2694 -2.1819  2.1767
  392TMC3    H2 5863   4.701   4.187   9.852  2.3366 -0.8385  0.1971
  392TMC3    C7 5864   0.135   4.283  10.052  0.1145  0.6234 -0.4444
  392TMC3    C8 5865   4.534   3.966   9.862 -0.2048  0.3722  0.2055
  392TMC3    O1 5866   0.181   4.317  10.162 -0.3506  0.1803 -0.5076
  392TMC3    O2 5867   4.491   3.853   9.870  0.0335  0.1175  0.2886
  393TMC3    C1 5868   2.865   2.125   9.845 -0.1859  0.1819  0.6429
  393TMC3    C2 5869   2.820   2.219   9.931  0.3400  0.1826 -0.5735
  393TMC3    C3 5870   2.735   2.189  10.028  0.0763  0.3066 -0.6719
  393TMC3    C4 5871   2.820   1.993   9.854 -0.1704 -0.3768 -0.0006
  393TMC3    C5 5872   2.724   1.967   9.949 -0.3263  0.7615  0.3193
  393TMC3    C6 5873   2.681   2.062  10.038 -0.6391  0.9552  0.1469
  393TMC3     C 5874   2.948   2.165   9.733  0.1638  0.1725 -0.1028
  393TMC3     O 5875   3.038   2.090   9.702  0.0802 -0.3707  0.5036
  393TMC3     H 5876   2.840   2.324   9.911 -2.4470  1.1366  1.5909
  393TMC3    H1 5877   2.841   1.927   9.770 -2.1526 -0.5741 -0.3267
  393TMC3    H2 5878   2.613   2.041  10.120  0.5801 -3.6236 -0.0345
  393TMC3    C7 5879   2.729   1.824   9.983 -0.1659 -0.4283 -0.6819
  393TMC3    C8 5880   2.718   2.268  10.145 -0.7428 -0.2199  0.0111
  393TMC3    O1 5881   2.712   1.742   9.897  0.2623 -0.2907  0.0630
  393TMC3    O2 5882   2.630   2.242  10.224 -0.4184 -0.2877 -0.4552
  394TMC3    C1 5883   0.428   2.616  11.013 -0.1145 -0.3557  0.6330
  394TMC3    C2 5884   0.373   2.739  11.033 -0.0268  0.3706 -0.3771
  394TMC3    C3 5885   0.414   2.840  10.951 -0.4125  0.9784 -0.6249
  394TMC3    C4 5886   0.519   2.597  10.911 -0.2808 -0.1707  0.1599
  394TMC3    C5 5887   0.570   2.705  10.852  0.3864 -0.5749  0.0337
  394TMC3    C6 5888   0.519   2.831  10.866 -0.3893 -0.2119 -0.2401
  394TMC3     C 5889   0.379   2.490  11.062 -0.8462  0.2706  0.1192
  394TMC3     O 5890   0.367   2.388  10.997 -0.1140 -0.2525 -0.0840
  394TMC3     H 5891   0.287   2.753  11.098  0.0547  1.4643 -0.5031
  394TMC3    H1 5892   0.570   2.503  10.894  0.2995  0.6924 -2.9633
  394TMC3    H2 5893   0.553   2.912  10.802 -0.1005  0.7833  1.1656
  394TMC3    C7 5894   0.661   2.698  10.740 -0.1299 -1.1099 -0.6242
  394TMC3    C8 5895   0.290   2.905  10.909  0.4626 -0.4441  0.0336
  394TMC3    O1 5896   0.755   2.780  10.736 -0.0177 -0.4130 -0.6998
  394TMC3    O2 5897   0.226   2.965  10.998  0.0668 -0.1454  0.5048
  395TMC3    C1 5898   3.882   4.208  13.902 -0.4069 -0.6911  0.2420
  395TMC3    C2 5899   3.746   4.211  13.919 -0.4267 -0.1003 -0.1983
  395TMC3    C3 5900   3.687   4.316  13.986 -0.1677 -0.1382 -1.0874
  395TMC3    C4 5901   3.960   4.313  13.939 -0.7837 -0.3370  0.2220
  395TMC3    C5 5902   3.902   4.406  14.018 -0.3574  0.2010  0.2828
  395TMC3    C6 5903   3.764   4.414  14.040 -0.5289 -0.3566  0.3470
  395TMC3     C 5904   3.931   4.085  13.962 -0.1629 -0.4747  0.6005
  395TMC3     O 5905   3.855   4.011  14.025  0.7151  0.3079  0.6278
  395TMC3     H 5906   3.691   4.125  13.884  3.3886 -1.6621 -2.3119
  395TMC3    H1 5907   4.060   4.327  13.899 -0.9617 -2.3333 -0.8941
  395TMC3    H2 5908   3.726   4.473  14.122 -1.5735 -0.6311  0.0668
  395TMC3    C7 5909   3.993   4.468  14.117  0.4471  0.4893  0.1545
  395TMC3    C8 5910   3.581   4.286  14.083  0.1264  0.6939 -0.2488
  395TMC3    O1 5911   3.941   4.537  14.205 -0.2835  0.0824 -0.9689
  395TMC3    O2 5912   3.505   4.368  14.126 -0.3786  0.6775 -0.1528
  396MPD2     C 5913   3.791   0.734  17.186 -0.4681 -0.2267  0.8661
  396MPD2    C1 5914   3.742   0.729  17.054 -0.1566  0.4069 -0.0881
  396MPD2    C2 5915   3.703   0.846  16.992 -0.5499  0.7146  0.1817
  396MPD2    C3 5916   3.722   0.968  17.052  0.4941 -0.1013  0.5944
  396MPD2    C4 5917   3.789   0.974  17.176  0.4576 -0.8046 -0.6009
  396MPD2    C5 5918   3.820   0.857  17.238 -0.7565  0.4329  0.0180
  396MPD2     H 5919   3.656   0.845  16.894 -0.5733 -0.1615  0.2059
  396MPD2    H1 5920   3.840   1.062  17.214 -2.2255  0.3849  0.2137
  396MPD2    H2 5921   3.822   0.642  17.236  0.2946 -0.0481  0.7221
  396MPD2    H3 5922   3.872   0.863  17.333  1.3129 -0.5512 -1.0581
  396MPD2     N 5923   3.685   1.083  16.976 -1.1248  0.0667  0.3896
  396MPD2    H5 5924   3.647   1.073  16.883  1.4026 -0.1679 -0.6097
  396MPD2    N1 5925   3.733   0.604  16.987 -0.0059 -0.0612  0.2844
  396MPD2    H7 5926   3.752   0.521  17.043  0.8747  1.4085  2.1805
  397TMC3    C1 5927   3.686   0.442  16.819 -0.0228 -0.0804  0.2813
  397TMC3    C2 5928   3.721   0.416  16.692  0.4041  0.3719 -0.0202
  397TMC3    C3 5929   3.737   0.283  16.657  0.1098 -0.4597 -0.1838
  397TMC3    C4 5930   3.696   0.349  16.919 -0.0296 -0.8104 -0.9362
  397TMC3    C5 5931   3.709   0.216  16.874 -0.2474 -0.5820  0.4091
  397TMC3    C6 5932   3.735   0.189  16.747  0.0957 -0.7050 -0.0259
  397TMC3     C 5933   3.714   0.581  16.858 -0.5318 -0.0405 -0.2618
  397TMC3     O 5934   3.687   0.662  16.773  0.1962  0.4578  0.5488
  397TMC3     H 5935   3.724   0.489  16.612 -1.3514  3.0162  2.3421
  397TMC3    H1 5936   3.654   0.363  17.019  1.9163  0.2737 -0.2708
  397TMC3    H2 5937   3.753   0.085  16.722 -0.6018 -0.5551 -1.1738
  397TMC3    C7 5938   3.700   0.101  16.961  0.2879 -1.1733 -0.8942
  397TMC3    C8 5939   3.784   0.250  16.524 -0.1562  0.1741  0.4551
  397TMC3    O1 5940   3.677   4.712  16.911 -0.1257  0.0080 -0.8353
  397TMC3    O2 5941   3.713   0.172  16.460 -0.3498 -0.2270  0.1563
  398MPD2     C 5942   1.817   1.408  17.348 -0.1911 -0.3888 -0.2508
  398MPD2    C1 5943   1.779   1.346  17.461 -0.0576  0.1137  0.1886
  398MPD2    C2 5944   1.867   1.332  17.570  0.3702 -0.2483  0.2807
  398MPD2    C3 5945   1.990   1.401  17.576 -0.0324  0.4680  0.1565
  398MPD2    C4 5946   2.023   1.476  17.465 -0.5023 -1.0828 -0.3365
  398MPD2    C5 5947   1.941   1.482  17.351  0.2459 -0.1195  0.7031
  398MPD2     H 5948   1.830   1.287  17.662 -2.1780 -2.5573 -1.8551
  398MPD2    H1 5949   2.095   1.556  17.481 -1.3830 -0.5484  0.9373
  398MPD2    H2 5950   1.759   1.407  17.256 -2.0449  0.3597  0.9138
  398MPD2    H3 5951   1.962   1.560  17.279 -2.1619 -0.2094 -0.1197
  398MPD2     N 5952   2.060   1.402   0.016  0.8675 -0.9484  0.0723
  398MPD2    H5 5953   2.032   1.337   0.089 -0.1964  0.1859  0.6800
  398MPD2    N1 5954   1.662   1.273  17.481  0.2275 -0.2405  0.1089
  398MPD2    H7 5955   1.652   1.215  17.564  0.9314 -1.2935 -0.5371
  399TMC3    C1 5956   1.451   1.197  17.424 -0.2047  0.2507  0.7360
  399TMC3    C2 5957   1.332   1.242  17.402  0.7058  0.5806 -0.6597
  399TMC3    C3 5958   1.230   1.152  17.396 -0.3883  0.1372 -0.3729
  399TMC3    C4 5959   1.484   1.062  17.457  0.0271 -0.4053  0.7695
  399TMC3    C5 5960   1.378   0.982  17.453 -0.2579 -0.3595  0.2170
  399TMC3    C6 5961   1.249   1.023  17.424  0.1667  0.7382 -0.1773
  399TMC3     C 5962   1.556   1.287  17.399 -0.4656  0.6232  0.0303
  399TMC3     O 5963   1.524   1.375  17.319 -0.2127 -0.7935 -0.2919
  399TMC3     H 5964   1.310   1.348  17.389 -0.6028  0.2641 -1.0225
  399TMC3    H1 5965   1.588   1.031  17.456  0.1005 -0.1035 -1.8296
  399TMC3    H2 5966   1.172   0.949  17.435 -0.7944  2.0071  1.5808
  399TMC3    C7 5967   1.396   0.837  17.474  1.5701 -0.3398 -0.4559
  399TMC3    C8 5968   1.099   1.210  17.437  0.0218  0.9063 -0.0117
  399TMC3    O1 5969   1.305   0.765  17.437 -0.5960  0.2557  0.0416
  399TMC3    O2 5970   1.097   1.330  17.459  0.1643  0.1253 -0.4065
  400TMC3    C1 5971   0.467   0.448  16.564  0.5913  0.1567  0.4521
  400TMC3    C2 5972   0.404   0.471  16.445  0.5863  0.3623 -0.5874
  400TMC3    C3 5973   0.355   0.595  16.415 -0.5047  0.5790 -0.0527
  400TMC3    C4 5974   0.497   0.555  16.651  0.5226  0.2354  0.5243
  400TMC3    C5 5975   0.445   0.676  16.612  0.4370 -0.1197  0.0571
  400TMC3    C6 5976   0.373   0.699  16.499  0.6150  0.2876  0.1438
  400TMC3     C 5977   0.515   0.320  16.592 -0.2466 -0.4186  0.4459
  400TMC3     O 5978   0.457   0.221  16.548 -0.3920  0.2182 -0.1873
  400TMC3     H 5979   0.362   0.384  16.394  0.9835 -1.6652  2.5932
  400TMC3    H1 5980   0.525   0.549  16.756 -0.2632 -0.8526  0.6827
  400TMC3    H2 5981   0.342   0.799  16.470 -0.3617 -0.1987 -0.4809
  400TMC3    C7 5982   0.504   0.792  16.689  0.7897  0.2227 -0.5182
  400TMC3    C8 5983   0.233   0.608  16.327  0.6884  1.2438  0.2872
  400TMC3    O1 5984   0.613   0.769  16.734 -0.1011  0.0247 -0.9681
  400TMC3    O2 5985   0.169   0.710  16.349 -0.3398 -0.1206  0.0164
  401MPD2     C 5986   3.559   2.905   0.083 -0.0377  0.0618  0.7347
  401MPD2    C1 5987   3.673   2.911   0.160  0.6104 -0.0421  0.5294
  401MPD2    C2 5988   3.743   2.796   0.203  0.3336  0.5314  0.0871
  401MPD2    C3 5989   3.695   2.672   0.159  0.9801 -0.3094  0.6556
  401MPD2    C4 5990   3.581   2.667   0.078 -0.3084 -0.2518 -0.2309
  401MPD2    C5 5991   3.510   2.779   0.035  0.0503  0.7409  0.3928
  401MPD2     H 5992   3.823   2.802   0.276 -0.2468 -0.2141  0.7777
  401MPD2    H1 5993   3.546   2.576   0.030 -0.3287 -0.9698  1.1297
  401MPD2    H2 5994   3.507   2.992   0.046  0.8158  0.4618  0.4748
  401MPD2    H3 5995   3.433   2.760  17.648  2.1063 -2.0300 -1.0449
  401MPD2     N 5996   3.748   2.555   0.210  0.0898 -0.4247  0.0101
  401MPD2    H5 5997   3.818   2.568   0.282 -1.8398 -0.6332  1.9237
  401MPD2    N1 5998   3.719   3.023   0.226 -0.1321 -0.5887 -0.3764
  401MPD2    H7 5999   3.811   3.020   0.270 -0.5085  0.5161  0.5022
  402TMC3    C1 6000   3.790   2.324   0.225 -0.5880  0.1872  0.0290
  402TMC3    C2 6001   3.818   2.331   0.361 -0.5575 -0.5962  0.2532
  402TMC3    C3 6002   3.877   2.227   0.425 -0.2400 -0.0873  0.0926
  402TMC3    C4 6003   3.826   2.209   0.164  0.0077 -0.0273 -0.2520
  402TMC3    C5 6004   3.898   2.107   0.233  0.6152  0.5388 -0.5527
  402TMC3    C6 6005   3.915   2.109   0.370 -0.2197  0.0646  0.1537
  402TMC3     C 6006   3.730   2.430   0.154  0.3353  0.4435 -0.6984
  402TMC3     O 6007   3.701   2.404   0.036  0.4370  0.4369 -0.1103
  402TMC3     H 6008   3.771   2.409   0.419  1.5701  0.0956  1.0297
  402TMC3    H1 6009   3.815   2.202   0.056  2.9803  0.3213 -0.5926
  402TMC3    H2 6010   3.952   2.021   0.421  0.7814  0.2307 -0.2955
  402TMC3    C7 6011   3.969   2.004   0.166  0.6532 -0.0183 -0.0471
  402TMC3    C8 6012   3.920   2.245   0.566 -0.1027 -0.6129  0.3983
  402TMC3    O1 6013   3.947   1.999   0.047 -0.0170 -0.8284 -0.3811
  402TMC3    O2 6014   3.943   2.146   0.637  0.1682  0.2084 -0.2965
  403MPD2     C 6015   2.454   1.692  12.860  0.3609  0.3650 -0.2511
  403MPD2    C1 6016   2.488   1.654  12.989  1.0432 -0.2174  0.1792
  403MPD2    C2 6017   2.514   1.758  13.076  0.0294 -0.6762 -0.3625
  403MPD2    C3 6018   2.508   1.894  13.040  0.3731  0.7838  0.1082
  403MPD2    C4 6019   2.471   1.929  12.915  1.0380 -0.0078 -0.7914
  403MPD2    C5 6020   2.440   1.825  12.829 -0.2622 -0.1010  0.5366
  403MPD2     H 6021   2.547   1.731  13.176 -1.7084 -0.9367  0.1331
  403MPD2    H1 6022   2.469   2.028  12.871  0.9351  0.5843  0.5486
  403MPD2    H2 6023   2.439   1.619  12.782  1.3079 -1.8642  1.6570
  403MPD2    H3 6024   2.421   1.849  12.725 -1.9329 -0.0300  0.8586
  403MPD2     N 6025   2.546   1.986  13.138 -0.5735  0.7116 -0.1286
  403MPD2    H5 6026   2.587   1.958  13.226  1.5548  2.4413 -0.5624
  403MPD2    N1 6027   2.495   1.520  13.030 -0.4031 -0.1150  0.1726
  403MPD2    H7 6028   2.473   1.450  12.961 -1.0511  0.0191  0.2482
  404TMC3    C1 6029   2.477   1.332  13.172 -0.0230 -0.6291 -0.2859
  404TMC3    C2 6030   2.435   1.309  13.299 -0.5678  0.4858  0.1156
  404TMC3    C3 6031   2.315   1.240  13.314  0.1518  0.5364  0.4153
  404TMC3    C4 6032   2.403   1.295  13.066  0.0678  0.0095  0.2458
  404TMC3    C5 6033   2.284   1.226  13.084  0.3380  0.0730 -0.1680
  404TMC3    C6 6034   2.232   1.198  13.208  0.0829  0.7689  0.4789
  404TMC3     C 6035   2.524   1.470  13.154  0.1355  0.6004  0.2361
  404TMC3     O 6036   2.558   1.529  13.257  0.1168  0.1029 -0.5057
  404TMC3     H 6037   2.503   1.329  13.381 -0.2764 -3.3395  0.8046
  404TMC3    H1 6038   2.458   1.291  12.972  0.8456  1.7853  0.6152
  404TMC3    H2 6039   2.140   1.141  13.210  1.3116 -1.1689  1.2770
  404TMC3    C7 6040   2.267   1.129  12.970  0.7456 -0.2590 -0.1865
  404TMC3    C8 6041   2.255   1.248  13.445  0.5657 -0.0640 -1.2513
  404TMC3    O1 6042   2.368   1.093  12.909  0.1890 -0.0902 -0.1367
  404TMC3    O2 6043   2.175   1.160  13.467 -0.2472 -0.3955  0.0581
  405MPD2     C 6044   2.494   2.792  14.388  0.4532 -0.9738 -0.3404
  405MPD2    C1 6045   2.478   2.749  14.251  0.2597  0.5029 -0.1072
  405MPD2    C2 6046   2.434   2.840  14.155  0.3534  0.7920  0.2791
  405MPD2    C3 6047   2.401   2.965  14.195  0.7268 -0.7841  0.6171
  405MPD2    C4 6048   2.412   3.006  14.327 -0.6623  0.5920  0.0744
  405MPD2    C5 6049   2.462   2.922  14.424 -0.2413  0.0453 -0.1967
  405MPD2     H 6050   2.414   2.812  14.052  1.0951  0.0195  0.3385
  405MPD2    H1 6051   2.382   3.103  14.364  0.5524  1.3224 -0.8794
  405MPD2    H2 6052   2.535   2.731  14.468  1.5310 -1.6107 -1.3774
  405MPD2    H3 6053   2.481   2.956  14.525  0.2547 -2.2864  0.5130
  405MPD2     N 6054   2.359   3.055  14.096 -0.0802  0.7668  0.4801
  405MPD2    H5 6055   2.345   3.013  14.004 -1.0580  2.5770 -0.2089
  405MPD2    N1 6056   2.507   2.614  14.219  0.2828 -0.6349  0.4047
  405MPD2    H7 6057   2.527   2.549  14.296 -0.2768 -0.9454  0.2920
  406TMC3    C1 6058   2.096   3.328  13.857 -0.8271  0.3234 -0.2864
  406TMC3    C2 6059   2.120   3.240  13.753  0.0969  0.0961  0.3932
  406TMC3    C3 6060   2.233   3.165  13.746 -0.1029  0.2522 -0.2576
  406TMC3    C4 6061   2.174   3.330  13.971  0.8287  0.3672 -0.1054
  406TMC3    C5 6062   2.281   3.240  13.972  0.1726 -0.2833 -0.7853
  406TMC3    C6 6063   2.314   3.159  13.862 -0.2589 -0.0882  0.2876
  406TMC3     C 6064   1.960   3.346  13.896 -0.2009  0.1054 -0.3772
  406TMC3     O 6065   1.922   3.453  13.933 -0.0479  0.5402 -0.0036
  406TMC3     H 6066   2.048   3.227  13.673 -0.3838  0.9973  0.6775
  406TMC3    H1 6067   2.149   3.389  14.059 -2.7967 -1.2211 -0.0686
  406TMC3    H2 6068   2.414   3.118  13.860 -0.3459 -0.2973  0.1944
  406TMC3    C7 6069   2.322   3.190  14.103 -0.0185 -0.0264  0.0790
  406TMC3    C8 6070   2.255   3.070  13.639  0.0172  0.0685 -0.1248
  406TMC3    O1 6071   2.330   3.270  14.195  0.6908  0.3743  0.2879
  406TMC3    O2 6072   2.184   3.089  13.541  1.1829  0.3037  0.0740
  407MPD2     C 6073   0.698   4.228   9.090  0.3186  0.0105  0.3532
  407MPD2    C1 6074   0.734   4.114   9.160  0.2970  0.1888 -0.6938
  407MPD2    C2 6075   0.736   4.117   9.299 -0.2695  0.2929  0.6131
  407MPD2    C3 6076   0.704   4.240   9.365 -0.3289  0.4636  0.5458
  407MPD2    C4 6077   0.660   4.345   9.287 -0.5022  0.4899 -0.5581
  407MPD2    C5 6078   0.646   4.340   9.152  0.6651 -0.1237 -0.5306
  407MPD2     H 6079   0.765   4.031   9.357  0.6106 -0.0189 -0.2984
  407MPD2    H1 6080   0.619   4.437   9.328  1.8768  0.9898  0.7169
  407MPD2    H2 6081   0.691   4.235   8.982 -2.1859 -1.2982  0.4423
  407MPD2    H3 6082   0.628   4.426   9.089 -2.0425  0.0255  0.4600
  407MPD2     N 6083   0.709   4.262   9.506 -0.2710  0.5547 -0.3066
  407MPD2    H5 6084   0.685   4.356   9.538  0.4132  0.6756 -0.1614
  407MPD2    N1 6085   0.765   3.994   9.101  0.0478  0.1026  0.2588
  407MPD2    H7 6086   0.795   3.915   9.157  1.0934  0.6905  0.5331
  408TMC3    C1 6087   0.776   3.817   8.937  0.2664 -0.6677  0.3182
  408TMC3    C2 6088   0.886   3.760   8.997 -0.6332 -0.2047 -0.4342
  408TMC3    C3 6089   0.919   3.632   8.953  0.3726  0.2800 -0.3338
  408TMC3    C4 6090   0.694   3.756   8.851  0.4151 -0.9908 -0.0204
  408TMC3    C5 6091   0.726   3.622   8.828 -0.4617  0.6133  0.0593
  408TMC3    C6 6092   0.833   3.557   8.874  0.1832 -0.4255  0.0517
  408TMC3     C 6093   0.742   3.964   8.967 -0.8087  1.1100  0.2481
  408TMC3     O 6094   0.676   4.032   8.885 -0.2818  1.0144 -0.3866
  408TMC3     H 6095   0.958   3.820   9.051 -3.5343  1.6186  1.3829
  408TMC3    H1 6096   0.606   3.801   8.806 -1.0171 -3.6275  0.1377
  408TMC3    H2 6097   0.852   3.454   8.846 -0.1498 -0.4779  0.0196
  408TMC3    C7 6098   0.615   3.540   8.781  0.1717  0.8310  0.4294
  408TMC3    C8 6099   1.037   3.560   8.997 -0.2596 -0.5403  0.0327
  408TMC3    O1 6100   0.658   3.434   8.742 -0.0857 -0.1337  0.7393
  408TMC3    O2 6101   1.022   3.437   9.003  0.0953 -0.3153  0.1922
  409MPD2     C 6102   4.335   0.210  16.121  0.1678 -0.8211 -0.5594
  409MPD2    C1 6103   4.356   0.161  16.251  0.3676 -0.0425 -0.4725
  409MPD2    C2 6104   4.431   0.227  16.346  0.0900 -0.0842  0.8287
  409MPD2    C3 6105   4.519   0.328  16.302 -0.2722 -0.7135  0.0292
  409MPD2    C4 6106   4.504   0.375  16.174 -0.3742 -1.1735 -0.3030
  409MPD2    C5 6107   4.420   0.314  16.080 -0.0461 -0.0674 -0.9165
  409MPD2     H 6108   4.424   0.183  16.444  0.7115 -0.7150  0.5959
  409MPD2    H1 6109   4.562   0.459  16.140 -2.8065  0.9771  0.8909
  409MPD2    H2 6110   4.261   0.171  16.053 -1.6906  0.7622  0.5570
  409MPD2    H3 6111   4.420   0.353  15.979 -3.2952  2.2782 -0.0502
  409MPD2     N 6112   4.604   0.397  16.387 -0.3061 -0.4915 -0.6185
  409MPD2    H5 6113   4.654   0.474  16.344 -1.9987  0.7842 -0.2880
  409MPD2    N1 6114   4.282   0.048  16.298  0.2635 -0.1392  0.2948
  409MPD2    H7 6115   4.289   0.026  16.397 -1.8044 -0.3466  0.3988
  410TMC3    C1 6116   4.717   0.462  16.581 -0.0725 -1.0380  0.5011
  410TMC3    C2 6117   0.077   0.416  16.676  0.2491 -0.6654 -0.3363
  410TMC3    C3 6118   0.139   0.509  16.763 -0.4917  0.1498 -0.1573
  410TMC3    C4 6119   4.698   0.596  16.554  0.7377 -0.0283 -0.8716
  410TMC3    C5 6120   0.053   0.682  16.630  0.8144  0.5146  0.3507
  410TMC3    C6 6121   0.131   0.643  16.735  0.1270 -0.8537 -0.1297
  410TMC3     C 6122   4.638   0.360  16.520 -0.2719  0.3336 -0.0667
  410TMC3     O 6123   4.608   0.259  16.582  0.0083 -0.1221 -0.3685
  410TMC3     H 6124   0.091   0.309  16.666  0.8993 -0.8837  2.8483
  410TMC3    H1 6125   4.633   0.633  16.475  1.9864  0.9746 -1.4298
  410TMC3    H2 6126   0.166   0.726  16.795 -2.2157  1.3095 -1.7393
  410TMC3    C7 6127   0.054   0.818  16.604 -0.3209  0.1910 -0.5060
  410TMC3    C8 6128   0.238   0.469  16.861  1.0828  0.6371 -0.2396
  410TMC3    O1 6129   0.153   0.887  16.638 -0.5157 -0.4764  0.1625
  410TMC3    O2 6130   0.313   0.556  16.907 -0.3717  0.1114 -0.1610
  411MPD2     C 6131   4.217   0.247  14.223  0.3055  0.6244  0.7775
  411MPD2    C1 6132   4.088   0.297  14.203 -0.0419  0.1260 -0.5081
  411MPD2    C2 6133   4.003   0.232  14.117 -0.1536  0.4587 -0.0522
  411MPD2    C3 6134   4.046   0.133  14.036 -0.3513  0.4419  0.6608
  411MPD2    C4 6135   4.181   0.090  14.046  0.2537 -0.3621  0.3751
  411MPD2    C5 6136   4.249   0.136  14.151  0.4441  0.3447 -0.0443
  411MPD2     H 6137   3.901   0.267  14.109 -0.3103  0.1440  0.5370
  411MPD2    H1 6138   4.220   4.719  14.004 -0.5105  0.0041 -1.1395
  411MPD2    H2 6139   4.285   0.277  14.303 -0.2234  0.4920  1.2792
  411MPD2    H3 6140   4.341   0.086  14.177 -0.0931 -1.3114 -1.3069
  411MPD2     N 6141   3.966   0.065  13.947 -0.3883 -0.3754  0.7616
  411MPD2    H5 6142   4.012   4.721  13.884 -2.8176 -1.4466  0.1137
  411MPD2    N1 6143   4.035   0.413  14.262  0.0602 -0.2073 -0.4234
  411MPD2    H7 6144   3.939   0.440  14.242  0.0458 -0.4886 -0.7223
  412TMC3    C1 6145   3.757   0.014  13.830 -0.1977 -0.8010 -0.3523
  412TMC3    C2 6146   3.624   0.009  13.837  0.2120 -0.8958  0.2552
  412TMC3    C3 6147   3.548   0.019  13.725 -0.0571  0.0235 -0.4302
  412TMC3    C4 6148   3.811   0.032  13.708  0.1696 -0.4828  0.1373
  412TMC3    C5 6149   3.730   0.030  13.589 -0.8033  0.4092 -0.0852
  412TMC3    C6 6150   3.596   0.018  13.598  0.0003 -0.2988  0.6528
  412TMC3     C 6151   3.826   0.068  13.948  0.8602  0.4460  0.1673
  412TMC3     O 6152   3.764   0.097  14.044  0.5612 -0.2999 -0.6202
  412TMC3     H 6153   3.584   0.003  13.937 -1.7286 -0.1975 -0.4746
  412TMC3    H1 6154   3.915   0.060  13.694 -0.0888 -0.6105 -2.0571
  412TMC3    H2 6155   3.539   0.020  13.506  2.7758 -0.0738 -1.0468
  412TMC3    C7 6156   3.776   0.135  13.504  0.3785 -0.4243 -0.3486
  412TMC3    C8 6157   3.435   0.110  13.727  0.1281  0.1392  0.5206
  412TMC3    O1 6158   3.894   0.155  13.475 -0.7014  0.0040  0.3976
  412TMC3    O2 6159   3.420   0.175  13.624 -0.0383 -0.8220  0.2675
  413MPD2     C 6160   1.317   3.987  15.322  0.8170  0.4065 -0.5485
  413MPD2    C1 6161   1.272   3.976  15.189  0.5233  0.9363  0.1268
  413MPD2    C2 6162   1.364   3.924  15.100 -0.4219 -0.4351  0.8311
  413MPD2    C3 6163   1.501   3.921  15.137  0.3511  0.1490 -0.1774
  413MPD2    C4 6164   1.544   3.954  15.267  0.3946 -0.4615 -0.0146
  413MPD2    C5 6165   1.443   3.960  15.360  0.2949 -0.5750 -0.0726
  413MPD2     H 6166   1.339   3.892  15.000  1.2082  1.5755 -0.2235
  413MPD2    H1 6167   1.648   3.949  15.296  0.7874  3.4998 -0.7550
  413MPD2    H2 6168   1.243   3.998  15.401  0.6229  0.9509 -0.8063
  413MPD2    H3 6169   1.477   3.971  15.462  2.3736 -1.2755 -0.6879
  413MPD2     N 6170   1.592   3.887  15.031  0.4278  0.0227 -0.1622
  413MPD2    H5 6171   1.552   3.862  14.941 -0.2329 -2.3251  0.7790
  413MPD2    N1 6172   1.131   3.983  15.164  0.4355  0.6634  0.0406
  413MPD2    H7 6173   1.061   4.007  15.234  1.1458  0.4143  0.8336
  414TMC3    C1 6174   1.782   3.813  14.936  0.1848  0.1262  0.7958
  414TMC3    C2 6175   1.856   3.698  14.950 -0.4050  1.0083  0.0970
  414TMC3    C3 6176   1.874   3.617  14.847 -0.1747  0.6891  0.7885
  414TMC3    C4 6177   1.715   3.830  14.816 -0.1551  0.6410  0.8387
  414TMC3    C5 6178   1.723   3.740  14.718  0.2994 -0.4892  0.4590
  414TMC3    C6 6179   1.806   3.630  14.732 -0.0866 -0.3819  0.4636
  414TMC3     C 6180   1.725   3.870  15.055  0.2911  0.4794  0.4994
  414TMC3     O 6181   1.798   3.896  15.153 -0.1364  0.1149  0.6753
  414TMC3     H 6182   1.887   3.669  15.049  1.0874 -0.0201 -0.6676
  414TMC3    H1 6183   1.655   3.918  14.799 -1.9007 -0.4534  1.3798
  414TMC3    H2 6184   1.823   3.564  14.648 -0.4810  0.1261 -0.0181
  414TMC3    C7 6185   1.726   3.808  14.592  0.4026  0.5736  0.6444
  414TMC3    C8 6186   1.980   3.513  14.864  0.2761  0.2446 -0.2669
  414TMC3    O1 6187   1.784   3.913  14.609  0.2339 -0.5504  0.4164
  414TMC3    O2 6188   1.989   3.432  14.776 -0.2341  0.2434 -0.2237
  415TMC3    C1 6189   2.592   0.625   9.562  0.7029  1.0893 -0.3531
  415TMC3    C2 6190   2.647   0.754   9.579 -0.2740  0.7807  0.0915
  415TMC3    C3 6191   2.577   0.863   9.538 -0.6061 -0.7643  0.0420
  415TMC3    C4 6192   2.467   0.606   9.506 -0.4522 -0.8904 -0.1948
  415TMC3    C5 6193   2.396   0.720   9.481  0.1573  0.2630 -0.1275
  415TMC3    C6 6194   2.452   0.841   9.495  0.0147  0.1076 -1.1033
  415TMC3     C 6195   2.638   0.502   9.636 -0.2372 -0.0017 -0.5831
  415TMC3     O 6196   2.574   0.398   9.613  0.0629 -0.5184  0.4547
  415TMC3     H 6197   2.745   0.761   9.623 -0.1868 -1.3067  0.2048
  415TMC3    H1 6198   2.431   0.511   9.468 -1.8454 -0.0699 -0.9258
  415TMC3    H2 6199   2.385   0.921   9.465 -1.6178  0.0127  2.2867
  415TMC3    C7 6200   2.268   0.712   9.419 -0.4410 -0.4782  0.0395
  415TMC3    C8 6201   2.605   0.986   9.607 -0.0536 -0.3555  0.2238
  415TMC3    O1 6202   2.247   0.786   9.322 -0.4257 -0.0311 -0.1569
  415TMC3    O2 6203   2.505   1.057   9.619 -0.0764 -0.6562  0.3333
  416MPD2     C 6204   4.191   0.236  11.466  0.4285 -0.8520 -0.3938
  416MPD2    C1 6205   4.145   0.263  11.343  0.5322  0.3888  0.0774
  416MPD2    C2 6206   4.180   0.181  11.237  0.0986  0.2074  0.1986
  416MPD2    C3 6207   4.272   0.084  11.255  0.0845  0.9718 -0.0908
  416MPD2    C4 6208   4.326   0.058  11.377 -0.6028  0.1890 -0.2228
  416MPD2    C5 6209   4.286   0.138  11.483  0.1541  0.2667  0.8879
  416MPD2     H 6210   4.132   0.204  11.142 -3.0152 -3.3614  0.8786
  416MPD2    H1 6211   4.408   4.710  11.392 -0.8545  0.2704  1.4783
  416MPD2    H2 6212   4.172   0.293  11.557  0.2625 -1.4406 -0.0556
  416MPD2    H3 6213   4.322   0.109  11.582  1.4654  2.9847  1.2162
  416MPD2     N 6214   4.316   0.012  11.152  0.5756 -0.1950 -0.2129
  416MPD2    H5 6215   4.381   4.661  11.182 -0.3665 -1.9117 -2.2381
  416MPD2    N1 6216   4.073   0.386  11.323 -0.3826 -0.0237 -0.0393
  416MPD2    H7 6217   4.086   0.453  11.399  2.4921  1.8510 -2.1778
  417TMC3    C1 6218   3.918   0.541  11.273 -0.7566  0.5070 -0.3682
  417TMC3    C2 6219   3.880   0.544  11.411 -0.8744  1.0881  0.1076
  417TMC3    C3 6220   3.806   0.651  11.452 -0.8502 -0.6959 -0.9044
  417TMC3    C4 6221   3.860   0.630  11.186  0.1409 -0.5079 -0.4716
  417TMC3    C5 6222   3.781   0.732  11.231 -0.5164  0.8005 -0.0567
  417TMC3    C6 6223   3.759   0.747  11.368  0.2829  0.6027 -0.2346
  417TMC3     C 6224   3.994   0.428  11.218 -0.5247  0.3556  0.3223
  417TMC3     O 6225   3.954   0.381  11.115  0.3566 -0.7170  0.1622
  417TMC3     H 6226   3.919   0.478  11.487  0.5773  0.8200 -0.8764
  417TMC3    H1 6227   3.879   0.633  11.079 -2.5689  3.5937 -0.8254
  417TMC3    H2 6228   3.680   0.816  11.396  0.2825  0.3436  0.4044
  417TMC3    C7 6229   3.737   0.827  11.127  0.8145 -0.6854  0.4933
  417TMC3    C8 6230   3.790   0.680  11.594 -0.7490 -0.0252  0.5883
  417TMC3    O1 6231   3.743   0.947  11.155 -0.1464 -0.2863  0.1138
  417TMC3    O2 6232   3.720   0.779  11.619 -0.6500  0.1166  0.0072
  418TMC3    C1 6233   2.443   1.310   0.221  0.2362  0.0118 -0.3213
  418TMC3    C2 6234   2.374   1.382   0.130 -0.0724  0.0246 -0.4394
  418TMC3    C3 6235   2.244   1.418   0.156  0.1226 -0.2428 -0.5558
  418TMC3    C4 6236   2.385   1.280   0.346 -0.0077  0.1089  0.1646
  418TMC3    C5 6237   2.252   1.320   0.370  0.0806 -0.0154 -0.0803
  418TMC3    C6 6238   2.180   1.388   0.275 -0.7988 -0.4207 -0.2630
  418TMC3     C 6239   2.564   1.244   0.185  0.0204  0.2655 -0.0243
  418TMC3     O 6240   2.633   1.284   0.095 -0.3978  0.7815  0.1484
  418TMC3     H 6241   2.415   1.367   0.030 -1.9899  0.8482 -1.3548
  418TMC3    H1 6242   2.439   1.234   0.428 -0.7714  0.2714  0.7636
  418TMC3    H2 6243   2.086   1.436   0.300 -0.2737  0.6677 -0.3746
  418TMC3    C7 6244   2.180   1.279   0.489 -0.2311 -0.2019  1.0260
  418TMC3    C8 6245   2.184   1.460   0.036  0.3849 -0.3370 -0.0189
  418TMC3    O1 6246   2.063   1.265   0.472 -0.1820  0.0547 -0.0641
  418TMC3    O2 6247   2.247   1.544  17.661 -0.4272  0.0817 -0.0498
  419MPD2     C 6248   1.336   4.650  12.166 -0.1217  0.2774  0.4716
  419MPD2    C1 6249   1.263   0.037  12.121 -0.4446  0.2032 -0.2800
  419MPD2    C2 6250   1.217   0.131  12.216 -0.3142  0.1047  0.6098
  419MPD2    C3 6251   1.233   0.101  12.355  0.6053  0.0525 -0.7319
  419MPD2    C4 6252   1.295   4.704  12.394 -0.0789  0.1380 -0.4242
  419MPD2    C5 6253   1.352   4.623  12.300 -0.4249 -0.5263 -0.2361
  419MPD2     H 6254   1.185   0.228  12.178 -0.8572  0.5561  2.2368
  419MPD2    H1 6255   1.305   4.673  12.497  2.9786  0.9913 -0.4747
  419MPD2    H2 6256   1.385   4.576  12.104 -1.1542 -0.6449  0.7390
  419MPD2    H3 6257   1.402   4.532  12.333 -0.8784 -0.2312  1.2762
  419MPD2     N 6258   1.175   0.191  12.443  0.8066 -0.4038  0.1621
  419MPD2    H5 6259   1.130   0.266  12.393 -0.0723  1.6903  4.1140
  419MPD2    N1 6260   1.237   0.071  11.984 -0.1916 -0.8129  0.3537
  419MPD2    H7 6261   1.182   0.154  11.962 -0.6601 -1.2263 -0.0313
  420TMC3    C1 6262   1.090   0.281  12.643 -0.2299 -0.6386 -0.6526
  420TMC3    C2 6263   0.974   0.325  12.586  0.0275  0.5724  0.3978
  420TMC3    C3 6264   0.902   0.419  12.662  0.0565 -0.6177  0.0400
  420TMC3    C4 6265   1.138   0.333  12.764 -0.0935  0.1833 -0.5222
  420TMC3    C5 6266   1.061   0.419  12.836  0.4461 -0.5029 -0.7158
  420TMC3    C6 6267   0.942   0.462  12.786 -0.0237  0.1626 -0.8860
  420TMC3     C 6268   1.172   0.180  12.575  0.4311 -0.5403 -0.4662
  420TMC3     O 6269   1.233   0.100  12.643  0.6945 -0.0687  0.0720
  420TMC3     H 6270   0.942   0.296  12.487 -0.4757 -1.3205  1.1127
  420TMC3    H1 6271   1.216   0.276  12.815 -0.5701 -2.3644 -2.6623
  420TMC3    H2 6272   0.864   0.514  12.840 -1.2200 -1.5152 -0.9922
  420TMC3    C7 6273   1.078   0.411  12.976 -0.2907  0.2441  0.0764
  420TMC3    C8 6274   0.767   0.449  12.614  0.3423  0.4219  0.4704
  420TMC3    O1 6275   1.128   0.316  13.032 -0.1169  0.1021  0.0654
  420TMC3    O2 6276   0.713   0.559  12.618 -0.3141 -0.1909 -0.5860
  421TMC3    C1 6277   2.579   2.196  13.235 -0.6416 -0.5341  0.6353
  421TMC3    C2 6278   2.632   2.316  13.222 -0.1070  0.6821  0.4569
  421TMC3    C3 6279   2.684   2.372  13.339 -0.4478  0.0844 -0.2846
  421TMC3    C4 6280   2.571   2.137  13.358 -0.3796 -0.4324  0.2883
  421TMC3    C5 6281   2.640   2.193  13.463  0.6804 -0.6574  0.6449
  421TMC3    C6 6282   2.690   2.319  13.460 -0.1344  0.2852  0.2964
  421TMC3     C 6283   2.534   2.121  13.121  0.6582  0.2067 -0.2659
  421TMC3     O 6284   2.483   2.182  13.030  0.2758  0.5848  0.9263
  421TMC3     H 6285   2.639   2.352  13.119  1.3789 -2.0566 -0.3794
  421TMC3    H1 6286   2.512   2.047  13.369  1.7375 -1.8680  0.0395
  421TMC3    H2 6287   2.748   2.362  13.541  0.5861 -0.7488  0.3282
  421TMC3    C7 6288   2.654   2.113  13.582 -0.0378 -0.3303  0.4422
  421TMC3    C8 6289   2.764   2.493  13.323 -0.0064  0.1513 -0.5373
  421TMC3    O1 6290   2.768   2.119  13.628 -0.3054 -0.3613  0.2971
  421TMC3    O2 6291   2.841   2.505  13.226 -0.5251 -0.3506  0.4297
  422TMC3    C1 6292   0.446   3.584  12.325 -0.5189  0.0744  0.2631
  422TMC3    C2 6293   0.389   3.707  12.320  0.0194  0.6704  0.1553
  422TMC3    C3 6294   0.267   3.717  12.380 -0.0035  0.0279 -0.0408
  422TMC3    C4 6295   0.385   3.482  12.389  0.3408 -0.4208 -0.2832
  422TMC3    C5 6296   0.263   3.498  12.443 -0.2052 -0.5084 -0.5289
  422TMC3    C6 6297   0.203   3.615  12.441  0.1048 -0.2210  0.0452
  422TMC3     C 6298   0.554   3.551  12.232  0.3446 -1.0939 -0.7338
  422TMC3     O 6299   0.599   3.648  12.173 -0.2513 -0.3041  0.3030
  422TMC3     H 6300   0.436   3.786  12.263  0.5785 -1.4746 -2.3334
  422TMC3    H1 6301   0.426   3.384  12.411 -0.0210 -0.4825  0.1043
  422TMC3    H2 6302   0.109   3.635  12.492 -0.8884  0.1266 -1.9479
  422TMC3    C7 6303   0.188   3.371  12.459 -0.7726  1.2543  0.0140
  422TMC3    C8 6304   0.212   3.849  12.372 -0.1897 -0.0574  0.2820
  422TMC3    O1 6305   0.241   3.262  12.442  0.2611  0.7378  0.1821
  422TMC3    O2 6306   0.278   3.944  12.338  0.1747 -0.5101  1.1297
  423MPD2     C 6307   1.714   4.268   0.087  0.2371  0.3393 -0.3141
  423MPD2    C1 6308   1.584   4.246   0.127  0.4019  0.7220 -0.2741
  423MPD2    C2 6309   1.495   4.177   0.044  0.8499 -1.0875  0.5640
  423MPD2    C3 6310   1.534   4.135  17.602  0.5059 -0.9301  0.6585
  423MPD2    C4 6311   1.667   4.165  17.561  0.2610 -0.6149  0.1837
  423MPD2    C5 6312   1.755   4.229  17.644  0.6648 -0.0175 -0.1433
  423MPD2     H 6313   1.393   4.163   0.077  0.2737  0.5374 -0.5160
  423MPD2    H1 6314   1.699   4.147  17.459 -1.4790 -0.3440 -0.4093
  423MPD2    H2 6315   1.786   4.325   0.144  0.1624  0.4162 -0.2965
  423MPD2    H3 6316   1.857   4.248  17.615  1.0741  2.1510  2.6915
  423MPD2     N 6317   1.441   4.075  17.516 -0.6943  0.9027  0.0924
  423MPD2    H5 6318   1.469   4.065  17.419 -0.4268 -1.6852  0.4194
  423MPD2    N1 6319   1.532   4.287   0.250 -0.1729  0.1871  0.4786
  423MPD2    H7 6320   1.434   4.281   0.274 -0.7374  0.6426 -1.7626
  424TMC3    C1 6321   1.524   4.359   0.473 -0.0222 -0.1981  0.0384
  424TMC3    C2 6322   1.587   4.335   0.594 -0.3051  0.3329 -0.2852
  424TMC3    C3 6323   1.509   4.350   0.703  0.6163 -0.3798 -0.1279
  424TMC3    C4 6324   1.389   4.393   0.463 -0.0249 -0.3827  0.3012
  424TMC3    C5 6325   1.317   4.399   0.578 -0.5120 -0.3640 -0.5201
  424TMC3    C6 6326   1.375   4.371   0.699 -0.4441 -0.9330  0.5901
  424TMC3     C 6327   1.606   4.339   0.355  0.0120  0.3819  0.1365
  424TMC3     O 6328   1.725   4.359   0.369  0.6556  0.1731  0.0919
  424TMC3     H 6329   1.694   4.321   0.606 -0.7223 -1.2358  1.5960
  424TMC3    H1 6330   1.339   4.418   0.370 -2.3237  0.2542  1.6996
  424TMC3    H2 6331   1.322   4.396   0.790  0.4474 -0.5779  1.0134
  424TMC3    C7 6332   1.167   4.387   0.565 -0.2875  0.3773 -0.1129
  424TMC3    C8 6333   1.555   4.312   0.835 -0.9629  0.1809 -0.2438
  424TMC3    O1 6334   1.107   4.405   0.460 -0.2882  0.2965 -0.3701
  424TMC3    O2 6335   1.467   4.288   0.914 -0.0209  0.1985  0.6487
  425MPD2     C 6336   4.492   3.724  16.547  0.4643  0.4250  0.1069
  425MPD2    C1 6337   4.474   3.593  16.586 -0.8115 -0.1048  0.2656
  425MPD2    C2 6338   4.351   3.552  16.627  0.8219  0.3288 -0.1823
  425MPD2    C3 6339   4.248   3.637  16.642 -0.0362 -0.3316 -0.0934
  425MPD2    C4 6340   4.265   3.770  16.607  0.7880 -0.0527 -0.1035
  425MPD2    C5 6341   4.387   3.810  16.555 -0.0478  0.5195  0.1285
  425MPD2     H 6342   4.341   3.448  16.656  2.5273 -0.3814 -2.1430
  425MPD2    H1 6343   4.186   3.842  16.624  0.0570 -0.8294 -0.2027
  425MPD2    H2 6344   4.585   3.768  16.516  0.0213  1.0071 -0.3934
  425MPD2    H3 6345   4.405   3.914  16.531  1.6027  0.1596 -0.1899
  425MPD2     N 6346   4.135   3.587  16.707 -0.1558 -0.8833  0.4556
  425MPD2    H5 6347   4.141   3.490  16.735  0.2962 -1.3794 -1.3419
  425MPD2    N1 6348   4.588   3.510  16.580  0.1249 -0.6104  0.1408
  425MPD2    H7 6349   4.679   3.555  16.583  0.0045 -0.2916 -1.3977
  426TMC3    C1 6350   0.006   3.312  16.582  0.6420  1.1735 -0.1543
  426TMC3    C2 6351   4.721   3.178  16.545 -0.2109 -0.3950  0.4475
  426TMC3    C3 6352   0.113   3.103  16.567 -0.4532 -0.2238  0.0785
  426TMC3    C4 6353   0.095   3.364  16.676  0.1273  0.1892 -1.3057
  426TMC3    C5 6354   0.198   3.272  16.696  0.3564 -0.8100  0.0440
  426TMC3    C6 6355   0.217   3.145  16.641  0.6980  0.2762 -0.2166
  426TMC3     C 6356   4.594   3.372  16.580 -0.4723  0.7538 -0.4003
  426TMC3     O 6357   4.494   3.298  16.594  0.0148 -0.1777  0.2540
  426TMC3     H 6358   4.645   3.142  16.477 -1.0124  2.1991 -0.0059
  426TMC3    H1 6359   0.083   3.460  16.726  1.4350 -0.6990  0.7575
  426TMC3    H2 6360   0.308   3.088  16.651  0.7473  0.0875 -1.7155
  426TMC3    C7 6361   0.268   3.296  16.823  0.2756 -0.1025 -0.3332
  426TMC3    C8 6362   0.126   2.981  16.493  0.5081  0.1481  0.1007
  426TMC3    O1 6363   0.292   3.413  16.849 -0.2746  0.0787 -0.0460
  426TMC3    O2 6364   0.242   2.951  16.461 -0.3493  0.2304 -0.1766
  427MPD2     C 6365   3.493   0.669  14.474  0.4949 -0.0762 -0.0293
  427MPD2    C1 6366   3.481   0.633  14.602 -0.3299 -0.2770  0.5756
  427MPD2    C2 6367   3.374   0.675  14.682  0.1230  0.2943  0.5275
  427MPD2    C3 6368   3.275   0.758  14.628 -0.6069 -0.1237 -0.3994
  427MPD2    C4 6369   3.288   0.795  14.497 -0.1081 -0.6250 -0.5338
  427MPD2    C5 6370   3.401   0.752  14.425  0.1333  1.2939  0.2063
  427MPD2     H 6371   3.370   0.632  14.782 -0.4815 -0.5514  0.1382
  427MPD2    H1 6372   3.213   0.848  14.439 -1.4707  0.4946  2.2741
  427MPD2    H2 6373   3.579   0.640  14.414 -1.5244  0.8059 -3.3186
  427MPD2    H3 6374   3.419   0.782  14.322  0.2396 -0.7213 -0.3625
  427MPD2     N 6375   3.168   0.811  14.699  0.1385  0.2850 -0.2467
  427MPD2    H5 6376   3.092   0.846  14.641  1.1778 -0.5583 -2.1077
  427MPD2    N1 6377   3.578   0.552  14.666  0.7083 -0.1901  0.2232
  427MPD2    H7 6378   3.574   0.542  14.767 -0.0126  0.0209  0.2137
  428TMC3    C1 6379   3.744   0.389  14.679 -0.0089 -0.0999  0.2305
  428TMC3    C2 6380   3.735   0.250  14.658 -0.0251 -0.8017  0.4823
  428TMC3    C3 6381   3.761   0.172  14.765 -0.3734 -0.3503 -0.5244
  428TMC3    C4 6382   3.793   0.436  14.798 -0.6465  0.0230  0.6424
  428TMC3    C5 6383   3.830   0.348  14.894  0.5693 -0.9228 -0.7466
  428TMC3    C6 6384   3.810   0.215  14.881 -0.3870 -0.2643  0.5134
  428TMC3     C 6385   3.664   0.470  14.595 -0.2092 -0.3759  0.0233
  428TMC3     O 6386   3.658   0.446  14.476  0.4935  0.4977  0.1760
  428TMC3     H 6387   3.721   0.221  14.555  0.1086  2.7943 -0.5295
  428TMC3    H1 6388   3.808   0.541  14.819 -0.8817 -0.0952  1.4230
  428TMC3    H2 6389   3.840   0.153  14.965 -0.5922 -0.7169  0.2527
  428TMC3    C7 6390   3.930   0.398  14.989  0.1801  0.3057 -0.9429
  428TMC3    C8 6391   3.776   0.027  14.740  0.6322 -0.4104  0.6945
  428TMC3    O1 6392   3.916   0.370  15.104  0.0597  0.2706 -0.0136
  428TMC3    O2 6393   3.836   4.688  14.825 -0.3880  0.9217 -0.5614
  429MPD2     C 6394   4.472   0.842  17.351 -0.1477  0.6747  0.4921
  429MPD2    C1 6395   4.404   0.930  17.264  0.2780 -0.3572  0.0834
  429MPD2    C2 6396   4.455   1.058  17.233  0.5530  0.7234 -0.2410
  429MPD2    C3 6397   4.576   1.102  17.288 -0.0457 -0.5345  0.1698
  429MPD2    C4 6398   4.644   1.011  17.370  0.6475  0.4531  0.1115
  429MPD2    C5 6399   4.596   0.888  17.395 -0.6632  0.1855  0.3230
  429MPD2     H 6400   4.412   1.116  17.152 -3.2057 -2.4708 -0.5489
  429MPD2    H1 6401   0.018   1.041  17.414  0.9512  0.9778 -0.8968
  429MPD2    H2 6402   4.450   0.743  17.389 -0.8753  0.8516  0.5194
  429MPD2    H3 6403   4.667   0.830  17.454 -1.2567  2.0788  2.9075
  429MPD2     N 6404   4.630   1.230  17.263  0.4907  0.5394  0.0336
  429MPD2    H5 6405   0.009   1.232  17.275  0.5948 -0.9903 -0.4871
  429MPD2    N1 6406   4.285   0.893  17.203 -0.6647  0.5739 -0.3818
  429MPD2    H7 6407   4.259   0.949  17.123 -0.3478  0.0960 -0.8219
  430TMC3    C1 6408   4.639   1.427  17.140 -0.0600  0.1557 -0.3955
  430TMC3    C2 6409   4.559   1.513  17.070 -0.2477  0.3696 -0.3603
  430TMC3    C3 6410   4.571   1.532  16.936  0.1100 -0.0916  0.1590
  430TMC3    C4 6411   0.028   1.374  17.078  0.0116 -0.8527 -0.2727
  430TMC3    C5 6412   0.054   1.402  16.946 -1.0761  0.2954 -0.0658
  430TMC3    C6 6413   4.675   1.468  16.871 -0.3562  0.3013 -0.1626
  430TMC3     C 6414   4.559   1.330  17.209 -0.6534 -0.4074  0.3687
  430TMC3     O 6415   4.441   1.358  17.212  0.0927  0.0002  0.4325
  430TMC3     H 6416   4.489   1.567  17.132  0.7221 -0.7993  1.7233
  430TMC3    H1 6417   0.096   1.307  17.130 -1.1693  0.4643  2.9606
  430TMC3    H2 6418   4.679   1.471  16.762  2.0780  1.8296 -0.0211
  430TMC3    C7 6419   0.130   1.305  16.873 -0.4193  0.6465  0.2068
  430TMC3    C8 6420   4.446   1.502  16.869  0.0707 -0.3709 -0.1749
  430TMC3    O1 6421   0.089   1.269  16.764 -0.6922  0.5710  0.4734
  430TMC3    O2 6422   4.446   1.517  16.749  0.1226  0.5588 -0.0072
  431MPD2     C 6423   1.453   0.384  12.318  0.4339 -0.1241 -0.4388
  431MPD2    C1 6424   1.437   0.506  12.248  0.0886 -0.2133  0.8795
  431MPD2    C2 6425   1.450   0.502  12.110  0.0519  0.7001  0.4001
  431MPD2    C3 6426   1.486   0.381  12.048  0.3312 -0.2182 -0.5000
  431MPD2    C4 6427   1.516   0.269  12.124  0.0020  0.6967  0.1497
  431MPD2    C5 6428   1.494   0.270  12.261 -0.1369  0.0186 -0.2416
  431MPD2     H 6429   1.420   0.590  12.055 -2.8791 -1.1707 -1.0537
  431MPD2    H1 6430   1.537   0.170  12.084 -2.5620 -0.2424  1.1337
  431MPD2    H2 6431   1.435   0.385  12.425 -0.0469 -0.5870 -0.5137
  431MPD2    H3 6432   1.501   0.181  12.323  0.3136 -0.1948 -0.6043
  431MPD2     N 6433   1.498   0.349  11.906  0.1223  0.2561  0.0970
  431MPD2    H5 6434   1.523   0.254  11.880 -1.5059  0.0535 -0.6874
  431MPD2    N1 6435   1.409   0.635  12.300  0.0567  0.4231  0.2583
  431MPD2    H7 6436   1.421   0.711  12.233  0.5896  1.8302  1.9464
  432TMC3    C1 6437   1.379   0.320  11.719  0.3369 -0.2100 -0.8560
  432TMC3    C2 6438   1.468   0.266  11.629 -0.0516  0.0994  0.2521
  432TMC3    C3 6439   1.457   0.131  11.602 -0.4672 -0.2268 -0.3878
  432TMC3    C4 6440   1.300   0.242  11.797 -0.5010  0.1862 -0.1555
  432TMC3    C5 6441   1.294   0.110  11.769 -0.3028 -0.3928 -0.0241
  432TMC3    C6 6442   1.366   0.055  11.665  0.4023 -0.1437  0.7689
  432TMC3     C 6443   1.437   0.416  11.803 -0.3455  0.5192  0.2300
  432TMC3     O 6444   1.381   0.525  11.810 -0.0464  0.0849 -0.6527
  432TMC3     H 6445   1.546   0.331  11.592  0.8060 -0.7870  0.4851
  432TMC3    H1 6446   1.252   0.301  11.874  0.2299 -1.0726  1.2566
  432TMC3    H2 6447   1.353   4.670  11.650 -0.7707  0.4579 -2.5636
  432TMC3    C7 6448   1.296   0.015  11.874  0.5713  0.7493  0.2393
  432TMC3    C8 6449   1.561   0.051  11.534  0.1726 -0.6160  0.1156
  432TMC3    O1 6450   1.365   4.635  11.867  0.1288  0.7234 -0.3033
  432TMC3    O2 6451   1.564   4.653  11.573  0.0335 -0.0774 -0.0621
  433MPD2     C 6452   0.861   4.221  10.754 -0.1311  0.3037 -0.0086
  433MPD2    C1 6453   0.734   4.227  10.810  0.2335  0.2709  0.6323
  433MPD2    C2 6454   0.738   4.246  10.946 -0.1584 -0.1738 -0.3406
  433MPD2    C3 6455   0.851   4.251  11.028 -0.2465  0.2530 -0.3299
  433MPD2    C4 6456   0.975   4.244  10.965  0.7931 -0.5579 -0.2498
  433MPD2    C5 6457   0.977   4.237  10.828  0.1984  0.3397 -0.2200
  433MPD2     H 6458   0.646   4.260  11.002 -0.0451  0.2596 -0.2675
  433MPD2    H1 6459   1.069   4.250  11.019 -0.1685  1.7162  1.2044
  433MPD2    H2 6460   0.876   4.216  10.647 -0.9628  2.0941 -0.2161
  433MPD2    H3 6461   1.074   4.224  10.782  1.4545 -0.2478  2.6130
  433MPD2     N 6462   0.832   4.247  11.172 -0.0455 -0.2681 -0.2589
  433MPD2    H5 6463   0.736   4.255  11.202  0.1571  0.2696  0.2612
  433MPD2    N1 6464   0.621   4.207  10.730  0.2308  0.7596  0.4813
  433MPD2    H7 6465   0.645   4.192  10.632 -0.5061  0.4750  0.3463
  434TMC3    C1 6466   0.416   4.095  10.699 -0.0488  0.1866  0.1865
  434TMC3    C2 6467   0.389   3.970  10.751 -0.5527  0.4430 -0.3424
  434TMC3    C3 6468   0.369   3.858  10.670 -0.1766 -0.3095 -0.3098
  434TMC3    C4 6469   0.419   4.108  10.563 -0.3713  0.0098  0.1790
  434TMC3    C5 6470   0.403   4.000  10.485 -0.3009 -0.9640  0.0119
  434TMC3    C6 6471   0.382   3.869  10.529 -0.4867  0.6343 -0.8899
  434TMC3     C 6472   0.496   4.179  10.788  0.3715  0.0309 -1.0999
  434TMC3     O 6473   0.463   4.163  10.903  0.2293 -0.0531 -0.0611
  434TMC3     H 6474   0.380   3.966  10.859 -0.9398  0.5205 -0.3742
  434TMC3    H1 6475   0.449   4.201  10.516  2.5083 -0.3254  1.3499
  434TMC3    H2 6476   0.381   3.778  10.469 -0.2937 -0.4824  0.7761
  434TMC3    C7 6477   0.452   4.011  10.356  0.1063  0.0124  0.5264
  434TMC3    C8 6478   0.420   3.736  10.729  0.2228 -0.5102  0.3247
  434TMC3    O1 6479   0.404   4.095  10.283  0.7788  0.2438 -0.2579
  434TMC3    O2 6480   0.499   3.753  10.825  0.1821  0.1013 -0.0821
  435MPD2     C 6481   1.916   4.261  15.282  0.2323  0.0290  0.3100
  435MPD2    C1 6482   1.872   4.252  15.404 -0.2987  0.1817  0.0956
  435MPD2    C2 6483   1.940   4.163  15.495  0.7504  0.2644 -0.6487
  435MPD2    C3 6484   2.038   4.077  15.457 -0.0966 -0.4564 -0.5893
  435MPD2    C4 6485   2.079   4.087  15.327 -0.1494 -0.3923 -0.1624
  435MPD2    C5 6486   2.017   4.177  15.244  0.2199  0.4264  0.4981
  435MPD2     H 6487   1.903   4.164  15.596 -0.5893  0.8197 -1.1402
  435MPD2    H1 6488   2.159   4.033  15.279  0.6700  0.4392  0.2665
  435MPD2    H2 6489   1.873   4.332  15.212 -0.2639 -0.7229 -0.1505
  435MPD2    H3 6490   2.058   4.187  15.144 -1.0794  2.7281  0.1982
  435MPD2     N 6491   2.092   3.983  15.550  0.2485 -0.1356  0.2563
  435MPD2    H5 6492   2.054   3.968  15.643  0.0269 -1.9330 -0.1165
  435MPD2    N1 6493   1.756   4.323  15.448 -0.0779  0.2215  0.0667
  435MPD2    H7 6494   1.728   4.323  15.546 -2.1120 -0.9701 -0.5381
  436TMC3    C1 6495   1.415   4.415  15.636  0.0788 -0.3367  0.0056
  436TMC3    C2 6496   1.537   4.424  15.573  0.3851 -0.3502  0.0880
  436TMC3    C3 6497   1.543   4.420  15.434 -0.4798  0.5179 -0.1472
  436TMC3    C4 6498   1.300   4.391  15.563  0.0812 -0.3328 -0.5206
  436TMC3    C5 6499   1.312   4.377  15.426  0.0592  0.4448  0.5527
  436TMC3    C6 6500   1.431   4.393  15.358 -0.9312 -0.0416 -0.0288
  436TMC3     C 6501   1.405   4.445  15.776 -0.1378  0.0878  0.4903
  436TMC3     O 6502   1.511   4.407  15.835 -0.0408 -0.3968  0.1331
  436TMC3     H 6503   1.626   4.455  15.626  1.1738 -0.2535 -1.2827
  436TMC3    H1 6504   1.203   4.386  15.613  1.0233 -0.6810  1.2733
  436TMC3    H2 6505   1.434   4.395  15.250  1.4220 -0.4218  0.0185
  436TMC3    C7 6506   1.200   4.340  15.341 -0.0586  0.3532  0.2830
  436TMC3    C8 6507   1.669   4.397  15.370 -0.4992 -0.4968  0.6220
  436TMC3    O1 6508   1.205   4.379  15.223 -0.4393 -0.2986 -0.5971
  436TMC3    O2 6509   1.668   4.400  15.250 -0.4252 -0.2967  0.1778
  437TMC3    C1 6510   1.423   1.916  11.544 -0.1701 -0.2561 -0.3513
  437TMC3    C2 6511   1.423   1.960  11.412 -0.7679  0.1658  0.4345
  437TMC3    C3 6512   1.475   1.874  11.317  0.0908 -0.2289  0.4797
  437TMC3    C4 6513   1.473   1.797  11.582  0.3295  0.1076  1.1323
  437TMC3    C5 6514   1.517   1.714  11.490  0.0587  0.7819 -0.4814
  437TMC3    C6 6515   1.517   1.744  11.358 -0.8343  0.3311  0.1223
  437TMC3     C 6516   1.308   1.963  11.620 -0.3817  0.4127  0.1974
  437TMC3     O 6517   1.228   2.021  11.549  0.1388 -0.2847  0.1155
  437TMC3     H 6518   1.379   2.053  11.378 -0.8291  0.1271  0.4068
  437TMC3    H1 6519   1.463   1.756  11.682  1.0299  1.5387  1.8009
  437TMC3    H2 6520   1.557   1.669  11.291  0.1607  0.0280  1.0471
  437TMC3    C7 6521   1.596   1.598  11.525  0.2036 -0.3346 -0.2982
  437TMC3    C8 6522   1.463   1.890  11.170  0.5342  0.6157  0.8001
  437TMC3    O1 6523   1.616   1.513  11.441 -0.1452 -0.0510 -0.0119
  437TMC3    O2 6524   1.496   1.789  11.114  0.7126  0.4167 -0.5805
  438MPD2     C 6525   2.606   1.639  16.648 -0.0472 -0.6159 -0.5445
  438MPD2    C1 6526   2.674   1.707  16.744 -0.5247 -0.4018 -0.2027
  438MPD2    C2 6527   2.662   1.678  16.877 -0.6391  0.7736 -0.5676
  438MPD2    C3 6528   2.584   1.569  16.922  0.1897  0.1042  0.3078
  438MPD2    C4 6529   2.526   1.491  16.824  0.0066 -0.3789 -0.7411
  438MPD2    C5 6530   2.533   1.534  16.696  0.0828  0.1399  0.2236
  438MPD2     H 6531   2.719   1.731  16.952  0.5347 -0.4556 -0.5864
  438MPD2    H1 6532   2.462   1.411  16.859  3.3613 -2.7911 -0.1903
  438MPD2    H2 6533   2.622   1.666  16.544  0.9643 -0.0886 -0.2584
  438MPD2    H3 6534   2.476   1.470  16.629 -0.0610  0.5179 -0.0134
  438MPD2     N 6535   2.570   1.523  17.056 -0.0653 -0.0474 -0.1295
  438MPD2    H5 6536   2.519   1.436  17.071 -3.2180  1.7680 -0.2863
  438MPD2    N1 6537   2.752   1.817  16.711  0.5376 -0.4045 -0.3354
  438MPD2    H7 6538   2.790   1.869  16.790 -0.0456 -0.7103  0.1537
  439TMC3    C1 6539   2.882   1.979  16.578  0.2832  0.3412 -0.2794
  439TMC3    C2 6540   2.904   2.037  16.457  0.4191 -0.1537 -0.2591
  439TMC3    C3 6541   3.022   2.094  16.434 -0.9007  0.9504 -0.8774
  439TMC3    C4 6542   2.961   1.990  16.685 -1.2778  0.4858  0.2203
  439TMC3    C5 6543   3.081   2.050  16.659 -0.4342  0.0222  0.1517
  439TMC3    C6 6544   3.118   2.094  16.533 -0.2951 -0.3308  0.2452
  439TMC3     C 6545   2.777   1.878  16.585  0.4563  0.5155 -0.5054
  439TMC3     O 6546   2.732   1.845  16.474 -0.6841 -0.2801  0.2842
  439TMC3     H 6547   2.841   2.015  16.371  0.0351 -0.8090  0.1852
  439TMC3    H1 6548   2.922   1.981  16.785 -0.3970  2.7472  0.7669
  439TMC3    H2 6549   3.217   2.131  16.511 -0.6787 -0.6245 -1.9149
  439TMC3    C7 6550   3.165   2.087  16.777  0.2126  0.0500  0.5108
  439TMC3    C8 6551   3.086   2.063  16.310 -0.2766 -0.4764  1.1374
  439TMC3    O1 6552   3.140   2.038  16.888  0.2342 -0.1006  0.2396
  439TMC3    O2 6553   3.179   1.986  16.311  0.0238 -0.6252  0.3238
  440MPD2     C 6554   1.732   2.821  14.385 -0.1145 -0.7101 -0.5570
  440MPD2    C1 6555   1.766   2.931  14.462  0.9416 -0.3497 -0.1965
  440MPD2    C2 6556   1.894   2.931  14.524  0.3730 -0.0059  0.2622
  440MPD2    C3 6557   1.975   2.819  14.523  0.0042  0.0184  0.2801
  440MPD2    C4 6558   1.931   2.716  14.453  0.2089  0.4542  0.0957
  440MPD2    C5 6559   1.819   2.717  14.383  0.1001  0.2668 -0.3783
  440MPD2     H 6560   1.927   3.018  14.579  1.7363  0.0879 -0.7304
  440MPD2    H1 6561   1.987   2.624  14.442  0.1883  0.5707 -0.9840
  440MPD2    H2 6562   1.641   2.807  14.328  1.1766  0.4422 -2.8997
  440MPD2    H3 6563   1.797   2.631  14.321  0.8892 -1.2382  1.4093
  440MPD2     N 6564   2.103   2.807  14.579  0.2556  0.1392 -0.4344
  440MPD2    H5 6565   2.152   2.720  14.563 -1.4212 -0.3803 -2.7283
  440MPD2    N1 6566   1.668   3.038  14.489 -0.6466 -0.2916 -0.5323
  440MPD2    H7 6567   1.691   3.114  14.552 -0.7663 -1.3692  0.8138
  441TMC3    C1 6568   2.271   2.871  14.725 -0.1952 -0.1199  0.5442
  441TMC3    C2 6569   2.363   2.963  14.749 -0.4118  0.3163  0.3372
  441TMC3    C3 6570   2.454   2.956  14.854  1.0019  0.4413  0.1532
  441TMC3    C4 6571   2.270   2.763  14.797 -1.0825 -0.2852 -0.3838
  441TMC3    C5 6572   2.354   2.750  14.903 -0.3450 -0.3717 -0.0749
  441TMC3    C6 6573   2.447   2.845  14.928  0.0153 -0.2994 -0.4645
  441TMC3     C 6574   2.164   2.909  14.647 -0.2457 -0.1186  0.0002
  441TMC3     O 6575   2.139   3.029  14.648  0.2341 -0.4195 -0.2326
  441TMC3     H 6576   2.375   3.042  14.676 -1.9662  0.1261 -0.1238
  441TMC3    H1 6577   2.194   2.689  14.779 -0.8629 -0.9698  1.5542
  441TMC3    H2 6578   2.512   2.841  15.015 -0.5361 -0.0530 -0.0394
  441TMC3    C7 6579   2.347   2.626  14.994 -0.3281 -0.5516  0.1007
  441TMC3    C8 6580   2.456   3.079  14.931 -0.0516 -0.6059  0.1726
  441TMC3    O1 6581   2.275   2.532  14.968 -0.1844 -0.4750 -0.0803
  441TMC3    O2 6582   2.531   3.089  15.030  0.1444 -0.1705  0.0260
  442MPD2     C 6583   4.622   3.314  16.231 -0.3637  0.2052 -0.0922
  442MPD2    C1 6584   4.494   3.269  16.238 -0.0321  0.9241  0.2772
  442MPD2    C2 6585   4.482   3.135  16.211  0.3950  0.2365  1.1731
  442MPD2    C3 6586   4.583   3.055  16.158  0.2536  0.5882  0.4924
  442MPD2    C4 6587   4.706   3.108  16.148 -0.4242 -0.3071  0.6049
  442MPD2    C5 6588   0.005   3.237  16.186  0.6516  0.3291 -0.1181
  442MPD2     H 6589   4.383   3.091  16.217  0.6539 -0.8134 -2.1980
  442MPD2    H1 6590   0.064   3.050  16.102 -1.0764 -1.4164  0.8663
  442MPD2    H2 6591   4.655   3.415  16.253 -0.6897 -0.2061  2.2719
  442MPD2    H3 6592   0.098   3.291  16.179 -1.0083  3.1302 -0.5696
  442MPD2     N 6593   4.569   2.919  16.104  0.5936 -0.0438 -0.3600
  442MPD2    H5 6594   4.661   2.891  16.069  1.0013 -0.4028  0.9937
  442MPD2    N1 6595   4.383   3.350  16.271  0.6283 -0.1881  0.6506
  442MPD2    H7 6596   4.291   3.308  16.270  1.0973 -1.1442 -2.4054
  443TMC3    C1 6597   4.263   3.555  16.290  0.5217  0.0180  0.1276
  443TMC3    C2 6598   4.259   3.674  16.218 -0.3347 -0.7963  0.2967
  443TMC3    C3 6599   4.133   3.722  16.180 -0.1507 -0.1790 -0.1729
  443TMC3    C4 6600   4.157   3.497  16.338 -0.2729  0.4614  0.4993
  443TMC3    C5 6601   4.037   3.561  16.314  0.5451  0.5598 -0.2638
  443TMC3    C6 6602   4.017   3.670  16.233 -1.0531 -0.1228 -1.1693
  443TMC3     C 6603   4.392   3.487  16.282 -0.3665 -0.4929  0.6984
  443TMC3     O 6604   4.480   3.567  16.261 -0.7148  0.3867 -0.4290
  443TMC3     H 6605   4.340   3.732  16.175 -0.2011  0.1352  1.7725
  443TMC3    H1 6606   4.158   3.407  16.400  1.1429 -0.0237 -0.2325
  443TMC3    H2 6607   3.921   3.714  16.207 -0.6343  1.2786 -0.3386
  443TMC3    C7 6608   3.920   3.505  16.383 -0.4506 -0.2154 -0.4933
  443TMC3    C8 6609   4.132   3.829  16.083 -0.1799 -0.5766 -0.3419
  443TMC3    O1 6610   3.934   3.390  16.427  0.2328  0.3284  0.0093
  443TMC3    O2 6611   4.054   3.914  16.116  0.6726  0.0749  0.2641
  444MPD2     C 6612   0.118   2.590  16.744 -0.2348  0.1523 -0.4626
  444MPD2    C1 6613   0.025   2.503  16.687 -0.2013 -0.1191  0.0899
  444MPD2    C2 6614   0.074   2.411  16.597 -0.1350  0.5181 -0.2725
  444MPD2    C3 6615   0.209   2.401  16.566  0.1161  0.0739 -0.1477
  444MPD2    C4 6616   0.295   2.482  16.643 -0.1727 -0.1257  0.4091
  444MPD2    C5 6617   0.251   2.564  16.734 -0.3266 -0.2799  1.3442
  444MPD2     H 6618   0.008   2.337  16.554  0.3765 -0.7148  1.0587
  444MPD2    H1 6619   0.402   2.476  16.627 -0.2861 -0.3120 -0.2664
  444MPD2    H2 6620   0.085   2.672  16.808 -3.5986 -0.8099 -0.9797
  444MPD2    H3 6621   0.318   2.624  16.794 -0.0363  1.2311 -0.5117
  444MPD2     N 6622   0.248   2.301  16.478  0.3910 -0.2746  0.1617
  444MPD2    H5 6623   0.167   2.257  16.436  0.6888  1.3660 -2.1634
  444MPD2    N1 6624   4.612   2.498  16.724 -0.1635  0.0770 -0.2049
  444MPD2    H7 6625   4.542   2.444  16.673  0.3288  0.8186 -1.6607
  445TMC3    C1 6626   0.374   2.132  16.381  0.2414  0.2637 -0.3450
  445TMC3    C2 6627   0.270   2.047  16.369 -0.3046  0.1616  0.3561
  445TMC3    C3 6628   0.292   1.922  16.321  0.0760 -0.2744 -0.0059
  445TMC3    C4 6629   0.493   2.093  16.336 -0.9314  1.0951 -0.4768
  445TMC3    C5 6630   0.516   1.966  16.284  0.4095  0.6610  0.9157
  445TMC3    C6 6631   0.414   1.884  16.264  0.5174  0.0129  0.6509
  445TMC3     C 6632   0.375   2.260  16.450 -0.6923  0.1313  0.4362
  445TMC3     O 6633   0.480   2.300  16.496  0.1792  0.1636  0.0463
  445TMC3     H 6634   0.170   2.071  16.402  0.4845  0.2141  2.7211
  445TMC3    H1 6635   0.576   2.161  16.354 -0.4964  0.2601  0.7639
  445TMC3    H2 6636   0.418   1.803  16.192 -0.6690  0.7816 -0.2670
  445TMC3    C7 6637   0.645   1.926  16.244  0.0773 -0.7365 -0.0470
  445TMC3    C8 6638   0.170   1.835  16.295  0.1508  0.3725  0.5487
  445TMC3    O1 6639   0.724   2.012  16.224  1.0961 -0.5692 -0.7524
  445TMC3    O2 6640   0.060   1.885  16.319 -0.1612 -0.0521  0.3805
  446MPD2     C 6641   0.333   3.520  11.300 -0.2058  0.4952  0.5096
  446MPD2    C1 6642   0.315   3.544  11.165 -0.5685 -0.0864 -0.0279
  446MPD2    C2 6643   0.384   3.647  11.105  0.5861  0.6119  0.2398
  446MPD2    C3 6644   0.485   3.717  11.172  0.0820  0.0789  0.5665
  446MPD2    C4 6645   0.496   3.696  11.307  0.2225  0.3912  0.0649
  446MPD2    C5 6646   0.420   3.602  11.371  0.3708  0.2689 -0.3359
  446MPD2     H 6647   0.365   3.673  11.001 -2.4417 -0.7952  0.4358
  446MPD2    H1 6648   0.566   3.752  11.369 -0.4777  1.9489 -0.5529
  446MPD2    H2 6649   0.276   3.450  11.360  0.4697 -2.2966 -2.1134
  446MPD2    H3 6650   0.422   3.591  11.478  1.4951  1.8045 -0.2044
  446MPD2     N 6651   0.559   3.811  11.097  0.1544  0.3547 -0.8911
  446MPD2    H5 6652   0.547   3.796  10.997  1.9313 -0.1923 -1.0386
  446MPD2    N1 6653   0.219   3.466  11.097 -0.3438  0.1068  0.4961
  446MPD2    H7 6654   0.199   3.507  11.006 -1.0480 -2.3670 -0.4841
  447TMC3    C1 6655   0.749   3.928  11.037  0.3097 -0.4540  0.0731
  447TMC3    C2 6656   0.726   3.918  10.903  0.2245 -0.4523  0.1069
  447TMC3    C3 6657   0.826   3.878  10.814 -0.6056  0.4086 -1.3563
  447TMC3    C4 6658   0.876   3.912  11.082  0.3216 -0.1499 -0.8079
  447TMC3    C5 6659   0.972   3.872  10.990 -0.0608 -0.0564  0.9672
  447TMC3    C6 6660   0.954   3.856  10.859  0.3264  0.6776  0.0001
  447TMC3     C 6661   0.649   3.904  11.144 -0.1587  0.0393 -1.3385
  447TMC3     O 6662   0.675   3.940  11.260  0.0975  0.2836 -1.2297
  447TMC3     H 6663   0.626   3.939  10.865  0.5959 -1.1898 -1.2868
  447TMC3    H1 6664   0.895   3.896  11.188 -2.3722  2.0500  0.0137
  447TMC3    H2 6665   1.035   3.825  10.794  0.4280 -1.1562  0.9923
  447TMC3    C7 6666   1.106   3.844  11.029 -0.1730  0.1818 -0.9844
  447TMC3    C8 6667   0.813   3.895  10.668  0.1104 -0.0145  0.0533
  447TMC3    O1 6668   1.179   3.782  10.953  0.0310 -0.3968  0.2503
  447TMC3    O2 6669   0.708   3.942  10.632  0.1544  0.4810  0.0944
  448TMC3    C1 6670   1.941   2.490   0.200 -0.3823  1.0214  0.5871
  448TMC3    C2 6671   1.957   2.481   0.063  0.2093  0.5513  0.0872
  448TMC3    C3 6672   1.953   2.357   0.007 -0.1659 -0.2916 -0.5668
  448TMC3    C4 6673   1.952   2.385   0.288  0.0348  0.4752  0.1855
  448TMC3    C5 6674   1.955   2.260   0.227  0.6870 -0.1172  0.2852
  448TMC3    C6 6675   1.950   2.246   0.091 -0.2767 -0.3421 -0.8431
  448TMC3     C 6676   1.944   2.625   0.256  0.3326  0.4848 -0.4439
  448TMC3     O 6677   1.876   2.711   0.198 -0.0471  0.1354  0.2824
  448TMC3     H 6678   1.955   2.568  17.685  2.4635  0.3657 -0.2191
  448TMC3    H1 6679   1.944   2.392   0.396  0.5695  1.8058  0.1401
  448TMC3    H2 6680   1.949   2.144   0.054  0.3059 -0.6348 -0.0371
  448TMC3    C7 6681   1.965   2.135   0.305  0.1704  0.3399 -0.5662
  448TMC3    C8 6682   2.020   2.336  17.567  0.3681 -0.6004 -0.4882
  448TMC3    O1 6683   1.919   2.036   0.247  0.1488 -0.0459  0.3741
  448TMC3    O2 6684   2.090   2.236  17.554 -0.2851  0.2701  0.7815
  449MPD2     C 6685   4.401   1.902  13.966 -0.0158  0.2753  0.0409
  449MPD2    C1 6686   4.287   1.960  13.932 -0.2782  0.6839 -0.5425
  449MPD2    C2 6687   4.160   1.919  13.976  0.4099 -0.1076 -0.8448
  449MPD2    C3 6688   4.152   1.826  14.076 -0.3948 -0.1393  0.1047
  449MPD2    C4 6689   4.278   1.782  14.122 -0.2724  0.8668  1.0830
  449MPD2    C5 6690   4.395   1.804  14.060 -0.1730  0.5867 -0.3217
  449MPD2     H 6691   4.070   1.966  13.937  0.0546 -0.7707 -0.8126
  449MPD2    H1 6692   4.291   1.717  14.207  0.8677 -1.4772 -0.8653
  449MPD2    H2 6693   4.498   1.919  13.921  0.3493 -1.6795  0.0789
  449MPD2    H3 6694   4.486   1.752  14.087  0.4654  2.2034  0.6648
  449MPD2     N 6695   4.033   1.803  14.133 -0.4176  0.6840 -0.2050
  449MPD2    H5 6696   3.959   1.846  14.078  0.2816 -1.4356 -2.8016
  449MPD2    N1 6697   4.279   2.058  13.837 -0.5314 -0.4478 -0.2554
  449MPD2    H7 6698   4.188   2.099  13.820  0.5343  0.8425 -2.8786
  450TMC3    C1 6699   4.331   2.232  13.694 -0.2286  0.2223  0.0593
  450TMC3    C2 6700   4.338   2.211  13.559  0.2673  0.2695 -0.1876
  450TMC3    C3 6701   4.226   2.239  13.485  0.2808  0.7455  0.3252
  450TMC3    C4 6702   4.221   2.284  13.753  0.2153 -0.3562 -0.4550
  450TMC3    C5 6703   4.111   2.300  13.678 -0.6408  0.1032  0.8727
  450TMC3    C6 6704   4.108   2.279  13.541 -0.4630  1.1282  0.1438
  450TMC3     C 6705   4.382   2.117  13.773  0.5142  0.5373  0.2207
  450TMC3     O 6706   4.501   2.097  13.775  0.0970  0.0496 -0.5008
  450TMC3     H 6707   4.425   2.164  13.513 -1.1080 -0.4487 -2.0613
  450TMC3    H1 6708   4.230   2.304  13.859  0.2009 -1.5299 -0.2314
  450TMC3    H2 6709   4.017   2.295  13.485  0.1912  3.4890 -0.2561
  450TMC3    C7 6710   3.999   2.239  13.740 -0.6943  0.4710 -0.6039
  450TMC3    C8 6711   4.215   2.189  13.352  0.1488  0.3897  0.5879
  450TMC3    O1 6712   4.022   2.184  13.847 -0.0650 -0.0108 -0.5801
  450TMC3    O2 6713   4.107   2.201  13.298  0.4892 -0.1232  0.3541
  451MPD2     C 6714   1.585   1.143   1.227  0.6824 -0.1331 -0.2542
  451MPD2    C1 6715   1.508   1.107   1.115  0.5319  0.0633 -0.4511
  451MPD2    C2 6716   1.473   0.967   1.110  0.8568 -0.0855 -0.5049
  451MPD2    C3 6717   1.534   0.872   1.189 -0.2852  0.1218 -0.5054
  451MPD2    C4 6718   1.628   0.909   1.284 -0.1295  0.1186  0.0288
  451MPD2    C5 6719   1.648   1.045   1.304 -0.4477 -0.3656  0.2484
  451MPD2     H 6720   1.395   0.948   1.037  0.6728  1.5025 -0.7268
  451MPD2    H1 6721   1.677   0.829   1.339 -1.0172 -0.3571  0.1343
  451MPD2    H2 6722   1.607   1.246   1.250 -0.7813  0.1685 -0.1533
  451MPD2    H3 6723   1.716   1.077   1.382  0.0063  1.5234 -0.9314
  451MPD2     N 6724   1.502   0.731   1.171  0.2043 -0.2762 -0.5595
  451MPD2    H5 6725   1.561   0.672   1.229 -0.7248 -1.6133 -0.9808
  451MPD2    N1 6726   1.443   1.209   1.030 -0.0400  0.0877 -0.0334
  451MPD2    H7 6727   1.447   1.302   1.070  0.0636 -0.3796  1.0394
  452TMC3    C1 6728   1.396   0.530   1.089  0.0306  0.4915 -0.6473
  452TMC3    C2 6729   1.505   0.457   1.126  0.0559 -0.3997 -0.2466
  452TMC3    C3 6730   1.479   0.324   1.126  0.0790 -0.2630 -0.1290
  452TMC3    C4 6731   1.288   0.476   1.026  0.0683 -0.9533  0.2427
  452TMC3    C5 6732   1.269   0.348   1.028 -0.7827  0.5892 -0.0844
  452TMC3    C6 6733   1.363   0.266   1.078  0.4420 -0.0032  0.1725
  452TMC3     C 6734   1.400   0.674   1.092  0.2725 -0.4139 -0.5529
  452TMC3     O 6735   1.304   0.732   1.042 -0.6033 -0.3418 -0.6705
  452TMC3     H 6736   1.597   0.492   1.170 -0.3038  1.4615 -0.9968
  452TMC3    H1 6737   1.213   0.540   0.980 -0.9536 -3.2352 -1.2203
  452TMC3    H2 6738   1.346   0.159   1.073 -0.9505  0.2885 -1.4449
  452TMC3    C7 6739   1.204   0.295   0.908 -0.1436  0.0569  0.1913
  452TMC3    C8 6740   1.555   0.228   1.206  0.8144  0.4280  0.5020
  452TMC3    O1 6741   1.196   0.376   0.819 -0.5932  0.0212 -0.5585
  452TMC3    O2 6742   1.522   0.113   1.184 -0.0810 -0.1772 -0.1020
  453TMC3    C1 6743   2.763   2.667  11.694  0.0869 -0.1440  0.7316
  453TMC3    C2 6744   2.663   2.577  11.721  0.1321  0.3630 -0.0728
  453TMC3    C3 6745   2.567   2.570  11.624 -0.0685 -0.5487 -0.3682
  453TMC3    C4 6746   2.765   2.737  11.578  0.1934 -0.6729 -0.1603
  453TMC3    C5 6747   2.666   2.725  11.486  0.2067  0.1868 -0.0250
  453TMC3    C6 6748   2.559   2.638  11.511  0.2407  0.0901  0.4564
  453TMC3     C 6749   2.882   2.671  11.786 -0.4892 -0.1451 -0.3300
  453TMC3     O 6750   2.966   2.750  11.741  0.1820  0.7077  0.2436
  453TMC3     H 6751   2.641   2.530  11.816  2.4813  0.9204  0.7340
  453TMC3    H1 6752   2.839   2.815  11.562 -0.3142  0.4632  3.0614
  453TMC3    H2 6753   2.482   2.619  11.437  1.7524 -0.8805 -0.8640
  453TMC3    C7 6754   2.660   2.791  11.354 -0.7075  0.2962  0.4579
  453TMC3    C8 6755   2.448   2.501  11.669 -0.1818 -0.2892 -0.2135
  453TMC3    O1 6756   2.558   2.813  11.292  0.5985 -0.4340 -0.1437
  453TMC3    O2 6757   2.345   2.537  11.616 -0.0393  0.5969  0.3070
  454MPD2     C 6758   1.002   2.182  16.018  0.0887  0.3550  0.1235
  454MPD2    C1 6759   0.926   2.282  15.959  0.0534 -0.1773 -0.2986
  454MPD2    C2 6760   0.859   2.371  16.041  0.8631  0.9664 -0.1808
  454MPD2    C3 6761   0.857   2.347  16.177 -0.5720  0.4156 -0.2082
  454MPD2    C4 6762   0.937   2.251  16.235 -0.4474 -0.1041  0.4378
  454MPD2    C5 6763   1.014   2.171  16.151 -0.4377 -0.2076 -0.6555
  454MPD2     H 6764   0.791   2.440  15.993  0.2936  1.9061  1.9593
  454MPD2    H1 6765   0.937   2.243  16.343  1.2291 -1.4234  0.3409
  454MPD2    H2 6766   1.060   2.115  15.955  0.1349  1.3849 -0.9377
  454MPD2    H3 6767   1.074   2.087  16.185 -0.6725 -1.0025 -2.2328
  454MPD2     N 6768   0.774   2.419  16.267 -0.8439 -0.0301  0.0079
  454MPD2    H5 6769   0.802   2.414  16.365 -0.8035 -2.0033 -0.1193
  454MPD2    N1 6770   0.895   2.294  15.818 -0.2008  0.3425 -0.0187
  454MPD2    H7 6771   0.857   2.382  15.785  0.5695 -0.2850 -2.5813
  455TMC3    C1 6772   0.596   2.474  16.118 -1.5707  0.0027 -0.1279
  455TMC3    C2 6773   0.504   2.576  16.101 -1.0442 -0.2003  0.2710
  455TMC3    C3 6774   0.380   2.533  16.061 -0.7103 -0.1479  0.3530
  455TMC3    C4 6775   0.564   2.344  16.096  0.1319 -0.5170  0.7930
  455TMC3    C5 6776   0.443   2.311  16.041 -0.7555  0.4148  0.0773
  455TMC3    C6 6777   0.349   2.405  16.028  0.1092 -0.1597  0.3753
  455TMC3     C 6778   0.673   2.507  16.240  0.2467  0.6995  0.3707
  455TMC3     O 6779   0.627   2.594  16.312  0.3675 -0.0663  0.1399
  455TMC3     H 6780   0.527   2.680  16.124 -1.6236 -0.2200  0.9337
  455TMC3    H1 6781   0.622   2.267  16.146 -0.5372 -1.5876 -0.0785
  455TMC3    H2 6782   0.246   2.382  16.001 -0.1080 -0.2116  1.2264
  455TMC3    C7 6783   0.440   2.205  15.942  0.3738 -0.1174  0.3148
  455TMC3    C8 6784   0.280   2.625  16.103  0.4563  0.2623 -0.0037
  455TMC3    O1 6785   0.332   2.186  15.888  0.5440 -0.4146 -0.0856
  455TMC3    O2 6786   0.320   2.739  16.126 -0.0871  0.1626  0.5381
  456MPD2     C 6787   2.844   2.444  16.322  0.1484 -0.2089  0.3823
  456MPD2    C1 6788   2.949   2.427  16.410 -0.6854 -0.4221  0.6738
  456MPD2    C2 6789   2.926   2.407  16.544 -0.7682 -0.0076  0.1976
  456MPD2    C3 6790   2.794   2.400  16.589 -0.1513  0.2780 -0.5399
  456MPD2    C4 6791   2.692   2.417  16.496 -0.0055 -0.0217 -0.0103
  456MPD2    C5 6792   2.714   2.429  16.362 -0.2035 -1.0698 -0.0437
  456MPD2     H 6793   3.008   2.392  16.614  0.0083  0.6700 -0.5653
  456MPD2    H1 6794   2.593   2.448  16.528 -0.1857 -1.6007  0.9336
  456MPD2    H2 6795   2.859   2.469  16.217 -0.7353  2.3782  0.8708
  456MPD2    H3 6796   2.628   2.448  16.299 -0.5595  0.6516  0.9295
  456MPD2     N 6797   2.771   2.379  16.726  0.2756  0.7044 -0.8648
  456MPD2    H5 6798   2.851   2.392  16.787 -0.8746  0.0512  0.8204
  456MPD2    N1 6799   3.081   2.425  16.358  0.3733  0.3918 -0.1291
  456MPD2    H7 6800   3.082   2.444  16.259  2.3199 -3.1133 -0.7932
  457TMC3    C1 6801   2.656   2.323  16.925 -0.0639  0.0121  0.1659
  457TMC3    C2 6802   2.536   2.319  16.994  0.3440  0.0898 -1.1593
  457TMC3    C3 6803   2.544   2.271  17.125 -0.9258 -0.0257 -0.1241
  457TMC3    C4 6804   2.777   2.283  16.978  0.2193  0.3258 -0.5293
  457TMC3    C5 6805   2.776   2.246  17.109 -0.1152  0.9100  0.1002
  457TMC3    C6 6806   2.663   2.237  17.189 -0.1923  0.3806 -0.1176
  457TMC3     C 6807   2.650   2.356  16.782 -0.1652 -0.2592 -0.5947
  457TMC3     O 6808   2.536   2.360  16.737  0.5253  0.4441  0.0957
  457TMC3     H 6809   2.445   2.343  16.941 -0.2730  1.5068  0.5459
  457TMC3    H1 6810   2.868   2.281  16.918  0.7645  0.2966  0.2981
  457TMC3    H2 6811   2.661   2.189  17.286  2.5436 -2.1554 -1.2962
  457TMC3    C7 6812   2.897   2.221  17.184  0.1307 -0.2850 -0.3006
  457TMC3    C8 6813   2.431   2.287  17.219 -0.3412  0.3873 -0.1255
  457TMC3    O1 6814   2.887   2.142  17.271  0.2159  0.0671  0.0071
  457TMC3    O2 6815   2.424   2.244  17.334 -0.3301 -0.1497  0.6497
  458MPD2     C 6816   2.006   1.471  11.788  0.9599 -0.1088  0.5112
  458MPD2    C1 6817   1.916   1.523  11.883 -1.1680 -0.3440 -0.0895
  458MPD2    C2 6818   1.788   1.559  11.838 -0.6696 -0.2654  0.1120
  458MPD2    C3 6819   1.751   1.535  11.704  0.4600 -0.0785  0.2440
  458MPD2    C4 6820   1.843   1.477  11.619  0.1983  0.3227 -0.0064
  458MPD2    C5 6821   1.971   1.456  11.659 -0.4214  0.3550 -0.2194
  458MPD2     H 6822   1.722   1.604  11.911  1.0324 -1.0909  2.1566
  458MPD2    H1 6823   1.825   1.466  11.512  2.2305 -0.2987 -0.2869
  458MPD2    H2 6824   2.108   1.450  11.820  1.6336 -0.1904 -1.6698
  458MPD2    H3 6825   2.042   1.420  11.585 -0.7234  0.7335 -0.6966
  458MPD2     N 6826   1.648   1.611  11.653  0.2827  0.6732  0.4117
  458MPD2    H5 6827   1.607   1.682  11.712 -2.2732 -0.2720 -0.2327
  458MPD2    N1 6828   1.968   1.547  12.014 -0.0821  0.0153  0.6271
  458MPD2    H7 6829   2.069   1.550  12.025  0.0727  2.2610 -1.5844
  459TMC3    C1 6830   1.964   1.604  12.243  0.0645  0.1476 -0.2517
  459TMC3    C2 6831   2.084   1.665  12.243  0.3141 -0.7249 -0.2235
  459TMC3    C3 6832   2.162   1.651  12.357 -0.4915 -1.0113 -0.2663
  459TMC3    C4 6833   1.908   1.541  12.350 -0.0751 -0.2493  0.7567
  459TMC3    C5 6834   1.990   1.531  12.461  0.1695  0.0748  0.7614
  459TMC3    C6 6835   2.126   1.562  12.457 -0.3164 -0.3126  0.4824
  459TMC3     C 6836   1.888   1.575  12.124 -0.3082  0.0316  0.4812
  459TMC3     O 6837   1.765   1.566  12.133  0.2405  0.1104 -0.2882
  459TMC3     H 6838   2.111   1.724  12.156 -2.4804 -0.6243 -1.0321
  459TMC3    H1 6839   1.815   1.486  12.341 -0.1737 -0.1424  1.1273
  459TMC3    H2 6840   2.192   1.552  12.543 -0.2813  2.7473  0.7952
  459TMC3    C7 6841   1.944   1.460  12.583  0.1135  0.3562 -0.5881
  459TMC3    C8 6842   2.308   1.699  12.369  0.4015  0.5448 -0.1648
  459TMC3    O1 6843   1.854   1.380  12.575  0.7427  0.0588 -0.5615
  459TMC3    O2 6844   2.388   1.655  12.444 -0.3374  0.2776  0.7129
  460MPD2     C 6845   1.028   3.760  10.414  0.1060 -0.0992  0.4113
  460MPD2    C1 6846   0.939   3.845  10.468  0.1166  0.0610  0.1896
  460MPD2    C2 6847   0.876   3.946  10.391  0.3976  0.7910  0.0712
  460MPD2    C3 6848   0.906   3.950  10.251  0.7810  1.0353  0.6823
  460MPD2    C4 6849   0.988   3.854  10.198 -0.0620 -0.4537 -0.6579
  460MPD2    C5 6850   1.043   3.764  10.278 -0.2397  0.5279  0.0670
  460MPD2     H 6851   0.800   4.012  10.432  0.0379 -0.2140  1.0115
  460MPD2    H1 6852   1.014   3.845  10.094  0.9620 -0.0376 -0.4332
  460MPD2    H2 6853   1.069   3.674  10.466  4.1849  0.6326 -1.6164
  460MPD2    H3 6854   1.104   3.687  10.232  1.4081  1.1291  1.2481
  460MPD2     N 6855   0.840   4.038  10.167  0.4081 -0.1601 -0.2298
  460MPD2    H5 6856   0.766   4.093  10.209  1.2413  0.8449 -0.0806
  460MPD2    N1 6857   0.917   3.827  10.602 -0.5098 -0.0037  0.0151
  460MPD2    H7 6858   0.962   3.753  10.655 -0.3306  0.1101  0.0195
  461TMC3    C1 6859   0.757   4.135   9.966  0.7306 -0.1337  1.0465
  461TMC3    C2 6860   0.726   4.097   9.835  0.2930  0.3569  0.2982
  461TMC3    C3 6861   0.727   4.196   9.738 -0.1843 -0.0413 -0.1262
  461TMC3    C4 6862   0.765   4.266  10.000 -0.7146 -0.2252  0.9288
  461TMC3    C5 6863   0.766   4.358   9.900  0.4284 -0.3883 -0.2346
  461TMC3    C6 6864   0.744   4.325   9.770 -0.3276 -0.1332  0.2007
  461TMC3     C 6865   0.854   4.050  10.030 -0.5996  0.5262  0.8656
  461TMC3     O 6866   0.934   4.007   9.952  0.1185  1.0322  0.6666
  461TMC3     H 6867   0.720   3.991   9.815  0.8665  0.3149  0.3425
  461TMC3    H1 6868   0.797   4.301  10.098  0.0993  1.8456 -0.0984
  461TMC3    H2 6869   0.777   4.392   9.691 -1.9759  0.4473 -0.0042
  461TMC3    C7 6870   0.755   4.498   9.936  0.4868 -0.1297 -0.6241
  461TMC3    C8 6871   0.733   4.159   9.599  0.5049 -0.0220 -0.3470
  461TMC3    O1 6872   0.794   4.581   9.855  0.1026 -0.8826  0.6079
  461TMC3    O2 6873   0.738   4.040   9.575  0.3572 -0.0933 -0.0729
  462TMC3    C1 6874   4.413   0.191  16.918  0.4113 -0.1897 -0.3715
  462TMC3    C2 6875   4.393   0.130  16.801 -0.1346  0.3034  0.1298
  462TMC3    C3 6876   4.412   0.000  16.797  0.1346  0.1018 -0.0077
  462TMC3    C4 6877   4.461   0.122  17.027 -0.0883  0.2450 -0.1104
  462TMC3    C5 6878   4.473   4.706  17.022 -0.0730  0.0429 -0.5708
  462TMC3    C6 6879   4.439   4.640  16.907  0.9526  0.0229 -0.1616
  462TMC3     C 6880   4.437   0.336  16.921  0.8400  0.6686  0.0407
  462TMC3     O 6881   4.498   0.383  17.015 -0.0860 -0.1762  0.5774
  462TMC3     H 6882   4.375   0.184  16.709 -2.9984  1.6931  1.5151
  462TMC3    H1 6883   4.451   0.168  17.124  0.5271  0.0807  0.0337
  462TMC3    H2 6884   4.452   4.533  16.913  0.8903 -0.0259 -0.8854
  462TMC3    C7 6885   4.478   4.623  17.146  0.1311  0.8218 -0.4082
  462TMC3    C8 6886   4.443   4.658  16.671 -0.0415  0.8461  0.1782
  462TMC3    O1 6887   4.444   4.507  17.139 -0.3951 -0.0936  0.2834
  462TMC3    O2 6888   4.405   4.713  16.572 -0.2433 -0.1686 -0.8329
  463MPD2     C 6889   1.743   2.993   1.889  0.1995 -0.4729 -0.5198
  463MPD2    C1 6890   1.636   3.066   1.849 -0.1001  0.1656  0.1634
  463MPD2    C2 6891   1.639   3.201   1.867  0.0418 -0.1428  0.2529
  463MPD2    C3 6892   1.740   3.264   1.928 -0.3909  0.0125 -0.2834
  463MPD2    C4 6893   1.845   3.190   1.981  0.0246 -0.3396 -1.3819
  463MPD2    C5 6894   1.845   3.056   1.946  0.6267 -0.3737 -0.1507
  463MPD2     H 6895   1.561   3.263   1.823 -0.8233 -1.9679 -0.7974
  463MPD2    H1 6896   1.936   3.219   2.032 -1.2027 -1.1398  1.2312
  463MPD2    H2 6897   1.752   2.887   1.869 -1.0090 -0.7860  0.6013
  463MPD2    H3 6898   1.932   3.001   1.981  0.4692 -0.7853 -0.4092
  463MPD2     N 6899   1.735   3.408   1.963 -0.1877  0.0154  0.2862
  463MPD2    H5 6900   1.802   3.444   2.029  0.2938 -1.4753  0.6017
  463MPD2    N1 6901   1.515   3.020   1.796  0.4415  0.2357  0.2356
  463MPD2    H7 6902   1.450   3.093   1.768 -1.1476 -1.0600  0.5490
  464TMC3    C1 6903   1.341   2.875   1.760  0.1186  0.4075 -0.7758
  464TMC3    C2 6904   1.272   2.979   1.702 -0.5199  0.6341  0.0168
  464TMC3    C3 6905   1.139   2.960   1.661  0.1616  0.4417 -0.1629
  464TMC3    C4 6906   1.280   2.756   1.787 -0.1300 -0.1584 -0.8187
  464TMC3    C5 6907   1.145   2.739   1.750 -0.6919 -0.1877  0.1497
  464TMC3    C6 6908   1.080   2.836   1.678  0.2087 -0.2046  0.2778
  464TMC3     C 6909   1.474   2.890   1.813 -0.0658  1.1207 -0.3525
  464TMC3     O 6910   1.543   2.788   1.826 -0.8708 -0.0089 -0.0824
  464TMC3     H 6911   1.312   3.079   1.691 -2.2069  1.5728  2.2668
  464TMC3    H1 6912   1.341   2.672   1.820  0.4054  1.9327  3.4342
  464TMC3    H2 6913   0.978   2.818   1.645 -0.8579  1.1017  2.8695
  464TMC3    C7 6914   1.099   2.601   1.745 -0.4297  0.8950  0.1154
  464TMC3    C8 6915   1.081   3.069   1.579  0.7855  0.2353 -0.8691
  464TMC3    O1 6916   1.167   2.520   1.805  0.2903  0.1501 -0.4570
  464TMC3    O2 6917   1.146   3.173   1.553  0.0590  0.2532  0.2011
  465MPD2     C 6918   2.332   1.920  17.138  0.1524 -0.6317 -0.0542
  465MPD2    C1 6919   2.214   1.967  17.174 -0.3097  0.1316 -0.3813
  465MPD2    C2 6920   2.140   2.024  17.070  0.3247  0.4231  0.2289
  465MPD2    C3 6921   2.191   2.046  16.942  0.7185  0.9625  0.0203
  465MPD2    C4 6922   2.308   1.986  16.911 -0.4210 -0.2043 -0.0105
  465MPD2    C5 6923   2.376   1.919  17.008  0.1972  0.6985 -0.1167
  465MPD2     H 6924   2.042   2.060  17.098  0.7900  1.5206  0.4660
  465MPD2    H1 6925   2.358   1.995  16.815 -0.2775  2.6722  0.3244
  465MPD2    H2 6926   2.390   1.871  17.216 -1.3945 -0.0399  1.4702
  465MPD2    H3 6927   2.471   1.869  16.991  1.0997  2.2464  0.3887
  465MPD2     N 6928   2.119   2.126  16.850  0.0623 -0.0175  0.1621
  465MPD2    H5 6929   2.030   2.157  16.888  1.5312  4.5939 -0.2113
  465MPD2    N1 6930   2.161   1.958  17.299  0.4590  0.1027 -0.5938
  465MPD2    H7 6931   2.073   2.008  17.308  1.0634  1.0802 -0.1686
  466TMC3    C1 6932   1.783   2.196  16.662  0.9042  0.5632 -0.5261
  466TMC3    C2 6933   1.783   2.251  16.539 -0.3144  0.7971 -0.0555
  466TMC3    C3 6934   1.902   2.264  16.467 -0.5397 -0.2083 -0.3669
  466TMC3    C4 6935   1.900   2.143  16.713 -0.5996  0.2168  0.2971
  466TMC3    C5 6936   2.019   2.169  16.647 -0.6851 -0.2656 -0.0866
  466TMC3    C6 6937   2.023   2.227  16.520 -0.0259  0.4654  0.7024
  466TMC3     C 6938   1.674   2.225  16.750  0.0755 -1.0687 -0.0723
  466TMC3     O 6939   1.687   2.187  16.868  0.1007 -0.3061  0.1267
  466TMC3     H 6940   1.690   2.270  16.486  1.1088  3.1328 -1.7722
  466TMC3    H1 6941   1.899   2.098  16.812 -0.8726  1.7542  0.9932
  466TMC3    H2 6942   2.115   2.246  16.466 -1.4895 -1.6922 -2.5968
  466TMC3    C7 6943   2.138   2.137  16.716  0.6482 -0.2032  0.2673
  466TMC3    C8 6944   1.911   2.369  16.370 -0.1969 -0.5271 -0.3112
  466TMC3    O1 6945   2.231   2.101  16.646 -0.3781  0.2053  0.2031
  466TMC3    O2 6946   1.981   2.352  16.269  0.2148  0.6005  0.1028
  467TMC3    C1 6947   2.978   1.512  13.576  0.9777  0.1965 -0.5054
  467TMC3    C2 6948   2.983   1.598  13.470  0.1077 -0.2696 -0.5525
  467TMC3    C3 6949   2.917   1.567  13.356 -1.2154 -0.5510 -0.5681
  467TMC3    C4 6950   2.915   1.392  13.571 -0.4721 -0.4287 -0.4509
  467TMC3    C5 6951   2.853   1.364  13.455 -0.8184  0.5006  0.5797
  467TMC3    C6 6952   2.859   1.441  13.344  0.0453 -0.8716  0.5893
  467TMC3     C 6953   3.112   1.506  13.627  0.0305  0.3583  0.6778
  467TMC3     O 6954   3.158   1.606  13.679 -0.1966  0.5632 -0.1775
  467TMC3     H 6955   3.046   1.685  13.484 -1.4985  0.6828  0.7832
  467TMC3    H1 6956   2.904   1.331  13.661 -0.0203 -0.8933 -0.7052
  467TMC3    H2 6957   2.794   1.420  13.259 -1.1055 -0.1138  1.2794
  467TMC3    C7 6958   2.769   1.246  13.440  0.3205 -0.0381  0.1628
  467TMC3    C8 6959   2.978   1.625  13.239 -0.2592  0.2405  0.1447
  467TMC3    O1 6960   2.745   1.210  13.325  0.3060 -0.3275 -0.1348
  467TMC3    O2 6961   3.030   1.734  13.235 -0.0320  0.4302  0.0683
  468MPD2     C 6962   2.584   3.476  10.243 -0.8538  0.0286  0.3797
  468MPD2    C1 6963   2.711   3.518  10.272 -1.0719 -0.4508  0.0396
  468MPD2    C2 6964   2.759   3.474  10.391 -0.0408  0.6678  0.5448
  468MPD2    C3 6965   2.688   3.401  10.484 -0.3693 -0.1494  0.4289
  468MPD2    C4 6966   2.568   3.354  10.453 -0.1837 -0.4187  0.3084
  468MPD2    C5 6967   2.514   3.398  10.335 -0.1798 -0.1178  0.3612
  468MPD2     H 6968   2.861   3.502  10.416  0.4520 -0.9708  0.3530
  468MPD2    H1 6969   2.523   3.282  10.521 -0.2618 -1.2407 -0.6135
  468MPD2    H2 6970   2.525   3.498  10.154 -0.5548  0.1889  0.2202
  468MPD2    H3 6971   2.414   3.368  10.306 -0.4045  1.5410 -0.6102
  468MPD2     N 6972   2.731   3.374  10.612 -0.4115  0.0368 -0.2964
  468MPD2    H5 6973   2.670   3.313  10.665  1.3368 -0.9872  0.5277
  468MPD2    N1 6974   2.782   3.619  10.200 -0.6162  0.2877  0.1159
  468MPD2    H7 6975   2.870   3.655  10.236 -1.5486  1.3284  1.3878
  469TMC3    C1 6976   2.827   3.792  10.052  0.2753  0.2350  0.1493
  469TMC3    C2 6977   2.953   3.787  10.094  0.2487 -0.4314 -0.1863
  469TMC3    C3 6978   3.019   3.891  10.151  0.7519  0.5341 -0.2988
  469TMC3    C4 6979   2.759   3.910  10.081  0.3453 -0.4217 -0.3706
  469TMC3    C5 6980   2.827   4.015  10.133 -0.0528 -0.7802  0.7116
  469TMC3    C6 6981   2.956   4.008  10.174 -0.1279  0.2793  0.2949
  469TMC3     C 6982   2.747   3.679  10.083 -0.6814  0.0854  0.4384
  469TMC3     O 6983   2.658   3.656  10.005  0.2120 -0.4579 -0.6714
  469TMC3     H 6984   3.022   3.703  10.092 -2.1311 -2.3131 -2.3101
  469TMC3    H1 6985   2.652   3.918  10.062  0.3676 -1.3490 -0.8539
  469TMC3    H2 6986   3.007   4.097  10.211  0.2845  0.4683 -0.7448
  469TMC3    C7 6987   2.756   4.143  10.172 -0.7238  0.3156 -0.2844
  469TMC3    C8 6988   3.156   3.874  10.193 -0.6125  0.6817  0.9117
  469TMC3    O1 6989   2.645   4.162  10.114 -0.1578 -0.3581  0.3925
  469TMC3    O2 6990   3.225   3.794  10.131 -0.7995 -1.1418  0.1254
  470TMC3    C1 6991   0.482   4.501   0.756  0.4109 -0.4742  0.4560
  470TMC3    C2 6992   0.533   4.623   0.717  0.0899  0.6732 -0.5331
  470TMC3    C3 6993   0.578   4.700   0.823  0.2615  0.1210  0.1577
  470TMC3    C4 6994   0.486   4.449   0.881  0.0014 -0.0898 -0.0307
  470TMC3    C5 6995   0.533   4.523   0.981  0.2453 -0.0024 -0.3507
  470TMC3    C6 6996   0.577   4.643   0.950  0.2117  0.4423  0.2380
  470TMC3     C 6997   0.441   4.403   0.645 -0.1416 -0.2178 -0.1184
  470TMC3     O 6998   0.480   4.429   0.530  0.3853 -0.5019  0.2208
  470TMC3     H 6999   0.553   4.657   0.616  0.1636 -2.4518 -1.5725
  470TMC3    H1 7000   0.469   4.343   0.895  0.2992  0.0289  1.1658
  470TMC3    H2 7001   0.594   4.711   1.033  0.8536  0.5134  0.0497
  470TMC3    C7 7002   0.540   4.476   1.117 -0.8782  0.8755 -0.1646
  470TMC3    C8 7003   0.587   0.118   0.802 -0.1357 -0.4966 -0.0294
  470TMC3    O1 7004   0.623   4.522   1.195 -0.1367  0.3416 -0.1041
  470TMC3    O2 7005   0.514   0.165   0.718 -0.2277 -0.2164 -0.2794
  471MPD2     C 7006   4.007   1.233  16.867 -0.0609  0.0166 -0.2287
  471MPD2    C1 7007   4.072   1.292  16.766 -0.1911  0.1120 -0.1121
  471MPD2    C2 7008   4.190   1.355  16.795 -0.2240  1.2794 -0.1169
  471MPD2    C3 7009   4.232   1.374  16.922  0.3425 -0.0805 -0.1114
  471MPD2    C4 7010   4.156   1.314  17.027  0.3756 -0.0465 -0.3991
  471MPD2    C5 7011   4.048   1.232  16.993 -0.8032 -0.4287 -0.3743
  471MPD2     H 7012   4.253   1.391  16.714  1.2612  2.7958  1.7066
  471MPD2    H1 7013   4.175   1.333  17.132  1.6208 -2.4017 -0.2110
  471MPD2    H2 7014   3.920   1.171  16.848  1.8750 -2.4854 -0.8507
  471MPD2    H3 7015   3.993   1.180  17.070 -0.4197 -0.8555 -0.3891
  471MPD2     N 7016   4.350   1.448  16.953 -0.2849  0.1138  0.1257
  471MPD2    H5 7017   4.378   1.458  17.050 -1.2182 -0.1307  0.4282
  471MPD2    N1 7018   4.050   1.282  16.629  0.1255  0.4272 -0.3903
  471MPD2    H7 7019   4.125   1.319  16.572  0.0099 -0.0459 -0.8460
  472TMC3    C1 7020   3.954   1.184  16.429  0.2276 -0.0597  0.0859
  472TMC3    C2 7021   3.858   1.098  16.384  0.7334  0.9444  0.1262
  472TMC3    C3 7022   3.889   1.009  16.294 -0.6891  0.4652  0.2154
  472TMC3    C4 7023   4.078   1.185  16.370 -0.0820  0.2490  0.2982
  472TMC3    C5 7024   4.106   1.087  16.281  0.2088  1.3642 -0.0705
  472TMC3    C6 7025   4.014   0.990  16.256  0.0454 -0.0997  0.5910
  472TMC3     C 7026   3.950   1.204  16.575  0.9545 -0.3092  0.0927
  472TMC3     O 7027   3.852   1.149  16.625  0.0530  0.4635  0.3722
  472TMC3     H 7028   3.756   1.099  16.419  0.0940 -1.3854 -1.6895
  472TMC3    H1 7029   4.148   1.261  16.403 -2.0494  2.0501  0.3533
  472TMC3    H2 7030   4.033   0.922  16.174 -1.4911 -0.1814  0.3108
  472TMC3    C7 7031   4.237   1.040  16.299  0.0763  0.0678 -0.6110
  472TMC3    C8 7032   3.790   0.916  16.244 -0.3300 -0.2225 -0.5236
  472TMC3    O1 7033   4.260   0.924  16.265 -0.2690  0.0378 -0.0380
  472TMC3    O2 7034   3.840   0.810  16.206  0.1826  0.5572  0.4506
  473MPD2     C 7035   4.517   3.318  13.830  0.5476  0.6013 -0.1484
  473MPD2    C1 7036   4.613   3.391  13.770 -0.1425  0.5204  0.2828
  473MPD2    C2 7037   4.719   3.443  13.836  0.1187 -0.0775 -0.6080
  473MPD2    C3 7038   0.012   3.423  13.975  0.7409  0.5458  0.6055
  473MPD2    C4 7039   4.636   3.342  14.039 -0.1910  0.4001 -0.2442
  473MPD2    C5 7040   4.539   3.275  13.964 -0.6433 -0.4626 -0.2121
  473MPD2     H 7041   0.069   3.509  13.789  1.7671 -1.7882 -0.5286
  473MPD2    H1 7042   4.642   3.314  14.144 -1.3613  0.4093 -0.1702
  473MPD2    H2 7043   4.419   3.295  13.790  0.0449  0.7658  0.9879
  473MPD2    H3 7044   4.471   3.206  14.012 -2.8051  0.3061 -2.1757
  473MPD2     N 7045   0.100   3.495  14.057 -0.1868  0.0118 -0.6282
  473MPD2    H5 7046   0.084   3.492  14.158  1.9399  1.2303 -0.2400
  473MPD2    N1 7047   4.610   3.433  13.640 -0.5676 -0.1547  0.7499
  473MPD2    H7 7048   4.670   3.509  13.610 -0.9106  0.1722  0.8775
  474TMC3    C1 7049   0.238   3.655  14.130  0.0075 -0.2741 -0.6200
  474TMC3    C2 7050   0.139   3.694  14.214 -0.4083 -0.3526 -0.2483
  474TMC3    C3 7051   0.137   3.827  14.245 -0.4571  0.0996  0.3840
  474TMC3    C4 7052   0.359   3.730  14.113 -0.6342  0.0307  0.5498
  474TMC3    C5 7053   0.366   3.849  14.174 -0.0246 -0.0461 -0.5027
  474TMC3    C6 7054   0.258   3.891  14.249 -0.0936 -0.3668  0.0781
  474TMC3     C 7055   0.206   3.566  14.014  0.3407 -0.2224 -0.0039
  474TMC3     O 7056   0.259   3.565  13.903 -0.2328  0.4097 -0.5436
  474TMC3     H 7057   0.041   3.648  14.214 -0.7827  0.4698 -1.4670
  474TMC3    H1 7058   0.443   3.701  14.051 -1.5955  0.4081 -0.9398
  474TMC3    H2 7059   0.258   3.988  14.298  1.8806 -0.6403  0.5964
  474TMC3    C7 7060   0.498   3.903  14.195  0.2426 -0.2279  0.0329
  474TMC3    C8 7061   0.043   3.893  14.153  0.5406 -0.6334  0.2459
  474TMC3    O1 7062   0.584   3.892  14.107  0.4397 -0.8591 -0.1828
  474TMC3    O2 7063   4.679   3.818  14.109  0.3576 -0.0142  0.0028
  475MPD2     C 7064   2.906   1.475  10.306 -0.1319 -0.3866  0.2151
  475MPD2    C1 7065   2.953   1.598  10.345  0.1128 -0.3563  0.2058
  475MPD2    C2 7066   2.920   1.707  10.267  0.1534 -0.1861  0.7467
  475MPD2    C3 7067   2.835   1.695  10.157 -1.1608  0.0075  0.6246
  475MPD2    C4 7068   2.784   1.573  10.123 -0.1620 -0.7592 -0.2789
  475MPD2    C5 7069   2.829   1.459  10.191 -0.2017 -0.0601  0.0449
  475MPD2     H 7070   2.981   1.796  10.266  3.0329 -2.2307 -2.0399
  475MPD2    H1 7071   2.707   1.564  10.047  0.7498 -2.3640 -1.0037
  475MPD2    H2 7072   2.922   1.385  10.364  0.8050 -1.2502 -1.3791
  475MPD2    H3 7073   2.773   1.367  10.178  0.9311 -1.0586  2.3216
  475MPD2     N 7074   2.802   1.810  10.095  0.9547  0.1772  0.1078
  475MPD2    H5 7075   2.832   1.895  10.143  0.2906 -0.2040  1.2037
  475MPD2    N1 7076   3.048   1.603  10.456 -0.0985 -0.2336 -0.0346
  475MPD2    H7 7077   3.072   1.517  10.505  0.2895 -0.3425 -0.4099
  476TMC3    C1 7078   3.197   1.682  10.616 -0.4800  0.3406  0.1609
  476TMC3    C2 7079   3.313   1.630  10.570  0.1088 -0.3899 -0.0443
  476TMC3    C3 7080   3.424   1.645  10.641 -0.3337 -0.3379 -0.6911
  476TMC3    C4 7081   3.191   1.777  10.713 -0.7749 -0.2951  0.2372
  476TMC3    C5 7082   3.308   1.787  10.783 -0.1099 -0.4294  1.0014
  476TMC3    C6 7083   3.424   1.725  10.752  0.1299  0.3655  0.0191
  476TMC3     C 7084   3.100   1.711  10.514 -0.3641  0.1290 -0.6723
  476TMC3     O 7085   3.053   1.822  10.514 -0.0359 -0.3373  0.0575
  476TMC3     H 7086   3.318   1.573  10.478  1.4723 -2.5925  1.3801
  476TMC3    H1 7087   3.101   1.814  10.761  1.0099  3.6554  0.5155
  476TMC3    H2 7088   3.518   1.758  10.794  1.0737 -1.8382 -0.3539
  476TMC3    C7 7089   3.299   1.867  10.904  0.1094  0.1216  1.0586
  476TMC3    C8 7090   3.553   1.644  10.567  0.0541  0.2740 -0.1365
  476TMC3    O1 7091   3.200   1.859  10.976  0.1667 -0.1136  0.3509
  476TMC3    O2 7092   3.645   1.708  10.617  0.0613  0.0999  0.2803
  477MPD2     C 7093   1.228   3.331  11.326 -0.1614 -0.0925  0.0522
  477MPD2    C1 7094   1.161   3.219  11.372  0.3913  0.8423 -0.2622
  477MPD2    C2 7095   1.190   3.169  11.498 -0.2606 -0.0412 -0.6275
  477MPD2    C3 7096   1.270   3.234  11.590  0.1758 -0.1911  0.0064
  477MPD2    C4 7097   1.343   3.347  11.546 -0.0057 -0.1271 -0.4218
  477MPD2    C5 7098   1.311   3.395  11.420 -0.0490  0.0193 -0.3668
  477MPD2     H 7099   1.143   3.079  11.538 -0.3398 -0.0125 -0.6547
  477MPD2    H1 7100   1.397   3.407  11.618  0.1079 -0.9619  0.1871
  477MPD2    H2 7101   1.211   3.367  11.225  0.5807 -1.6744 -0.6428
  477MPD2    H3 7102   1.360   3.482  11.379 -1.2492  2.0694  2.5185
  477MPD2     N 7103   1.273   3.179  11.720  0.2459  0.2171  0.3134
  477MPD2    H5 7104   1.229   3.088  11.730  0.2505  0.0235 -1.4325
  477MPD2    N1 7105   1.068   3.152  11.290  0.3441 -0.3055 -0.3637
  477MPD2    H7 7106   1.048   3.195  11.200  1.5162  0.8621 -0.0653
  478TMC3    C1 7107   0.847   3.085  11.291 -0.1030  0.5374 -0.7883
  478TMC3    C2 7108   0.780   3.123  11.402 -0.5215  0.2466  0.5706
  478TMC3    C3 7109   0.674   3.206  11.388  0.1881  0.4921  0.7326
  478TMC3    C4 7110   0.823   3.143  11.170  0.1188 -0.4422 -0.4367
  478TMC3    C5 7111   0.716   3.228  11.159 -0.2275  0.2614 -0.2253
  478TMC3    C6 7112   0.637   3.260  11.270  0.1674 -0.4696  0.1648
  478TMC3     C 7113   0.982   3.054  11.329 -0.4302 -0.5073 -0.2326
  478TMC3     O 7114   1.004   2.962  11.403  0.3700 -0.2901 -0.1629
  478TMC3     H 7115   0.802   3.087  11.502  0.1984 -1.7486 -0.3222
  478TMC3    H1 7116   0.874   3.106  11.082  0.7023 -1.8604  0.4906
  478TMC3    H2 7117   0.550   3.324  11.257  1.0894  0.8369  0.4650
  478TMC3    C7 7118   0.642   3.199  11.038 -0.4953  0.2992  0.0275
  478TMC3    C8 7119   0.638   3.277  11.516  0.3188 -0.2816  0.6325
  478TMC3    O1 7120   0.653   3.094  10.979  0.2450 -0.3061  0.0090
  478TMC3    O2 7121   0.604   3.207  11.613  0.6123  0.6414  0.1489
  479MPD2     C 7122   4.235   0.588  14.895 -0.1459 -0.6659  0.1227
  479MPD2    C1 7123   4.151   0.525  14.980 -1.1414 -0.3606  0.1573
  479MPD2    C2 7124   4.177   0.520  15.108  0.0104  1.0261  0.6295
  479MPD2    C3 7125   4.277   0.592  15.169 -0.1973  0.4022  0.4697
  479MPD2    C4 7126   4.367   0.660  15.081 -0.2139 -0.2024 -0.3189
  479MPD2    C5 7127   4.344   0.654  14.942  0.2160 -0.0933  0.5772
  479MPD2     H 7128   4.111   0.450  15.158  0.7306 -0.7552 -0.9299
  479MPD2    H1 7129   4.448   0.726  15.111  0.0770 -0.3787 -0.7151
  479MPD2    H2 7130   4.212   0.587  14.789  0.1870  1.0090  0.0283
  479MPD2    H3 7131   4.403   0.717  14.876 -0.9355 -2.1009 -2.3682
  479MPD2     N 7132   4.308   0.605  15.303  0.0894  0.2069 -0.0853
  479MPD2    H5 7133   4.395   0.654  15.322 -0.7296  1.8632 -0.5774
  479MPD2    N1 7134   4.032   0.468  14.928 -0.2784  0.7437 -0.5135
  479MPD2    H7 7135   4.023   0.459  14.827 -0.2256  1.2691 -0.5651
  480TMC3    C1 7136   3.943   0.393  15.500  0.5297 -0.8249  0.1627
  480TMC3    C2 7137   3.851   0.480  15.456 -0.1975 -0.7690  0.4413
  480TMC3    C3 7138   3.897   0.592  15.385  0.2161  0.2049  0.0507
  480TMC3    C4 7139   4.073   0.422  15.476 -0.1299 -0.5977  0.0982
  480TMC3    C5 7140   4.115   0.523  15.401 -0.2358  0.4338 -0.3445
  480TMC3    C6 7141   4.025   0.615  15.362  0.9142 -0.7243  0.0362
  480TMC3     C 7142   3.907   0.290  15.584  0.7826  0.7362  0.0377
  480TMC3     O 7143   3.973   0.276  15.689  0.0506  0.0862  0.1037
  480TMC3     H 7144   3.743   0.473  15.459 -0.3910  1.3087 -2.2048
  480TMC3    H1 7145   4.137   0.355  15.532 -2.4185 -2.0450  1.0226
  480TMC3    H2 7146   4.053   0.699  15.301 -0.6914  0.2779  0.6775
  480TMC3    C7 7147   4.243   0.569  15.414 -0.3901  0.0253 -0.0590
  480TMC3    C8 7148   3.803   0.680  15.312  0.6426  0.1348  0.6061
  480TMC3    O1 7149   4.286   0.569  15.529 -0.3550 -0.4416  0.1079
  480TMC3    O2 7150   3.684   0.678  15.347 -0.5317  0.3698  0.2185
  481MPD2     C 7151   1.394   0.658  14.242  0.1082 -0.2471  0.3195
  481MPD2    C1 7152   1.290   0.573  14.247 -0.3800 -0.3754  0.2004
  481MPD2    C2 7153   1.248   0.541  14.372  0.5640 -0.1127  0.0478
  481MPD2    C3 7154   1.318   0.575  14.482  0.1696  0.4747  0.2860
  481MPD2    C4 7155   1.422   0.665  14.469  0.1544 -0.5070 -0.0992
  481MPD2    C5 7156   1.456   0.708  14.349  0.0616  0.5609 -0.1433
  481MPD2     H 7157   1.164   0.474  14.384  0.2869  0.4005  0.9478
  481MPD2    H1 7158   1.476   0.705  14.555 -2.5067 -1.4806  2.0335
  481MPD2    H2 7159   1.438   0.694  14.150 -1.2903 -0.4821 -0.4362
  481MPD2    H3 7160   1.542   0.775  14.345 -0.3635  1.0013 -1.6266
  481MPD2     N 7161   1.281   0.542  14.609  0.2003  0.5161  0.6900
  481MPD2    H5 7162   1.344   0.579  14.680  0.5605  0.0699  0.6007
  481MPD2    N1 7163   1.238   0.528  14.120 -0.6049 -0.9358  0.2987
  481MPD2    H7 7164   1.289   0.562  14.039  0.8417 -3.1535  0.2711
  482TMC3    C1 7165   1.106   0.409  13.971  0.8216 -0.0312 -0.0531
  482TMC3    C2 7166   1.031   0.294  13.959 -0.8479 -0.4009  0.7688
  482TMC3    C3 7167   0.989   0.263  13.835  0.3077 -0.0362 -0.4972
  482TMC3    C4 7168   1.154   0.482  13.864 -0.0111  0.2520  0.0237
  482TMC3    C5 7169   1.118   0.435  13.740 -0.1435  0.1950 -0.7944
  482TMC3    C6 7170   1.034   0.332  13.724  0.3625  0.6486 -0.2231
  482TMC3     C 7171   1.123   0.457  14.102 -0.8236 -0.1920 -0.3125
  482TMC3     O 7172   1.054   0.402  14.189 -0.1709 -0.4321 -0.3259
  482TMC3     H 7173   0.995   0.235  14.043 -1.0581 -2.5107 -0.8062
  482TMC3    H1 7174   1.223   0.565  13.878  1.2964 -0.7432 -0.6502
  482TMC3    H2 7175   1.009   0.290  13.627 -0.6486  2.4350 -0.7467
  482TMC3    C7 7176   1.128   0.535  13.638  0.6080 -0.6581 -0.3952
  482TMC3    C8 7177   0.878   0.174  13.825  0.1458  0.3373  0.2413
  482TMC3    O1 7178   1.141   0.647  13.688 -0.0126 -0.5530  0.3339
  482TMC3    O2 7179   0.866   0.088  13.909  0.6629  0.4664  0.2048
  483TMC3    C1 7180   3.711   3.235   0.332 -0.4216  0.0343  0.1581
  483TMC3    C2 7181   3.689   3.365   0.313  0.7788 -0.2824 -0.6934
  483TMC3    C3 7182   3.738   3.445   0.410  0.1161 -0.0119  0.1318
  483TMC3    C4 7183   3.788   3.180   0.430 -0.3806  0.1130 -0.7771
  483TMC3    C5 7184   3.846   3.269   0.519  0.1950  0.1091 -0.5663
  483TMC3    C6 7185   3.811   3.399   0.514 -0.5167 -1.0894 -0.1948
  483TMC3     C 7186   3.647   3.140   0.235 -0.4940 -0.1249  0.0772
  483TMC3     O 7187   3.544   3.178   0.176 -0.1576  0.3973  0.1572
  483TMC3     H 7188   3.650   3.402   0.219  3.0068  1.5387 -0.8995
  483TMC3    H1 7189   3.798   3.073   0.450 -0.6761  0.3666  0.7428
  483TMC3    H2 7190   3.856   3.464   0.588 -0.9457 -2.3533  1.1972
  483TMC3    C7 7191   3.943   3.227   0.622  0.6703  0.3101  0.2368
  483TMC3    C8 7192   3.724   3.587   0.380  0.0136  0.1682  0.1783
  483TMC3    O1 7193   4.012   3.313   0.673 -0.0956 -0.1464  0.0787
  483TMC3    O2 7194   3.689   3.615   0.269 -0.2553  0.2799  0.2253
  484MPD2     C 7195   2.458   1.967  12.145  0.5935  0.3698 -0.2191
  484MPD2    C1 7196   2.454   1.864  12.235  1.0685  1.0705 -0.4423
  484MPD2    C2 7197   2.577   1.818  12.282  0.3523  0.9841  0.1766
  484MPD2    C3 7198   2.698   1.861  12.229  0.1745  0.6124  0.1703
  484MPD2    C4 7199   2.696   1.966  12.140  0.0873  0.7514 -0.2789
  484MPD2    C5 7200   2.577   2.022  12.094  0.2814  1.3360 -0.7632
  484MPD2     H 7201   2.574   1.729  12.344  0.5871  1.3600  0.7250
  484MPD2    H1 7202   2.790   2.013  12.112 -0.9605  1.8583 -1.8695
  484MPD2    H2 7203   2.363   2.002  12.107 -0.2429 -1.3225  0.3396
  484MPD2    H3 7204   2.574   2.095  12.014 -1.6592  2.1282  0.0415
  484MPD2     N 7205   2.825   1.804  12.255  0.3098 -0.4951  0.0899
  484MPD2    H5 7206   2.905   1.835  12.201 -1.0166  0.2178 -1.4841
  484MPD2    N1 7207   2.324   1.806  12.276 -0.2908  0.0805  0.3845
  484MPD2    H7 7208   2.238   1.847  12.241 -0.0401 -1.4259 -1.9260
  485TMC3    C1 7209   2.971   1.641  12.327  0.0204  0.0435 -0.3298
  485TMC3    C2 7210   2.982   1.518  12.373 -0.7132  0.1901 -0.1286
  485TMC3    C3 7211   3.099   1.452  12.354  0.0294 -0.0854 -0.9075
  485TMC3    C4 7212   3.072   1.709  12.266  0.0734 -0.0323  1.5525
  485TMC3    C5 7213   3.193   1.639  12.253  0.2236 -0.6718  0.0831
  485TMC3    C6 7214   3.209   1.512  12.303  0.5216 -0.0100 -0.5465
  485TMC3     C 7215   2.836   1.695  12.340 -0.3737 -0.0942  0.0658
  485TMC3     O 7216   2.756   1.644  12.423 -0.1093 -0.0982  0.5372
  485TMC3     H 7217   2.891   1.472  12.407 -0.2134  0.8704  2.1306
  485TMC3    H1 7218   3.068   1.813  12.236 -2.0896 -1.6782 -3.7348
  485TMC3    H2 7219   3.301   1.458  12.284 -0.3583 -1.3248 -1.0548
  485TMC3    C7 7220   3.249   1.667  12.122  0.8500 -0.4629  0.2718
  485TMC3    C8 7221   3.089   1.320  12.300  0.1681  1.2313 -0.2828
  485TMC3    O1 7222   3.245   1.777  12.075  0.0091 -0.2877  0.5246
  485TMC3    O2 7223   3.183   1.282  12.229 -0.0644 -0.2934 -0.4519
  486MPD2     C 7224   4.300   0.465  12.554 -0.4011  0.0463 -0.0789
  486MPD2    C1 7225   4.245   0.546  12.653 -0.3469 -0.1534  0.1975
  486MPD2    C2 7226   4.186   0.666  12.619 -0.4235  0.2111 -0.0563
  486MPD2    C3 7227   4.171   0.699  12.486 -0.5803  0.6633 -0.1912
  486MPD2    C4 7228   4.222   0.610  12.390 -0.2814  0.3882 -0.4896
  486MPD2    C5 7229   4.281   0.494  12.421  0.4700  0.1114 -0.3749
  486MPD2     H 7230   4.161   0.735  12.699 -0.7122  1.1621 -0.9678
  486MPD2    H1 7231   4.211   0.624  12.283  0.2326  0.5730 -0.5198
  486MPD2    H2 7232   4.354   0.372  12.568 -0.6517  0.1237  1.4397
  486MPD2    H3 7233   4.327   0.426  12.351  1.4447  1.0971 -0.6809
  486MPD2     N 7234   4.109   0.824  12.451  0.4491  0.9074 -0.2465
  486MPD2    H5 7235   4.067   0.875  12.528  1.2673  0.9021  0.2049
  486MPD2    N1 7236   4.255   0.503  12.786 -0.2561 -0.0954  0.1550
  486MPD2    H7 7237   4.297   0.411  12.794 -1.3030 -0.5471  0.5163
  487TMC3    C1 7238   4.206   0.468  13.020  0.4028 -0.6908  0.2158
  487TMC3    C2 7239   4.178   0.337  12.987 -0.1681 -0.5375  0.5154
  487TMC3    C3 7240   4.147   0.253  13.098 -0.8621 -0.5150 -0.2431
  487TMC3    C4 7241   4.206   0.518  13.145 -0.1706 -0.6069 -0.0562
  487TMC3    C5 7242   4.177   0.435  13.251  0.5480  0.2338 -0.3042
  487TMC3    C6 7243   4.146   0.299  13.229 -0.4592  0.3381  0.4531
  487TMC3     C 7244   4.200   0.557  12.905 -0.6191  0.0564  0.0714
  487TMC3     O 7245   4.159   0.672  12.919  0.6054  0.6100 -0.0253
  487TMC3     H 7246   4.184   0.288  12.890 -1.6512  0.4514 -0.0846
  487TMC3    H1 7247   4.224   0.624  13.155 -1.0232 -0.4108 -0.6330
  487TMC3    H2 7248   4.084   0.246  13.300 -0.7080 -1.9261 -1.4853
  487TMC3    C7 7249   4.112   0.506  13.363  0.2335 -0.1456 -0.0338
  487TMC3    C8 7250   4.033   0.178  13.064  0.6190 -0.0923 -0.4448
  487TMC3    O1 7251   4.085   0.626  13.350  0.1959 -0.4527 -0.2378
  487TMC3    O2 7252   3.968   0.221  12.971  0.5123  0.2833  0.0922
  488MPD2     C 7253   3.816   2.688  15.993 -0.4356 -0.9599  0.6752
  488MPD2    C1 7254   3.842   2.815  16.042 -0.1284  0.1265  0.3251
  488MPD2    C2 7255   3.764   2.868  16.144  0.9232 -0.3962  0.1303
  488MPD2    C3 7256   3.662   2.798  16.198 -0.5824 -0.7979  0.5260
  488MPD2    C4 7257   3.628   2.673  16.142 -0.1828  0.6271 -0.1112
  488MPD2    C5 7258   3.709   2.622  16.045  0.0199  0.2296 -0.2792
  488MPD2     H 7259   3.782   2.970  16.176  1.2835 -0.6294  0.6667
  488MPD2    H1 7260   3.546   2.608  16.170 -0.5019  1.4107  0.7695
  488MPD2    H2 7261   3.875   2.638  15.918 -1.5723 -0.7804 -0.3417
  488MPD2    H3 7262   3.693   2.520  16.010 -1.9361  0.8557 -1.2182
  488MPD2     N 7263   3.591   2.846  16.311 -0.2385 -0.0353  0.1349
  488MPD2    H5 7264   3.617   2.930  16.361 -1.8738  0.9715 -0.6928
  488MPD2    N1 7265   3.941   2.902  15.985 -0.1473  0.4086 -0.5408
  488MPD2    H7 7266   3.936   2.998  16.019 -2.7090  0.3438 -0.7871
  489TMC3    C1 7267   3.436   2.846  16.489 -1.2882  0.0785  0.2394
  489TMC3    C2 7268   3.515   2.942  16.547  0.4944  0.5616 -0.2114
  489TMC3    C3 7269   3.467   3.053  16.597  0.7641  0.1440  0.9615
  489TMC3    C4 7270   3.299   2.853  16.500  0.1265 -0.6414 -0.1944
  489TMC3    C5 7271   3.250   2.967  16.567  0.1493 -0.7623  0.0981
  489TMC3    C6 7272   3.332   3.065  16.603 -0.4619  0.0592  0.6712
  489TMC3     C 7273   3.484   2.781  16.361  0.7510 -0.2602  0.1097
  489TMC3     O 7274   3.419   2.682  16.327  0.0699 -0.0063 -0.3157
  489TMC3     H 7275   3.622   2.926  16.545  0.3902 -0.1084 -0.5049
  489TMC3    H1 7276   3.235   2.777  16.456 -0.6621 -0.0315 -0.1033
  489TMC3    H2 7277   3.288   3.158  16.638 -0.1271  0.4736 -0.0144
  489TMC3    C7 7278   3.108   2.982  16.607 -0.2196  0.7670 -0.7060
  489TMC3    C8 7279   3.547   3.172  16.572  0.4622 -0.1358  0.0572
  489TMC3    O1 7280   3.081   3.078  16.673  0.2608 -0.2002 -0.3166
  489TMC3    O2 7281   3.620   3.161  16.471  0.2879 -0.2075 -0.0906
  490MPD2     C 7282   4.684   2.070  16.747 -0.0968  0.1579  0.3692
  490MPD2    C1 7283   4.688   2.164  16.849  0.1189 -1.1764  0.1466
  490MPD2    C2 7284   0.086   2.225  16.885 -0.2827 -0.1929 -0.3141
  490MPD2    C3 7285   0.209   2.176  16.829 -0.0040 -0.0976  0.5529
  490MPD2    C4 7286   0.203   2.067  16.738  0.3287 -0.3147 -0.1181
  490MPD2    C5 7287   0.079   2.022  16.700  0.1309  0.1163  0.1334
  490MPD2     H 7288   0.080   2.303  16.959 -0.4812  0.8123 -1.3921
  490MPD2    H1 7289   0.284   2.016  16.686 -0.8149 -1.3511 -0.8924
  490MPD2    H2 7290   4.592   2.026  16.708  0.3779 -0.3759 -0.1509
  490MPD2    H3 7291   0.073   1.937  16.634  0.5862 -0.5984  1.0048
  490MPD2     N 7292   0.339   2.229  16.854 -0.2672  0.4203 -0.6962
  490MPD2    H5 7293   0.414   2.191  16.796 -0.9794  0.4487 -1.6472
  490MPD2    N1 7294   4.576   2.195  16.932  0.0030  0.5127 -0.7951
  490MPD2    H7 7295   4.597   2.250  17.015  0.7961  0.2311 -0.8121
  491TMC3    C1 7296   4.389   2.130  17.044 -0.8656 -0.3556 -0.1633
  491TMC3    C2 7297   4.470   2.078  17.143  0.9990  0.3134  0.8952
  491TMC3    C3 7298   4.403   2.034  17.252  0.4015  0.2389 -0.8751
  491TMC3    C4 7299   4.258   2.134  17.047  0.3503  0.0102  0.2203
  491TMC3    C5 7300   4.200   2.082  17.160 -0.7521  0.1037  0.0459
  491TMC3    C6 7301   4.272   2.038  17.262 -0.9506  0.3224  0.3521
  491TMC3     C 7302   4.450   2.148  16.909 -0.0767  0.2534 -0.1755
  491TMC3     O 7303   4.392   2.124  16.803  0.0395  0.0214  0.0971
  491TMC3     H 7304   4.577   2.092  17.157  0.8349  0.7178  1.7955
  491TMC3    H1 7305   4.195   2.157  16.963 -0.3962 -0.1610  0.7333
  491TMC3    H2 7306   4.212   2.003  17.346 -0.6151 -1.2785 -0.0876
  491TMC3    C7 7307   4.075   2.020  17.143 -0.1031 -0.7122 -0.4003
  491TMC3    C8 7308   4.457   1.928  17.341  0.3573  1.0087  0.0929
  491TMC3    O1 7309   4.052   1.927  17.221 -0.1134  0.1730  0.4187
  491TMC3    O2 7310   4.378   1.872  17.414  0.9699  0.2955  0.1244
  492MPD2     C 7311   1.006   2.053  10.925  0.5477 -0.3520  0.7545
  492MPD2    C1 7312   0.930   1.960  10.861 -0.3535 -0.1827  0.1585
  492MPD2    C2 7313   0.868   1.859  10.930  0.5254 -0.0968 -0.7949
  492MPD2    C3 7314   0.883   1.864  11.070 -0.1399  0.4436  0.7646
  492MPD2    C4 7315   0.949   1.972  11.131  0.9087  0.4758 -0.1678
  492MPD2    C5 7316   1.011   2.072  11.062 -0.1882  0.7169 -0.3741
  492MPD2     H 7317   0.808   1.783  10.882 -0.2076 -0.1746  0.2393
  492MPD2    H1 7318   0.955   1.971  11.239  0.6210 -1.2625 -0.1733
  492MPD2    H2 7319   1.058   2.123  10.861  1.5900 -2.0129 -0.2112
  492MPD2    H3 7320   1.058   2.150  11.120 -1.4157  1.4511 -0.3667
  492MPD2     N 7321   0.833   1.771  11.159  0.2608 -0.3517  0.2299
  492MPD2    H5 7322   0.849   1.773  11.259  0.0947 -0.2320  0.2533
  492MPD2    N1 7323   0.933   1.972  10.723  0.4218 -0.2076 -0.0304
  492MPD2    H7 7324   0.985   2.055  10.694 -1.2279  1.3075  1.3277
  493TMC3    C1 7325   0.894   1.939  10.496 -0.3881  0.1662  0.6054
  493TMC3    C2 7326   1.006   2.017  10.487 -0.0575  0.1604 -1.2034
  493TMC3    C3 7327   1.000   2.135  10.415  0.2084  0.2083  0.0649
  493TMC3    C4 7328   0.790   1.961  10.407  0.1000 -0.7795  0.0367
  493TMC3    C5 7329   0.795   2.066  10.321  0.3391  0.3159 -0.4190
  493TMC3    C6 7330   0.894   2.158  10.330 -0.0760 -0.4687 -0.3644
  493TMC3     C 7331   0.860   1.896  10.630  0.1008 -0.1644  0.0721
  493TMC3     O 7332   0.776   1.813  10.645 -0.0673  0.0879 -0.0662
  493TMC3     H 7333   1.094   1.990  10.545 -0.3775  1.0896 -0.2984
  493TMC3    H1 7334   0.707   1.892  10.396 -0.8595  0.1967  1.1077
  493TMC3    H2 7335   0.890   2.250  10.272  0.4869 -1.0391 -1.3169
  493TMC3    C7 7336   0.674   2.098  10.249 -0.0592 -0.1152 -0.4758
  493TMC3    C8 7337   1.076   2.247  10.462  1.4982 -0.4118  0.1922
  493TMC3    O1 7338   0.571   2.057  10.304 -0.2423 -0.2493  0.1254
  493TMC3    O2 7339   1.088   2.268  10.583  0.5559  0.5010  0.5383
  494TMC3    C1 7340   0.930   3.847   0.239  0.5455 -0.2623  0.8904
  494TMC3    C2 7341   0.882   3.757   0.327  0.1188 -0.3182 -0.6369
  494TMC3    C3 7342   0.781   3.672   0.291  0.4046  0.0392  0.8532
  494TMC3    C4 7343   0.882   3.860   0.107 -0.2194 -0.4530  0.2517
  494TMC3    C5 7344   0.766   3.794   0.081 -0.7800 -0.0035  0.8365
  494TMC3    C6 7345   0.720   3.694   0.166  0.4790  0.7281 -0.2953
  494TMC3     C 7346   1.019   3.949   0.291 -0.0438  0.0995  0.3606
  494TMC3     O 7347   1.110   3.983   0.219  0.2468  0.0200  0.3587
  494TMC3     H 7348   0.930   3.734   0.421 -0.6528 -0.6517 -0.3216
  494TMC3    H1 7349   0.925   3.932   0.038  3.8433 -1.3615  1.8212
  494TMC3    H2 7350   0.632   3.637   0.139  1.1082 -0.6588  0.5706
  494TMC3    C7 7351   0.719   3.783  17.630  0.8427 -0.0948 -0.5606
  494TMC3    C8 7352   0.731   3.579   0.389 -0.3727 -0.2766  0.3523
  494TMC3    O1 7353   0.776   3.841  17.538 -0.1096 -0.6068  0.4993
  494TMC3    O2 7354   0.764   3.599   0.506 -0.2299 -0.4759  0.1365
  495TMC3    C1 7355   4.027   0.608  14.374  0.8055  0.5232  0.1916
  495TMC3    C2 7356   3.940   0.657  14.282 -0.4021 -0.1379 -0.5583
  495TMC3    C3 7357   3.863   0.758  14.324  0.0411  0.0170 -0.1684
  495TMC3    C4 7358   4.031   0.654  14.501 -0.1447  0.1719  0.5574
  495TMC3    C5 7359   3.941   0.746  14.543  0.5063  0.4842 -0.0679
  495TMC3    C6 7360   3.852   0.799  14.454  0.5240  0.8905 -0.0586
  495TMC3     C 7361   4.107   0.495  14.344  0.3129  0.5310  0.1105
  495TMC3     O 7362   4.215   0.484  14.398 -0.4885 -0.0333  0.2094
  495TMC3     H 7363   3.949   0.631  14.177 -0.4110 -0.3261 -0.5125
  495TMC3    H1 7364   4.091   0.601  14.574  1.5320  0.0032 -0.9461
  495TMC3    H2 7365   3.803   0.894  14.471 -0.0265  0.8039 -1.1762
  495TMC3    C7 7366   3.939   0.797  14.686 -0.0525  0.8106 -0.2662
  495TMC3    C8 7367   3.800   0.855  14.231  0.6085  0.3093  1.3223
  495TMC3    O1 7368   4.025   0.746  14.755 -0.6631 -0.0704  0.4500
  495TMC3    O2 7369   3.698   0.913  14.265 -0.0588  0.1681  0.0046
  496MPD2     C 7370   1.567   1.305  15.328 -0.5248  0.0350 -0.3173
  496MPD2    C1 7371   1.550   1.176  15.298 -0.7184  0.7461 -0.2844
  496MPD2    C2 7372   1.426   1.120  15.310  1.1220 -0.0167  0.8355
  496MPD2    C3 7373   1.318   1.192  15.359  0.0446  0.0660 -0.3371
  496MPD2    C4 7374   1.340   1.318  15.398 -0.1056 -0.4569 -0.8229
  496MPD2    C5 7375   1.461   1.372  15.372  0.2004 -0.1449 -0.4159
  496MPD2     H 7376   1.406   1.019  15.275  1.4443  1.5654 -3.8278
  496MPD2    H1 7377   1.266   1.384  15.443 -0.1594  1.1471 -3.3189
  496MPD2    H2 7378   1.660   1.358  15.309  0.1634 -0.5181  1.5825
  496MPD2    H3 7379   1.465   1.477  15.398  0.6840 -0.1556 -0.4577
  496MPD2     N 7380   1.196   1.129  15.366 -0.4541 -0.4493 -0.5700
  496MPD2    H5 7381   1.195   1.036  15.323 -1.9073 -0.4420 -0.5499
  496MPD2    N1 7382   1.659   1.103  15.245 -0.5901  0.6574  0.1619
  496MPD2    H7 7383   1.746   1.151  15.224  0.2156 -0.6500  0.5261
  497TMC3    C1 7384   1.028   1.034  15.487 -1.0402 -0.2439 -0.3795
  497TMC3    C2 7385   0.990   0.967  15.373 -1.0650  0.7638  0.5909
  497TMC3    C3 7386   0.894   0.869  15.404 -0.3056 -0.7328 -0.5703
  497TMC3    C4 7387   0.996   0.991  15.613 -0.4449 -0.2070 -0.3011
  497TMC3    C5 7388   0.899   0.897  15.635  0.3179 -0.0434 -0.2758
  497TMC3    C6 7389   0.845   0.827  15.525  0.2731  0.3160  0.3464
  497TMC3     C 7390   1.114   1.145  15.473  0.4384  0.3921 -0.4569
  497TMC3     O 7391   1.123   1.221  15.573  0.8913  0.0782  0.0025
  497TMC3     H 7392   1.013   0.996  15.271 -0.3745  0.0037  0.5283
  497TMC3    H1 7393   1.019   1.054  15.698  0.8244 -0.5192 -0.4095
  497TMC3    H2 7394   0.770   0.750  15.534  0.1393  0.5856  1.5184
  497TMC3    C7 7395   0.908   0.817  15.751 -0.6553  0.4462 -0.1054
  497TMC3    C8 7396   0.860   0.768  15.304 -0.2632 -0.2694  0.3563
  497TMC3    O1 7397   0.813   0.747  15.787 -0.4639 -0.4776 -0.1041
  497TMC3    O2 7398   0.830   0.660  15.340 -0.0560  0.3139  0.0847
  498MPD2     C 7399   2.893   1.343   9.825 -0.4152  0.2718  0.4492
  498MPD2    C1 7400   2.971   1.282   9.732 -0.3326 -0.2141 -0.6893
  498MPD2    C2 7401   2.912   1.174   9.669  0.2950  0.7057 -0.6800
  498MPD2    C3 7402   2.784   1.130   9.686  0.5959 -0.0998  0.0760
  498MPD2    C4 7403   2.714   1.198   9.787 -0.0235 -0.0036  0.1708
  498MPD2    C5 7404   2.769   1.295   9.857  0.3337  0.1737 -0.2025
  498MPD2     H 7405   2.973   1.117   9.599 -1.0381  0.6649 -1.8002
  498MPD2    H1 7406   2.613   1.166   9.809  0.0001 -0.7011 -0.7201
  498MPD2    H2 7407   2.930   1.425   9.886  0.5073  1.3641 -1.5880
  498MPD2    H3 7408   2.704   1.348   9.925  0.3275  1.4644 -1.2321
  498MPD2     N 7409   2.736   1.018   9.616  0.1018 -0.6927 -0.0178
  498MPD2    H5 7410   2.804   0.962   9.565 -0.2472 -1.6546  0.5781
  498MPD2    N1 7411   3.110   1.303   9.715 -0.3482 -0.6157 -0.6405
  498MPD2    H7 7412   3.158   1.237   9.655  0.8845  0.0874 -0.4065
  499TMC3    C1 7413   3.316   1.419   9.718 -0.3680 -0.0837  0.2274
  499TMC3    C2 7414   3.383   1.299   9.702  0.0698  0.7922 -0.6882
  499TMC3    C3 7415   3.515   1.310   9.654  0.2117  0.3363  0.1020
  499TMC3    C4 7416   3.371   1.542   9.688 -0.3844 -0.3753 -0.3422
  499TMC3    C5 7417   3.501   1.545   9.648 -0.2893 -0.4895 -0.2185
  499TMC3    C6 7418   3.574   1.432   9.623  0.4248  0.1925 -0.1093
  499TMC3     C 7419   3.179   1.409   9.763  0.5145 -0.0781  0.5225
  499TMC3     O 7420   3.138   1.516   9.810  0.1158 -0.5576  0.5669
  499TMC3     H 7421   3.337   1.203   9.722  0.4382  0.6914 -0.3289
  499TMC3    H1 7422   3.319   1.633   9.713 -0.7437 -0.7004  0.0963
  499TMC3    H2 7423   3.675   1.448   9.587  0.1759 -0.1130 -0.9289
  499TMC3    C7 7424   3.558   1.672   9.617  0.2169  0.1398 -0.1817
  499TMC3    C8 7425   3.561   1.193   9.583 -0.3724 -0.2614 -0.1778
  499TMC3    O1 7426   3.681   1.673   9.613  0.1113  0.3065 -0.4862
  499TMC3    O2 7427   3.478   1.106   9.554  0.7666  0.2872  0.0337
  500MPD2     C 7428   0.261   3.187  10.356 -0.4115  0.1583  0.1789
  500MPD2    C1 7429   0.283   3.137  10.227 -0.5115 -0.3625  0.1631
  500MPD2    C2 7430   0.175   3.106  10.143 -0.7626 -0.7402 -0.5478
  500MPD2    C3 7431   0.050   3.093  10.198 -0.6404 -0.0063  0.0989
  500MPD2    C4 7432   0.029   3.135  10.324 -0.2613 -0.3216 -0.2052
  500MPD2    C5 7433   0.131   3.190  10.403  0.0521  0.9116  0.1820
  500MPD2     H 7434   0.190   3.061  10.046  2.1673 -0.0614 -0.4225
  500MPD2    H1 7435   4.657   3.129  10.379  0.0453  0.4855  0.4063
  500MPD2    H2 7436   0.341   3.225  10.418 -1.4420 -0.1895  1.7231
  500MPD2    H3 7437   0.120   3.221  10.506 -0.8131 -0.4441  0.5012
  500MPD2     N 7438   4.669   3.049  10.111  0.2202  0.0553  0.4241
  500MPD2    H5 7439   4.692   3.032  10.014  2.7014  1.6663  0.7598
  500MPD2    N1 7440   0.412   3.122  10.166  1.3686 -0.1022  0.1506
  500MPD2    H7 7441   0.422   3.112  10.066  0.4739  2.2591 -0.1918
  501TMC3    C1 7442   0.644   3.151  10.139 -0.2194 -0.7182  0.1971
  501TMC3    C2 7443   0.659   3.285  10.118  0.6222  0.1162 -0.7575
  501TMC3    C3 7444   0.779   3.347  10.112  0.0255  0.6217 -1.0553
  501TMC3    C4 7445   0.754   3.079  10.172 -0.3134  0.1265  0.3383
  501TMC3    C5 7446   0.869   3.148  10.204 -0.2523 -0.6944  0.1473
  501TMC3    C6 7447   0.886   3.280  10.173 -0.1878  0.3191  0.0937
  501TMC3     C 7448   0.535   3.122  10.226 -1.0676  0.1357  0.3689
  501TMC3     O 7449   0.566   3.128  10.344  0.3314  0.0195 -0.0789
  501TMC3     H 7450   0.569   3.343  10.100  0.5253  0.6443  1.4175
  501TMC3    H1 7451   0.740   2.977  10.206 -0.2950 -0.0213 -0.1062
  501TMC3    H2 7452   0.970   3.347  10.190 -0.4249  0.7688 -0.4773
  501TMC3    C7 7453   0.954   3.101  10.306 -0.0201 -0.9360  0.0869
  501TMC3    C8 7454   0.766   3.482  10.145 -0.4502 -0.3291  0.1923
  501TMC3    O1 7455   0.927   2.984  10.341  0.3772  0.5701  0.4252
  501TMC3    O2 7456   0.797   3.507  10.261 -0.1093  0.2563  0.3214
  502TMC3    C1 7457   3.327   1.359  14.937  0.1691 -0.7470 -0.1130
  502TMC3    C2 7458   3.389   1.457  14.874 -0.3743 -0.6162 -0.0335
  502TMC3    C3 7459   3.346   1.590  14.900 -0.5770 -0.0914  0.0240
  502TMC3    C4 7460   3.209   1.384  15.005 -0.3107  0.6612 -0.4311
  502TMC3    C5 7461   3.159   1.511  14.999 -0.5103 -0.2080 -0.2925
  502TMC3    C6 7462   3.224   1.619  14.951 -0.0499 -0.4290  0.0784
  502TMC3     C 7463   3.426   1.283  15.011  0.3230  0.1827  0.1191
  502TMC3     O 7464   3.504   1.212  14.954  0.4213  0.1528 -0.3589
  502TMC3     H 7465   3.491   1.439  14.841  0.2430  1.6133  0.6636
  502TMC3    H1 7466   3.161   1.302  15.057 -1.5186 -1.1614 -4.4294
  502TMC3    H2 7467   3.196   1.720  14.978 -0.4939 -0.4644 -0.2410
  502TMC3    C7 7468   3.072   1.536  15.115 -0.0724 -0.4094 -0.4943
  502TMC3    C8 7469   3.448   1.695  14.896 -0.2982 -0.1650 -0.3121
  502TMC3    O1 7470   3.087   1.452  15.207  0.3138  0.5636  0.1087
  502TMC3    O2 7471   3.550   1.671  14.833  0.2492 -0.4268  0.2105
  503MPD2     C 7472   1.007   2.644  16.486  0.5696  0.2124  0.3101
  503MPD2    C1 7473   0.980   2.652  16.625 -0.5484  0.3848 -0.8943
  503MPD2    C2 7474   1.004   2.545  16.710  0.7018  0.2062 -0.4614
  503MPD2    C3 7475   1.063   2.427  16.654  0.9482  0.0095  0.5008
  503MPD2    C4 7476   1.094   2.425  16.519  0.4069 -0.7482  0.0429
  503MPD2    C5 7477   1.065   2.534  16.436 -0.5586 -0.6853 -0.5477
  503MPD2     H 7478   0.979   2.544  16.816 -0.9622 -0.0077 -0.8676
  503MPD2    H1 7479   1.128   2.339  16.463  1.7445 -0.1132 -0.0995
  503MPD2    H2 7480   0.975   2.718  16.414 -0.3252 -1.2823 -0.8201
  503MPD2    H3 7481   1.087   2.545  16.330 -1.3850  1.0913 -0.5254
  503MPD2     N 7482   1.093   2.326  16.750  0.1403 -0.2939 -0.0512
  503MPD2    H5 7483   1.081   2.358  16.846 -0.4008  0.4883 -0.3814
  503MPD2    N1 7484   0.926   2.768  16.680 -0.7863  0.3342  0.0852
  503MPD2    H7 7485   0.912   2.771  16.781 -0.0553 -0.0497  0.1989
  504TMC3    C1 7486   1.196   2.121  16.832 -0.6635 -0.2714  0.0212
  504TMC3    C2 7487   1.156   2.148  16.957  0.9186 -0.0249 -0.6115
  504TMC3    C3 7488   1.208   2.076  17.060  0.2986  0.2464  0.7457
  504TMC3    C4 7489   1.292   2.030  16.813 -0.5181 -0.4044  0.1004
  504TMC3    C5 7490   1.357   1.966  16.911 -0.5161 -0.0800 -0.2283
  504TMC3    C6 7491   1.312   1.991  17.037 -0.9272  0.2465  0.9955
  504TMC3     C 7492   1.158   2.205  16.723  0.3779  0.5583  0.4412
  504TMC3     O 7493   1.193   2.167  16.615 -0.0443  0.2272  0.2828
  504TMC3     H 7494   1.089   2.227  16.990 -0.1188 -0.0745 -2.6261
  504TMC3    H1 7495   1.321   2.008  16.711  0.9644 -1.6392  0.7838
  504TMC3    H2 7496   1.374   1.967  17.123 -0.1104 -1.1136  0.0421
  504TMC3    C7 7497   1.492   1.924  16.880 -0.3228  0.0373 -0.1033
  504TMC3    C8 7498   1.152   2.089  17.192 -0.3654  0.3326  0.0118
  504TMC3    O1 7499   1.509   1.898  16.761 -0.4282  0.0861 -0.1271
  504TMC3    O2 7500   1.070   2.178  17.208  0.1924 -0.2849  0.3032
  505MPD2     C 7501   1.936   0.283  10.136  0.1146 -0.4385 -1.3041
  505MPD2    C1 7502   1.945   0.172  10.060  0.0601 -0.2868  0.3559
  505MPD2    C2 7503   2.057   0.086  10.071  0.1710 -0.0663  0.7107
  505MPD2    C3 7504   2.169   0.129  10.149  0.2722 -0.0314 -0.5686
  505MPD2    C4 7505   2.171   0.257  10.203 -0.0024 -0.2807  0.4744
  505MPD2    C5 7506   2.050   0.327  10.202  0.4256 -0.5238 -0.1117
  505MPD2     H 7507   2.061   4.720  10.007  0.8066  1.1518 -0.9166
  505MPD2    H1 7508   2.266   0.293  10.242  0.2522  0.7980 -1.1254
  505MPD2    H2 7509   1.849   0.347  10.138  1.4657  1.4017 -1.9474
  505MPD2    H3 7510   2.066   0.425  10.246  1.2018 -1.2004  1.1437
  505MPD2     N 7511   2.287   0.050  10.145 -0.3238 -0.6654 -0.3981
  505MPD2    H5 7512   2.367   0.106  10.171 -0.6196 -1.0209  1.2983
  505MPD2    N1 7513   1.834   0.142   9.973  0.1154 -0.0630  0.5548
  505MPD2    H7 7514   1.762   0.214   9.972 -1.2810 -1.4516 -0.1178
  506TMC3    C1 7515   1.714   0.021   9.816 -0.4539  0.0409 -0.0559
  506TMC3    C2 7516   1.723   0.136   9.731 -1.0743  0.1436  0.0685
  506TMC3    C3 7517   1.704   0.122   9.595  0.7247  0.2455  0.2751
  506TMC3    C4 7518   1.684   4.615   9.765  0.5646  0.0361  0.0624
  506TMC3    C5 7519   1.679   4.608   9.627  0.7768  0.0308 -0.2561
  506TMC3    C6 7520   1.685   4.717   9.539  0.9218  0.0930  0.4220
  506TMC3     C 7521   1.816   0.017   9.916 -0.3797  0.3908  0.9018
  506TMC3     O 7522   1.857   4.634   9.946 -0.1544  0.5004 -0.1111
  506TMC3     H 7523   1.749   0.236   9.762 -1.7667  0.5343 -0.6108
  506TMC3    H1 7524   1.687   4.527   9.828 -2.2959 -0.8326 -1.0127
  506TMC3    H2 7525   1.671   4.694   9.434  0.9265 -1.0906  0.6798
  506TMC3    C7 7526   1.779   4.511   9.583 -0.0956 -0.4393  0.2366
  506TMC3    C8 7527   1.736   0.225   9.505 -0.1354 -0.3083 -0.1868
  506TMC3    O1 7528   1.785   4.494   9.463  0.4744 -0.1646  0.5257
  506TMC3    O2 7529   1.692   0.203   9.391  0.4082 -0.1275  0.4615
  507TMC3    C1 7530   2.354   2.300  14.047 -0.0496 -0.1428  0.6858
  507TMC3    C2 7531   2.396   2.278  13.918 -0.3191  0.2294  0.0057
  507TMC3    C3 7532   2.513   2.332  13.865 -0.2603  0.1024 -0.6477
  507TMC3    C4 7533   2.428   2.376  14.137  0.2523  0.2806  0.1955
  507TMC3    C5 7534   2.538   2.435  14.084  0.1609  0.5240 -0.2063
  507TMC3    C6 7535   2.581   2.413  13.955  0.2438  0.3901  0.0235
  507TMC3     C 7536   2.266   2.207  14.105  0.2040  0.8529 -0.3766
  507TMC3     O 7537   2.218   2.129  14.025  0.1861 -0.1012  0.1785
  507TMC3     H 7538   2.339   2.211  13.855  1.9847 -0.5991 -1.1918
  507TMC3    H1 7539   2.383   2.421  14.224 -0.2659  0.7532 -0.3175
  507TMC3    H2 7540   2.669   2.463  13.917 -0.8297  2.6643  0.5790
  507TMC3    C7 7541   2.537   2.571  14.095 -0.3599 -0.3942 -0.6094
  507TMC3    C8 7542   2.475   2.396  13.741  0.3860  0.1854 -0.6680
  507TMC3    O1 7543   2.551   2.641  13.993 -0.4586 -0.5098  0.0085
  507TMC3    O2 7544   2.407   2.329  13.661  0.5509  0.0042  0.5883
  508MPD2     C 7545   2.407   4.364  16.080  0.2562 -0.1928 -0.3091
  508MPD2    C1 7546   2.542   4.405  16.087  0.6522  0.8325  0.1075
  508MPD2    C2 7547   2.598   4.470  15.977 -0.1157  0.5782  0.2369
  508MPD2    C3 7548   2.519   4.498  15.870 -0.1325  0.2076 -0.0887
  508MPD2    C4 7549   2.382   4.459  15.868  0.8623  0.9842  0.5256
  508MPD2    C5 7550   2.328   4.391  15.971 -0.7309  0.0968  0.6496
  508MPD2     H 7551   2.700   4.507  15.979 -0.2829  1.2149 -3.4240
  508MPD2    H1 7552   2.323   4.473  15.778 -0.8425 -1.3234  1.2876
  508MPD2    H2 7553   2.363   4.300  16.156 -0.7101  2.4415  1.3220
  508MPD2    H3 7554   2.226   4.355  15.962 -0.7333  0.5990 -1.2974
  508MPD2     N 7555   2.587   4.561  15.767 -0.4968 -0.1224  1.2189
  508MPD2    H5 7556   2.688   4.563  15.770 -0.4652  0.4046 -0.1342
  508MPD2    N1 7557   2.619   4.355  16.200  0.1790  0.1544  0.1312
  508MPD2    H7 7558   2.563   4.311  16.272 -0.1984 -0.0017 -0.2549
  509TMC3    C1 7559   2.655   0.077  15.375 -0.4244  0.9276  0.2477
  509TMC3    C2 7560   2.767   0.130  15.424 -0.0472  1.0158 -0.1441
  509TMC3    C3 7561   2.821   0.076  15.540  0.3261  0.3085 -0.0166
  509TMC3    C4 7562   2.590   4.705  15.440 -0.3756 -0.2998  0.0192
  509TMC3    C5 7563   2.635   4.655  15.557 -0.7462  0.7753 -0.6531
  509TMC3    C6 7564   2.755   4.706  15.612 -0.2178  0.3086  0.4295
  509TMC3     C 7565   2.559   0.170  15.306  0.3965 -0.3510 -0.1094
  509TMC3     O 7566   2.461   0.125  15.250  0.3598 -0.6403  0.0503
  509TMC3     H 7567   2.837   0.174  15.354  0.5745 -2.0119 -1.4627
  509TMC3    H1 7568   2.489   4.677  15.410 -0.3396  2.2775 -2.4412
  509TMC3    H2 7569   2.807   4.671  15.700 -1.8819  1.1936  1.7576
  509TMC3    C7 7570   2.538   4.599  15.650 -0.1357  0.2752  0.2352
  509TMC3    C8 7571   2.961   0.081  15.575 -0.5864  0.2035  0.2216
  509TMC3    O1 7572   2.422   4.605  15.609  0.4239 -0.0467  0.5042
  509TMC3    O2 7573   3.014   4.696  15.608 -0.4043  0.1510  0.0331
  510MPD2     C 7574   0.950   1.212  13.868  0.3141  0.5968  0.1479
  510MPD2    C1 7575   0.980   1.230  14.001  0.6767  0.2168  0.4072
  510MPD2    C2 7576   1.109   1.231  14.053 -0.1907  0.0412 -0.4746
  510MPD2    C3 7577   1.214   1.225  13.959  0.6250 -0.0454  0.9376
  510MPD2    C4 7578   1.183   1.205  13.823  0.0598 -0.6272 -0.1076
  510MPD2    C5 7579   1.049   1.192  13.777  0.1903 -0.1761 -0.1074
  510MPD2     H 7580   1.126   1.235  14.160  0.5610  1.1632 -0.6343
  510MPD2    H1 7581   1.263   1.203  13.749 -0.4173 -0.0837 -0.6256
  510MPD2    H2 7582   0.849   1.227  13.833  0.1363 -1.3130 -0.1799
  510MPD2    H3 7583   1.030   1.196  13.670  0.4332  2.5362 -0.0538
  510MPD2     N 7584   1.346   1.237  14.014  0.3908 -0.3353 -0.1000
  510MPD2    H5 7585   1.347   1.265  14.112  0.2064 -1.1660  0.1461
  510MPD2    N1 7586   0.867   1.227  14.089 -0.4284  0.7562 -0.4496
  510MPD2    H7 7587   0.780   1.212  14.039  0.0220 -2.0403 -0.3942
  511TMC3    C1 7588   0.741   1.188  14.276 -0.3235 -0.2307  0.2251
  511TMC3    C2 7589   0.709   1.219  14.405  0.9065 -0.1721  0.5271
  511TMC3    C3 7590   0.634   1.125  14.472 -0.6963 -0.0932  0.0853
  511TMC3    C4 7591   0.716   1.064  14.220 -0.4846 -0.2541  0.4210
  511TMC3    C5 7592   0.645   0.975  14.293 -0.3429  0.6084  1.0406
  511TMC3    C6 7593   0.594   1.001  14.416 -0.4335  0.4949  0.0895
  511TMC3     C 7594   0.860   1.248  14.223  0.0581 -0.1263 -0.0895
  511TMC3     O 7595   0.940   1.303  14.294  0.3837  0.2379 -0.1382
  511TMC3     H 7596   0.749   1.309  14.451  1.4533 -0.9918  1.6324
  511TMC3    H1 7597   0.751   1.033  14.122 -0.0270  0.6537  0.2947
  511TMC3    H2 7598   0.524   0.933  14.463 -1.0247 -0.3251 -1.9691
  511TMC3    C7 7599   0.592   0.864  14.219 -0.4906 -0.5671  0.4315
  511TMC3    C8 7600   0.594   1.171  14.606 -0.5889  0.4286 -0.4442
  511TMC3    O1 7601   0.584   0.867  14.097 -0.1072  0.0644  0.3949
  511TMC3    O2 7602   0.608   1.288  14.641  0.1537 -0.6566  0.3377
  512TMC3    C1 7603   4.479   1.056  12.780  0.2613 -0.0512  0.3287
  512TMC3    C2 7604   4.459   0.999  12.898  0.1519 -0.3552 -0.6957
  512TMC3    C3 7605   4.483   0.870  12.902 -0.2785 -0.7022 -0.0523
  512TMC3    C4 7606   4.514   0.989  12.669 -0.4257  0.7843  0.7930
  512TMC3    C5 7607   4.518   0.848  12.677  0.0019 -0.0452 -0.0371
  512TMC3    C6 7608   4.509   0.780  12.799  0.7396  1.0675  0.0688
  512TMC3     C 7609   4.468   1.202  12.773 -0.0772 -0.2020  0.4197
  512TMC3     O 7610   4.559   1.249  12.707  0.3000  0.9002 -0.6079
  512TMC3     H 7611   4.458   1.064  12.984  0.4327 -2.6698  1.0559
  512TMC3    H1 7612   4.543   1.042  12.579  1.6059 -1.1387  0.3256
  512TMC3    H2 7613   4.499   0.673  12.812  1.1917  0.7673 -2.1387
  512TMC3    C7 7614   4.550   0.781  12.551 -0.1041 -0.4041 -0.6737
  512TMC3    C8 7615   4.489   0.812  13.031  0.4178  0.3042  0.7017
  512TMC3    O1 7616   4.553   0.841  12.445 -0.2912  0.3086 -0.2706
  512TMC3    O2 7617   4.440   0.701  13.041 -0.8580 -0.3651  0.3895
  513MPD2     C 7618   2.403   4.571  11.830  0.0913 -0.1835  0.5175
  513MPD2    C1 7619   2.446   4.613  11.709 -0.3552  0.3065 -0.3455
  513MPD2    C2 7620   2.359   4.682  11.632  0.0465  0.1732  0.7653
  513MPD2    C3 7621   2.234   4.716  11.677  0.1126  0.0792 -0.1172
  513MPD2    C4 7622   2.191   4.667  11.797 -0.4287 -0.2465  0.2071
  513MPD2    C5 7623   2.279   4.595  11.872 -0.1963 -0.4184 -0.1851
  513MPD2     H 7624   2.412   4.718  11.544 -0.1666  1.2690  1.0887
  513MPD2    H1 7625   2.089   4.689  11.827  0.4769  1.9641  1.6482
  513MPD2    H2 7626   2.461   4.512  11.899  0.0115  1.0875  1.6673
  513MPD2    H3 7627   2.258   4.548  11.968  1.4975 -0.3555  0.2157
  513MPD2     N 7628   2.158   0.088  11.600  0.2567 -0.2286  0.0654
  513MPD2    H5 7629   2.209   0.146  11.533  1.0514 -0.1126  0.7711
  513MPD2    N1 7630   2.574   4.577  11.651 -0.5852  0.1798 -0.3982
  513MPD2    H7 7631   2.593   4.602  11.555  1.3381 -1.3226 -0.4181
  514TMC3    C1 7632   2.790   4.516  11.632 -0.0521  0.0346 -0.0858
  514TMC3    C2 7633   2.789   4.462  11.505 -0.4095 -1.2141  0.9357
  514TMC3    C3 7634   2.810   4.542  11.394 -0.4989 -0.1866 -0.1102
  514TMC3    C4 7635   2.824   4.646  11.644  0.2366  0.2952 -0.8026
  514TMC3    C5 7636   2.842   0.005  11.535  0.2130  0.2030  0.3718
  514TMC3    C6 7637   2.827   4.676  11.407  0.3911  0.1141 -0.0110
  514TMC3     C 7638   2.671   4.492  11.706  0.1787  0.3138 -0.0337
  514TMC3     O 7639   2.668   4.406  11.789  0.6646  0.2244  0.1935
  514TMC3     H 7640   2.773   4.356  11.493  2.4022 -1.3825 -1.2637
  514TMC3    H1 7641   2.820   4.681  11.747 -0.3391  0.0330 -0.7333
  514TMC3    H2 7642   2.844   0.026  11.328 -0.1494 -0.7509 -0.9025
  514TMC3    C7 7643   2.793   0.141  11.546 -0.0590 -0.3444  0.3956
  514TMC3    C8 7644   2.764   4.491  11.270 -0.3606  0.0702  0.5189
  514TMC3    O1 7645   2.761   0.189  11.437  0.2394 -1.1199 -0.1269
  514TMC3    O2 7646   2.759   4.368  11.261  0.0263  0.2280 -0.1097
  515MPD2     C 7647   4.523   2.413  15.115  0.3412 -1.2534  0.0327
  515MPD2    C1 7648   4.524   2.342  14.994  0.1965  0.3945 -0.5878
  515MPD2    C2 7649   4.614   2.383  14.897 -0.3338 -0.0996  0.7327
  515MPD2    C3 7650   4.704   2.486  14.920 -0.0811  0.4182  0.2862
  515MPD2    C4 7651   4.688   2.564  15.035  0.0531 -0.0455 -0.2756
  515MPD2    C5 7652   4.597   2.525  15.128 -0.6576 -1.0197  0.1638
  515MPD2     H 7653   4.624   2.330  14.803  0.6882  1.0247  0.1998
  515MPD2    H1 7654   0.035   2.647  15.052  0.2791 -0.3295  0.2032
  515MPD2    H2 7655   4.446   2.410  15.191 -0.0969 -1.4607 -0.4204
  515MPD2    H3 7656   4.591   2.581  15.221  1.0871  0.8634 -0.8598
  515MPD2     N 7657   0.089   2.525  14.833  0.3476 -0.2891 -0.0303
  515MPD2    H5 7658   0.151   2.593  14.876  0.4653  0.7497 -1.8496
  515MPD2    N1 7659   4.444   2.230  14.971  0.3115  0.6742 -0.1257
  515MPD2    H7 7660   4.457   2.185  14.881  1.5259  3.9306 -1.5487
  516TMC3    C1 7661   4.288   2.058  15.021 -0.1705 -0.4329 -0.2237
  516TMC3    C2 7662   4.262   2.058  14.889 -0.0647 -0.3892 -0.5107
  516TMC3    C3 7663   4.185   1.951  14.846  0.3280  0.1120 -0.1199
  516TMC3    C4 7664   4.238   1.967  15.112 -0.3151  0.2421 -0.0985
  516TMC3    C5 7665   4.164   1.866  15.059  0.1219  0.1604  0.2644
  516TMC3    C6 7666   4.132   1.852  14.928  0.0003 -0.2640  0.1919
  516TMC3     C 7667   4.373   2.170  15.068 -0.1631 -0.1548  0.1509
  516TMC3     O 7668   4.375   2.186  15.190  0.6291  0.8271 -0.9084
  516TMC3     H 7669   4.288   2.150  14.838 -1.5866  0.1193 -0.3407
  516TMC3    H1 7670   4.277   1.968  15.213 -2.2766  1.7574  0.6454
  516TMC3    H2 7671   4.073   1.771  14.888  0.5860  0.3757 -1.9644
  516TMC3    C7 7672   4.165   1.746  15.138  0.1888  0.2851  0.0199
  516TMC3    C8 7673   4.150   1.957  14.708 -0.0518 -0.1595 -0.2360
  516TMC3    O1 7674   4.140   1.755  15.258 -0.3969 -0.1063 -0.3126
  516TMC3    O2 7675   4.035   1.929  14.681 -0.4780 -0.0417 -0.2638
  517MPD2     C 7676   3.537   3.732  17.248  0.2508  0.0719 -0.0215
  517MPD2    C1 7677   3.668   3.768  17.228  0.4034 -0.2885  0.3847
  517MPD2    C2 7678   3.720   3.875  17.295 -0.3380  0.2216  0.4260
  517MPD2    C3 7679   3.631   3.960  17.367 -0.2537 -0.1613 -0.3718
  517MPD2    C4 7680   3.496   3.936  17.374 -0.0594 -0.4455  0.2259
  517MPD2    C5 7681   3.452   3.810  17.322 -0.2566 -0.0050  0.0625
  517MPD2     H 7682   3.828   3.887  17.304 -0.0584 -1.6654 -0.3987
  517MPD2    H1 7683   3.428   3.996  17.433  0.3649  1.2686 -1.0108
  517MPD2    H2 7684   3.491   3.646  17.200 -4.9761  2.4938  0.5743
  517MPD2    H3 7685   3.359   3.762  17.353 -0.2067 -0.0461  0.1509
  517MPD2     N 7686   3.681   4.067  17.439 -0.2524  0.1805  0.1293
  517MPD2    H5 7687   3.614   4.112  17.502  0.9712  1.9891  0.1453
  517MPD2    N1 7688   3.757   3.690  17.145  0.2245  0.2183 -0.6739
  517MPD2    H7 7689   3.852   3.722  17.128  0.4076  0.0028 -0.0264
  518TMC3    C1 7690   3.810   3.509  16.990  0.4295 -0.0478  0.2506
  518TMC3    C2 7691   3.817   3.377  16.966  0.6173  0.0207 -0.4567
  518TMC3    C3 7692   3.865   3.340  16.842  0.7441  0.2536  0.2407
  518TMC3    C4 7693   3.867   3.603  16.909 -0.0172  0.5139 -0.5130
  518TMC3    C5 7694   3.930   3.563  16.799  0.0089 -0.2729  0.4954
  518TMC3    C6 7695   3.933   3.432  16.766  0.4636  0.9195  0.5748
  518TMC3     C 7696   3.727   3.565  17.097  0.4582 -0.3913  0.4199
  518TMC3     O 7697   3.648   3.487  17.145  0.0592 -0.0544  0.8817
  518TMC3     H 7698   3.769   3.310  17.036  1.7887 -0.2952  0.0559
  518TMC3    H1 7699   3.861   3.710  16.927  0.2237  0.2707  1.0481
  518TMC3    H2 7700   3.983   3.403  16.675 -0.3828  0.7764  0.1622
  518TMC3    C7 7701   4.025   3.656  16.748  0.4905 -0.1404 -0.0737
  518TMC3    C8 7702   3.868   3.195  16.819  0.1976  0.6962 -0.5286
  518TMC3    O1 7703   3.991   3.775  16.741 -0.0714  0.6226 -0.4535
  518TMC3    O2 7704   3.859   3.118  16.917 -0.3109 -0.1821 -0.2906
  519MPD2     C 7705   1.089   2.125  14.331  0.0990 -0.4480  0.5196
  519MPD2    C1 7706   1.079   2.131  14.191 -0.3979  0.1792 -0.4353
  519MPD2    C2 7707   1.085   2.012  14.122 -0.2327  0.2856  0.0483
  519MPD2    C3 7708   1.096   1.889  14.188 -0.1915 -0.2519  0.1261
  519MPD2    C4 7709   1.102   1.884  14.322 -0.0515 -0.7871  0.3511
  519MPD2    C5 7710   1.095   2.000  14.393 -0.5592 -0.2499 -0.0369
  519MPD2     H 7711   1.041   2.010  14.023 -0.6007  0.7706  0.2039
  519MPD2    H1 7712   1.111   1.791  14.378 -1.8435 -0.6660  0.8426
  519MPD2    H2 7713   1.078   2.212  14.395 -1.0616  1.3825 -2.1863
  519MPD2    H3 7714   1.097   2.000  14.501  0.9792  1.0819 -0.0658
  519MPD2     N 7715   1.080   1.770  14.119  0.0169 -0.1703  0.7004
  519MPD2    H5 7716   1.093   1.688  14.177  0.9497  0.1649  0.9579
  519MPD2    N1 7717   1.049   2.261  14.139  0.1907  0.2405  0.3465
  519MPD2    H7 7718   1.030   2.333  14.208 -1.8088  1.2746 -1.2783
  520TMC3    C1 7719   1.114   1.615  13.956  0.9751  0.1119  0.6846
  520TMC3    C2 7720   1.075   1.580  13.836 -0.0997 -0.3318 -0.5245
  520TMC3    C3 7721   1.166   1.528  13.753  0.0602  1.2985 -0.2248
  520TMC3    C4 7722   1.236   1.589  14.004  0.3131  0.2037  0.0287
  520TMC3    C5 7723   1.326   1.545  13.913  0.2320 -0.1606  0.4343
  520TMC3    C6 7724   1.294   1.510  13.786 -1.0553 -1.4269  0.1547
  520TMC3     C 7725   1.072   1.752  13.985 -0.3916 -0.3588 -0.3190
  520TMC3     O 7726   1.076   1.827  13.890 -0.6065 -0.6469 -0.4520
  520TMC3     H 7727   0.974   1.608  13.809  0.1324  1.0154  0.0303
  520TMC3    H1 7728   1.265   1.616  14.105 -1.3001  1.2731  0.1964
  520TMC3    H2 7729   1.367   1.466  13.718  2.1160  1.2315  1.8365
  520TMC3    C7 7730   1.468   1.566  13.937 -1.4053  0.2542  0.3506
  520TMC3    C8 7731   1.139   1.526  13.610 -0.0138  0.3186  0.3443
  520TMC3    O1 7732   1.513   1.550  14.052  0.4282 -0.0470 -0.6989
  520TMC3    O2 7733   1.224   1.469  13.540  0.1360  0.2896 -0.1645
  521MPD2     C 7734   1.678   0.189  17.488  0.4272 -0.1860  0.0021
  521MPD2    C1 7735   1.669   0.117  17.374  0.3769 -0.3037  0.4325
  521MPD2    C2 7736   1.782   0.072  17.308  0.5283 -0.0832  0.5012
  521MPD2    C3 7737   1.905   0.099  17.360  0.1854  0.1574  0.1194
  521MPD2    C4 7738   1.911   0.175  17.479 -0.1229 -0.4021  0.1489
  521MPD2    C5 7739   1.796   0.221  17.536 -0.3233  0.2812 -0.6850
  521MPD2     H 7740   1.773   0.004  17.224 -1.4249 -0.2225  0.8350
  521MPD2    H1 7741   2.002   0.205  17.530  0.3966 -0.8934 -0.4773
  521MPD2    H2 7742   1.586   0.217  17.538 -0.0753 -3.7073  1.0448
  521MPD2    H3 7743   1.801   0.289  17.621 -0.8311  0.4064 -0.7577
  521MPD2     N 7744   2.018   0.059  17.293 -0.3663  0.1050  0.5991
  521MPD2    H5 7745   2.001   4.717  17.216  2.6316  2.7619 -2.2585
  521MPD2    N1 7746   1.539   0.093  17.322  0.3801  0.2407 -0.1720
  521MPD2    H7 7747   1.460   0.106  17.385  1.0573  0.0814  0.7125
  522TMC3    C1 7748   2.237   0.032  17.223  0.2007  0.2092  0.3489
  522TMC3    C2 7749   2.339   4.673  17.263  0.0754 -0.4683 -0.7562
  522TMC3    C3 7750   2.429   4.641  17.162  0.2107  0.0747  0.3014
  522TMC3    C4 7751   2.213   0.070  17.094 -0.3708 -0.7158 -0.1632
  522TMC3    C5 7752   2.303   0.036  16.999 -0.3851  0.2883  0.4084
  522TMC3    C6 7753   2.418   4.689  17.034 -0.6985  0.3733  0.2263
  522TMC3     C 7754   2.151   0.082  17.328 -0.3925  0.2343  0.2613
  522TMC3     O 7755   2.190   0.145  17.425  0.0644 -0.4148 -0.1010
  522TMC3     H 7756   2.346   4.635  17.364  1.7833  1.0621 -0.3115
  522TMC3    H1 7757   2.130   0.136  17.071  0.2538  0.6720  1.6026
  522TMC3    H2 7758   2.478   4.660  16.948  0.1627  0.9070  0.6487
  522TMC3    C7 7759   2.315   0.104  16.865 -0.2834 -0.2447  0.6535
  522TMC3    C8 7760   2.533   4.560  17.202  0.4090 -0.0781  0.0982
  522TMC3    O1 7761   2.419   0.153  16.836 -0.3034 -0.3350 -0.2466
  522TMC3    O2 7762   2.562   4.552  17.324 -0.5352 -0.5507  0.0088
  523MPD2     C 7763   0.631   4.632  10.256 -0.6343  0.1459  0.8493
  523MPD2    C1 7764   0.673   4.635  10.127 -0.0815 -0.3107 -0.3243
  523MPD2    C2 7765   0.675   0.041  10.067  0.9564  0.6495  0.1591
  523MPD2    C3 7766   0.643   0.164  10.130 -0.1064 -0.9291 -0.4215
  523MPD2    C4 7767   0.606   0.154  10.265 -0.6116  0.4212 -0.2979
  523MPD2    C5 7768   0.595   0.029  10.320 -0.2383 -0.2007  0.7290
  523MPD2     H 7769   0.698   0.040   9.961 -1.4396 -0.3471 -0.3548
  523MPD2    H1 7770   0.589   0.245  10.322 -2.9179 -1.5891  2.2066
  523MPD2    H2 7771   0.622   4.539  10.313  1.6945 -1.2246 -1.0222
  523MPD2    H3 7772   0.569   0.023  10.425  0.8551 -0.8052  0.9584
  523MPD2     N 7773   0.644   0.291  10.072  0.7224  0.2030  0.6891
  523MPD2    H5 7774   0.608   0.362  10.134 -2.8349 -0.3323 -0.7891
  523MPD2    N1 7775   0.706   4.516  10.060  0.1380 -0.0679  0.0004
  523MPD2    H7 7776   0.677   4.428  10.102 -0.7112 -0.7456 -1.9567
  524TMC3    C1 7777   0.704   0.467   9.925  0.5173 -0.3900 -0.6842
  524TMC3    C2 7778   0.806   0.526   9.861 -0.1348  0.2480 -0.2071
  524TMC3    C3 7779   0.770   0.638   9.791  0.2276  0.5861 -0.3892
  524TMC3    C4 7780   0.582   0.524   9.938  0.0302 -0.1045 -0.4360
  524TMC3    C5 7781   0.554   0.635   9.866  0.3782  0.5279 -0.5100
  524TMC3    C6 7782   0.648   0.697   9.781  0.0769 -0.1097  0.2505
  524TMC3     C 7783   0.715   0.322   9.953  0.0646 -0.0292  0.0798
  524TMC3     O 7784   0.793   0.248   9.896 -0.1630 -0.1215  0.3893
  524TMC3     H 7785   0.897   0.472   9.840 -0.3310 -0.7672  1.5316
  524TMC3    H1 7786   0.500   0.473   9.988 -0.3355  0.1351 -0.7931
  524TMC3    H2 7787   0.626   0.772   9.706  0.3834  0.2464  0.5135
  524TMC3    C7 7788   0.411   0.675   9.857 -0.2347  0.3733  0.7310
  524TMC3    C8 7789   0.876   0.688   9.713  0.0162 -0.6515  0.4176
  524TMC3    O1 7790   0.340   0.614   9.933  0.4816  0.2959  0.0392
  524TMC3    O2 7791   0.994   0.654   9.736 -0.5514 -0.6647 -0.7568
  525MPD2     C 7792   2.483   1.853  14.328 -0.0592  0.5561  0.0919
  525MPD2    C1 7793   2.609   1.845  14.384 -0.0454 -0.1070 -0.4438
  525MPD2    C2 7794   2.706   1.910  14.310 -0.4867  0.9303 -1.2402
  525MPD2    C3 7795   2.688   1.993  14.207 -0.0047  0.4549 -0.0733
  525MPD2    C4 7796   2.568   1.990  14.150  0.7076 -0.0818  0.4482
  525MPD2    C5 7797   2.471   1.921  14.214  0.1708  0.2331 -0.0716
  525MPD2     H 7798   2.805   1.895  14.352 -1.6006 -1.4863  0.5718
  525MPD2    H1 7799   2.544   2.048  14.061  1.6162  1.4529  1.2162
  525MPD2    H2 7800   2.403   1.799  14.377  0.7981  0.1188  1.0020
  525MPD2    H3 7801   2.372   1.937  14.174  0.0186  1.3718  0.7382
  525MPD2     N 7802   2.790   2.085  14.163  0.7678  0.0364 -0.3430
  525MPD2    H5 7803   2.778   2.140  14.079  0.5243  0.6868  0.1178
  525MPD2    N1 7804   2.643   1.766  14.499 -0.1694 -0.4930  0.0195
  525MPD2    H7 7805   2.741   1.749  14.520  0.5852  0.7633 -2.4672
  526TMC3    C1 7806   2.611   1.646  14.701 -0.2817  0.6508 -0.2593
  526TMC3    C2 7807   2.538   1.640  14.819  0.0946 -0.1649  0.3940
  526TMC3    C3 7808   2.581   1.552  14.918  0.5187  0.6060  0.0221
  526TMC3    C4 7809   2.721   1.571  14.681  0.3729 -0.6771 -0.1882
  526TMC3    C5 7810   2.763   1.487  14.782  0.4389 -0.3772 -0.9649
  526TMC3    C6 7811   2.694   1.474  14.901 -0.3723  0.3019 -0.3283
  526TMC3     C 7812   2.553   1.720  14.596  0.3756 -0.4660 -0.0250
  526TMC3     O 7813   2.436   1.757  14.615 -0.1118  0.0475  0.6237
  526TMC3     H 7814   2.452   1.705  14.832  0.0534  0.2006 -1.6642
  526TMC3    H1 7815   2.758   1.566  14.580 -0.8299  1.2856 -0.7460
  526TMC3    H2 7816   2.724   1.398  14.973 -3.3345  1.2027  1.8243
  526TMC3    C7 7817   2.875   1.394  14.774  0.4904 -0.0138  0.1240
  526TMC3    C8 7818   2.535   1.570  15.060 -0.3206 -0.0366  0.2658
  526TMC3    O1 7819   2.936   1.353  14.874  0.0645  0.4502  0.8134
  526TMC3    O2 7820   2.614   1.543  15.148  0.3786  0.0222 -0.1288
  527MPD2     C 7821   0.736   4.215   0.782 -0.4904  0.2118 -0.2216
  527MPD2    C1 7822   0.830   4.233   0.880  0.2479 -0.2730 -0.1881
  527MPD2    C2 7823   0.957   4.277   0.851  0.5238 -0.0477  0.9111
  527MPD2    C3 7824   0.990   4.308   0.719  0.5480  0.4963  0.4206
  527MPD2    C4 7825   0.887   4.297   0.615  0.5840  0.7606  0.4077
  527MPD2    C5 7826   0.769   4.236   0.653 -0.1354 -0.7068  1.0111
  527MPD2     H 7827   1.032   4.284   0.930  1.8709 -1.6472 -0.2028
  527MPD2    H1 7828   0.908   4.304   0.509 -1.5893 -0.7677 -0.1098
  527MPD2    H2 7829   0.635   4.181   0.801 -1.0489  1.4198 -1.0168
  527MPD2    H3 7830   0.697   4.212   0.575 -0.2151 -0.6587  1.0705
  527MPD2     N 7831   1.120   4.345   0.689 -0.3528  0.6584 -0.3107
  527MPD2    H5 7832   1.184   4.336   0.767  0.6297 -0.8383 -1.2970
  527MPD2    N1 7833   0.792   4.217   1.017 -1.1768 -0.5655  0.2009
  527MPD2    H7 7834   0.863   4.239   1.087 -1.0046  0.6009 -0.3506
  528TMC3    C1 7835   0.682   4.122   1.207 -0.4155 -0.0105  0.0340
  528TMC3    C2 7836   0.750   4.207   1.288 -0.2539 -0.1181 -0.0316
  528TMC3    C3 7837   0.755   4.173   1.415 -0.7874 -0.3452 -0.1533
  528TMC3    C4 7838   0.622   4.009   1.253 -0.3393 -0.1169  0.6128
  528TMC3    C5 7839   0.625   3.978   1.386  0.4879  1.0021  0.3717
  528TMC3    C6 7840   0.695   4.062   1.468 -0.5829 -0.6335  0.2918
  528TMC3     C 7841   0.683   4.149   1.063  0.3585  0.4459  0.0674
  528TMC3     O 7842   0.584   4.105   1.001 -0.2963  0.6356 -0.7906
  528TMC3     H 7843   0.780   4.307   1.261  2.4047 -0.8090  0.3485
  528TMC3    H1 7844   0.575   3.945   1.179 -0.0159  0.9775 -0.5247
  528TMC3    H2 7845   0.707   4.037   1.573 -0.5815 -1.1409  0.1694
  528TMC3    C7 7846   0.589   3.845   1.427 -0.0542  0.4266  0.5633
  528TMC3    C8 7847   0.847   4.243   1.500 -0.8488  0.1389  0.7041
  528TMC3    O1 7848   0.634   3.813   1.536 -0.6537 -0.0749 -0.0847
  528TMC3    O2 7849   0.947   4.279   1.439  0.1118 -0.5249  0.2657
  529MPD2     C 7850   3.114   1.936   1.130  0.3587  0.3589  0.2870
  529MPD2    C1 7851   3.006   1.869   1.197 -0.3809 -0.3615  0.3399
  529MPD2    C2 7852   2.875   1.914   1.191  0.2700 -0.7726 -0.3734
  529MPD2    C3 7853   2.849   2.032   1.131 -0.1188 -0.5006 -0.2318
  529MPD2    C4 7854   2.958   2.102   1.076  0.0711 -0.0761 -0.7027
  529MPD2    C5 7855   3.083   2.051   1.070  0.7513 -1.2115 -0.1865
  529MPD2     H 7856   2.802   1.857   1.247 -0.5191 -1.0471 -1.7102
  529MPD2    H1 7857   2.941   2.202   1.037  1.5656 -0.6961 -2.9345
  529MPD2    H2 7858   3.219   1.911   1.136  0.2120 -1.0423 -2.9446
  529MPD2    H3 7859   3.159   2.109   1.018 -1.4439  2.2787  0.4625
  529MPD2     N 7860   2.724   2.096   1.126  0.2957 -0.1644  0.2315
  529MPD2    H5 7861   2.730   2.192   1.091 -1.6112  0.2922  1.1355
  529MPD2    N1 7862   3.022   1.744   1.264  0.7034 -0.4767 -0.0961
  529MPD2    H7 7863   2.936   1.705   1.300  0.2580  0.0900 -0.5324
  530TMC3    C1 7864   3.115   1.557   1.351  0.3454  0.3789  0.2650
  530TMC3    C2 7865   3.225   1.522   1.424  0.2490  0.9094 -0.2650
  530TMC3    C3 7866   3.205   1.413   1.503  0.2602  0.1891 -0.0060
  530TMC3    C4 7867   2.997   1.486   1.346 -0.6525 -0.5696 -0.8012
  530TMC3    C5 7868   2.979   1.385   1.429 -0.3626 -0.1896  0.1109
  530TMC3    C6 7869   3.084   1.347   1.509 -0.2675  0.3355  0.4933
  530TMC3     C 7870   3.137   1.676   1.276  0.0490 -1.2918 -0.9749
  530TMC3     O 7871   3.250   1.693   1.234  0.3302 -0.1384  0.3730
  530TMC3     H 7872   3.309   1.591   1.433 -0.6640  1.8545  0.9331
  530TMC3    H1 7873   2.928   1.504   1.265 -0.8304 -0.3793 -0.6083
  530TMC3    H2 7874   3.073   1.260   1.574 -2.4571 -0.6688 -1.2143
  530TMC3    C7 7875   2.861   1.296   1.407 -0.0246  0.1040 -0.3947
  530TMC3    C8 7876   3.313   1.355   1.582  0.0502 -0.6303  0.6406
  530TMC3    O1 7877   2.873   1.177   1.447  0.5274 -0.4694 -0.2435
  530TMC3    O2 7878   3.276   1.273   1.668  0.2351  0.4556 -0.0596
  531MPD2     C 7879   2.456   0.420  11.816  0.0117 -0.1526 -0.0844
  531MPD2    C1 7880   2.456   0.386  11.687  0.3375 -0.4497  0.4232
  531MPD2    C2 7881   2.560   0.318  11.635 -0.0810  0.2414  0.3890
  531MPD2    C3 7882   2.666   0.275  11.713  0.5782 -0.5783 -0.2768
  531MPD2    C4 7883   2.661   0.297  11.852 -0.5891 -0.8798  0.5607
  531MPD2    C5 7884   2.562   0.377  11.900  0.0369 -0.0854 -0.5336
  531MPD2     H 7885   2.560   0.284  11.532 -0.7364  0.6007  0.2715
  531MPD2    H1 7886   2.743   0.264  11.914  0.0062  0.4444  0.4847
  531MPD2    H2 7887   2.377   0.478  11.863  0.7371  1.5940 -1.0249
  531MPD2    H3 7888   2.578   0.419  11.999 -0.3590 -2.8200  0.6905
  531MPD2     N 7889   2.776   0.201  11.666  0.2374  0.3159  0.0968
  531MPD2    H5 7890   2.842   0.159  11.731  1.4442  0.6935 -0.8745
  531MPD2    N1 7891   2.336   0.439  11.621 -0.5530 -0.0716 -0.0964
  531MPD2    H7 7892   2.272   0.504  11.665 -0.6664 -1.0407  1.1885
  532TMC3    C1 7893   2.144   0.405  11.465  0.3548  0.1349  0.7957
  532TMC3    C2 7894   2.079   0.286  11.444 -0.7468  0.4398 -0.6065
  532TMC3    C3 7895   1.984   0.245  11.542 -0.9230 -1.0600 -0.7784
  532TMC3    C4 7896   2.078   0.498  11.544 -0.1325 -0.7078 -0.4548
  532TMC3    C5 7897   1.964   0.464  11.614 -0.0595  0.1024 -0.8493
  532TMC3    C6 7898   1.919   0.333  11.618 -0.1876 -0.4395  0.6677
  532TMC3     C 7899   2.284   0.373  11.504 -0.2974 -0.7609 -0.4058
  532TMC3     O 7900   2.328   0.274  11.445  0.0816  0.0995  0.2491
  532TMC3     H 7901   2.131   0.220  11.375 -0.5290 -0.7575  0.7072
  532TMC3    H1 7902   2.119   0.595  11.568 -0.2478 -1.0025  0.9387
  532TMC3    H2 7903   1.851   0.300  11.695 -0.5006  0.5767  0.8273
  532TMC3    C7 7904   1.927   0.562  11.725  0.3849  0.0981  0.2122
  532TMC3    C8 7905   2.026   0.123  11.621 -0.7228 -1.2269  0.7575
  532TMC3    O1 7906   1.925   0.680  11.693 -0.0918 -0.0781 -0.5780
  532TMC3    O2 7907   1.940   0.082  11.700  0.5581  0.2103 -0.0141
  533TMC3    C1 7908   2.965   2.247  14.187 -0.1512 -0.8090  0.5021
  533TMC3    C2 7909   3.091   2.273  14.229 -0.8996  0.3645 -0.2433
  533TMC3    C3 7910   3.128   2.402  14.255  0.0899  0.4180  0.4339
  533TMC3    C4 7911   2.868   2.342  14.198 -0.0617  0.1395 -0.0463
  533TMC3    C5 7912   2.906   2.465  14.241 -0.3216 -0.1229 -0.4033
  533TMC3    C6 7913   3.034   2.505  14.262  0.7123 -0.5006  1.0862
  533TMC3     C 7914   2.916   2.110  14.228  1.3462 -0.3053 -0.2996
  533TMC3     O 7915   2.967   2.060  14.327  0.1131 -0.1876 -0.1102
  533TMC3     H 7916   3.170   2.199  14.228 -1.7578 -0.5468 -1.5442
  533TMC3    H1 7917   2.764   2.322  14.177 -0.8179  1.8957  1.9702
  533TMC3    H2 7918   3.055   2.608  14.286  1.5181 -1.0876  2.8639
  533TMC3    C7 7919   2.823   2.499  14.355  0.6710  0.4344 -0.4954
  533TMC3    C8 7920   3.257   2.424  14.322 -0.2599 -0.5182 -0.1567
  533TMC3    O1 7921   2.739   2.420  14.392 -0.4131  0.2850  0.0852
  533TMC3    O2 7922   3.309   2.332  14.377 -0.5042  0.1204 -0.5461
  534MPD2     C 7923   0.982   2.328   1.690 -0.2770 -0.2634 -0.4689
  534MPD2    C1 7924   0.943   2.444   1.631  0.4530 -0.5345  0.2018
  534MPD2    C2 7925   0.859   2.445   1.525 -0.4470 -0.8510  0.3689
  534MPD2    C3 7926   0.788   2.332   1.503  0.1260  0.1676 -0.1166
  534MPD2    C4 7927   0.815   2.218   1.573 -0.8451  0.0540 -0.2534
  534MPD2    C5 7928   0.919   2.213   1.660 -0.1338 -0.5350  0.4379
  534MPD2     H 7929   0.822   2.536   1.479  2.3381 -0.3243 -0.8648
  534MPD2    H1 7930   0.762   2.131   1.535  0.3040 -0.7121 -0.1053
  534MPD2    H2 7931   1.046   2.327   1.778 -0.6898  0.4367 -0.1657
  534MPD2    H3 7932   0.950   2.126   1.717  1.6171 -0.7288 -0.8406
  534MPD2     N 7933   0.681   2.326   1.405 -0.5263  0.7254 -0.1228
  534MPD2    H5 7934   0.627   2.240   1.401  3.0365 -1.4941 -0.6781
  534MPD2    N1 7935   0.993   2.573   1.663  0.3023  0.2638 -0.2676
  534MPD2    H7 7936   0.946   2.653   1.620 -1.5567 -1.0598 -0.6841
  535TMC3    C1 7937   0.552   2.385   1.217 -0.7759  0.3052 -0.7355
  535TMC3    C2 7938   0.432   2.368   1.284  0.9339 -0.4122  0.0823
  535TMC3    C3 7939   0.320   2.408   1.220  0.5743 -0.2721  0.0244
  535TMC3    C4 7940   0.556   2.439   1.094 -0.3141  0.5713  0.3992
  535TMC3    C5 7941   0.438   2.466   1.030  0.0535 -0.2459  0.0640
  535TMC3    C6 7942   0.313   2.458   1.092 -0.7748 -0.0072  0.4621
  535TMC3     C 7943   0.669   2.416   1.300 -0.6495 -0.5248 -0.0240
  535TMC3     O 7944   0.739   2.499   1.255 -0.3922 -0.3882  0.5606
  535TMC3     H 7945   0.425   2.326   1.383 -0.8110 -0.4447 -0.0433
  535TMC3    H1 7946   0.647   2.433   1.036 -0.7901 -1.0224 -0.1814
  535TMC3    H2 7947   0.216   2.487   1.052 -1.6492 -0.0397  2.5676
  535TMC3    C7 7948   0.449   2.531   0.898  0.4573 -0.1287 -0.1498
  535TMC3    C8 7949   0.194   2.401   1.287 -0.5776  0.2629 -0.1425
  535TMC3    O1 7950   0.561   2.555   0.854 -0.1222  0.5689  0.3987
  535TMC3    O2 7951   0.097   2.379   1.220  0.6842 -0.0937  0.2239
  536MPD2     C 7952   3.959   1.611  16.486 -0.2129 -0.5185  0.2251
  536MPD2    C1 7953   3.850   1.535  16.462 -0.2687  0.2116 -0.1820
  536MPD2    C2 7954   3.794   1.526  16.332  0.1967  0.1573  0.0150
  536MPD2    C3 7955   3.841   1.610  16.230 -0.6537  0.1778  0.6650
  536MPD2    C4 7956   3.948   1.691  16.264 -0.1002 -0.4775  0.5148
  536MPD2    C5 7957   4.009   1.683  16.383 -0.3388  0.5627  0.5406
  536MPD2     H 7958   3.713   1.457  16.310 -0.0918  0.3052  0.6100
  536MPD2    H1 7959   3.989   1.767  16.198  2.2024 -2.0939  0.0909
  536MPD2    H2 7960   4.017   1.615  16.578  0.4811 -2.4206 -0.1281
  536MPD2    H3 7961   4.094   1.749  16.389  1.1368 -1.2323 -0.4501
  536MPD2     N 7962   3.787   1.617  16.098  0.7884 -0.2937  0.0272
  536MPD2    H5 7963   3.835   1.673  16.028  0.8619  0.0996  0.3905
  536MPD2    N1 7964   3.788   1.472  16.569 -0.2245  0.6207 -0.1973
  536MPD2    H7 7965   3.831   1.489  16.660 -0.1861 -1.1409  0.1068
  537TMC3    C1 7966   3.636   1.421  16.735 -0.1558  0.0546 -0.3493
  537TMC3    C2 7967   3.643   1.546  16.783 -0.7856 -0.4235  0.3268
  537TMC3    C3 7968   3.629   1.560  16.916 -0.1335 -0.0204  0.3035
  537TMC3    C4 7969   3.628   1.302  16.803 -0.1151 -0.0936  0.2116
  537TMC3    C5 7970   3.630   1.313  16.941 -0.1965  0.4968 -0.3598
  537TMC3    C6 7971   3.631   1.444  16.990 -0.0388  0.3960  0.7804
  537TMC3     C 7972   3.665   1.413  16.586  0.0588  0.0202 -0.3501
  537TMC3     O 7973   3.574   1.383  16.509 -0.1960  0.7992  0.4616
  537TMC3     H 7974   3.642   1.627  16.711 -0.3313 -0.6676  0.0486
  537TMC3    H1 7975   3.608   1.211  16.747 -1.0503 -0.4161  1.0718
  537TMC3    H2 7976   3.610   1.458  17.096  0.3840  0.2417  0.8828
  537TMC3    C7 7977   3.678   1.205  17.027 -0.9005  0.1625 -0.4191
  537TMC3    C8 7978   3.676   1.680  16.983 -1.2697 -0.6095  0.0171
  537TMC3    O1 7979   3.706   1.238  17.141  0.0266  0.0960 -0.6041
  537TMC3    O2 7980   3.731   1.668  17.091  0.1083  0.3024 -0.0181
  538TMC3    C1 7981   1.164   0.224  10.721  0.2965  0.6885  0.0008
  538TMC3    C2 7982   1.203   0.121  10.645  0.0326  0.3254  0.5346
  538TMC3    C3 7983   1.164   0.132  10.509 -0.0010 -0.3558  0.1988
  538TMC3    C4 7984   1.089   0.332  10.675  0.5107 -0.3165 -0.5424
  538TMC3    C5 7985   1.034   0.328  10.551 -0.1336  0.5429  0.6543
  538TMC3    C6 7986   1.075   0.228  10.466  0.4059  0.6157 -0.1167
  538TMC3     C 7987   1.225   0.245  10.847 -0.9140 -0.0730  0.0977
  538TMC3     O 7988   1.154   0.297  10.934 -0.3411 -0.3553 -0.3148
  538TMC3     H 7989   1.223   0.024  10.688 -3.0188 -0.6978 -0.3880
  538TMC3    H1 7990   1.062   0.414  10.741  2.0407  0.4991 -0.9279
  538TMC3    H2 7991   1.027   0.217  10.370 -0.0955  1.0813  0.0744
  538TMC3    C7 7992   0.918   0.403  10.511  0.7599 -0.4185 -0.7839
  538TMC3    C8 7993   1.201   0.021  10.430  0.2028 -0.5577  0.3096
  538TMC3    O1 7994   0.842   0.345  10.436  0.3298 -0.1312  0.4358
  538TMC3    O2 7995   1.116   4.694  10.359 -0.0267 -0.1815  0.0657
  539MPD2     C 7996   0.603   3.484  11.745  0.4210 -1.3036 -0.4132
  539MPD2    C1 7997   0.647   3.502  11.614 -0.4181  0.0388 -0.2907
  539MPD2    C2 7998   0.692   3.633  11.593  0.0882 -0.2251 -0.3639
  539MPD2    C3 7999   0.694   3.732  11.691 -0.6137  0.3550 -0.2417
  539MPD2    C4 8000   0.661   3.698  11.818  0.9126 -0.4483 -0.2109
  539MPD2    C5 8001   0.606   3.580  11.840 -0.1506 -0.3543  0.2162
  539MPD2     H 8002   0.732   3.663  11.497 -0.4020  0.5030 -0.3463
  539MPD2    H1 8003   0.672   3.772  11.896  0.4982 -0.0537 -0.5281
  539MPD2    H2 8004   0.569   3.386  11.778  2.1377 -2.1567 -1.1844
  539MPD2    H3 8005   0.561   3.547  11.933  0.5911 -0.3661  0.5716
  539MPD2     N 8006   0.724   3.868  11.665 -0.1833  0.1387  0.1462
  539MPD2    H5 8007   0.703   3.938  11.736 -0.6593 -0.3606  0.5056
  539MPD2    N1 8008   0.647   3.411  11.506  0.3405 -0.2735  0.1972
  539MPD2    H7 8009   0.691   3.447  11.422 -2.3132 -0.5813 -1.3482
  540TMC3    C1 8010   0.809   4.045  11.540  0.4779 -0.5287  0.3331
  540TMC3    C2 8011   0.898   4.084  11.445  0.1288  0.5267 -0.0684
  540TMC3    C3 8012   0.884   4.211  11.399 -0.1635  0.5333  0.0832
  540TMC3    C4 8013   0.725   4.131  11.597  0.2832 -0.6398  0.3325
  540TMC3    C5 8014   0.714   4.256  11.549  0.9152 -0.1707  0.8064
  540TMC3    C6 8015   0.784   4.291  11.439 -0.3416 -0.0894  0.3552
  540TMC3     C 8016   0.789   3.907  11.555 -0.7474  0.0876 -0.6544
  540TMC3     O 8017   0.846   3.837  11.474 -0.3162 -0.4031  0.1734
  540TMC3     H 8018   0.954   4.007  11.393  0.7444  0.9832 -0.0804
  540TMC3    H1 8019   0.661   4.111  11.683 -0.9409  1.8395 -0.0139
  540TMC3    H2 8020   0.749   4.375  11.379  0.1716 -0.2915 -0.2234
  540TMC3    C7 8021   0.630   4.359  11.625  0.1147  1.0275  0.1426
  540TMC3    C8 8022   0.928   4.214  11.262 -0.4958 -0.3008  0.0058
  540TMC3    O1 8023   0.563   4.322  11.723  0.2027  0.3529 -0.6166
  540TMC3    O2 8024   1.036   4.170  11.231  0.1312 -0.1130 -0.2878
  541MPD2     C 8025   3.145   0.803  13.015 -0.4725  0.4281 -0.2565
  541MPD2    C1 8026   3.224   0.703  12.962 -0.3362 -0.8784 -0.0689
  541MPD2    C2 8027   3.316   0.737  12.868  0.1509  0.4417  0.0402
  541MPD2    C3 8028   3.340   0.864  12.825 -0.0528  0.6287 -0.6868
  541MPD2    C4 8029   3.263   0.962  12.880  0.1117 -0.0585  0.1061
  541MPD2    C5 8030   3.162   0.932  12.969 -0.3644 -0.0704 -0.1430
  541MPD2     H 8031   3.375   0.657  12.824 -0.3961  0.5710 -0.9368
  541MPD2    H1 8032   3.274   1.068  12.861  1.4117 -0.8207 -3.2569
  541MPD2    H2 8033   3.076   0.788  13.097 -0.5184  3.2321  0.1914
  541MPD2    H3 8034   3.093   1.002  13.016 -0.3741  0.8046 -1.4414
  541MPD2     N 8035   3.435   0.901  12.734 -0.3295  0.0630 -0.2501
  541MPD2    H5 8036   3.448   0.997  12.705  1.3076 -0.3717 -0.9857
  541MPD2    N1 8037   3.215   0.576  13.022  0.3541 -0.0804  0.0647
  541MPD2    H7 8038   3.167   0.563  13.111  1.1141 -1.0981  0.3353
  542TMC3    C1 8039   3.569   0.853  12.548 -0.7448 -0.6222  0.1789
  542TMC3    C2 8040   3.601   0.750  12.473  0.0797  0.2040 -0.3999
  542TMC3    C3 8041   3.638   0.775  12.344  0.5649  0.1725 -0.5948
  542TMC3    C4 8042   3.570   0.981  12.503  0.3586  0.4691  0.1049
  542TMC3    C5 8043   3.606   1.002  12.370  0.0347 -0.4534  0.6446
  542TMC3    C6 8044   3.641   0.898  12.288 -0.3254 -0.0725  0.1221
  542TMC3     C 8045   3.530   0.815  12.681 -0.3064  0.6534 -0.1973
  542TMC3     O 8046   3.548   0.701  12.713  0.6069 -0.2950 -0.3061
  542TMC3     H 8047   3.594   0.644  12.496  2.0375  0.5857  1.9722
  542TMC3    H1 8048   3.541   1.056  12.576  0.0745  0.9323 -0.4905
  542TMC3    H2 8049   3.665   0.921  12.185  2.3697  0.3218  0.8375
  542TMC3    C7 8050   3.596   1.135  12.313 -0.2977  0.0746 -0.3562
  542TMC3    C8 8051   3.712   0.670  12.278 -0.0478 -0.3264  0.1144
  542TMC3    O1 8052   3.591   1.132  12.191 -0.1601  0.1676  0.4009
  542TMC3    O2 8053   3.773   0.587  12.347 -0.0705  0.3136  0.2170
  543TMC3    C1 8054   2.628   1.505  17.284 -0.1299 -0.7413 -0.0406
  543TMC3    C2 8055   2.622   1.371  17.278  0.4155 -0.3381 -0.4299
  543TMC3    C3 8056   2.653   1.299  17.390 -0.5511 -0.5250 -0.4111
  543TMC3    C4 8057   2.674   1.566  17.398  0.5703  0.0877 -0.2462
  543TMC3    C5 8058   2.722   1.495  17.503 -0.1965 -0.1788 -0.4332
  543TMC3    C6 8059   2.705   1.360  17.501 -0.5624  0.2474  0.1720
  543TMC3     C 8060   2.616   1.596  17.167 -0.0935 -0.1182  0.2824
  543TMC3     O 8061   2.647   1.716  17.173  0.3788 -0.1910  0.4662
  543TMC3     H 8062   2.587   1.309  17.196 -1.1574  0.9995 -0.7545
  543TMC3    H1 8063   2.680   1.674  17.401 -2.3985  0.3074 -1.6909
  543TMC3    H2 8064   2.753   1.289  17.567 -1.7322 -1.2129 -0.5472
  543TMC3    C7 8065   2.813   1.555  17.592  0.5533  0.7426 -0.5606
  543TMC3    C8 8066   2.646   1.155  17.382  0.8403 -0.2398  0.5853
  543TMC3    O1 8067   2.848   1.672  17.570 -0.4531  0.4162 -0.5564
  543TMC3    O2 8068   2.670   1.103  17.275  0.4913 -0.0741 -0.1782
  544MPD2     C 8069   2.659   0.688  17.593 -0.1002 -0.7357 -0.1837
  544MPD2    C1 8070   2.699   0.732  17.472  0.3971 -0.7049  0.0001
  544MPD2    C2 8071   2.678   0.863  17.436  0.2492 -0.3505 -0.5139
  544MPD2    C3 8072   2.616   0.956  17.523 -0.3336  0.1371  0.1428
  544MPD2    C4 8073   2.571   0.908  17.645 -0.0413 -0.1898  0.8272
  544MPD2    C5 8074   2.598   0.777  17.681 -0.1769 -0.3117  0.1667
  544MPD2     H 8075   2.717   0.895  17.340 -0.1817  0.7817 -0.3168
  544MPD2    H1 8076   2.521   0.968   0.034  1.4980  1.1044  0.8285
  544MPD2    H2 8077   2.678   0.584  17.617  3.0326 -0.0500  0.2997
  544MPD2    H3 8078   2.563   0.748   0.093 -0.9646  3.3228  0.9434
  544MPD2     N 8079   2.604   1.095  17.499  0.4365  0.1766 -0.3410
  544MPD2    H5 8080   2.575   1.153  17.577 -1.2627  2.5280 -2.6817
  544MPD2    N1 8081   2.773   0.641  17.393  0.3921 -1.1147  0.4071
  544MPD2    H7 8082   2.814   0.559  17.435 -1.1731 -2.9357 -1.6383
  545TMC3    C1 8083   2.857   0.565  17.192 -0.3434 -0.2998  0.6979
  545TMC3    C2 8084   2.837   0.550  17.055  0.5565 -0.3962 -0.7493
  545TMC3    C3 8085   2.908   0.456  16.987  0.1155 -0.2946 -1.2363
  545TMC3    C4 8086   2.944   0.484  17.251 -0.8866  0.0679 -0.0501
  545TMC3    C5 8087   3.013   0.386  17.182 -0.0584  1.0771  0.1571
  545TMC3    C6 8088   3.000   0.370  17.047  0.4102 -0.1100 -0.0536
  545TMC3     C 8089   2.772   0.654  17.257 -0.3966 -0.0788 -0.1233
  545TMC3     O 8090   2.716   0.733  17.181 -0.4036 -0.2496 -0.8239
  545TMC3     H 8091   2.756   0.601  17.004  0.5555 -1.9305 -2.2684
  545TMC3    H1 8092   2.958   0.491  17.358  2.3322 -2.4514 -0.3136
  545TMC3    H2 8093   3.050   0.296  16.985 -0.2005 -0.1657 -0.4852
  545TMC3    C7 8094   3.114   0.304  17.249 -0.4042  0.1939  0.6839
  545TMC3    C8 8095   2.864   0.440  16.850 -0.2904  0.1387 -0.0199
  545TMC3    O1 8096   3.154   0.198  17.199 -0.2267  0.3501 -0.2036
  545TMC3    O2 8097   2.747   0.437  16.827  0.1667  0.0738 -0.2860
  546MPD2     C 8098   4.185   2.261  17.582 -0.0451 -0.6165  0.3183
  546MPD2    C1 8099   4.087   2.262  17.482  0.0823 -0.2866 -0.3201
  546MPD2    C2 8100   4.108   2.340  17.368 -0.0055 -0.1651 -0.2148
  546MPD2    C3 8101   4.228   2.403  17.345  0.4722 -0.6374 -0.2352
  546MPD2    C4 8102   4.315   2.399  17.446 -0.2273 -1.5848  0.2804
  546MPD2    C5 8103   4.297   2.324  17.563 -0.1747  0.0454  0.1478
  546MPD2     H 8104   4.026   2.330  17.298  0.4678  1.2369 -0.9639
  546MPD2    H1 8105   4.414   2.443  17.443 -0.6016 -0.9182 -2.3466
  546MPD2    H2 8106   4.170   2.209  17.676 -2.3184 -2.2390 -0.9468
  546MPD2    H3 8107   4.373   2.336  17.639 -1.1103  0.2966  1.0274
  546MPD2     N 8108   4.249   2.471  17.225  0.6720  0.3005 -0.0674
  546MPD2    H5 8109   4.331   2.532  17.226 -0.7930  2.2262  0.9603
  546MPD2    N1 8110   3.970   2.195  17.509 -0.1655 -0.4072 -0.1956
  546MPD2    H7 8111   3.980   2.124  17.581 -1.0484  0.4925  0.8213
  547TMC3    C1 8112   3.774   2.082  17.448 -0.5340  0.3631  0.3375
  547TMC3    C2 8113   3.646   2.102  17.402  0.8507 -0.0672 -0.0659
  547TMC3    C3 8114   3.582   2.001  17.338  0.0316  0.1181  0.9981
  547TMC3    C4 8115   3.842   1.962  17.439 -0.5520 -0.0668  0.1010
  547TMC3    C5 8116   3.765   1.863  17.381  0.0868 -0.3188 -0.0787
  547TMC3    C6 8117   3.640   1.881  17.331 -0.3609 -0.1580 -0.0547
  547TMC3     C 8118   3.854   2.204  17.443  0.5194  0.4412 -0.4141
  547TMC3     O 8119   3.804   2.303  17.384 -0.1444 -0.0850  0.4004
  547TMC3     H 8120   3.600   2.200  17.408  0.4474 -0.2949  0.5438
  547TMC3    H1 8121   3.940   1.937  17.478 -0.4960  1.4432  0.9086
  547TMC3    H2 8122   3.602   1.805  17.264  0.6671  2.4500 -3.5622
  547TMC3    C7 8123   3.799   1.724  17.399 -0.1865 -0.5945 -0.2065
  547TMC3    C8 8124   3.499   2.027  17.222 -0.7328 -1.2303  0.0951
  547TMC3    O1 8125   3.708   1.647  17.404  0.0928  0.4648 -0.2973
  547TMC3    O2 8126   3.418   1.945  17.180  0.5883  0.3308 -0.1185
  548MPD2     C 8127   0.119   2.281  12.530 -0.4055  0.1110 -0.4956
  548MPD2    C1 8128   0.048   2.190  12.451 -0.0362 -0.0518 -0.2538
  548MPD2    C2 8129   0.106   2.148  12.331  0.5620  0.1595  0.2929
  548MPD2    C3 8130   0.237   2.174  12.302  0.5046  0.2997  0.5021
  548MPD2    C4 8131   0.303   2.260  12.383 -0.4643 -0.3408 -0.1534
  548MPD2    C5 8132   0.245   2.314  12.497  0.6804  0.2056  0.3773
  548MPD2     H 8133   0.048   2.086  12.264 -0.8211 -0.1194  1.7504
  548MPD2    H1 8134   0.400   2.305  12.362 -0.8452  1.0158  0.9594
  548MPD2    H2 8135   0.068   2.326  12.615 -1.5030 -1.3942 -0.3513
  548MPD2    H3 8136   0.311   2.370  12.562  0.1113  1.3879 -0.0742
  548MPD2     N 8137   0.292   2.118  12.183 -0.5791 -0.0184 -0.1999
  548MPD2    H5 8138   0.228   2.059  12.130  1.8656 -2.0640 -0.8500
  548MPD2    N1 8139   4.631   2.173  12.482 -0.8767  0.0035 -0.4072
  548MPD2    H7 8140   4.593   2.209  12.569 -0.6691  0.7989 -0.6490
  549TMC3    C1 8141   4.417   2.114  12.468 -0.1600  0.5984  0.4745
  549TMC3    C2 8142   4.367   2.235  12.448 -0.3280 -0.4273  0.3422
  549TMC3    C3 8143   4.239   2.254  12.488  0.8255 -0.0985  0.0758
  549TMC3    C4 8144   4.346   2.004  12.503  1.0183  0.1462  0.8286
  549TMC3    C5 8145   4.218   2.036  12.548  0.0409 -0.3926 -0.0289
  549TMC3    C6 8146   4.160   2.157  12.538  0.3487 -0.0876  0.1312
  549TMC3     C 8147   4.547   2.095  12.410  0.4315 -0.5034 -0.5638
  549TMC3     O 8148   4.570   1.993  12.345 -1.1070  0.5124  0.0514
  549TMC3     H 8149   4.418   2.310  12.389 -1.0032  0.6512  1.1339
  549TMC3    H1 8150   4.399   1.912  12.527 -0.0408 -0.6609  0.0446
  549TMC3    H2 8151   4.063   2.177  12.583  0.3431  1.6719 -0.6422
  549TMC3    C7 8152   4.130   1.940  12.608 -0.1531  0.2325 -0.6689
  549TMC3    C8 8153   4.169   2.375  12.438 -0.3590 -0.6849 -0.2656
  549TMC3    O1 8154   4.057   1.979  12.700  0.2952  0.1469 -0.3842
  549TMC3    O2 8155   4.053   2.353  12.405  0.0958 -0.3959  0.2748
  550TMC3    C1 8156   3.039   0.423  11.607  0.2432 -0.2134  0.1015
  550TMC3    C2 8157   3.018   0.442  11.742  0.1596  0.2405  0.0210
  550TMC3    C3 8158   2.914   0.527  11.777 -0.3029  0.7879 -0.3787
  550TMC3    C4 8159   2.949   0.465  11.518  1.0053  0.4984  0.6183
  550TMC3    C5 8160   2.858   0.557  11.558  0.0013 -0.3303 -0.1227
  550TMC3    C6 8161   2.840   0.594  11.687 -0.1205  0.7273 -0.4016
  550TMC3     C 8162   3.126   0.313  11.579 -0.5402 -0.9270 -0.6193
  550TMC3     O 8163   3.140   0.239  11.678 -0.2921  0.8332 -0.3911
  550TMC3     H 8164   3.097   0.414  11.810 -0.8399 -2.3559  0.1149
  550TMC3    H1 8165   2.951   0.438  11.414 -0.4084  2.8112 -0.0203
  550TMC3    H2 8166   2.767   0.667  11.718 -0.8288  0.0329 -0.4479
  550TMC3    C7 8167   2.747   0.568  11.460  0.3055  0.0244  0.3346
  550TMC3    C8 8168   2.901   0.568  11.917  0.2724 -0.3820 -0.3682
  550TMC3    O1 8169   2.742   0.471  11.388 -0.7254 -0.2460  0.1859
  550TMC3    O2 8170   2.831   0.663  11.943 -0.0729 -0.0514  0.4093
  551TMC3    C1 8171   0.838   3.009  13.024  0.2813  0.1207 -0.7363
  551TMC3    C2 8172   0.913   3.119  12.991 -0.3606  0.3024 -0.4574
  551TMC3    C3 8173   0.883   3.237  13.055 -0.4897 -0.3185 -0.5009
  551TMC3    C4 8174   0.751   3.017  13.124 -0.0529  0.0021 -0.0500
  551TMC3    C5 8175   0.728   3.133  13.184 -0.2655 -0.9309  0.3639
  551TMC3    C6 8176   0.785   3.251  13.146  0.4666  0.6165  0.3100
  551TMC3     C 8177   0.782   2.939  12.908  0.3179 -0.5553  0.4426
  551TMC3     O 8178   0.673   2.882  12.929 -0.2573 -0.5030  0.4323
  551TMC3     H 8179   0.976   3.120  12.903  0.3431  0.4528  0.0497
  551TMC3    H1 8180   0.692   2.930  13.148 -0.3124  0.4828  1.0781
  551TMC3    H2 8181   0.770   3.342  13.204 -1.7462  0.8091 -0.5571
  551TMC3    C7 8182   0.660   3.134  13.310 -0.7250  0.5691 -0.0133
  551TMC3    C8 8183   0.945   3.355  13.005 -0.4787 -0.3388  0.5641
  551TMC3    O1 8184   0.677   3.048  13.394  0.4590  0.6524 -0.1935
  551TMC3    O2 8185   0.864   3.451  13.004  0.0904  0.0732 -0.1498
  552MPD2     C 8186   1.693   0.551  14.128  0.6475 -0.4213  0.1028
  552MPD2    C1 8187   1.769   0.537  14.012  0.2928 -1.4733  0.0627
  552MPD2    C2 8188   1.909   0.534  14.024  0.1312  0.8046 -0.2173
  552MPD2    C3 8189   1.981   0.537  14.139 -0.4542 -0.2072  0.2154
  552MPD2    C4 8190   1.902   0.539  14.252 -0.1466 -0.3027 -0.6930
  552MPD2    C5 8191   1.766   0.550  14.248 -0.4100 -0.2825  0.1782
  552MPD2     H 8192   1.959   0.524  13.928 -0.8172  0.4044 -0.6755
  552MPD2    H1 8193   1.942   0.548  14.352 -1.6528  0.8806 -0.2038
  552MPD2    H2 8194   1.584   0.555  14.126  0.5329 -4.2870 -0.4957
  552MPD2    H3 8195   1.716   0.567  14.342 -1.6319  1.2468 -0.7368
  552MPD2     N 8196   2.124   0.529  14.143  0.6402 -0.2231 -0.1770
  552MPD2    H5 8197   2.154   0.537  14.239 -0.0161 -1.3556  0.1228
  552MPD2    N1 8198   1.710   0.531  13.886 -0.5253  0.1709 -0.3532
  552MPD2    H7 8199   1.781   0.508  13.818 -0.7639 -3.7379  0.6870
  553TMC3    C1 8200   1.546   0.504  13.721 -0.4874  0.2205  0.6115
  553TMC3    C2 8201   1.639   0.537  13.628 -0.2228  0.0408  0.2033
  553TMC3    C3 8202   1.621   0.473  13.506  0.0699  0.6172 -0.8027
  553TMC3    C4 8203   1.448   0.414  13.700 -0.4074 -0.0900  0.2841
  553TMC3    C5 8204   1.440   0.336  13.591 -0.7078 -0.0693 -0.4642
  553TMC3    C6 8205   1.523   0.375  13.487 -0.5179  1.3980 -0.4032
  553TMC3     C 8206   1.574   0.526  13.863 -0.0003  0.1535 -0.9448
  553TMC3     O 8207   1.475   0.534  13.932  0.0018  0.0662 -0.5959
  553TMC3     H 8208   1.700   0.626  13.640  0.1813 -0.1538 -0.3996
  553TMC3    H1 8209   1.400   0.376  13.789  1.1508  2.2960  2.1513
  553TMC3    H2 8210   1.521   0.316  13.396  2.3258 -1.2405  1.2562
  553TMC3    C7 8211   1.440   0.193  13.622 -0.5252 -0.0367  0.4145
  553TMC3    C8 8212   1.658   0.542  13.383 -0.3645  0.2483 -0.6489
  553TMC3    O1 8213   1.361   0.149  13.703  0.1290  0.2595  0.6087
  553TMC3    O2 8214   1.584   0.528  13.291 -0.1282  0.3088 -0.0441
  554TMC3    C1 8215   4.715   4.304  11.188  0.8447  0.2328  0.0665
  554TMC3    C2 8216   0.012   4.206  11.094 -0.0698 -0.7833  0.2103
  554TMC3    C3 8217   0.106   4.230  11.001 -0.6252 -0.2178  0.0361
  554TMC3    C4 8218   0.061   4.422  11.187 -0.3793 -0.2945 -0.5027
  554TMC3    C5 8219   0.158   4.445  11.089  0.4390 -0.0622  0.2070
  554TMC3    C6 8220   0.186   4.343  11.000  0.2613  0.4328  0.4825
  554TMC3     C 8221   4.690   4.256  11.322 -1.0265  0.2936  0.5228
  554TMC3     O 8222   0.041   4.292  11.412  0.2126 -0.0657  0.4024
  554TMC3     H 8223   4.682   4.111  11.097  1.0237 -1.3876 -0.2241
  554TMC3    H1 8224   0.042   4.502  11.257  0.5827 -2.9814  2.7903
  554TMC3    H2 8225   0.251   4.355  10.915 -2.1221 -3.7039 -1.9217
  554TMC3    C7 8226   0.156   4.572  11.020  0.2666 -0.3393  0.2137
  554TMC3    C8 8227   0.082   4.162  10.871 -0.7296  0.2650  0.5167
  554TMC3    O1 8228   0.243   4.584  10.933 -0.3684 -0.0158 -0.1091
  554TMC3    O2 8229   0.112   4.234  10.778  0.3674  0.0827 -0.5050
  555TMC3    C1 8230   3.110   3.439  14.516 -0.3230 -0.3379 -0.1948
  555TMC3    C2 8231   3.065   3.540  14.598  0.3925  0.2206  0.3784
  555TMC3    C3 8232   3.072   3.507  14.733  0.7873  0.4496 -0.3860
  555TMC3    C4 8233   3.179   3.326  14.559  0.4519 -0.2845  0.4277
  555TMC3    C5 8234   3.183   3.304  14.695 -0.0819  0.3111  0.4345
  555TMC3    C6 8235   3.124   3.391  14.782  0.1924  0.1912  0.5814
  555TMC3     C 8236   3.096   3.456  14.371  0.3605 -0.0030  0.2600
  555TMC3     O 8237   3.135   3.364  14.301 -0.7426  0.3076  0.8691
  555TMC3     H 8238   3.005   3.622  14.563 -0.2760 -1.0640 -1.4839
  555TMC3    H1 8239   3.210   3.254  14.485 -0.8572 -0.2958 -0.1078
  555TMC3    H2 8240   3.127   3.369  14.888  0.7738 -2.7989 -0.0335
  555TMC3    C7 8241   3.187   3.172  14.759  0.4481  0.0514 -0.4345
  555TMC3    C8 8242   3.006   3.586  14.825 -1.0833  0.3720 -0.4672
  555TMC3    O1 8243   3.146   3.159  14.871  0.9461  0.4774 -0.2527
  555TMC3    O2 8244   2.931   3.670  14.783  0.5006  0.0141  0.1602
  556MPD2     C 8245   2.365   0.489  10.605  0.6427  0.3147 -0.7658
  556MPD2    C1 8246   2.232   0.461  10.620  0.5356  0.6087 -0.4627
  556MPD2    C2 8247   2.177   0.344  10.579  0.0378  0.0338  0.0808
  556MPD2    C3 8248   2.256   0.241  10.536  0.1372 -0.8423 -0.6664
  556MPD2    C4 8249   2.388   0.269  10.500 -0.7720  0.0888  0.5570
  556MPD2    C5 8250   2.433   0.400  10.530 -0.4933 -0.9276 -0.2880
  556MPD2     H 8251   2.074   0.324  10.606 -0.1453  0.3658 -0.3764
  556MPD2    H1 8252   2.460   0.200  10.458  0.2289 -0.2722  2.8442
  556MPD2    H2 8253   2.410   0.582  10.638  0.7418 -0.2952  0.8342
  556MPD2    H3 8254   2.536   0.427  10.508 -0.0202 -1.9109  0.7587
  556MPD2     N 8255   2.200   0.113  10.517 -0.1574  0.2166 -0.2699
  556MPD2    H5 8256   2.101   0.101  10.532 -0.2909  0.6187 -0.8515
  556MPD2    N1 8257   2.147   0.551  10.676 -0.1951  0.2261 -0.4593
  556MPD2    H7 8258   2.050   0.545  10.649  0.3068 -1.1628 -1.9404
  557TMC3    C1 8259   2.176   4.617  10.445 -0.2377  0.2931  0.0160
  557TMC3    C2 8260   2.229   4.499  10.407 -0.1598 -0.1630 -0.5439
  557TMC3    C3 8261   2.146   4.398  10.363 -0.3956 -0.7424 -0.1868
  557TMC3    C4 8262   2.044   4.644  10.447 -0.0147  0.2512  0.3911
  557TMC3    C5 8263   1.964   4.539  10.420 -0.4027  0.3754 -0.2207
  557TMC3    C6 8264   2.010   4.420  10.370 -0.4904  0.0894  0.7908
  557TMC3     C 8265   2.269   0.002  10.473  0.1142 -0.3532  0.5159
  557TMC3     O 8266   2.387   4.698  10.459  0.2848 -0.6276 -0.2966
  557TMC3     H 8267   2.335   4.477  10.404 -0.3293 -0.7827 -2.0777
  557TMC3    H1 8268   2.000   0.022  10.450  1.8481  1.0325  2.6113
  557TMC3    H2 8269   1.940   4.342  10.339  0.7111 -1.1938  1.2802
  557TMC3    C7 8270   1.828   4.561  10.427 -0.2067  0.5327  0.0495
  557TMC3    C8 8271   2.203   4.297  10.274  0.1726 -0.0979  0.1789
  557TMC3    O1 8272   1.791   4.678  10.456  0.0136 -0.2811 -0.3908
  557TMC3    O2 8273   2.318   4.265  10.295 -0.5537 -0.1900  0.0317
  558TMC3    C1 8274   4.449   2.984  10.034  0.7490  0.0375 -0.5536
  558TMC3    C2 8275   4.320   2.950  10.076  0.2086  0.1491 -0.2150
  558TMC3    C3 8276   4.234   2.906   9.983  0.8463 -0.3514  0.2925
  558TMC3    C4 8277   4.489   2.981   9.905  0.3022 -0.4420 -0.1612
  558TMC3    C5 8278   4.394   2.945   9.814 -0.0320  0.9179  0.2798
  558TMC3    C6 8279   4.269   2.902   9.849  0.0285  0.4568  0.3357
  558TMC3     C 8280   4.537   3.009  10.149  0.2728  0.0187 -0.4113
  558TMC3     O 8281   4.503   2.972  10.258  0.1020 -0.1444 -0.2090
  558TMC3     H 8282   4.287   2.972  10.177 -0.3748  0.7852 -0.5401
  558TMC3    H1 8283   4.584   3.024   9.876 -0.5304  2.6234  1.7080
  558TMC3    H2 8284   4.189   2.884   9.778  0.5682 -0.7097  0.0209
  558TMC3    C7 8285   4.441   2.917   9.686  0.2398  0.0629 -0.1286
  558TMC3    C8 8286   4.101   2.865  10.024  0.2217 -0.0260  0.0471
  558TMC3    O1 8287   4.554   2.954   9.654 -0.1024 -0.0784  0.3170
  558TMC3    O2 8288   4.028   2.857   9.925  0.1361  0.3446  0.8135
  559MPD2     C 8289   4.366   3.416  10.286  0.0948  0.4620 -0.2605
  559MPD2    C1 8290   4.299   3.335  10.373 -0.4426 -0.3863  0.0934
  559MPD2    C2 8291   4.356   3.300  10.495  0.0565  0.0080 -0.3246
  559MPD2    C3 8292   4.475   3.355  10.536  0.0528  0.6023  1.0327
  559MPD2    C4 8293   4.547   3.435  10.454 -0.6313 -0.4153 -1.0125
  559MPD2    C5 8294   4.489   3.459  10.329 -0.1628  0.5201 -0.0202
  559MPD2     H 8295   4.303   3.232  10.561 -1.2622  0.0676 -1.3166
  559MPD2    H1 8296   4.638   3.490  10.480 -0.8798 -0.5827  0.2272
  559MPD2    H2 8297   4.333   3.432  10.184  0.9883 -2.3623 -0.9911
  559MPD2    H3 8298   4.547   3.515  10.256 -0.0568 -1.6308 -1.5831
  559MPD2     N 8299   4.517   3.322  10.665  0.7328 -0.1482 -0.1546
  559MPD2    H5 8300   4.454   3.261  10.716  2.0971 -0.3515  1.2647
  559MPD2    N1 8301   4.175   3.279  10.328 -0.5993 -0.3666 -0.2655
  559MPD2    H7 8302   4.148   3.297  10.232 -0.7423 -0.1660 -0.1894
  560TMC3    C1 8303   4.646   3.311  10.862 -0.0378  0.3423  0.4654
  560TMC3    C2 8304   4.547   3.250  10.933 -0.1366  0.1498 -0.0339
  560TMC3    C3 8305   4.574   3.185  11.053  0.2624 -0.4637  0.0989
  560TMC3    C4 8306   0.038   3.341  10.925 -0.4326  0.8273 -0.0800
  560TMC3    C5 8307   0.062   3.290  11.054 -0.1325 -0.2495 -0.0337
  560TMC3    C6 8308   4.699   3.205  11.116 -0.3166 -0.0602 -0.7975
  560TMC3     C 8309   4.627   3.367  10.735  0.2055 -0.5555  0.1914
  560TMC3     O 8310   4.714   3.442  10.689 -0.4837 -0.5307  0.4397
  560TMC3     H 8311   4.447   3.239  10.893  0.3573  1.1997 -1.5422
  560TMC3    H1 8312   0.125   3.379  10.872  0.1011 -2.8792 -1.9271
  560TMC3    H2 8313   0.007   3.160  11.210  2.5343  0.1736 -1.5570
  560TMC3    C7 8314   0.164   3.349  11.144 -0.3676 -0.2968  0.5864
  560TMC3    C8 8315   4.494   3.067  11.077 -1.1184  0.3181 -0.1737
  560TMC3    O1 8316   0.177   3.286  11.246 -0.9195  0.0585 -0.1099
  560TMC3    O2 8317   4.429   3.032  10.978 -0.4405 -0.0790 -0.2444
  561TMC3    C1 8318   2.185   2.540  11.323  0.8321  0.6598  0.0472
  561TMC3    C2 8319   2.095   2.499  11.420 -0.0105  0.5719  0.4494
  561TMC3    C3 8320   2.060   2.591  11.514 -0.4639  0.2602 -0.2213
  561TMC3    C4 8321   2.246   2.664  11.328  0.3069 -0.3230  0.1970
  561TMC3    C5 8322   2.204   2.753  11.422 -0.7347 -0.2462  0.4650
  561TMC3    C6 8323   2.114   2.715  11.516  0.5744 -0.0239  0.2026
  561TMC3     C 8324   2.213   2.444  11.216 -0.5622 -0.4288  0.9067
  561TMC3     O 8325   2.162   2.335  11.231  0.0833 -0.4498 -0.1589
  561TMC3     H 8326   2.045   2.402  11.415 -1.0380  1.0783  0.9972
  561TMC3    H1 8327   2.309   2.686  11.243  1.4228  0.3921  1.2208
  561TMC3    H2 8328   2.073   2.797  11.574  0.8384  0.1284  0.1729
  561TMC3    C7 8329   2.204   2.897  11.379 -0.4129  0.0204  0.2191
  561TMC3    C8 8330   1.983   2.544  11.628 -0.2811  0.7459 -0.9736
  561TMC3    O1 8331   2.109   2.965  11.416  0.3699 -0.3791  0.2106
  561TMC3    O2 8332   1.973   2.423  11.630 -0.0532 -0.1517  0.4375
  562TMC3    C1 8333   2.650   4.090  15.906  0.0799 -0.0102 -0.4575
  562TMC3    C2 8334   2.607   4.150  15.788  0.3318  0.3931 -0.2707
  562TMC3    C3 8335   2.478   4.128  15.753 -0.4925  0.5647  0.2293
  562TMC3    C4 8336   2.571   4.003  15.982  0.6235  0.3705 -0.0199
  562TMC3    C5 8337   2.441   3.988  15.939 -0.3835  0.4380  0.1963
  562TMC3    C6 8338   2.394   4.053  15.831 -0.6767  0.1886  0.2422
  562TMC3     C 8339   2.788   4.096  15.947  0.2251  0.0022  0.5672
  562TMC3     O 8340   2.809   4.064  16.063 -0.1552  0.4127  0.4285
  562TMC3     H 8341   2.654   4.240  15.752  1.4216  0.7186  2.0169
  562TMC3    H1 8342   2.604   3.957  16.075 -1.0589  0.7331  0.7425
  562TMC3    H2 8343   2.299   4.038  15.780 -0.4658 -0.6072  0.0842
  562TMC3    C7 8344   2.363   3.879  15.987 -0.7347  0.3570  0.1182
  562TMC3    C8 8345   2.412   4.203  15.644  0.6945 -0.9144 -0.4105
  562TMC3    O1 8346   2.243   3.876  15.968 -0.1699  0.2310 -0.3041
  562TMC3    O2 8347   2.290   4.225  15.661  0.5981  0.2409  0.6901
  563MPD2     C 8348   0.395   0.687  15.291 -0.2177 -0.2332  0.3926
  563MPD2    C1 8349   0.430   0.769  15.387 -0.2763 -0.3928  0.3329
  563MPD2    C2 8350   0.514   0.721  15.486 -0.6396 -0.5754  0.3237
  563MPD2    C3 8351   0.545   0.589  15.495 -0.2970 -0.7057  0.3636
  563MPD2    C4 8352   0.511   0.510  15.394 -0.3325 -0.1198  0.0013
  563MPD2    C5 8353   0.438   0.558  15.290  0.4590 -0.3924  0.9188
  563MPD2     H 8354   0.554   0.781  15.566 -0.7379  0.6796 -0.5726
  563MPD2    H1 8355   0.558   0.413  15.380  0.9927  0.3170  1.4884
  563MPD2    H2 8356   0.338   0.739  15.214  0.5837 -0.1973 -0.1761
  563MPD2    H3 8357   0.436   0.487  15.207 -1.7148 -1.1586  1.6201
  563MPD2     N 8358   0.614   0.555  15.615  0.3949 -0.2266  0.0246
  563MPD2    H5 8359   0.638   0.622  15.687  0.3713  0.1143 -0.2888
  563MPD2    N1 8360   0.383   0.900  15.390 -0.2232 -0.2855 -0.6171
  563MPD2    H7 8361   0.316   0.929  15.319  0.1827  0.2570 -0.7773
  564TMC3    C1 8362   0.313   0.984  15.592  0.1937 -0.6291 -0.2500
  564TMC3    C2 8363   0.187   0.976  15.539 -0.0669 -0.4351 -0.1233
  564TMC3    C3 8364   0.100   0.898  15.610  0.3299  0.1522  0.1087
  564TMC3    C4 8365   0.359   0.909  15.700 -0.4335  0.2192 -0.3311
  564TMC3    C5 8366   0.266   0.829  15.767 -0.0813  0.5673 -0.9344
  564TMC3    C6 8367   0.141   0.826  15.715  0.0329 -0.7334  0.2787
  564TMC3     C 8368   0.417   0.989  15.491  0.2323 -0.0318 -0.3194
  564TMC3     O 8369   0.531   1.009  15.537 -0.6024 -0.1162  0.1717
  564TMC3     H 8370   0.167   1.045  15.459  0.7618 -2.2579 -1.9057
  564TMC3    H1 8371   0.463   0.896  15.728 -0.2058 -0.4754 -1.4740
  564TMC3    H2 8372   0.075   0.771  15.781 -0.6820 -1.8787 -1.3862
  564TMC3    C7 8373   0.314   0.697  15.814 -0.0439 -0.2429 -0.3702
  564TMC3    C8 8374   4.708   0.835  15.541  0.0368  0.0312  0.1203
  564TMC3    O1 8375   0.414   0.687  15.889  0.0477  0.0547  0.1492
  564TMC3    O2 8376   4.626   0.779  15.610  0.1323 -0.7408 -0.7761
  565TMC3    C1 8377   1.657   1.257  10.375 -0.2936  0.1077 -0.5381
  565TMC3    C2 8378   1.539   1.229  10.437  0.1884 -0.6592  0.4821
  565TMC3    C3 8379   1.472   1.125  10.376 -0.1871  1.1621 -0.5438
  565TMC3    C4 8380   1.710   1.187  10.267 -0.1296 -0.8285 -0.9001
  565TMC3    C5 8381   1.646   1.081  10.216  0.0317 -0.0654 -0.4013
  565TMC3    C6 8382   1.520   1.050  10.270  0.3739 -0.3673 -0.0784
  565TMC3     C 8383   1.740   1.363  10.424  0.3903  0.6351  0.5846
  565TMC3     O 8384   1.835   1.394  10.352 -0.5902 -0.5092 -0.0234
  565TMC3     H 8385   1.491   1.306  10.497  2.2403  1.9983 -1.2796
  565TMC3    H1 8386   1.810   1.205  10.231  0.1816 -2.8375 -1.0603
  565TMC3    H2 8387   1.443   0.993  10.221  0.0721 -0.5273  0.5792
  565TMC3    C7 8388   1.692   1.019  10.091  0.0188  0.2762  0.0956
  565TMC3    C8 8389   1.323   1.119  10.391 -0.1326 -0.3656  0.1866
  565TMC3    O1 8390   1.782   1.076  10.033 -0.2432  1.0738  0.2590
  565TMC3    O2 8391   1.255   1.090  10.293  0.2696  0.5697  0.0446
  566MPD2     C 8392   2.433   3.551  13.894 -0.9269  0.0650  0.1212
  566MPD2    C1 8393   2.467   3.464  13.793 -0.4986  0.7201 -0.2766
  566MPD2    C2 8394   2.398   3.452  13.677 -0.1069 -0.5640  0.0791
  566MPD2    C3 8395   2.292   3.532  13.655  0.4690 -0.4121  0.1816
  566MPD2    C4 8396   2.252   3.624  13.754 -0.0459 -0.4315  0.2977
  566MPD2    C5 8397   2.321   3.631  13.868  0.2327  0.7892 -0.0888
  566MPD2     H 8398   2.420   3.375  13.603 -0.4088 -2.8120  2.3033
  566MPD2    H1 8399   2.177   3.701  13.739 -1.1734 -1.4045  0.8842
  566MPD2    H2 8400   2.492   3.565  13.984 -0.3470 -0.9087 -0.1110
  566MPD2    H3 8401   2.294   3.702  13.946 -3.0425 -0.4141 -0.1241
  566MPD2     N 8402   2.222   3.542  13.532 -0.1366 -0.3330  0.4162
  566MPD2    H5 8403   2.141   3.603  13.529  1.1186  1.3345  0.7757
  566MPD2    N1 8404   2.588   3.390  13.812 -0.9041 -1.0101  0.3509
  566MPD2    H7 8405   2.632   3.394  13.903  0.8984 -0.1385 -0.5736
  567TMC3    C1 8406   2.783   3.272  13.764  0.4303 -0.6785 -0.0308
  567TMC3    C2 8407   2.895   3.297  13.692  0.2440 -0.1063  0.3853
  567TMC3    C3 8408   3.015   3.282  13.758  0.5003  0.9424 -0.8017
  567TMC3    C4 8409   2.783   3.235  13.895 -0.4408  0.1745  0.3479
  567TMC3    C5 8410   2.903   3.197  13.948 -0.9416 -0.2503  0.0252
  567TMC3    C6 8411   3.017   3.225  13.885 -0.4107 -0.2152 -0.0958
  567TMC3     C 8412   2.657   3.321  13.717 -0.0746  0.1701  0.6940
  567TMC3     O 8413   2.631   3.304  13.598  0.4768 -0.1041  0.6402
  567TMC3     H 8414   2.889   3.330  13.589 -0.6133  0.9288  0.7674
  567TMC3    H1 8415   2.696   3.196  13.947 -1.7823 -0.7744 -2.6179
  567TMC3    H2 8416   3.109   3.193  13.933  1.4271  1.8516 -2.2411
  567TMC3    C7 8417   2.908   3.133  14.072  0.0686 -0.0338  0.4001
  567TMC3    C8 8418   3.077   3.409  13.753  0.0336  0.4915  0.2792
  567TMC3    O1 8419   2.999   3.054  14.091  0.9248  0.0607  0.0003
  567TMC3    O2 8420   3.035   3.487  13.673 -0.3031  0.3461 -1.1429
  568MPD2     C 8421   0.470   4.192  15.751  0.6367 -0.9243  0.3131
  568MPD2    C1 8422   0.349   4.202  15.826  0.1405  0.3199  0.8182
  568MPD2    C2 8423   0.260   4.304  15.794  0.5206  0.1565  0.4734
  568MPD2    C3 8424   0.293   4.389  15.689  0.4595 -0.2420  1.3676
  568MPD2    C4 8425   0.406   4.373  15.612  0.8563 -0.3961  0.1348
  568MPD2    C5 8426   0.491   4.273  15.648  0.2631  0.2463 -0.1627
  568MPD2     H 8427   0.168   4.320  15.848  0.8376 -0.9379  1.3361
  568MPD2    H1 8428   0.424   4.417  15.515  1.2535 -2.4360 -0.7205
  568MPD2    H2 8429   0.547   4.118  15.773  3.5659  1.9879 -0.2838
  568MPD2    H3 8430   0.576   4.267  15.580  0.7570  0.5200  0.4240
  568MPD2     N 8431   0.195   4.485  15.653 -0.2353  0.3435 -0.3500
  568MPD2    H5 8432   0.109   4.486  15.707  0.2482 -1.2922  0.4377
  568MPD2    N1 8433   0.339   4.119  15.935  0.4384 -0.2227 -0.0037
  568MPD2    H7 8434   0.417   4.058  15.956 -0.0935 -1.1924 -0.8868
  569TMC3    C1 8435   0.098   4.676  15.566 -0.5509  0.0076  0.2072
  569TMC3    C2 8436   0.080   4.719  15.699  0.2242  0.6350  0.5194
  569TMC3    C3 8437   0.012   0.114  15.715  0.6690  0.2593 -0.3401
  569TMC3    C4 8438   0.061   0.026  15.453 -0.0873 -0.8819  0.4230
  569TMC3    C5 8439   4.699   0.131  15.481 -0.0576 -0.2022  0.6012
  569TMC3    C6 8440   4.685   0.183  15.605 -0.1192 -0.2155  0.3846
  569TMC3     C 8441   0.193   4.567  15.548 -0.0468 -0.6886  0.4167
  569TMC3     O 8442   0.279   4.578  15.459 -0.1293 -0.4566 -0.4116
  569TMC3     H 8443   0.129   4.678  15.787  1.9181  0.9118 -0.2892
  569TMC3    H1 8444   0.096   4.702  15.361 -0.6764 -1.2658  0.3858
  569TMC3    H2 8445   4.624   0.270  15.627 -0.3550 -0.2912  0.0240
  569TMC3    C7 8446   4.683   0.216  15.364  0.2923 -1.5881  0.1324
  569TMC3    C8 8447   0.027   0.183  15.846  0.2269 -0.1558 -0.3600
  569TMC3    O1 8448   0.000   0.169  15.259 -0.1651 -0.1976 -0.2186
  569TMC3    O2 8449   0.080   0.121  15.937  0.8716 -0.2666 -0.1299
  570TMC3    C1 8450   4.120   2.971  15.853  0.6105  0.0476  0.8043
  570TMC3    C2 8451   4.237   2.925  15.802  0.0089  0.3012 -0.2021
  570TMC3    C3 8452   4.355   2.996  15.822 -0.3126  0.6429  0.4605
  570TMC3    C4 8453   4.119   3.094  15.918  0.2017  0.7269 -0.4352
  570TMC3    C5 8454   4.237   3.165  15.933  0.2540 -1.3903  0.2981
  570TMC3    C6 8455   4.355   3.120  15.885  0.0030  0.0694 -0.7286
  570TMC3     C 8456   4.027   2.863  15.886 -0.1759  0.1625  0.3372
  570TMC3     O 8457   4.040   2.751  15.837  0.4016  0.5015  0.6957
  570TMC3     H 8458   4.231   2.831  15.747 -1.7532  0.3648 -0.1357
  570TMC3    H1 8459   4.030   3.146  15.951 -1.3399 -2.0285 -0.2590
  570TMC3    H2 8460   4.446   3.176  15.904 -0.3650  0.5061 -0.2594
  570TMC3    C7 8461   4.228   3.307  15.945  0.0221 -0.0205 -0.1289
  570TMC3    C8 8462   4.475   2.979  15.739  0.3863 -0.4395 -0.6040
  570TMC3    O1 8463   4.124   3.354  15.988  0.3941 -0.0395  0.2602
  570TMC3    O2 8464   4.559   3.065  15.737 -0.1141  0.3950 -0.2810
  571MPD2     C 8465   2.256   4.338  17.317  0.2412  0.1628 -0.4358
  571MPD2    C1 8466   2.128   4.388  17.300 -0.3152  0.0859 -0.7925
  571MPD2    C2 8467   2.056   4.450  17.403  0.7477  0.5537 -0.5032
  571MPD2    C3 8468   2.126   4.485  17.518  0.0912 -0.0439  0.3577
  571MPD2    C4 8469   2.256   4.442  17.538 -0.0523  0.0022  0.5626
  571MPD2    C5 8470   2.318   4.365  17.441  0.9472 -0.4033 -0.2635
  571MPD2     H 8471   1.952   4.482  17.397  0.0548 -1.4859  0.5987
  571MPD2    H1 8472   2.317   4.469  17.622  1.1694  1.0061 -0.6535
  571MPD2    H2 8473   2.308   4.297  17.231  0.2412  0.6684 -0.6772
  571MPD2    H3 8474   2.422   4.343  17.462  0.5320 -0.1843  2.0050
  571MPD2     N 8475   2.074   4.571  17.623 -0.7173  0.3015  0.1588
  571MPD2    H5 8476   2.137   4.609   0.006 -2.2570  1.0766  1.1149
  571MPD2    N1 8477   2.071   4.362  17.174 -0.6354  0.0662 -0.4841
  571MPD2    H7 8478   2.116   4.294  17.114  1.0721  1.3072 -0.6153
  572TMC3    C1 8479   1.918   4.690   0.060 -0.2214 -0.0838  0.2078
  572TMC3    C2 8480   1.802   4.675   0.131 -0.1473  0.0519 -0.4830
  572TMC3    C3 8481   1.798   0.013   0.257 -0.0319  0.5670  0.3118
  572TMC3    C4 8482   2.019   0.058   0.096 -0.2064 -0.9153 -0.2798
  572TMC3    C5 8483   1.986   0.146   0.202 -0.2338  0.3791 -0.9658
  572TMC3    C6 8484   1.883   0.121   0.286  0.6142  0.4451 -0.5150
  572TMC3     C 8485   1.937   4.594  17.640  0.2398  0.3912 -0.0681
  572TMC3     O 8486   1.841   4.528  17.600 -0.4458 -0.1828  0.4509
  572TMC3     H 8487   1.749   4.583   0.110  2.7131 -2.1256  1.9320
  572TMC3    H1 8488   2.100   0.074   0.026 -0.1263 -1.2506 -0.2635
  572TMC3    H2 8489   1.876   0.176   0.379  0.7981  0.5248 -0.5480
  572TMC3    C7 8490   2.044   0.274   0.198 -0.6947  0.3126 -1.2420
  572TMC3    C8 8491   1.685   4.702   0.350 -0.3060  0.0940 -0.5589
  572TMC3    O1 8492   2.115   0.303   0.104 -0.2801  0.2379 -0.1665
  572TMC3    O2 8493   1.586   4.646   0.302 -0.9344 -0.5507 -0.0601
  573MPD2     C 8494   4.013   0.305   0.835 -0.0798 -0.0380 -0.0211
  573MPD2    C1 8495   3.930   0.403   0.878  0.8158  0.1007 -0.2126
  573MPD2    C2 8496   3.838   0.469   0.794  0.2654  0.4207  0.1013
  573MPD2    C3 8497   3.829   0.427   0.662  0.2881  0.5978 -1.1285
  573MPD2    C4 8498   3.915   0.329   0.616  0.2623 -0.0509  0.2463
  573MPD2    C5 8499   4.009   0.272   0.703  0.5381 -0.6404 -0.0023
  573MPD2     H 8500   3.774   0.547   0.833  0.1768  0.2336  0.3282
  573MPD2    H1 8501   3.894   0.281   0.521 -2.8468  2.1399 -0.1668
  573MPD2    H2 8502   4.084   0.253   0.898 -2.1675 -1.1930  1.3343
  573MPD2    H3 8503   4.080   0.202   0.661  1.1414  1.2436 -2.1115
  573MPD2     N 8504   3.736   0.479   0.569 -0.3454  0.1384 -0.1315
  573MPD2    H5 8505   3.739   0.443   0.474 -1.1011 -0.1899 -0.0296
  573MPD2    N1 8506   3.935   0.422   1.018  0.0400  0.0070  0.1434
  573MPD2    H7 8507   4.008   0.365   1.060 -1.5265 -2.1826 -0.0853
  574TMC3    C1 8508   3.553   0.590   0.491  0.8671 -0.0808 -0.6339
  574TMC3    C2 8509   3.539   0.498   0.387  0.0924  0.9181 -0.4965
  574TMC3    C3 8510   3.496   0.542   0.268 -0.1775  0.0106  0.6169
  574TMC3    C4 8511   3.517   0.719   0.455  0.5949 -0.7632 -0.7843
  574TMC3    C5 8512   3.468   0.759   0.338 -0.0710  0.2612  0.2329
  574TMC3    C6 8513   3.454   0.667   0.236  0.1776  0.6977 -0.3183
  574TMC3     C 8514   3.639   0.578   0.604  0.0535 -0.6326 -0.3107
  574TMC3     O 8515   3.627   0.658   0.699  0.4994  0.2417  0.3831
  574TMC3     H 8516   3.559   0.395   0.412  1.3666  1.8519  2.3331
  574TMC3    H1 8517   3.527   0.791   0.535 -2.3976 -1.8983  0.6065
  574TMC3    H2 8518   3.429   0.704   0.137 -1.1233 -0.0247 -0.2657
  574TMC3    C7 8519   3.377   0.870   0.332 -0.2370 -0.5156 -0.5082
  574TMC3    C8 8520   3.501   0.439   0.162  0.0464  0.2150 -0.1378
  574TMC3    O1 8521   3.274   0.851   0.266 -0.2234  0.3863 -0.0566
  574TMC3    O2 8522   3.575   0.343   0.185  0.5332 -0.2588  0.3488
  575TMC3    C1 8523   0.429   1.219  10.408 -0.2989  0.4871  0.3253
  575TMC3    C2 8524   0.411   1.346  10.368  0.6343  0.0555  1.2536
  575TMC3    C3 8525   0.507   1.405  10.297  0.4546  0.1665  0.1343
  575TMC3    C4 8526   0.551   1.159  10.394 -0.0455  0.1112  0.3562
  575TMC3    C5 8527   0.648   1.224  10.327  0.6675  0.0167  0.5647
  575TMC3    C6 8528   0.626   1.345  10.266  0.9875 -0.7142  0.0944
  575TMC3     C 8529   0.310   1.143  10.439 -0.6965 -0.0139  0.5166
  575TMC3     O 8530   0.315   1.023  10.424 -0.9585  0.0186 -0.7622
  575TMC3     H 8531   0.322   1.403  10.391 -0.1918 -0.2592 -1.0982
  575TMC3    H1 8532   0.575   1.065  10.444  0.3174  0.6487  1.2001
  575TMC3    H2 8533   0.696   1.398  10.203  0.7778  0.2883  0.7034
  575TMC3    C7 8534   0.781   1.178  10.354  0.4397 -0.4699  0.5392
  575TMC3    C8 8535   0.493   1.549  10.255 -0.0740  0.6518 -0.5175
  575TMC3    O1 8536   0.868   1.191  10.270 -0.5677 -0.4385 -0.5698
  575TMC3    O2 8537   0.595   1.612  10.227  0.4512  0.7224 -0.1524
  576MPD2     C 8538   1.060   3.219  12.518  0.8445  0.0345  0.3933
  576MPD2    C1 8539   1.043   3.268  12.400 -0.8767 -0.2524  0.1858
  576MPD2    C2 8540   0.960   3.379  12.385  0.2446 -0.2988  0.4068
  576MPD2    C3 8541   0.887   3.430  12.489  0.2575 -0.1565 -0.0323
  576MPD2    C4 8542   0.880   3.353  12.602 -0.6181 -0.3242 -0.6511
  576MPD2    C5 8543   0.966   3.248  12.612  0.2516  0.1023  0.1296
  576MPD2     H 8544   0.934   3.428  12.292 -0.4044 -1.1576  0.1349
  576MPD2    H1 8545   0.805   3.365  12.679 -0.6022  0.9185 -0.8355
  576MPD2    H2 8546   1.129   3.138  12.543  0.8566 -0.1251 -0.1539
  576MPD2    H3 8547   0.966   3.188  12.702 -2.9372 -0.5236 -0.2666
  576MPD2     N 8548   0.803   3.539  12.473 -0.5205  0.2423  0.0557
  576MPD2    H5 8549   0.815   3.593  12.388 -1.5653  0.8849  0.3206
  576MPD2    N1 8550   1.108   3.225  12.283  0.2435 -0.8531  0.8209
  576MPD2    H7 8551   1.100   3.287  12.203 -0.4953 -1.0867  0.7202
  577TMC3    C1 8552   1.210   3.069  12.138  0.4423 -0.3933  0.5429
  577TMC3    C2 8553   1.254   2.943  12.117 -0.0254  0.3381  0.3793
  577TMC3    C3 8554   1.349   2.922  12.014 -0.1874 -0.1951 -0.1360
  577TMC3    C4 8555   1.249   3.175  12.058  0.3645  0.2435  0.1891
  577TMC3    C5 8556   1.319   3.150  11.943  0.2386  1.1302  0.4126
  577TMC3    C6 8557   1.370   3.023  11.921 -0.9554 -0.1676 -0.5142
  577TMC3     C 8558   1.160   3.099  12.267 -0.4705  0.6113  0.0072
  577TMC3     O 8559   1.181   3.014  12.354  0.1293 -0.1685 -0.1845
  577TMC3     H 8560   1.228   2.871  12.194  1.8723  1.3607  1.9667
  577TMC3    H1 8561   1.196   3.269  12.066  1.9720  1.1806 -0.1221
  577TMC3    H2 8562   1.427   3.003  11.831  0.0888  1.2055 -0.1532
  577TMC3    C7 8563   1.314   3.245  11.835  0.0469 -0.7859  0.0835
  577TMC3    C8 8564   1.412   2.796  12.005  0.9150  0.3511  0.6438
  577TMC3    O1 8565   1.317   3.365  11.855  0.0484 -0.1067  1.1554
  577TMC3    O2 8566   1.353   2.700  12.059 -0.1456  0.2128  0.3477
  578MPD2     C 8567   3.962   2.558   0.762 -1.1151 -0.1227 -0.8413
  578MPD2    C1 8568   3.958   2.422   0.735  0.5733 -0.2425 -0.3511
  578MPD2    C2 8569   3.990   2.345   0.849  0.6951  0.1097  0.3513
  578MPD2    C3 8570   4.014   2.397   0.976 -0.7672 -0.1879  0.8234
  578MPD2    C4 8571   4.013   2.531   0.994  0.3842 -0.3727 -0.0268
  578MPD2    C5 8572   3.983   2.616   0.887 -0.4238  0.2635  0.3128
  578MPD2     H 8573   3.985   2.237   0.842 -0.2764  0.1269  0.7308
  578MPD2    H1 8574   4.038   2.577   1.089 -0.3358 -0.6866  0.3216
  578MPD2    H2 8575   3.951   2.629   0.681 -0.9983 -0.2915 -1.0052
  578MPD2    H3 8576   3.982   2.723   0.905  1.6566 -0.2711  3.6024
  578MPD2     N 8577   4.053   2.307   1.075 -0.7073  0.0657 -0.7587
  578MPD2    H5 8578   4.044   2.208   1.054  1.0414 -0.1621 -0.4261
  578MPD2    N1 8579   3.927   2.377   0.608  0.5464 -0.4792  0.3643
  578MPD2    H7 8580   3.903   2.447   0.539 -1.3858 -2.2939 -0.7962
  579TMC3    C1 8581   4.154   2.236   1.289 -0.6635 -0.1627 -0.8905
  579TMC3    C2 8582   4.262   2.257   1.372  0.3498  0.4530  0.2055
  579TMC3    C3 8583   4.273   2.183   1.487  0.0403  0.5822  0.1300
  579TMC3    C4 8584   4.074   2.122   1.305 -0.2468  0.1479 -0.0683
  579TMC3    C5 8585   4.089   2.059   1.427 -0.3514 -0.3889  0.4128
  579TMC3    C6 8586   4.188   2.082   1.520  0.7998  0.0631 -0.4322
  579TMC3     C 8587   4.119   2.339   1.192  0.5550 -0.2125  0.1714
  579TMC3     O 8588   4.159   2.449   1.228  0.5990 -0.2503  0.5353
  579TMC3     H 8589   4.329   2.341   1.356 -1.8228  1.7325 -2.2929
  579TMC3    H1 8590   3.983   2.106   1.249 -1.4426 -0.8685  2.1528
  579TMC3    H2 8591   4.208   2.024   1.609 -0.0464  0.3052 -0.0871
  579TMC3    C7 8592   4.011   1.937   1.457  0.5185 -0.8313  0.0567
  579TMC3    C8 8593   4.374   2.216   1.580  0.2637  0.1640 -0.1754
  579TMC3    O1 8594   4.006   1.906   1.575 -0.6130  0.0921 -0.1889
  579TMC3    O2 8595   4.360   2.183   1.699 -0.4438  0.5573  0.6266
  580TMC3    C1 8596   3.986   1.852  11.412 -0.3651 -0.0363 -0.0170
  580TMC3    C2 8597   4.020   1.809  11.285  0.0021 -0.4070 -0.1605
  580TMC3    C3 8598   3.986   1.680  11.252 -0.3668 -0.2817 -0.4080
  580TMC3    C4 8599   3.914   1.769  11.493  0.2124 -0.3603 -0.2070
  580TMC3    C5 8600   3.878   1.643  11.446 -0.5464  0.1769 -0.5739
  580TMC3    C6 8601   3.906   1.595  11.322  0.2517  0.4659 -0.3188
  580TMC3     C 8602   4.027   1.988  11.451  0.0935  0.9593  0.2144
  580TMC3     O 8603   4.090   2.058  11.375  0.2725 -0.1504  0.2184
  580TMC3     H 8604   4.056   1.878  11.209 -0.7257  0.3257  0.1691
  580TMC3    H1 8605   3.887   1.801  11.593  3.5161  1.8122 -0.0047
  580TMC3    H2 8606   3.902   1.488  11.302 -3.4016  1.3299 -4.0896
  580TMC3    C7 8607   3.850   1.546  11.548 -0.3669  0.6844 -0.1668
  580TMC3    C8 8608   4.033   1.617  11.131 -1.0810  0.1867  0.2528
  580TMC3    O1 8609   3.893   1.571  11.658  0.5881  0.0183 -0.6263
  580TMC3    O2 8610   3.976   1.512  11.097  0.1339  0.0631 -0.2447
  581MPD2     C 8611   1.161   1.463  14.711  0.6646 -0.0751  0.3398
  581MPD2    C1 8612   1.201   1.587  14.734 -0.6744  0.9289  0.2246
  581MPD2    C2 8613   1.120   1.695  14.697 -0.4710  0.2902  0.2875
  581MPD2    C3 8614   0.995   1.672  14.637 -1.0916 -0.0424  0.4597
  581MPD2    C4 8615   0.960   1.538  14.614  0.0984 -0.1785  0.1484
  581MPD2    C5 8616   1.041   1.438  14.655 -0.7984  0.3511 -0.4846
  581MPD2     H 8617   1.161   1.794  14.706  0.5885 -0.1363  0.1704
  581MPD2    H1 8618   0.868   1.503  14.567  0.7203 -1.5995  0.0056
  581MPD2    H2 8619   1.234   1.384  14.721 -0.2536 -0.9627 -0.0406
  581MPD2    H3 8620   1.011   1.339  14.624  0.9063 -0.9940  2.1854
  581MPD2     N 8621   0.905   1.776  14.596 -0.4292 -0.2393 -0.0188
  581MPD2    H5 8622   0.936   1.871  14.616  1.4037 -1.1933  1.6822
  581MPD2    N1 8623   1.325   1.591  14.791 -0.3441  0.4057 -0.1705
  581MPD2    H7 8624   1.372   1.501  14.790 -2.4579 -0.7165  0.7297
  582TMC3    C1 8625   1.522   1.654  14.879  0.0795  0.5055  0.2121
  582TMC3    C2 8626   1.584   1.733  14.974  0.1857  0.2421 -0.2823
  582TMC3    C3 8627   1.681   1.678  15.056 -0.7726  0.6048  0.1864
  582TMC3    C4 8628   1.550   1.517  14.877 -0.7636  0.0787  0.2912
  582TMC3    C5 8629   1.631   1.466  14.970 -0.3131 -0.2334 -0.4553
  582TMC3    C6 8630   1.700   1.537  15.062  0.2170 -0.2800 -0.0876
  582TMC3     C 8631   1.397   1.700  14.825 -0.6179 -0.1214 -0.8711
  582TMC3     O 8632   1.367   1.819  14.839  0.4187 -0.3800  0.5130
  582TMC3     H 8633   1.546   1.830  15.002 -0.0080  0.4379 -1.2232
  582TMC3    H1 8634   1.521   1.447  14.799  0.7338  0.5093 -0.6580
  582TMC3    H2 8635   1.774   1.488  15.124 -0.0450  0.6477  0.9705
  582TMC3    C7 8636   1.651   1.325  14.977  0.2491 -0.0482  0.4353
  582TMC3    C8 8637   1.684   1.730  15.191  0.2460  0.1211 -1.0849
  582TMC3    O1 8638   1.772   1.302  14.980  0.1157 -0.6315 -0.3902
  582TMC3    O2 8639   1.587   1.794  15.230  0.3115  0.1866  0.6358
  583MPD2     C 8640   1.240   3.106  16.610 -0.0777 -0.0820 -0.0283
  583MPD2    C1 8641   1.220   3.198  16.507 -0.0255 -0.6408  0.0798
  583MPD2    C2 8642   1.135   3.307  16.530  0.1366 -0.0161  0.2046
  583MPD2    C3 8643   1.073   3.322  16.654  0.1303 -0.2109  0.5244
  583MPD2    C4 8644   1.085   3.218  16.744  0.4190 -0.0613  0.2864
  583MPD2    C5 8645   1.176   3.114  16.729 -0.3427 -0.5153 -0.9516
  583MPD2     H 8646   1.128   3.384  16.453 -0.7648 -1.8114 -1.5138
  583MPD2    H1 8647   1.036   3.215  16.841  0.7334  1.9735  0.5124
  583MPD2    H2 8648   1.302   3.018  16.595 -1.3731 -0.8972 -0.5568
  583MPD2    H3 8649   1.192   3.041  16.807  0.0318 -1.6210 -2.0683
  583MPD2     N 8650   0.996   3.444  16.669 -0.0709 -0.9529  0.0132
  583MPD2    H5 8651   1.008   3.503  16.587 -3.4940 -0.4700 -0.1671
  583MPD2    N1 8652   1.284   3.192  16.381  0.1935 -0.5124 -0.6482
  583MPD2    H7 8653   1.280   3.271  16.317  1.6688  1.6159  1.9059
  584TMC3    C1 8654   0.843   3.599  16.784  0.4788  0.1374 -0.0603
  584TMC3    C2 8655   0.890   3.710  16.721 -0.1189  0.9580 -0.8136
  584TMC3    C3 8656   0.892   3.829  16.783  0.0492 -0.3991  0.4381
  584TMC3    C4 8657   0.766   3.604  16.899 -0.0516 -0.1574 -0.1922
  584TMC3    C5 8658   0.755   3.732  16.947 -0.2802  0.9312 -0.0374
  584TMC3    C6 8659   0.819   3.841  16.891  0.4241  0.0299  0.1847
  584TMC3     C 8660   0.916   3.474  16.777 -0.8973  0.2302  0.1712
  584TMC3     O 8661   0.909   3.409  16.883  0.2569 -0.5976 -0.0059
  584TMC3     H 8662   0.939   3.687  16.627  0.2947  1.2051 -0.6593
  584TMC3    H1 8663   0.726   3.526  16.963  0.5533  0.8093  1.3405
  584TMC3    H2 8664   0.797   3.937  16.935 -1.1895 -0.4585  0.4359
  584TMC3    C7 8665   0.715   3.752  17.078  0.2910 -0.3456  0.3593
  584TMC3    C8 8666   0.929   3.946  16.713  0.3289  0.6791 -0.6377
  584TMC3    O1 8667   0.775   3.836  17.147  0.2844 -0.3554  0.6534
  584TMC3    O2 8668   0.923   3.938  16.596  0.4030 -0.1705  0.3796
  585MPD2     C 8669   0.986   2.399   0.048  0.3487 -0.1765 -0.0599
  585MPD2    C1 8670   0.867   2.460   0.014  0.6629 -0.0065 -0.2259
  585MPD2    C2 8671   0.803   2.429  17.584  0.8150 -0.1916 -0.0524
  585MPD2    C3 8672   0.876   2.365  17.478 -0.1680 -0.1555 -0.7616
  585MPD2    C4 8673   1.006   2.324  17.510  0.5111  0.0428  0.4185
  585MPD2    C5 8674   1.061   2.327  17.638  0.1889  0.2329 -0.4128
  585MPD2     H 8675   0.706   2.470  17.561 -0.0886 -0.5646  3.0922
  585MPD2    H1 8676   1.070   2.276  17.437 -0.9095 -1.0297 -0.1329
  585MPD2    H2 8677   1.021   2.410   0.150 -1.6776  2.9557  0.3033
  585MPD2    H3 8678   1.153   2.276  17.663 -0.6437 -0.9948  0.1466
  585MPD2     N 8679   0.826   2.344  17.345  0.0471 -0.0629 -0.0414
  585MPD2    H5 8680   0.886   2.309  17.272  1.5309  1.2728  0.5451
  585MPD2    N1 8681   0.798   2.550   0.098 -0.0811 -0.4181 -0.5977
  585MPD2    H7 8682   0.699   2.566   0.085 -0.2716 -2.8683 -2.2072
  586TMC3    C1 8683   0.675   2.347  17.167 -0.6980  0.0679 -0.3280
  586TMC3    C2 8684   0.773   2.292  17.087  0.4132  0.4552  0.6030
  586TMC3    C3 8685   0.735   2.266  16.954 -0.5407 -0.3353  0.1440
  586TMC3    C4 8686   0.544   2.367  17.124 -0.0177 -0.3965 -0.5228
  586TMC3    C5 8687   0.515   2.334  16.993 -0.3739  0.2728  0.5884
  586TMC3    C6 8688   0.608   2.283  16.904 -0.1093  0.3666 -0.4362
  586TMC3     C 8689   0.694   2.370  17.308 -0.5807 -0.9850 -0.4779
  586TMC3     O 8690   0.601   2.401  17.375  0.6391  0.0774  0.1947
  586TMC3     H 8691   0.877   2.283  17.117  0.7098 -0.5933 -0.7185
  586TMC3    H1 8692   0.465   2.394  17.194  0.7693  1.3296 -0.2978
  586TMC3    H2 8693   0.587   2.247  16.804 -0.9941 -1.9379  0.5917
  586TMC3    C7 8694   0.370   2.324  16.952  0.4385 -0.4702 -0.1966
  586TMC3    C8 8695   0.808   2.151  16.905  0.1396 -0.6472  0.6376
  586TMC3    O1 8696   0.295   2.386  17.024 -1.2884 -0.0156 -0.6401
  586TMC3    O2 8697   0.863   2.082  16.991  0.4283  0.6465 -0.5048
  587TMC3    C1 8698   2.649   0.861  16.047  0.5841  0.2600 -0.5743
  587TMC3    C2 8699   2.675   0.984  16.084  0.4432 -0.8179  0.5585
  587TMC3    C3 8700   2.795   1.006  16.147  1.0804 -0.4207 -0.4365
  587TMC3    C4 8701   2.739   0.760  16.060 -0.0152  0.4870 -0.0290
  587TMC3    C5 8702   2.857   0.787  16.129  0.7289 -0.7639  0.0525
  587TMC3    C6 8703   2.890   0.909  16.171  0.3170 -0.5085  0.2228
  587TMC3     C 8704   2.522   0.828  15.977 -0.1369 -0.2004 -0.3664
  587TMC3     O 8705   2.525   0.735  15.904  0.0744 -0.1735  0.0007
  587TMC3     H 8706   2.612   1.069  16.058 -1.2951 -0.8290  4.6790
  587TMC3    H1 8707   2.719   0.661  16.022 -0.0886  1.3487 -2.2870
  587TMC3    H2 8708   2.984   0.925  16.222  1.3916  0.5079 -2.0664
  587TMC3    C7 8709   2.941   0.676  16.153 -0.2158  0.2808  0.5871
  587TMC3    C8 8710   2.829   1.149  16.175  0.0534 -0.8979 -0.3167
  587TMC3    O1 8711   2.938   0.592  16.064 -0.1771 -0.2627  0.6136
  587TMC3    O2 8712   2.949   1.169  16.175 -0.0707 -0.1108  0.4304
  588TMC3    C1 8713   1.099   3.769   9.432 -0.3380  0.3709 -0.4299
  588TMC3    C2 8714   1.025   3.655   9.415 -0.2161 -0.4279  0.0054
  588TMC3    C3 8715   1.076   3.549   9.484 -0.0148  0.1895  0.2970
  588TMC3    C4 8716   1.195   3.780   9.522 -0.2598 -0.5291  0.4818
  588TMC3    C5 8717   1.231   3.668   9.593 -0.5734 -0.4089 -0.0828
  588TMC3    C6 8718   1.182   3.548   9.565 -0.6275  0.7062  0.1385
  588TMC3     C 8719   1.051   3.892   9.381  0.2862  0.5686  0.4864
  588TMC3     O 8720   1.010   3.890   9.263  0.0235  0.2961  0.1020
  588TMC3     H 8721   0.944   3.645   9.344 -0.3920  0.0788  0.1348
  588TMC3    H1 8722   1.243   3.877   9.533 -0.5828 -0.4677  1.3434
  588TMC3    H2 8723   1.214   3.473   9.637  3.6840  1.6678 -0.7974
  588TMC3    C7 8724   1.342   3.683   9.683  0.6456  0.4573 -0.3141
  588TMC3    C8 8725   1.018   3.427   9.442  0.2812 -0.2154  0.1338
  588TMC3    O1 8726   1.428   3.596   9.686 -0.5180 -0.3970  0.4442
  588TMC3    O2 8727   0.904   3.431   9.402  0.3948 -0.0165  0.0045
  589TMC3    C1 8728   0.175   0.903   0.842  0.4778 -0.2408 -0.7294
  589TMC3    C2 8729   0.182   0.949   0.970 -0.3676  0.0958  0.5359
  589TMC3    C3 8730   0.300   0.927   1.038  0.0675  0.4598  0.4343
  589TMC3    C4 8731   0.267   0.818   0.788 -0.2001 -0.0272  0.1213
  589TMC3    C5 8732   0.375   0.787   0.861 -0.3078  0.4102  0.1681
  589TMC3    C6 8733   0.399   0.845   0.986  0.4806  0.2621  0.1296
  589TMC3     C 8734   0.050   0.910   0.766 -0.3532 -0.5867  0.4485
  589TMC3     O 8735   0.037   0.868   0.650  0.4257  0.5255 -0.3193
  589TMC3     H 8736   0.105   1.016   1.009 -2.3174 -2.1377  0.5502
  589TMC3    H1 8737   0.258   0.783   0.685 -3.1565 -0.5073  0.5361
  589TMC3    H2 8738   0.472   0.808   1.057 -0.7729 -1.2168  0.6547
  589TMC3    C7 8739   0.450   0.666   0.827 -0.0176 -0.2999  0.2657
  589TMC3    C8 8740   0.344   1.034   1.124  0.7312  0.2806  0.9996
  589TMC3    O1 8741   0.394   0.580   0.765  0.3338 -0.1193 -0.0908
  589TMC3    O2 8742   0.270   1.091   1.202  0.1680 -0.0837 -0.3933
  590MPD2     C 8743   3.424   4.066  16.579 -0.4916 -0.3734  0.3359
  590MPD2    C1 8744   3.377   4.117  16.462 -0.3668  0.3262 -0.5165
  590MPD2    C2 8745   3.468   4.164  16.365  0.0445  0.4762 -0.1226
  590MPD2    C3 8746   3.602   4.154  16.388 -0.0939  0.0677  0.1242
  590MPD2    C4 8747   3.642   4.075  16.500 -0.3638  0.1923 -0.8949
  590MPD2    C5 8748   3.557   4.031  16.591 -0.7581 -0.3065  1.1250
  590MPD2     H 8749   3.438   4.204  16.269 -1.2133  0.4190  0.2402
  590MPD2    H1 8750   3.747   4.055  16.518 -0.4751  0.3574 -0.0676
  590MPD2    H2 8751   3.360   4.048  16.666 -0.5075 -1.2526  0.1494
  590MPD2    H3 8752   3.599   3.991  16.683 -1.4801 -0.8646  1.2089
  590MPD2     N 8753   3.690   4.213  16.301  0.1827 -0.9219 -0.1619
  590MPD2    H5 8754   3.649   4.273  16.229  0.3921  0.3415  0.7642
  590MPD2    N1 8755   3.236   4.133  16.463 -0.5952 -0.7987  0.2727
  590MPD2    H7 8756   3.190   4.109  16.550 -0.8099  1.2687  0.7475
  591TMC3    C1 8757   3.880   4.270  16.190  0.0253  0.2100 -0.1801
  591TMC3    C2 8758   4.003   4.232  16.147 -0.8636 -0.2902 -0.5612
  591TMC3    C3 8759   4.056   4.306  16.046 -0.2598  0.0805  0.3701
  591TMC3    C4 8760   3.818   4.387  16.139  0.4984 -0.6232  0.1613
  591TMC3    C5 8761   3.874   4.451  16.042 -0.3809 -0.0037 -0.3964
  591TMC3    C6 8762   3.995   4.413  15.992  0.7750 -0.5413  0.0791
  591TMC3     C 8763   3.826   4.205  16.300 -0.0671 -0.7713 -0.5065
  591TMC3     O 8764   3.903   4.146  16.372  0.0637 -0.1691  0.3191
  591TMC3     H 8765   4.037   4.135  16.181 -1.5586 -0.0523  0.7824
  591TMC3    H1 8766   3.728   4.427  16.185  0.4930  2.4723 -2.5696
  591TMC3    H2 8767   4.033   4.446  15.896  0.1080 -1.8329 -0.6369
  591TMC3    C7 8768   3.782   4.504  15.948  0.0768 -0.2387 -0.1037
  591TMC3    C8 8769   4.187   4.266  15.987 -0.1497 -0.9743  0.5234
  591TMC3    O1 8770   3.665   4.468  15.959 -0.3727 -0.0680 -0.1386
  591TMC3    O2 8771   4.205   4.286  15.870  0.0783 -0.5511  0.5843
  592MPD2     C 8772   0.419   1.433  11.096  0.4217 -0.1376  0.4890
  592MPD2    C1 8773   0.393   1.495  11.217  0.6714  1.1483  0.1683
  592MPD2    C2 8774   0.319   1.419  11.310 -0.1076  0.7637 -0.5346
  592MPD2    C3 8775   0.281   1.293  11.283 -0.8772 -0.1401 -0.2037
  592MPD2    C4 8776   0.302   1.237  11.163  0.3766  0.0052  0.8833
  592MPD2    C5 8777   0.372   1.310  11.070 -0.7812  0.2521  0.3178
  592MPD2     H 8778   0.265   1.461  11.395 -0.0300  1.8362 -1.0107
  592MPD2    H1 8779   0.285   1.133  11.138  0.0069  0.4742 -0.8277
  592MPD2    H2 8780   0.474   1.490  11.023 -0.2192  0.1005  0.1865
  592MPD2    H3 8781   0.398   1.268  10.973  2.5943  1.0413  0.9100
  592MPD2     N 8782   0.199   1.229  11.384  0.0901 -0.5025  0.7753
  592MPD2    H5 8783   0.179   1.284  11.467 -1.2605  0.4545 -0.1928
  592MPD2    N1 8784   0.433   1.631  11.233 -0.5305  0.0977 -0.3412
  592MPD2    H7 8785   0.487   1.667  11.155 -1.6847  1.1028 -0.6721
  593TMC3    C1 8786   0.468   1.826  11.367 -0.0794 -0.2746 -0.4740
  593TMC3    C2 8787   0.408   1.890  11.471 -0.7410 -0.2240  0.3039
  593TMC3    C3 8788   0.413   2.024  11.472 -0.1493 -0.5001  0.1770
  593TMC3    C4 8789   0.536   1.887  11.266 -0.6255 -0.0390  0.4902
  593TMC3    C5 8790   0.536   2.023  11.277  0.0762  0.0018 -0.2624
  593TMC3    C6 8791   0.479   2.094  11.380 -0.0431  0.5016  0.3134
  593TMC3     C 8792   0.405   1.695  11.349  0.4613  0.2431  0.8080
  593TMC3     O 8793   0.349   1.652  11.450  0.5990 -0.0657  0.1365
  593TMC3     H 8794   0.342   1.846  11.546 -2.4125 -0.5473 -1.3648
  593TMC3    H1 8795   0.588   1.837  11.185 -1.8671 -1.8863  0.8305
  593TMC3    H2 8796   0.461   2.201  11.375  1.6710  0.8944  2.8273
  593TMC3    C7 8797   0.600   2.106  11.173 -0.2994  0.1420  0.1191
  593TMC3    C8 8798   0.328   2.097  11.561  0.0973  0.4462  0.2848
  593TMC3    O1 8799   0.633   2.219  11.213 -0.0298 -0.1045 -0.0242
  593TMC3    O2 8800   0.243   2.029  11.618 -0.0540  0.1126 -0.0063
  594MPD2     C 8801   2.750   0.737  13.625 -0.0534  1.0822 -0.3720
  594MPD2    C1 8802   2.752   0.753  13.760  0.3803 -0.0337 -0.5723
  594MPD2    C2 8803   2.849   0.834  13.814  0.2336 -0.3840  0.2490
  594MPD2    C3 8804   2.923   0.913  13.736 -0.7941  0.3084  0.0512
  594MPD2    C4 8805   2.911   0.909  13.596  0.3913 -0.4216 -0.1694
  594MPD2    C5 8806   2.826   0.814  13.544  0.0656  0.0344 -0.7120
  594MPD2     H 8807   2.869   0.836  13.920 -0.3600 -1.6792  0.3864
  594MPD2    H1 8808   2.959   0.973  13.523  0.2126  0.5289  0.5467
  594MPD2    H2 8809   2.671   0.679  13.578 -0.4567  0.7118  0.7665
  594MPD2    H3 8810   2.812   0.812  13.436  1.3105 -1.3238 -0.8528
  594MPD2     N 8811   3.010   1.003  13.795 -0.0047 -0.9898 -0.3768
  594MPD2    H5 8812   3.009   1.003  13.896 -1.5634  2.0184 -0.3699
  594MPD2    N1 8813   2.656   0.686  13.842 -0.9137 -0.5220 -0.1346
  594MPD2    H7 8814   2.584   0.634  13.792 -0.6608 -1.6056  0.6357
  595TMC3    C1 8815   3.364   1.254  13.907  0.9583 -0.3880  0.8394
  595TMC3    C2 8816   3.290   1.185  13.813 -0.2100  0.8046 -0.3279
  595TMC3    C3 8817   3.158   1.182  13.828  0.0624 -0.4671  0.0521
  595TMC3    C4 8818   3.303   1.301  14.023  1.3749  0.1034 -0.0142
  595TMC3    C5 8819   3.168   1.294  14.024 -0.2755 -0.1175  0.1573
  595TMC3    C6 8820   3.093   1.245  13.925  0.2727  0.2741 -0.9870
  595TMC3     C 8821   3.485   1.186  13.952 -0.0741 -0.6846 -0.3702
  595TMC3     O 8822   3.481   1.144  14.070 -0.0062  0.1333 -0.2808
  595TMC3     H 8823   3.346   1.136  13.734 -0.2641  0.1409  0.0426
  595TMC3    H1 8824   3.351   1.347  14.108 -0.8754  0.4997  1.0334
  595TMC3    H2 8825   2.985   1.245  13.933  0.3556  0.3090  0.1098
  595TMC3    C7 8826   3.097   1.304  14.147  0.6948  0.2261 -0.6523
  595TMC3    C8 8827   3.090   1.099  13.734 -0.2619 -0.2019 -0.5609
  595TMC3    O1 8828   2.987   1.354  14.150 -0.3014  0.0438 -0.0117
  595TMC3    O2 8829   3.119   1.104  13.617 -0.6630 -0.5872  0.6737
  596MPD2     C 8830   2.028   3.122  16.453  0.8704  0.2791  0.2973
  596MPD2    C1 8831   1.957   3.216  16.368  0.5725 -0.2693  0.1081
  596MPD2    C2 8832   1.979   3.208  16.228 -0.6641 -0.2375  0.7212
  596MPD2    C3 8833   2.059   3.110  16.169  0.1066  0.3006 -0.4780
  596MPD2    C4 8834   2.130   3.027  16.250  0.0623  0.5918  0.3701
  596MPD2    C5 8835   2.113   3.036  16.387 -0.3115  0.2924  0.2540
  596MPD2     H 8836   1.942   3.289  16.167  0.1955 -0.4172 -0.0504
  596MPD2    H1 8837   2.197   2.951  16.210 -0.8700  0.1328 -0.3100
  596MPD2    H2 8838   2.038   3.119  16.561  0.0784  1.8792  0.4100
  596MPD2    H3 8839   2.177   2.981  16.455 -1.5416 -0.5860  0.6967
  596MPD2     N 8840   2.075   3.113  16.029 -0.3694 -0.1308 -0.5644
  596MPD2    H5 8841   2.143   3.044  16.000  0.8034  0.6812  0.2052
  596MPD2    N1 8842   1.909   3.336  16.424  0.2019  0.6439 -0.8581
  596MPD2    H7 8843   1.878   3.405  16.357 -1.0231  0.9696  0.0526
  597TMC3    C1 8844   1.907   3.505  16.575  0.5074  0.7341 -0.0293
  597TMC3    C2 8845   1.992   3.587  16.512 -0.5547 -1.1267 -0.1129
  597TMC3    C3 8846   1.970   3.722  16.524  0.0915 -0.0913  0.6306
  597TMC3    C4 8847   1.817   3.556  16.665 -0.1349  0.0275 -0.3293
  597TMC3    C5 8848   1.806   3.691  16.682 -0.7303 -0.5415  0.2224
  597TMC3    C6 8849   1.874   3.777  16.601  0.1045 -0.6923 -0.2089
  597TMC3     C 8850   1.915   3.363  16.556 -0.3365  0.1169  0.4043
  597TMC3     O 8851   1.894   3.286  16.650 -0.0149  0.9712  0.0516
  597TMC3     H 8852   2.073   3.553  16.448  0.4562  0.2538  0.4466
  597TMC3    H1 8853   1.756   3.493  16.728 -0.2324  0.4935  0.0477
  597TMC3    H2 8854   1.879   3.881  16.632  0.2323 -0.5858 -0.5911
  597TMC3    C7 8855   1.696   3.730  16.767  0.8746 -0.4469 -0.6181
  597TMC3    C8 8856   2.075   3.811  16.480 -0.1522 -0.7290  0.4818
  597TMC3    O1 8857   1.663   3.648  16.848  0.7834 -0.3654 -0.3963
  597TMC3    O2 8858   2.058   3.929  16.466  0.1411  0.0321 -0.1183
  598TMC3    C1 8859   0.200   0.212  14.820 -0.0039  0.4433 -0.1724
  598TMC3    C2 8860   0.157   0.087  14.818  0.6096 -0.2254 -0.9889
  598TMC3    C3 8861   0.110   0.039  14.704  0.7677 -0.6120 -0.2552
  598TMC3    C4 8862   0.207   0.293  14.709 -0.0907  0.2940  0.2446
  598TMC3    C5 8863   0.171   0.232  14.590 -0.1205 -0.3109 -0.0801
  598TMC3    C6 8864   0.125   0.101  14.587 -0.2204 -0.2197  0.0776
  598TMC3     C 8865   0.276   0.264  14.931  0.1110 -0.9767  0.2850
  598TMC3     O 8866   0.326   0.376  14.919 -0.1226 -0.1121  0.1140
  598TMC3     H 8867   0.142   0.034  14.911 -2.4186 -1.1958 -2.0499
  598TMC3    H1 8868   0.253   0.391  14.714  1.0231 -0.2263  0.1052
  598TMC3    H2 8869   0.088   0.057  14.495  0.6947 -0.0100 -0.3926
  598TMC3    C7 8870   0.173   0.308  14.462  1.0903  0.1738 -0.2458
  598TMC3    C8 8871   0.016   4.648  14.704 -0.0464  0.7302  0.4109
  598TMC3    O1 8872   0.092   0.266  14.378 -0.3583  0.0062 -0.0175
  598TMC3    O2 8873   0.038   4.561  14.619  0.0934 -0.5905  0.2099
  599MPD2     C 8874   0.462   2.644  15.685 -0.2012 -0.5282  0.0257
  599MPD2    C1 8875   0.402   2.524  15.676 -0.3743  0.0840  0.8274
  599MPD2    C2 8876   0.268   2.506  15.712 -0.9693 -0.1199  0.0036
  599MPD2    C3 8877   0.200   2.618  15.760  0.2820 -0.2568  0.5037
  599MPD2    C4 8878   0.257   2.744  15.750 -0.2197 -0.1446 -0.1889
  599MPD2    C5 8879   0.391   2.754  15.719 -0.4340 -0.3331 -0.5866
  599MPD2     H 8880   0.230   2.404  15.710  0.8981 -0.8547  2.9070
  599MPD2    H1 8881   0.200   2.829  15.785  0.3478 -0.8664  2.4960
  599MPD2    H2 8882   0.563   2.656  15.649 -0.2358 -1.0598 -0.2436
  599MPD2    H3 8883   0.430   2.854  15.702 -0.6929 -0.2832 -0.9039
  599MPD2     N 8884   0.070   2.625  15.828 -0.1108 -0.2351  0.0855
  599MPD2    H5 8885   0.043   2.707  15.882 -1.2299  0.9992 -2.3229
  599MPD2    N1 8886   0.500   2.424  15.635  0.5678  0.2579 -0.5542
  599MPD2    H7 8887   0.595   2.458  15.627  0.9169 -0.7856 -0.8229
  600TMC3    C1 8888   4.596   2.554  15.937 -0.4894 -0.1828  0.2864
  600TMC3    C2 8889   4.531   2.449  15.999 -0.1318  0.1715  0.5483
  600TMC3    C3 8890   4.418   2.486  16.075  0.3100 -0.2121  0.0211
  600TMC3    C4 8891   4.571   2.687  15.959 -0.3613  0.3564 -0.2292
  600TMC3    C5 8892   4.473   2.717  16.046  0.2988 -0.2454 -0.5383
  600TMC3    C6 8893   4.395   2.622  16.105 -0.7088 -0.2308  0.0113
  600TMC3     C 8894   4.710   2.520  15.851 -0.6328  0.3644 -0.3155
  600TMC3     O 8895   0.018   2.402  15.829  0.1275 -0.3447  0.1957
  600TMC3     H 8896   4.559   2.348  15.975 -0.6732  0.6960 -2.4024
  600TMC3    H1 8897   4.602   2.765  15.891  0.4095  0.5441  0.3387
  600TMC3    H2 8898   4.325   2.659  16.180 -0.4304 -1.6933  0.9914
  600TMC3    C7 8899   4.455   2.845  16.099  1.0183 -0.4407 -0.0891
  600TMC3    C8 8900   4.362   2.383  16.163 -0.1097 -0.1691  0.1386
  600TMC3    O1 8901   4.342   2.869  16.145  0.9037 -0.0755  0.2632
  600TMC3    O2 8902   4.419   2.285  16.209  0.2789  0.6230 -0.8171
  601MPD2     C 8903   2.058   0.768   0.352 -0.0431 -0.6615 -0.2065
  601MPD2    C1 8904   2.066   0.710   0.229 -0.0859  0.8473  0.3270
  601MPD2    C2 8905   2.049   0.577   0.206 -0.5197  0.4241  0.0233
  601MPD2    C3 8906   2.029   0.494   0.317 -0.3372 -0.2057  0.2553
  601MPD2    C4 8907   2.022   0.550   0.437  0.1819 -0.2578 -0.4303
  601MPD2    C5 8908   2.036   0.682   0.454  0.4851 -0.2181  1.0396
  601MPD2     H 8909   2.066   0.520   0.115  2.9338 -0.3647  1.1831
  601MPD2    H1 8910   1.997   0.492   0.526  1.3720 -0.5662 -0.2992
  601MPD2    H2 8911   2.057   0.876   0.362 -0.9385 -0.5511 -1.4899
  601MPD2    H3 8912   2.005   0.724   0.549 -2.5591 -0.5276  0.1887
  601MPD2     N 8913   2.008   0.356   0.303 -0.4327 -0.1215 -0.3926
  601MPD2    H5 8914   1.968   0.310   0.384  0.0295  0.3196  0.0839
  601MPD2    N1 8915   2.087   0.793   0.112 -0.4158 -0.2621 -0.0989
  601MPD2    H7 8916   2.064   0.739   0.029  1.3618  1.6178 -1.8409
  602TMC3    C1 8917   2.100   0.966  17.644 -0.1591  0.1233  0.2195
  602TMC3    C2 8918   2.191   1.057  17.606 -0.6927  0.2404 -0.0070
  602TMC3    C3 8919   2.190   1.097  17.472  0.8331 -0.4652 -0.5536
  602TMC3    C4 8920   1.987   0.938  17.575  0.6574  0.4518 -0.0878
  602TMC3    C5 8921   1.980   0.988  17.447 -0.1556  0.3306  1.0153
  602TMC3    C6 8922   2.080   1.071  17.395 -0.5181 -0.3447 -0.3427
  602TMC3     C 8923   2.112   0.923   0.100  0.6033  0.3795  0.5610
  602TMC3     O 8924   2.166   1.002   0.178  0.0754 -0.2166  0.2719
  602TMC3     H 8925   2.273   1.084  17.671 -1.8075  0.1066  1.4813
  602TMC3    H1 8926   1.919   0.862  17.613 -0.7913  2.0045  0.4121
  602TMC3    H2 8927   2.079   1.099  17.290  1.5397 -2.7614 -0.9903
  602TMC3    C7 8928   1.855   0.966  17.381  0.7519 -0.2387 -0.1898
  602TMC3    C8 8929   2.288   1.192  17.425  0.0866 -0.3842  0.0863
  602TMC3    O1 8930   1.774   0.890  17.435  0.1443 -0.2255 -0.1830
  602TMC3    O2 8931   2.369   1.234  17.507 -0.4544  0.2919 -0.0276
  603TMC3    C1 8932   0.712   1.474  10.696  0.3665 -0.3184  0.4118
  603TMC3    C2 8933   0.765   1.437  10.812 -0.9765  0.8937  0.3398
  603TMC3    C3 8934   0.900   1.439  10.814  0.3762  0.4162 -0.1857
  603TMC3    C4 8935   0.784   1.518  10.588 -0.1524  0.4863  0.3915
  603TMC3    C5 8936   0.923   1.532  10.602  0.3252  0.3681  0.1919
  603TMC3    C6 8937   0.985   1.496  10.723 -0.2250 -0.4054 -0.0661
  603TMC3     C 8938   0.574   1.509  10.697  0.4534 -1.0133  0.4450
  603TMC3     O 8939   0.490   1.425  10.713 -0.3353 -0.2241  0.5801
  603TMC3     H 8940   0.694   1.413  10.890  0.6377  0.8529  1.8083
  603TMC3    H1 8941   0.737   1.568  10.504  1.3615 -1.0261 -1.3726
  603TMC3    H2 8942   1.087   1.460  10.721  0.5783  1.7726  1.4810
  603TMC3    C7 8943   0.991   1.519  10.476  0.6024  0.2203 -0.1906
  603TMC3    C8 8944   0.978   1.414  10.937  0.1771 -0.4391 -0.5738
  603TMC3    O1 8945   0.926   1.479  10.381 -0.3055 -0.4572 -0.1901
  603TMC3    O2 8946   0.930   1.336  11.022  0.1155 -0.0523  0.0669
  604MPD2     C 8947   1.132   4.479  16.195  0.5792  0.4920 -0.0978
  604MPD2    C1 8948   1.046   4.525  16.096 -0.7317  0.3612  0.1499
  604MPD2    C2 8949   1.096   4.531  15.965  0.3782  0.6674 -0.1749
  604MPD2    C3 8950   1.226   4.493  15.940 -0.5673  0.0779 -0.7204
  604MPD2    C4 8951   1.303   4.441  16.047 -0.3338 -0.7381 -0.9237
  604MPD2    C5 8952   1.259   4.436  16.174  0.3535 -0.3632  0.0892
  604MPD2     H 8953   1.026   4.567  15.891  1.6374  1.5310 -0.9487
  604MPD2    H1 8954   1.406   4.408  16.036 -0.6443 -2.3715  1.1521
  604MPD2    H2 8955   1.098   4.478  16.298 -2.7002 -0.8337 -1.1964
  604MPD2    H3 8956   1.324   4.407  16.256  0.2033 -0.2587  0.2426
  604MPD2     N 8957   1.274   4.483  15.813 -0.0420 -0.2617  0.1433
  604MPD2    H5 8958   1.215   4.508  15.734 -0.7039 -1.2597  0.3193
  604MPD2    N1 8959   0.931   4.587  16.145 -0.0833  0.2599  0.4995
  604MPD2    H7 8960   0.904   4.570  16.242 -0.6485 -0.9731  0.1284
  605TMC3    C1 8961   0.746   0.007  16.151  0.7360  0.7559 -0.3411
  605TMC3    C2 8962   0.784   0.037  16.283 -0.6745  0.7402  0.0377
  605TMC3    C3 8963   0.714   0.144  16.342  0.0131 -0.2533 -0.5334
  605TMC3    C4 8964   0.645   0.072  16.091 -0.5010 -0.0515 -0.1378
  605TMC3    C5 8965   0.573   0.169  16.158 -0.2316  0.0301 -0.0062
  605TMC3    C6 8966   0.612   0.211  16.278  0.2074  0.4406 -0.2634
  605TMC3     C 8967   0.843   4.662  16.067 -0.0796 -0.3994 -0.7476
  605TMC3     O 8968   0.846   4.699  15.950 -0.5890  0.0855  0.2819
  605TMC3     H 8969   0.861   4.706  16.339  0.2792  1.4149 -0.6453
  605TMC3    H1 8970   0.621   0.030  15.994 -0.6995 -0.0705 -0.0809
  605TMC3    H2 8971   0.561   0.292  16.329  0.2033 -0.9186  1.8710
  605TMC3    C7 8972   0.479   0.254  16.080  0.1520 -0.7493 -0.6136
  605TMC3    C8 8973   0.824   0.234  16.394  0.0089 -0.0631 -0.2817
  605TMC3    O1 8974   0.419   0.343  16.140  0.3064 -0.3068 -0.2036
  605TMC3    O2 8975   0.916   0.170  16.446  0.3651 -0.8232 -0.1394
  606TMC3    C1 8976   1.728   2.984   0.652 -0.6957 -0.6107  0.1136
  606TMC3    C2 8977   1.801   2.971   0.759 -0.1132  0.2372  0.2010
  606TMC3    C3 8978   1.786   2.855   0.833 -0.0046  0.0688  0.7856
  606TMC3    C4 8979   1.643   2.890   0.612  0.3609 -1.2526 -0.3328
  606TMC3    C5 8980   1.622   2.777   0.687  0.5590  0.1797 -0.2701
  606TMC3    C6 8981   1.688   2.760   0.800 -0.6130 -0.4966  0.2472
  606TMC3     C 8982   1.726   3.112   0.586  0.2926  0.3334 -0.3123
  606TMC3     O 8983   1.795   3.199   0.640  0.0014  0.2686  0.5846
  606TMC3     H 8984   1.860   3.051   0.801  0.6341  0.1979 -0.7783
  606TMC3    H1 8985   1.586   2.912   0.523  0.6970  4.1484  0.8241
  606TMC3    H2 8986   1.666   2.673   0.862  1.9344 -1.5344 -0.2987
  606TMC3    C7 8987   1.587   2.648   0.618 -0.1936 -0.3557 -0.6363
  606TMC3    C8 8988   1.898   2.788   0.900  0.0271 -0.2905 -0.2983
  606TMC3    O1 8989   1.608   2.553   0.691  0.3870 -0.4842 -0.0826
  606TMC3    O2 8990   1.875   2.671   0.922  0.3437  0.4675  0.1226
  607MPD2     C 8991   0.497   0.993  11.468  0.6448  0.1853  1.0014
  607MPD2    C1 8992   0.507   1.117  11.530 -0.0554 -0.8338 -0.1570
  607MPD2    C2 8993   0.482   1.124  11.665  0.2379 -0.6317 -0.0869
  607MPD2    C3 8994   0.451   1.019  11.743 -1.4079 -0.1021 -0.2322
  607MPD2    C4 8995   0.431   0.895  11.680 -0.1009 -0.1149 -0.6397
  607MPD2    C5 8996   0.454   0.888  11.546  0.3788 -0.1927 -0.0188
  607MPD2     H 8997   0.488   1.219  11.717 -4.4939 -0.6268  0.4343
  607MPD2    H1 8998   0.398   0.811  11.740 -0.6339  0.8419  0.4054
  607MPD2    H2 8999   0.520   0.975  11.364 -3.1373 -1.9692  0.5508
  607MPD2    H3 9000   0.431   0.795  11.497  1.0450 -0.8726  0.9529
  607MPD2     N 9001   0.428   1.045  11.880 -0.2622 -0.2096 -0.4769
  607MPD2    H5 9002   0.441   1.136  11.925  0.1245 -0.0652 -0.8752
  607MPD2    N1 9003   0.559   1.233  11.467 -0.9332 -0.6854  0.4862
  607MPD2    H7 9004   0.562   1.322  11.515  0.0099 -1.0142  1.0318
  608TMC3    C1 9005   0.715   1.352  11.348  0.4677 -0.9989 -0.1785
  608TMC3    C2 9006   0.773   1.384  11.467  0.1113 -0.4553  0.8724
  608TMC3    C3 9007   0.845   1.503  11.467  0.1634  0.3158  0.1073
  608TMC3    C4 9008   0.725   1.431  11.233  0.1350  0.7228 -0.2117
  608TMC3    C5 9009   0.799   1.554  11.237  0.6190  0.2819  0.3045
  608TMC3    C6 9010   0.856   1.587  11.358  0.3303  0.1107  0.6385
  608TMC3     C 9011   0.623   1.240  11.347 -0.4702 -0.4206 -0.2351
  608TMC3     O 9012   0.639   1.154  11.259  0.1964  1.1559  0.4143
  608TMC3     H 9013   0.781   1.312  11.548  0.3244  0.4714  1.6702
  608TMC3    H1 9014   0.673   1.391  11.147 -1.0574  3.9480 -0.9987
  608TMC3    H2 9015   0.921   1.673  11.364 -0.5917  0.7587  1.2358
  608TMC3    C7 9016   0.782   1.648  11.128  0.0153  0.2031  0.7269
  608TMC3    C8 9017   0.858   1.574  11.592  1.1178 -0.2617 -0.2090
  608TMC3    O1 9018   0.722   1.606  11.030 -0.3729 -0.8206  0.1200
  608TMC3    O2 9019   0.931   1.670  11.596  0.1784  0.1531 -0.0539
  609TMC3    C1 9020   4.323   0.667   8.616  0.3488 -0.0570 -0.0419
  609TMC3    C2 9021   4.383   0.778   8.671 -0.3829  0.0405 -0.2734
  609TMC3    C3 9022   4.505   0.766   8.721 -0.1819 -0.1781  1.0688
  609TMC3    C4 9023   4.389   0.545   8.604  0.1645  0.5858  0.2122
  609TMC3    C5 9024   4.513   0.532   8.666  0.0035 -1.0505 -0.3338
  609TMC3    C6 9025   4.569   0.641   8.727  0.1562  0.1680 -0.2144
  609TMC3     C 9026   4.178   0.665   8.613  0.4483 -0.1236 -0.9285
  609TMC3     O 9027   4.119   0.753   8.673  0.4099 -0.0734 -0.5583
  609TMC3     H 9028   4.322   0.867   8.682 -1.4639 -0.8525  0.9480
  609TMC3    H1 9029   4.333   0.462   8.563 -0.6453  2.8207 -3.2465
  609TMC3    H2 9030   4.672   0.633   8.760  0.5275 -0.9268 -1.6549
  609TMC3    C7 9031   4.567   0.402   8.699 -0.2362  0.4112 -0.0473
  609TMC3    C8 9032   4.572   0.883   8.780 -0.3344  0.4714 -0.3870
  609TMC3    O1 9033   4.662   0.403   8.773  0.0895 -0.1650  0.4321
  609TMC3    O2 9034   4.533   0.989   8.738 -0.0827 -0.0465 -0.3023
  610TMC3    C1 9035   0.094   0.712  12.078  0.2637  0.0262 -0.3105
  610TMC3    C2 9036   0.030   0.827  12.110  0.3629 -0.4551 -0.0411
  610TMC3    C3 9037   0.076   0.892  12.226  0.2822 -0.8232  0.7858
  610TMC3    C4 9038   0.186   0.649  12.166  0.5410 -0.5583 -0.1817
  610TMC3    C5 9039   0.235   0.718  12.274  0.5641  0.1569 -0.1819
  610TMC3    C6 9040   0.175   0.839  12.307  0.3286  0.6258 -0.1428
  610TMC3     C 9041   0.085   0.676  11.941 -0.0188 -0.6044 -0.8579
  610TMC3     O 9042   4.704   0.718  11.887  0.3081 -0.4075  0.0046
  610TMC3     H 9043   4.681   0.878  12.045  1.7224 -1.2352 -2.1210
  610TMC3    H1 9044   0.223   0.549  12.145  0.4917 -0.5009 -0.5464
  610TMC3    H2 9045   0.208   0.886  12.399 -0.5890  1.9973 -0.5007
  610TMC3    C7 9046   0.307   0.644  12.375 -0.8152  0.2684 -0.3599
  610TMC3    C8 9047   0.020   1.020  12.267  0.2418 -0.0273  0.2455
  610TMC3    O1 9048   0.365   0.700  12.465 -0.3027 -0.2249 -0.8967
  610TMC3    O2 9049   0.089   1.089  12.341 -0.3063  0.1828  0.2409
  611MPD2     C 9050   0.664   0.764  10.158  0.7903 -0.0121 -1.0582
  611MPD2    C1 9051   0.632   0.882  10.092 -0.4330 -0.0538 -0.6396
  611MPD2    C2 9052   0.725   0.949  10.013 -0.1610 -0.5033 -0.0689
  611MPD2    C3 9053   0.850   0.895   9.997  0.2774 -1.0690 -0.2479
  611MPD2    C4 9054   0.886   0.784  10.068 -0.4790  0.3392  0.1662
  611MPD2    C5 9055   0.791   0.721  10.149  1.3376 -0.2791 -0.0916
  611MPD2     H 9056   0.695   1.035   9.954  1.3485 -0.5973 -0.9675
  611MPD2    H1 9057   0.983   0.735  10.060 -0.2598  0.6931  0.6744
  611MPD2    H2 9058   0.600   0.694  10.210  1.5495 -1.1865 -1.7080
  611MPD2    H3 9059   0.824   0.631  10.199  1.8865  0.1652  0.3441
  611MPD2     N 9060   0.961   0.961   9.934 -0.0238 -0.0527  0.2169
  611MPD2    H5 9061   1.051   0.940   9.978 -0.0074 -1.6170 -0.5988
  611MPD2    N1 9062   0.497   0.931  10.109  0.3881  0.3378  0.1929
  611MPD2    H7 9063   0.430   0.876  10.163  0.5187 -0.4494 -0.4466
  612TMC3    C1 9064   1.091   1.111   9.809  0.2447  0.8850 -0.6001
  612TMC3    C2 9065   1.157   1.168   9.913 -0.3767 -0.3818 -0.4032
  612TMC3    C3 9066   1.272   1.239   9.883 -0.3175 -0.7304  0.5385
  612TMC3    C4 9067   1.122   1.145   9.682  0.0538 -0.7629  0.3036
  612TMC3    C5 9068   1.232   1.212   9.650 -0.1474 -0.0339  0.7875
  612TMC3    C6 9069   1.321   1.250   9.755  0.4464  0.2979  0.4024
  612TMC3     C 9070   0.957   1.055   9.835  0.4773 -0.1246  0.0416
  612TMC3     O 9071   0.863   1.095   9.769  0.0596  0.4496 -0.1271
  612TMC3     H 9072   1.118   1.164  10.014  0.3956  3.0644  0.0268
  612TMC3    H1 9073   1.061   1.119   9.596  0.2219 -0.5980  0.1342
  612TMC3    H2 9074   1.420   1.288   9.732 -0.8414  3.3633  0.0294
  612TMC3    C7 9075   1.289   1.206   9.516  0.1455  0.6238  0.2622
  612TMC3    C8 9076   1.346   1.308   9.990  0.0595 -0.9524 -0.1492
  612TMC3    O1 9077   1.226   1.251   9.425 -0.0802 -0.1608 -0.2157
  612TMC3    O2 9078   1.459   1.343   9.961  0.4674 -0.0007  0.0959
  613MPD2     C 9079   3.314   3.777  16.339 -0.7251  0.2944  0.0648
  613MPD2    C1 9080   3.229   3.728  16.242  1.0309  1.4304 -0.1791
  613MPD2    C2 9081   3.138   3.623  16.281 -0.6936  0.1053 -0.5143
  613MPD2    C3 9082   3.152   3.562  16.404 -1.2167  0.1948  0.4897
  613MPD2    C4 9083   3.240   3.620  16.499 -0.0165  0.3619 -0.0379
  613MPD2    C5 9084   3.317   3.724  16.465 -0.6011 -0.3873  0.9253
  613MPD2     H 9085   3.070   3.572  16.214 -0.6074 -1.6322  0.7154
  613MPD2    H1 9086   3.261   3.566  16.590  0.5776  0.9930  0.2056
  613MPD2    H2 9087   3.386   3.855  16.324 -1.7641  0.8551 -1.8811
  613MPD2    H3 9088   3.388   3.764  16.537 -0.0031 -0.4202  0.3549
  613MPD2     N 9089   3.070   3.449  16.438  0.4350  0.3331  0.0101
  613MPD2    H5 9090   3.047   3.430  16.534 -2.6777 -1.1816 -1.0360
  613MPD2    N1 9091   3.229   3.770  16.106 -0.3984  0.2381  0.1311
  613MPD2    H7 9092   3.298   3.842  16.088  0.2623 -0.9227 -1.9496
  614TMC3    C1 9093   3.186   3.766  15.872 -0.0125  0.2886  0.1490
  614TMC3    C2 9094   3.296   3.690  15.849  0.3810 -0.7851  0.0041
  614TMC3    C3 9095   3.296   3.597  15.749 -0.6448  0.5970 -0.3240
  614TMC3    C4 9096   3.090   3.762  15.779  0.3417  0.2494 -0.6051
  614TMC3    C5 9097   3.113   3.691  15.662  0.2676  0.2927 -0.1824
  614TMC3    C6 9098   3.215   3.606  15.643 -0.6007 -0.0664  0.2014
  614TMC3     C 9099   3.139   3.735  16.008 -0.0844  0.1801  0.4182
  614TMC3     O 9100   3.023   3.696  16.021  0.1169 -0.1739 -0.1306
  614TMC3     H 9101   3.371   3.687  15.927  0.3763 -1.4092 -0.0160
  614TMC3    H1 9102   3.011   3.836  15.787 -1.3938 -1.6239 -0.4179
  614TMC3    H2 9103   3.237   3.552  15.551 -1.3739 -0.6705  0.3721
  614TMC3    C7 9104   3.010   3.701  15.555  1.1039 -0.0216  0.1210
  614TMC3    C8 9105   3.287   3.466  15.814 -1.4897  0.1251 -0.1740
  614TMC3    O1 9106   2.911   3.763  15.587  0.0789 -0.1643  0.0091
  614TMC3    O2 9107   3.303   3.471  15.935  0.0736 -0.2313 -0.0832
  615MPD2     C 9108   2.367   4.572  16.412  0.5595  0.0448 -0.2324
  615MPD2    C1 9109   2.486   4.633  16.379 -0.4247 -0.0902 -1.1433
  615MPD2    C2 9110   2.503   4.702  16.264 -0.0444 -0.5185  0.3620
  615MPD2    C3 9111   2.396   0.002  16.177 -0.5920 -0.0939 -0.2945
  615MPD2    C4 9112   2.273   4.679  16.221 -0.0668  0.2082  0.2222
  615MPD2    C5 9113   2.257   4.601  16.331 -0.1921 -0.5488  0.3856
  615MPD2     H 9114   2.608   4.717  16.244  0.5161 -3.5439  1.0518
  615MPD2    H1 9115   2.181   4.714  16.176  1.2938  2.6295 -0.6756
  615MPD2    H2 9116   2.343   4.517  16.503  0.6659 -0.5341 -0.5523
  615MPD2    H3 9117   2.160   4.579  16.374 -0.1595  0.0830  0.7843
  615MPD2     N 9118   2.416   0.071  16.053  0.0683  0.2411  0.9482
  615MPD2    H5 9119   2.339   0.064  15.988  1.4616 -0.2158 -0.6463
  615MPD2    N1 9120   2.599   4.641  16.462 -0.4961  0.2174  0.2784
  615MPD2    H7 9121   2.675   4.692  16.420 -0.5618  0.5661  0.5832
  616TMC3    C1 9122   2.723   4.646  16.651  0.2393  0.3104  0.9861
  616TMC3    C2 9123   2.849   4.636  16.595  1.0590  0.2757  0.2665
  616TMC3    C3 9124   2.958   4.650  16.673  0.1126  0.4157  0.3383
  616TMC3    C4 9125   2.716   4.697  16.778  0.3175 -0.1314  0.2439
  616TMC3    C5 9126   2.828   4.710  16.855  0.4757  0.3020 -0.1120
  616TMC3    C6 9127   2.947   4.690  16.807 -0.1719  0.0934 -1.1524
  616TMC3     C 9128   2.600   4.622  16.595 -0.2676 -0.3550 -1.0892
  616TMC3     O 9129   2.506   4.598  16.664 -0.4530  0.0582 -0.3844
  616TMC3     H 9130   2.854   4.581  16.502 -0.4058  2.1355 -0.9170
  616TMC3    H1 9131   2.620   4.703  16.829  0.0644 -2.6229  0.0680
  616TMC3    H2 9132   3.036   4.697  16.868 -0.5031  0.3657 -0.7048
  616TMC3    C7 9133   2.819   0.063  16.982  0.5733 -0.2896  0.4317
  616TMC3    C8 9134   3.092   4.633  16.614 -0.7442  0.0502  0.0449
  616TMC3    O1 9135   2.924   0.061  17.045 -0.4427  0.0002 -0.5853
  616TMC3    O2 9136   3.174   4.635  16.703  0.0889  0.0681  0.1598
  617MPD2     C 9137   1.261   3.008  13.387  0.7414  0.3087  0.6645
  617MPD2    C1 9138   1.276   3.001  13.523  1.0049  0.1387 -0.1134
  617MPD2    C2 9139   1.165   2.986  13.603 -1.3065  0.1262 -0.4280
  617MPD2    C3 9140   1.037   2.983  13.550 -0.2910  0.1996 -0.4746
  617MPD2    C4 9141   1.022   3.000  13.417  0.3791 -0.7426  0.4172
  617MPD2    C5 9142   1.132   3.012  13.340  0.4131 -0.4292 -0.0133
  617MPD2     H 9143   1.175   2.975  13.711 -0.6689  2.0134 -0.2922
  617MPD2    H1 9144   0.925   3.004  13.370  0.1118 -1.6411  0.9057
  617MPD2    H2 9145   1.347   3.013  13.321 -1.4841 -2.3495 -2.4693
  617MPD2    H3 9146   1.114   3.021  13.233  1.1051  1.9968  0.0691
  617MPD2     N 9147   0.917   2.961  13.614 -0.6326  0.3187  0.2526
  617MPD2    H5 9148   0.841   2.967  13.546 -0.8082  1.0059  0.5045
  617MPD2    N1 9149   1.405   3.018  13.572 -0.4967 -0.3618 -0.0086
  617MPD2    H7 9150   1.475   3.045  13.503 -0.3615 -0.2476  0.1768
  618TMC3    C1 9151   1.597   2.995  13.675 -0.3850  0.2622 -0.1022
  618TMC3    C2 9152   1.668   2.881  13.707 -0.2284 -0.2333  0.1113
  618TMC3    C3 9153   1.791   2.868  13.643  0.2251  0.0281 -0.5141
  618TMC3    C4 9154   1.648   3.093  13.587 -0.1908  0.4749  0.4213
  618TMC3    C5 9155   1.781   3.076  13.553  0.3149 -0.7431 -0.4389
  618TMC3    C6 9156   1.851   2.961  13.564  0.0204  0.0825 -0.4100
  618TMC3     C 9157   1.451   2.975  13.693  0.0075 -0.0012  0.1110
  618TMC3     O 9158   1.395   2.908  13.782 -0.2097  0.0356  0.0037
  618TMC3     H 9159   1.615   2.800  13.755 -0.7410  0.1875  0.2512
  618TMC3    H1 9160   1.600   3.190  13.585  0.2043  0.6363 -1.2506
  618TMC3    H2 9161   1.952   2.950  13.528  0.2044 -0.5593  0.3029
  618TMC3    C7 9162   1.855   3.194  13.507 -0.5907  0.3753 -0.3064
  618TMC3    C8 9163   1.826   2.724  13.629 -0.2349  0.8619  0.8313
  618TMC3    O1 9164   1.841   3.290  13.581 -0.4411  0.0905 -0.1901
  618TMC3    O2 9165   1.780   2.650  13.713 -0.3159  0.5395  0.0870
  619MPD2     C 9166   1.524   4.627  12.718 -0.4612 -0.8391  0.3844
  619MPD2    C1 9167   1.650   4.642  12.770 -0.1995  0.4399  0.0928
  619MPD2    C2 9168   1.694   4.549  12.865 -0.1214 -0.4238 -0.0375
  619MPD2    C3 9169   1.609   4.459  12.920 -0.0845  0.5700 -0.1229
  619MPD2    C4 9170   1.479   4.446  12.872 -0.5558 -0.7224  0.2105
  619MPD2    C5 9171   1.442   4.521  12.764 -0.6997 -0.0297 -0.2543
  619MPD2     H 9172   1.791   4.556  12.913  0.2571  1.1648 -1.0333
  619MPD2    H1 9173   1.420   4.362  12.906 -1.4396 -0.5833 -0.9608
  619MPD2    H2 9174   1.493   4.701  12.645 -1.1192 -2.4504 -0.9768
  619MPD2    H3 9175   1.348   4.505  12.712 -2.2773  0.0541  2.5617
  619MPD2     N 9176   1.650   4.362  13.016  0.2104  0.1321 -0.1132
  619MPD2    H5 9177   1.582   4.294  13.048  1.1567  0.2097  2.0512
  619MPD2    N1 9178   1.742   0.017  12.718  0.7842  0.6500  0.5650
  619MPD2    H7 9179   1.832   0.027  12.763  0.2800 -0.7318  1.9002
  620TMC3    C1 9180   1.803   0.223  12.615 -0.2528  0.1721 -0.9428
  620TMC3    C2 9181   1.844   0.263  12.741  0.6654  0.4719  0.4267
  620TMC3    C3 9182   1.854   0.396  12.762 -0.3922 -0.0790 -0.6674
  620TMC3    C4 9183   1.778   0.307  12.518 -0.3616 -0.0295 -0.4102
  620TMC3    C5 9184   1.794   0.445  12.541 -0.3443  0.2847 -0.2744
  620TMC3    C6 9185   1.826   0.493  12.669 -0.4048 -0.0338 -0.2744
  620TMC3     C 9186   1.717   0.100  12.610  0.7182 -0.3049  0.5220
  620TMC3     O 9187   1.626   0.105  12.525  0.3908  0.4977 -0.0051
  620TMC3     H 9188   1.860   0.189  12.818  1.4238 -0.4911 -0.6679
  620TMC3    H1 9189   1.737   0.266  12.426 -1.5861  0.6196 -0.1462
  620TMC3    H2 9190   1.823   0.600  12.684  1.1202 -0.0701  0.3042
  620TMC3    C7 9191   1.779   0.536  12.429 -0.3360 -0.0877  0.0697
  620TMC3    C8 9192   1.862   0.435  12.903 -0.2585  0.4913 -0.5342
  620TMC3    O1 9193   1.782   0.654  12.463  0.3420  0.0229 -0.1315
  620TMC3    O2 9194   1.861   0.353  12.993 -0.0634 -0.2590  0.6565
  621MPD2     C 9195   3.569   4.394   9.841  0.1973  0.3513 -0.6730
  621MPD2    C1 9196   3.621   4.289   9.768  0.6969  0.5643 -0.4897
  621MPD2    C2 9197   3.715   4.319   9.677  0.4842  0.1150 -0.1932
  621MPD2    C3 9198   3.775   4.448   9.669 -0.0747 -0.0671 -0.3048
  621MPD2    C4 9199   3.726   4.547   9.751 -0.3578 -0.1770  0.2982
  621MPD2    C5 9200   3.616   4.520   9.831  0.0745  0.0559  0.4367
  621MPD2     H 9201   3.754   4.231   9.625 -0.5537  1.2153 -2.8444
  621MPD2    H1 9202   3.767   4.647   9.757  0.9637 -0.7995  1.5101
  621MPD2    H2 9203   3.490   4.371   9.911 -0.1312 -0.0393 -1.1732
  621MPD2    H3 9204   3.582   4.594   9.902 -0.2876  0.5321 -0.2319
  621MPD2     N 9205   3.890   4.461   9.592 -0.2264  0.4329 -0.3523
  621MPD2    H5 9206   3.921   4.373   9.554 -0.3886  0.2490 -0.0575
  621MPD2    N1 9207   3.588   4.152   9.778 -0.2979 -0.1837 -0.1527
  621MPD2    H7 9208   3.646   4.094   9.718  0.2954  0.5302 -0.2781
  622TMC3    C1 9209   3.466   3.959   9.835  0.3192  0.0265 -0.2810
  622TMC3    C2 9210   3.345   3.933   9.888  0.1253 -0.0292  0.0861
  622TMC3    C3 9211   3.253   3.858   9.818  0.3297  0.1365 -0.1817
  622TMC3    C4 9212   3.500   3.910   9.715  0.8597  0.6258  0.0234
  622TMC3    C5 9213   3.408   3.829   9.644  0.9199  0.4613 -0.3568
  622TMC3    C6 9214   3.290   3.804   9.700  0.2935  0.8387  0.1399
  622TMC3     C 9215   3.491   4.101   9.853 -0.5538  0.1652  0.8514
  622TMC3     O 9216   3.414   4.159   9.925  0.0801 -0.9239 -0.2981
  622TMC3     H 9217   3.318   3.964   9.988 -1.6836  0.8188 -0.6625
  622TMC3    H1 9218   3.600   3.926   9.676 -0.3776  2.9760 -2.1179
  622TMC3    H2 9219   3.229   3.738   9.641  0.7677 -0.9388  1.6429
  622TMC3    C7 9220   3.440   3.773   9.509  0.0833 -0.0195  0.3117
  622TMC3    C8 9221   3.131   3.926   9.815  0.7701  0.5585 -0.0349
  622TMC3    O1 9222   3.409   3.656   9.487 -0.2227 -0.8028  0.3335
  622TMC3    O2 9223   3.036   3.869   9.767  0.0237 -0.3471  0.2461
  623MPD2     C 9224   1.245   0.371  15.731  0.2683 -0.6100  0.1741
  623MPD2    C1 9225   1.183   0.353  15.854 -0.2035  0.4537 -0.3136
  623MPD2    C2 9226   1.256   0.368  15.973  0.2405 -0.0964  0.1234
  623MPD2    C3 9227   1.387   0.413  15.979 -0.6016  0.1998 -0.3908
  623MPD2    C4 9228   1.445   0.443  15.860 -0.5845  0.2928 -0.1336
  623MPD2    C5 9229   1.377   0.415  15.737  0.0606  0.0335 -0.0723
  623MPD2     H 9230   1.204   0.355  16.067  0.7291  0.2818  0.4465
  623MPD2    H1 9231   1.549   0.474  15.855 -0.3968 -0.1273  1.1471
  623MPD2    H2 9232   1.194   0.352  15.638 -0.4782 -0.3165  0.5191
  623MPD2    H3 9233   1.433   0.432  15.646  0.7208  3.4249  0.9607
  623MPD2     N 9234   1.443   0.433  16.107  0.0168  0.2742  0.4807
  623MPD2    H5 9235   1.398   0.388  16.186 -0.5224 -0.7193 -0.4021
  623MPD2    N1 9236   1.051   0.302  15.843 -0.5345 -0.2182 -0.4193
  623MPD2    H7 9237   1.004   0.316  15.754 -0.5932  2.6647  0.0763
  624TMC3    C1 9238   1.662   0.323  16.451 -0.0480 -0.8721 -0.0374
  624TMC3    C2 9239   1.548   0.345  16.523  0.2295 -0.4548  0.4097
  624TMC3    C3 9240   1.456   0.434  16.476  0.4467 -0.0045 -0.1204
  624TMC3    C4 9241   1.681   0.383  16.331 -0.3636 -0.1433  0.0084
  624TMC3    C5 9242   1.575   0.454  16.277  0.0098  0.1059 -1.2933
  624TMC3    C6 9243   1.466   0.484  16.349  0.1511  0.1311  0.8465
  624TMC3     C 9244   1.774   0.277  16.527 -0.5086 -0.1861  0.5350
  624TMC3     O 9245   1.759   0.232  16.639 -1.0424  0.0847 -0.1860
  624TMC3     H 9246   1.545   0.289  16.616 -1.7052 -1.5229 -0.2836
  624TMC3    H1 9247   1.755   0.358  16.256  0.0127 -1.0197  0.6714
  624TMC3    H2 9248   1.388   0.553  16.318  0.8480  0.0407 -1.1084
  624TMC3    C7 9249   1.569   0.480  16.139  0.0212 -0.1930 -0.6735
  624TMC3    C8 9250   1.317   0.426  16.530 -0.4418  0.3166 -0.2842
  624TMC3    O1 9251   1.668   0.499  16.072  0.0832  0.2589  0.1816
  624TMC3    O2 9252   1.278   0.315  16.566  0.1844 -0.3704  0.1237
  625MPD2     C 9253   1.621   0.991   0.188  0.2922  0.0725 -1.4900
  625MPD2    C1 9254   1.602   1.087   0.283 -0.6404 -0.1973  0.1781
  625MPD2    C2 9255   1.629   1.060   0.412 -0.2210  0.6398 -0.3280
  625MPD2    C3 9256   1.668   0.932   0.445 -0.3861  0.1635  0.4161
  625MPD2    C4 9257   1.680   0.835   0.348 -0.3693 -1.0476 -0.1261
  625MPD2    C5 9258   1.658   0.865   0.219  0.1683  0.4931  0.2481
  625MPD2     H 9259   1.621   1.136   0.489  0.0641 -0.3074  0.6389
  625MPD2    H1 9260   1.710   0.732   0.361  0.0168 -0.9778 -0.4667
  625MPD2    H2 9261   1.601   1.017   0.085 -0.0646 -1.6923 -1.8679
  625MPD2    H3 9262   1.652   0.790   0.141 -0.0563 -2.5032  3.1367
  625MPD2     N 9263   1.679   0.905   0.582 -0.0100  0.0435 -0.0226
  625MPD2    H5 9264   1.665   0.985   0.642  0.2711  0.8322 -0.9985
  625MPD2    N1 9265   1.579   1.227   0.259 -0.6380  0.1744 -0.1122
  625MPD2    H7 9266   1.579   1.288   0.339  1.3720 -1.5443  1.2078
  626TMC3    C1 9267   1.510   1.422   0.164  0.3727 -0.6243 -0.1765
  626TMC3    C2 9268   1.449   1.491   0.062 -0.5327 -0.7034  0.0598
  626TMC3    C3 9269   1.380   1.605   0.094  0.7044  0.1856  0.2165
  626TMC3    C4 9270   1.517   1.475   0.288  0.4934 -0.5315 -0.2254
  626TMC3    C5 9271   1.449   1.589   0.317  0.0660 -0.1406 -0.2399
  626TMC3    C6 9272   1.380   1.657   0.221  0.1247 -0.2744 -0.2570
  626TMC3     C 9273   1.548   1.283   0.138  0.4925 -0.4925 -0.0249
  626TMC3     O 9274   1.545   1.231   0.026  0.2962 -0.8049 -0.2362
  626TMC3     H 9275   1.452   1.448  17.650 -1.1744  0.4108 -0.4421
  626TMC3    H1 9276   1.585   1.443   0.366 -1.6180 -2.1719  0.9555
  626TMC3    H2 9277   1.315   1.739   0.251 -0.6185 -0.1328 -2.2408
  626TMC3    C7 9278   1.412   1.604   0.458 -0.0824 -0.1276 -0.0494
  626TMC3    C8 9279   1.321   1.672  17.664 -0.2140  0.8192  0.2796
  626TMC3    O1 9280   1.427   1.504   0.528 -0.2458 -0.4074  0.0946
  626TMC3    O2 9281   1.348   1.629  17.555  0.0881 -0.0959  0.2301
  627MPD2     C 9282   0.166   1.817  14.107 -0.1618 -0.6188  0.1770
  627MPD2    C1 9283   0.250   1.745  14.191  0.3703  0.3718 -0.4240
  627MPD2    C2 9284   0.229   1.607  14.211 -0.6808 -0.3522 -0.3409
  627MPD2    C3 9285   0.114   1.554  14.162  1.1398  0.6051  0.3728
  627MPD2    C4 9286   0.025   1.629  14.089  0.3854  0.0123 -0.9516
  627MPD2    C5 9287   0.051   1.755  14.063  0.2330 -0.0427 -0.0168
  627MPD2     H 9288   0.304   1.552  14.267 -0.8394  0.1265  0.3540
  627MPD2    H1 9289   4.654   1.587  14.049  1.0562 -0.5155 -1.9464
  627MPD2    H2 9290   0.180   1.917  14.069 -2.0986 -0.5240 -0.2972
  627MPD2    H3 9291   4.700   1.806  14.000  0.0569 -0.5696 -0.2338
  627MPD2     N 9292   0.083   1.413  14.182  0.1768 -0.7009 -0.5174
  627MPD2    H5 9293   0.137   1.365  14.253 -0.4618 -0.6130  0.0212
  627MPD2    N1 9294   0.366   1.797  14.256 -0.0529  0.4308 -0.6265
  627MPD2    H7 9295   0.404   1.729  14.321  1.6096  1.5942 -0.3759
  628TMC3    C1 9296   0.535   1.955  14.336  0.7683  0.8549  0.2839
  628TMC3    C2 9297   0.616   1.848  14.372 -0.1329 -0.3958  0.7583
  628TMC3    C3 9298   0.727   1.883  14.457 -0.0120  0.6683  0.2067
  628TMC3    C4 9299   0.571   2.084  14.351 -0.3434 -0.7640 -0.2036
  628TMC3    C5 9300   0.684   2.105  14.427  0.0684 -0.0466  0.0719
  628TMC3    C6 9301   0.772   2.005  14.471  0.2171  0.4187 -0.3689
  628TMC3     C 9302   0.410   1.926  14.255  0.3440  0.1973 -0.1663
  628TMC3     O 9303   0.348   2.023  14.216 -0.0434  0.0015 -0.2492
  628TMC3     H 9304   0.589   1.745  14.348  3.0990 -0.9766 -0.4182
  628TMC3    H1 9305   0.508   2.160  14.307  2.4573  1.5124 -0.2435
  628TMC3    H2 9306   0.829   2.026  14.561 -0.5556 -1.2710  0.5083
  628TMC3    C7 9307   0.731   2.245  14.445  0.8169 -0.4648 -0.0903
  628TMC3    C8 9308   0.786   1.763  14.529  0.4826  1.1274 -0.1434
  628TMC3    O1 9309   0.817   2.265  14.531 -0.0246 -0.2915  0.3638
  628TMC3    O2 9310   0.712   1.661  14.526  0.7274 -0.3793 -0.3624
  629MPD2     C 9311   3.466   4.578  16.299 -0.3746  0.6448  0.3570
  629MPD2    C1 9312   3.376   4.656  16.234 -0.1475  0.3740  0.2262
  629MPD2    C2 9313   3.249   4.670  16.291 -0.6122 -0.1787  0.1048
  629MPD2    C3 9314   3.225   4.617  16.412 -0.2984 -0.4497  0.4602
  629MPD2    C4 9315   3.317   4.536  16.479 -0.0930 -0.3611  0.9309
  629MPD2    C5 9316   3.434   4.517  16.417  0.0524 -0.1789 -0.6665
  629MPD2     H 9317   3.171   0.013  16.253  0.4545  1.1007  0.0783
  629MPD2    H1 9318   3.305   4.489  16.576 -1.4678  0.2030  1.0342
  629MPD2    H2 9319   3.560   4.551  16.252 -0.8330  1.6819 -1.1560
  629MPD2    H3 9320   3.512   4.455  16.460  0.2572  0.9381  0.5493
  629MPD2     N 9321   3.105   4.653  16.477 -0.2674  0.4922  0.5575
  629MPD2    H5 9322   3.027   4.698  16.430  1.1390  1.9380 -0.3648
  629MPD2    N1 9323   3.425   4.715  16.113  0.2641  0.2988 -0.2706
  629MPD2    H7 9324   3.526   4.710  16.102  0.4326  0.7609  1.0921
  630TMC3    C1 9325   3.438   0.173  15.968  0.9833  0.2281 -0.1378
  630TMC3    C2 9326   3.429   0.311  15.973 -0.1992  0.6435 -1.5221
  630TMC3    C3 9327   3.538   0.384  15.924 -0.2462 -0.0227 -0.4922
  630TMC3    C4 9328   3.559   0.111  15.940 -0.0571  0.4091  0.0836
  630TMC3    C5 9329   3.662   0.183  15.900  0.3833 -0.2875  0.1971
  630TMC3    C6 9330   3.654   0.319  15.882  0.1168 -0.2881 -0.0807
  630TMC3     C 9331   3.350   0.086  16.041 -0.8155 -0.0487  0.9085
  630TMC3     O 9332   3.236   0.121  16.054 -0.0747  0.3330 -0.2234
  630TMC3     H 9333   3.327   0.342  15.995 -0.8531 -2.1093 -0.6141
  630TMC3    H1 9334   3.551   0.004  15.924  0.3430  0.3372  0.3408
  630TMC3    H2 9335   3.728   0.380  15.832 -0.8800  0.7989 -0.2352
  630TMC3    C7 9336   3.764   0.151  15.999  0.3164 -0.2612  0.0559
  630TMC3    C8 9337   3.559   0.517  15.967 -0.0044  0.0421 -0.6002
  630TMC3    O1 9338   3.720   0.075  16.085 -0.3192  0.4865 -0.6500
  630TMC3    O2 9339   3.673   0.562  15.972  0.1409 -0.2358  0.3687
  631MPD2     C 9340   1.859   0.338  15.328  0.7203  0.5958 -0.3649
  631MPD2    C1 9341   1.964   0.434  15.321 -1.1233 -0.6722 -0.6676
  631MPD2    C2 9342   2.090   0.404  15.381  0.2211  0.1528  0.9150
  631MPD2    C3 9343   2.118   0.287  15.444  0.5113  0.3709 -0.6857
  631MPD2    C4 9344   2.018   0.194  15.449  0.4062  0.2475 -0.2300
  631MPD2    C5 9345   1.893   0.220  15.389 -0.5314  0.5318  0.2129
  631MPD2     H 9346   2.162   0.484  15.376 -0.8486  0.8694 -3.1102
  631MPD2    H1 9347   2.033   0.096  15.493 -1.4716 -0.5880 -1.4310
  631MPD2    H2 9348   1.767   0.346  15.271 -0.6436  1.7171  2.0339
  631MPD2    H3 9349   1.816   0.144  15.391 -3.2737  3.3307  0.5333
  631MPD2     N 9350   2.242   0.276  15.510 -0.1399 -0.3098 -0.2150
  631MPD2    H5 9351   2.302   0.358  15.506  0.0105 -0.4598 -1.0382
  631MPD2    N1 9352   1.923   0.560  15.265 -0.7830  0.2202  0.3531
  631MPD2    H7 9353   1.824   0.571  15.244 -0.6936  1.1204  0.3903
  632TMC3    C1 9354   1.949   0.762  15.150  0.2966 -0.0551 -0.1875
  632TMC3    C2 9355   1.840   0.804  15.211 -0.6314 -0.0252  0.2320
  632TMC3    C3 9356   1.793   0.930  15.168 -0.7440  0.9416 -0.5434
  632TMC3    C4 9357   2.025   0.834  15.062  0.4503 -0.0703  0.0892
  632TMC3    C5 9358   1.981   0.959  15.036 -0.1183 -0.3014  0.1930
  632TMC3    C6 9359   1.862   1.009  15.082 -0.4779 -0.2822 -0.1048
  632TMC3     C 9360   2.008   0.659  15.225 -0.6322  0.3072  0.8371
  632TMC3     O 9361   2.126   0.683  15.248 -0.3182 -0.4007 -0.4011
  632TMC3     H 9362   1.781   0.745  15.281  0.5069  1.1414  2.1884
  632TMC3    H1 9363   2.129   0.809  15.039  0.1472 -1.0576 -0.2323
  632TMC3    H2 9364   1.825   1.105  15.047 -2.0323 -0.9701 -0.3180
  632TMC3    C7 9365   2.043   1.015  14.910  0.0060 -0.7933 -0.3756
  632TMC3    C8 9366   1.662   0.972  15.224 -0.5290 -0.0743  0.0148
  632TMC3    O1 9367   2.147   0.962  14.867 -0.0672  0.1255 -0.0518
  632TMC3    O2 9368   1.585   0.885  15.262 -0.0001  0.2750  0.4267
  633MPD2     C 9369   1.502   3.179  17.267  0.7385  0.2632 -0.0065
  633MPD2    C1 9370   1.468   3.077  17.176 -0.2053 -0.0706  0.0603
  633MPD2    C2 9371   1.411   2.960  17.221  0.5227  0.3821 -0.5922
  633MPD2    C3 9372   1.393   2.934  17.354 -1.0251  0.5643 -0.3629
  633MPD2    C4 9373   1.437   3.026  17.446 -0.3581  0.1562 -0.2727
  633MPD2    C5 9374   1.478   3.152  17.404 -0.2013 -0.1190 -1.0164
  633MPD2     H 9375   1.381   2.883  17.152  0.9578  1.2670 -1.7623
  633MPD2    H1 9376   1.416   3.014  17.552  0.1217 -2.3943 -0.4845
  633MPD2    H2 9377   1.532   3.278  17.236  3.7382 -0.5668  0.2188
  633MPD2    H3 9378   1.504   3.230  17.474  1.6443 -1.2642 -0.4158
  633MPD2     N 9379   1.336   2.809  17.399 -0.1730 -0.2195 -0.2968
  633MPD2    H5 9380   1.330   2.798  17.500  2.4511  1.7223  0.0659
  633MPD2    N1 9381   1.500   3.090  17.033 -0.1291 -0.8933 -0.0965
  633MPD2    H7 9382   1.482   3.007  16.977 -0.9718  1.5115 -3.4154
  634TMC3    C1 9383   1.553   3.183  16.829  0.2092  0.3423  0.4252
  634TMC3    C2 9384   1.577   3.062  16.772  0.1541  0.4113  0.1028
  634TMC3    C3 9385   1.600   3.063  16.638  0.1521 -0.1748  0.1613
  634TMC3    C4 9386   1.553   3.306  16.761  0.8078 -0.1435  0.2428
  634TMC3    C5 9387   1.577   3.296  16.622  0.6569  0.3836 -0.2423
  634TMC3    C6 9388   1.604   3.179  16.560  0.2484 -0.9529  0.2925
  634TMC3     C 9389   1.555   3.201  16.971 -0.1318  0.2678 -0.2914
  634TMC3     O 9390   1.575   3.310  17.018 -0.1816  0.0311 -0.2245
  634TMC3     H 9391   1.587   2.970  16.828  0.1586  0.3557  0.0106
  634TMC3    H1 9392   1.542   3.401  16.813  0.6773 -0.7884  1.3832
  634TMC3    H2 9393   1.622   3.177  16.453  1.5110  1.9153  0.4449
  634TMC3    C7 9394   1.547   3.410  16.541  0.4992 -0.2295 -0.2129
  634TMC3    C8 9395   1.633   2.931  16.577  0.0586  0.1481 -0.3575
  634TMC3    O1 9396   1.592   3.422  16.429  0.3536 -0.1038  0.4083
  634TMC3    O2 9397   1.604   2.826  16.626 -0.0578 -0.2751 -0.1525
  635TMC3    C1 9398   1.888   4.376  17.014 -0.1732  0.0133  0.1110
  635TMC3    C2 9399   1.915   4.245  16.996 -0.1316  0.1990  0.3846
  635TMC3    C3 9400   1.803   4.161  16.986 -0.0788 -0.2307  0.3482
  635TMC3    C4 9401   1.759   4.413  16.998 -0.6656  0.0417 -0.3796
  635TMC3    C5 9402   1.651   4.332  16.982 -0.3450  0.0461  0.0090
  635TMC3    C6 9403   1.673   4.202  16.974 -0.1963 -0.6328 -0.0207
  635TMC3     C 9404   1.957   4.429  17.127 -0.4086 -0.3581 -0.5746
  635TMC3     O 9405   1.907   4.534  17.170  0.7384 -0.1679 -0.3590
  635TMC3     H 9406   2.015   4.205  17.009 -0.3439 -1.1652 -2.0711
  635TMC3    H1 9407   1.737   4.519  17.001  3.7153  0.8961  0.8182
  635TMC3    H2 9408   1.592   4.131  16.977 -0.3046 -0.5414 -0.8690
  635TMC3    C7 9409   1.525   4.367  17.047 -0.7370 -1.1390 -0.2827
  635TMC3    C8 9410   1.818   4.021  17.006 -0.5532  0.6628  0.5800
  635TMC3    O1 9411   1.431   4.289  17.024 -0.1865 -0.4925  0.2240
  635TMC3    O2 9412   1.740   3.965  17.082 -0.4483  0.4376  0.0086
  636MPD2     C 9413   2.282   3.605  16.094  0.6095 -0.3470  0.6800
  636MPD2    C1 9414   2.411   3.648  16.087 -0.7600 -0.6777  0.9502
  636MPD2    C2 9415   2.506   3.573  16.132  0.4640  0.5842 -0.4130
  636MPD2    C3 9416   2.489   3.444  16.176 -0.0090 -0.0430 -0.6202
  636MPD2    C4 9417   2.359   3.404  16.190  0.1563 -0.2018 -0.5212
  636MPD2    C5 9418   2.253   3.485  16.152  0.0777 -0.4649  0.5680
  636MPD2     H 9419   2.608   3.608  16.120  0.9374 -1.1422 -1.4296
  636MPD2    H1 9420   2.332   3.315  16.246 -4.3892  1.0798 -0.7132
  636MPD2    H2 9421   2.201   3.670  16.063  1.2376  1.0537  1.9394
  636MPD2    H3 9422   2.155   3.443  16.169  0.0353 -0.8731 -0.7230
  636MPD2     N 9423   2.603   3.376  16.235  0.0680 -0.2252  0.0107
  636MPD2    H5 9424   2.693   3.423  16.231  0.2518 -0.6015 -0.2909
  636MPD2    N1 9425   2.445   3.771  16.021  0.1350  0.2231  0.0501
  636MPD2    H7 9426   2.540   3.803  16.010  0.2810 -0.5890 -0.9787
  637TMC3    C1 9427   2.743   3.196  16.300 -0.0574  0.2992  0.6434
  637TMC3    C2 9428   2.831   3.277  16.367 -0.5907  0.5817 -0.2951
  637TMC3    C3 9429   2.962   3.242  16.383 -0.1616 -0.0847  0.3365
  637TMC3    C4 9430   2.772   3.073  16.250 -0.1004 -0.0700  0.1291
  637TMC3    C5 9431   2.905   3.041  16.271  0.5222  0.1544 -0.4204
  637TMC3    C6 9432   3.001   3.119  16.330  0.4317  0.0074 -0.9354
  637TMC3     C 9433   2.606   3.242  16.268  0.0439 -0.2135 -0.7905
  637TMC3     O 9434   2.526   3.148  16.262  0.2149  0.4627 -0.0851
  637TMC3     H 9435   2.798   3.372  16.409 -0.9037  0.9490 -1.3691
  637TMC3    H1 9436   2.708   3.028  16.175 -1.0098  2.8942 -0.8860
  637TMC3    H2 9437   3.106   3.091  16.329 -0.0076 -1.6996  0.7863
  637TMC3    C7 9438   2.959   2.991  16.143  0.2723  0.0409 -0.8211
  637TMC3    C8 9439   3.055   3.346  16.351 -0.1283  0.4233 -0.0832
  637TMC3    O1 9440   2.885   2.910  16.083  0.5900  0.2610  0.0211
  637TMC3    O2 9441   3.109   3.333  16.243 -0.4697 -0.5437  0.0251
  638MPD2     C 9442   2.830   2.770  14.607  0.3545  0.1673  0.2828
  638MPD2    C1 9443   2.818   2.641  14.561 -0.3409  0.1142  0.0776
  638MPD2    C2 9444   2.771   2.548  14.644 -0.0994 -0.6350  0.8908
  638MPD2    C3 9445   2.749   2.569  14.773 -0.3233 -0.5947  0.2125
  638MPD2    C4 9446   2.760   2.700  14.820 -0.2623 -0.4816  0.3228
  638MPD2    C5 9447   2.802   2.798  14.735 -0.3774 -0.1384 -0.2062
  638MPD2     H 9448   2.765   2.447  14.605  1.9424  0.3492 -1.9348
  638MPD2    H1 9449   2.728   2.721  14.922 -2.3729 -1.0886 -0.2294
  638MPD2    H2 9450   2.871   2.847  14.542  0.0322 -0.0280 -0.1536
  638MPD2    H3 9451   2.806   2.900  14.773  1.2202 -0.2786 -0.0073
  638MPD2     N 9452   2.704   2.460  14.856  0.1787 -0.0329 -0.3546
  638MPD2    H5 9453   2.681   2.371  14.814 -0.2072 -1.2706  2.4821
  638MPD2    N1 9454   2.856   2.613  14.431  0.0361 -0.0080  0.1219
  638MPD2    H7 9455   2.898   2.690  14.379 -0.8136 -0.1558 -0.7851
  639TMC3    C1 9456   2.625   2.341  15.032 -0.1369  0.1133 -0.7621
  639TMC3    C2 9457   2.544   2.272  14.949 -0.6018  0.4585 -0.1302
  639TMC3    C3 9458   2.464   2.175  15.008 -0.2555 -0.2021  0.2289
  639TMC3    C4 9459   2.648   2.305  15.160  0.4941 -0.4172 -0.2095
  639TMC3    C5 9460   2.584   2.193  15.212  0.0609  0.0285 -0.1355
  639TMC3    C6 9461   2.492   2.132  15.134  0.4438  0.1497 -0.3831
  639TMC3     C 9462   2.684   2.465  14.991  0.1359 -0.4800 -0.8687
  639TMC3     O 9463   2.740   2.541  15.067  0.0537  0.4646  0.2885
  639TMC3     H 9464   2.518   2.310  14.851 -0.8671  0.4030 -0.0823
  639TMC3    H1 9465   2.731   2.360  15.203  0.7816 -0.6783 -0.4249
  639TMC3    H2 9466   2.435   2.049  15.173  1.2785  0.6426  1.8845
  639TMC3    C7 9467   2.639   2.109  15.309  0.3015  0.0202 -0.9678
  639TMC3    C8 9468   2.402   2.079  14.914  0.7472  0.6386  0.3511
  639TMC3    O1 9469   2.574   2.077  15.407  0.5993 -0.2092 -0.4311
  639TMC3    O2 9470   2.465   2.042  14.818  0.5497 -0.4479 -0.1979
  640MPD2     C 9471   4.202   0.615   9.365 -0.9102 -0.0061  0.1455
  640MPD2    C1 9472   4.256   0.730   9.418  0.5881 -0.4924  0.0303
  640MPD2    C2 9473   4.188   0.808   9.511  0.1990 -0.6209 -0.0276
  640MPD2    C3 9474   4.058   0.770   9.545  0.4431  0.0236 -0.4087
  640MPD2    C4 9475   4.005   0.649   9.500 -0.4559 -0.6623 -0.2440
  640MPD2    C5 9476   4.075   0.572   9.402 -0.1425 -0.0106 -0.0025
  640MPD2     H 9477   4.228   0.902   9.546 -1.1342  0.0008 -0.1594
  640MPD2    H1 9478   3.910   0.621   9.544 -0.4160 -0.8550 -0.2778
  640MPD2    H2 9479   4.253   0.548   9.296 -1.7056  0.7213 -1.1387
  640MPD2    H3 9480   4.033   0.476   9.372 -1.9303  1.2323 -1.4305
  640MPD2     N 9481   3.974   0.844   9.628 -0.2505 -1.1308 -0.3613
  640MPD2    H5 9482   3.882   0.808   9.650  0.3005 -1.3177  1.6210
  640MPD2    N1 9483   4.382   0.766   9.364  0.2104 -0.0799  0.3694
  640MPD2    H7 9484   4.420   0.723   9.281  0.2088  1.9408 -0.6822
  641TMC3    C1 9485   4.594   0.853   9.377  0.6423  0.1534  0.8400
  641TMC3    C2 9486   4.647   0.723   9.362 -0.2077  0.4896  0.1589
  641TMC3    C3 9487   0.058   0.716   9.385 -0.1833 -0.2067  0.1972
  641TMC3    C4 9488   4.676   0.957   9.409 -0.1872 -0.2670 -0.7866
  641TMC3    C5 9489   0.089   0.939   9.412 -0.4358  0.2050  0.2728
  641TMC3    C6 9490   0.150   0.816   9.406 -0.0985 -0.4398 -0.4401
  641TMC3     C 9491   4.457   0.863   9.423  0.1844  0.2655 -0.0016
  641TMC3     O 9492   4.444   0.932   9.526 -0.4257  0.5757 -0.0637
  641TMC3     H 9493   4.580   0.639   9.353 -0.3276  0.7210 -1.1557
  641TMC3    H1 9494   4.623   1.051   9.395  1.2509  0.6468 -0.1349
  641TMC3    H2 9495   0.256   0.799   9.424 -0.6315 -1.0379  2.1945
  641TMC3    C7 9496   0.183   1.050   9.428 -0.0551 -0.2465 -0.2132
  641TMC3    C8 9497   0.117   0.588   9.381 -0.0326  0.3644  0.2011
  641TMC3    O1 9498   0.296   1.015   9.460  0.1339 -0.5047  0.0050
  641TMC3    O2 9499   0.053   0.503   9.329 -0.1229 -0.0092  0.1319
  642TMC3    C1 9500   0.449   2.052  12.021 -0.0703  0.2946 -0.3089
  642TMC3    C2 9501   0.569   2.087  11.957  0.1427 -0.7580  0.2504
  642TMC3    C3 9502   0.609   2.010  11.848  0.5514 -0.1623 -0.0635
  642TMC3    C4 9503   0.369   1.951  11.979  0.0445  0.1035  0.5754
  642TMC3    C5 9504   0.414   1.883  11.868  0.1529  1.1156 -0.0654
  642TMC3    C6 9505   0.527   1.910  11.793 -0.0436 -0.5418  0.2763
  642TMC3     C 9506   0.420   2.128  12.143  0.3402 -0.1974 -0.8798
  642TMC3     O 9507   0.510   2.193  12.193  0.2038  0.6205  0.4137
  642TMC3     H 9508   0.622   2.168  12.005 -0.2250  1.7740 -3.5537
  642TMC3    H1 9509   0.278   1.929  12.033  0.8330 -0.9671  1.4732
  642TMC3    H2 9510   0.562   1.858  11.705  0.2923  0.5354 -0.2329
  642TMC3    C7 9511   0.373   1.741  11.865  0.0950  0.0214  0.3632
  642TMC3    C8 9512   0.698   2.075  11.752 -0.2013  0.4987  0.2814
  642TMC3    O1 9513   0.376   1.689  11.750 -0.1481  0.0687 -0.0620
  642TMC3    O2 9514   0.736   2.005  11.660  0.1153  0.8568  0.6074
  643TMC3    C1 9515   3.813   0.949   0.085 -0.3062  0.7826 -0.1267
  643TMC3    C2 9516   3.688   0.894   0.057 -0.3704 -0.2537 -0.3460
  643TMC3    C3 9517   3.635   0.926  17.622  0.1483  0.3534  0.8906
  643TMC3    C4 9518   3.880   1.035  17.686 -0.2047  0.3840  0.1413
  643TMC3    C5 9519   3.811   1.067  17.578 -0.0036  0.8010 -0.0777
  643TMC3    C6 9520   3.697   1.011  17.534  0.0208  0.4978  0.3733
  643TMC3     C 9521   3.844   0.959   0.230 -0.2242  0.0893 -0.4855
  643TMC3     O 9522   3.749   0.953   0.314  0.5189  0.1799  0.1511
  643TMC3     H 9523   3.625   0.863   0.139 -1.4802 -1.0208 -1.4825
  643TMC3    H1 9524   3.969   1.091   0.025 -0.6987  0.2403  2.1974
  643TMC3    H2 9525   3.650   1.056  17.448  2.0859  2.4472  0.2727
  643TMC3    C7 9526   3.843   1.191  17.526 -0.1802  0.2995  0.0825
  643TMC3    C8 9527   3.499   0.971  17.644  0.5364 -0.3474  0.7364
  643TMC3    O1 9528   3.747   1.257  17.493  0.5628 -0.3917  0.0765
  643TMC3    O2 9529   3.409   0.892  17.629  0.2658 -0.3586 -0.2379
  644MPD2     C 9530   4.393   1.908   9.614  0.1301 -0.3815  0.4468
  644MPD2    C1 9531   4.412   1.778   9.586  1.3197  0.0703 -0.4966
  644MPD2    C2 9532   4.312   1.708   9.517  0.3087 -0.8035  0.0077
  644MPD2    C3 9533   4.201   1.774   9.467  0.1339 -0.2016  0.5117
  644MPD2    C4 9534   4.183   1.907   9.489 -0.0384  0.0281  0.1759
  644MPD2    C5 9535   4.281   1.965   9.560 -1.1831 -0.5059  0.1674
  644MPD2     H 9536   4.322   1.603   9.495 -0.6219 -0.8189 -0.3407
  644MPD2    H1 9537   4.098   1.965   9.457  0.0513  0.4661  0.7313
  644MPD2    H2 9538   4.457   1.966   9.679 -0.6036  1.3351 -0.3627
  644MPD2    H3 9539   4.260   2.071   9.568  0.4754 -0.2365  0.9630
  644MPD2     N 9540   4.100   1.693   9.406 -0.1101 -0.4966 -0.2999
  644MPD2    H5 9541   4.118   1.594   9.399 -0.9159 -0.7489  1.1602
  644MPD2    N1 9542   4.524   1.697   9.619 -0.1836 -0.4304 -0.0946
  644MPD2    H7 9543   4.527   1.601   9.585 -3.4528 -0.9711  1.1181
  645TMC3    C1 9544   3.912   1.619   9.304  0.5267  0.7108 -0.3870
  645TMC3    C2 9545   3.986   1.518   9.248 -0.1515 -0.3394 -0.5301
  645TMC3    C3 9546   3.925   1.414   9.195  0.1067 -0.7476  0.6985
  645TMC3    C4 9547   3.770   1.622   9.294  0.3617 -0.0314  0.0380
  645TMC3    C5 9548   3.714   1.512   9.233 -0.9715  0.2248 -0.7733
  645TMC3    C6 9549   3.789   1.405   9.188 -0.2156 -0.4961 -0.0365
  645TMC3     C 9550   3.973   1.728   9.370 -0.0842 -0.0259 -0.5942
  645TMC3     O 9551   3.923   1.841   9.371 -0.3758  0.3243 -0.0282
  645TMC3     H 9552   4.092   1.535   9.237 -0.0241 -1.4817 -1.0787
  645TMC3    H1 9553   3.723   1.699   9.354  0.1349 -1.5286  1.7744
  645TMC3    H2 9554   3.750   1.316   9.140 -1.0248  1.1560 -2.4604
  645TMC3    C7 9555   3.579   1.479   9.259  1.0007 -0.5751 -0.3279
  645TMC3    C8 9556   4.006   1.306   9.131 -0.2412 -0.2158 -0.3193
  645TMC3    O1 9557   3.552   1.360   9.263  0.3916 -0.1692 -0.5691
  645TMC3    O2 9558   3.956   1.245   9.039  0.1722  0.1166 -0.6989
  646MPD2     C 9559   2.762   1.077  14.382 -0.2389 -0.9094 -0.3116
  646MPD2    C1 9560   2.718   1.121  14.503  0.9659 -0.3777 -0.4092
  646MPD2    C2 9561   2.623   1.226  14.516  0.0459 -0.3820 -0.5360
  646MPD2    C3 9562   2.573   1.290  14.403 -0.9161 -0.5272  0.0877
  646MPD2    C4 9563   2.609   1.233  14.285  0.1771 -0.0212 -0.5649
  646MPD2    C5 9564   2.704   1.133  14.276 -0.1886 -0.1071 -0.1947
  646MPD2     H 9565   2.600   1.264  14.614  1.1012 -0.7230 -0.1619
  646MPD2    H1 9566   2.563   1.272  14.195  2.0501  2.3002 -0.5228
  646MPD2    H2 9567   2.833   0.996  14.372  1.0286  0.0145  1.2536
  646MPD2    H3 9568   2.736   1.089  14.183  1.3259  1.3880 -0.3843
  646MPD2     N 9569   2.479   1.397  14.412 -0.2242  0.8802  0.1868
  646MPD2    H5 9570   2.438   1.418  14.502 -2.8676 -1.6538 -0.4244
  646MPD2    N1 9571   2.770   1.052  14.612 -0.7942 -0.4421  0.7902
  646MPD2    H7 9572   2.839   0.979  14.602 -1.4266 -0.9868  0.3875
  647TMC3    C1 9573   2.822   0.991  14.818  0.3959 -0.7239  0.7552
  647TMC3    C2 9574   2.746   0.933  14.920  0.3568  0.0232  0.5102
  647TMC3    C3 9575   2.817   0.856  15.005  0.5278  0.5735  0.2237
  647TMC3    C4 9576   2.951   0.958  14.784  0.0425  0.1428  0.6615
  647TMC3    C5 9577   3.010   0.864  14.863 -0.0778 -0.2426 -0.0891
  647TMC3    C6 9578   2.946   0.824  14.976 -0.3874 -0.0888 -0.0469
  647TMC3     C 9579   2.739   1.076  14.744  0.0796 -0.0169  0.3675
  647TMC3     O 9580   2.646   1.136  14.794  0.3456  0.4765 -0.2627
  647TMC3     H 9581   2.645   0.966  14.940 -0.3350 -2.1159  0.4930
  647TMC3    H1 9582   2.992   1.010  14.698 -3.0094  0.5087 -0.5503
  647TMC3    H2 9583   2.987   0.732  15.016 -0.6023 -1.5673 -3.2231
  647TMC3    C7 9584   3.133   0.799  14.838  0.1904  0.5272  0.2838
  647TMC3    C8 9585   2.755   0.770  15.102 -0.5151  0.0019 -0.4434
  647TMC3    O1 9586   3.190   0.739  14.931  0.0723 -0.0193 -0.2089
  647TMC3    O2 9587   2.837   0.714  15.175  0.4689 -0.3858  0.2240
  648TMC3    C1 9588   2.034   3.178  15.805  0.2511  0.2349 -0.0223
  648TMC3    C2 9589   2.162   3.150  15.763 -0.1232 -0.4751 -0.7787
  648TMC3    C3 9590   2.192   3.182  15.631 -0.4598  0.2620  0.8372
  648TMC3    C4 9591   1.951   3.244  15.720  0.4538  1.2966 -0.4132
  648TMC3    C5 9592   1.993   3.270  15.598 -0.1947  0.6075  0.6759
  648TMC3    C6 9593   2.111   3.236  15.542  0.0582  0.1151  0.6675
  648TMC3     C 9594   1.979   3.158  15.940 -0.4733 -0.3513 -0.5712
  648TMC3     O 9595   1.857   3.181  15.954 -0.1335  0.0615 -0.5026
  648TMC3     H 9596   2.225   3.081  15.817  0.2459  1.2244  0.9455
  648TMC3    H1 9597   1.853   3.275  15.753 -1.2500 -1.8008 -2.5934
  648TMC3    H2 9598   2.141   3.265  15.442 -0.5804  1.9847  1.0153
  648TMC3    C7 9599   1.929   3.385  15.533  0.0662  0.0825 -0.0810
  648TMC3    C8 9600   2.321   3.151  15.582 -0.1174 -0.0857  0.3422
  648TMC3    O1 9601   1.964   3.403  15.416  0.0454  0.0884 -0.1084
  648TMC3    O2 9602   2.348   3.146  15.464 -0.3367  0.4412  0.5496
  649TMC3    C1 9603   0.997   3.872  13.084 -0.3964 -0.3615 -0.2238
  649TMC3    C2 9604   1.069   3.753  13.080  0.0522 -0.7687  0.9108
  649TMC3    C3 9605   1.038   3.668  13.183 -0.2439 -0.0032  0.2147
  649TMC3    C4 9606   0.900   3.910  13.175  0.3695 -0.3486 -0.7459
  649TMC3    C5 9607   0.873   3.821  13.273 -0.6236  0.2541 -0.2553
  649TMC3    C6 9608   0.933   3.698  13.270  0.2700  0.2859 -0.5108
  649TMC3     C 9609   1.021   3.964  12.979  0.4388  0.1219  0.0555
  649TMC3     O 9610   0.945   4.054  12.962 -0.3572 -0.5101  0.6065
  649TMC3     H 9611   1.126   3.726  12.992  0.1615  0.8936  0.4598
  649TMC3    H1 9612   0.845   4.003  13.167  0.0177 -0.6078 -1.4113
  649TMC3    H2 9613   0.933   3.641  13.363 -2.2340  1.0877 -0.0230
  649TMC3    C7 9614   0.776   3.852  13.370 -0.3362  0.6152  0.1408
  649TMC3    C8 9615   1.150   3.612  13.249  0.1927 -0.4327  0.2406
  649TMC3    O1 9616   0.741   3.974  13.370  0.2750  0.5194  0.1403
  649TMC3    O2 9617   1.145   3.600  13.372  0.5901  0.0500  0.0177
  650TMC3    C1 9618   3.996   0.976  12.297 -0.6776  0.5488  0.0466
  650TMC3    C2 9619   4.000   1.098  12.358  0.3841  0.3376  0.4568
  650TMC3    C3 9620   3.958   1.212  12.289 -0.0265  0.3420  0.1558
  650TMC3    C4 9621   3.959   0.969  12.171 -0.4111  0.0234 -0.0797
  650TMC3    C5 9622   3.926   1.084  12.101  0.0142  0.4446 -0.2930
  650TMC3    C6 9623   3.922   1.208  12.161 -0.0858  0.4199  0.0101
  650TMC3     C 9624   4.104   0.883  12.329  0.8962 -0.6021  0.2220
  650TMC3     O 9625   4.166   0.851  12.230  0.1465 -0.5569  0.2113
  650TMC3     H 9626   4.048   1.111  12.455 -2.0411  0.1287  1.6999
  650TMC3    H1 9627   3.969   0.880  12.109 -2.7036 -0.4728  0.2579
  650TMC3    H2 9628   3.907   1.297  12.101  2.2298  0.8888  0.1600
  650TMC3    C7 9629   3.850   1.065  11.981 -0.3419 -0.2719 -0.3161
  650TMC3    C8 9630   3.999   1.341  12.342  0.0386  0.2584  0.1862
  650TMC3    O1 9631   3.801   0.956  11.964 -0.3383 -0.3942 -0.5665
  650TMC3    O2 9632   4.018   1.434  12.263 -0.5560  0.4616  0.3658
  651MPD2     C 9633   3.415   3.214  11.029 -0.6674  0.2341 -0.3078
  651MPD2    C1 9634   3.341   3.220  10.913  0.4525  0.5714 -0.3065
  651MPD2    C2 9635   3.404   3.203  10.792 -0.5963 -0.8412  0.4880
  651MPD2    C3 9636   3.542   3.183  10.784  0.1001  0.6688 -0.2153
  651MPD2    C4 9637   3.616   3.167  10.907 -0.3538  0.6204  0.0758
  651MPD2    C5 9638   3.545   3.178  11.025  0.2798  0.0456  0.6620
  651MPD2     H 9639   3.351   3.241  10.705  0.3696 -1.5933 -0.4294
  651MPD2    H1 9640   3.723   3.152  10.909 -0.6305 -1.8759 -2.5094
  651MPD2    H2 9641   3.366   3.231  11.124  0.1950 -1.4089  0.4259
  651MPD2    H3 9642   3.598   3.169  11.119  1.9179 -3.0235 -0.5419
  651MPD2     N 9643   3.602   3.193  10.655  0.4658 -0.5470 -0.2754
  651MPD2    H5 9644   3.537   3.221  10.582  1.5474  3.2057  0.2151
  651MPD2    N1 9645   3.203   3.242  10.914  0.2245 -0.0808  0.5118
  651MPD2    H7 9646   3.162   3.238  10.822  0.6659  1.0838  0.2743
  652TMC3    C1 9647   3.959   3.203  10.339  0.2425  1.2599  0.3547
  652TMC3    C2 9648   3.889   3.130  10.428 -0.1424 -0.3415  0.2902
  652TMC3    C3 9649   3.772   3.191  10.473 -0.1825 -0.9593 -0.0489
  652TMC3    C4 9650   3.918   3.317  10.278  0.5784  0.3857 -0.1872
  652TMC3    C5 9651   3.804   3.370  10.324 -0.5036 -0.3393 -0.5604
  652TMC3    C6 9652   3.727   3.310  10.424  0.2426  0.7233  0.1133
  652TMC3     C 9653   4.093   3.209  10.403 -0.3802  0.5930  0.1880
  652TMC3     O 9654   4.102   3.173  10.523 -0.0628  0.1245 -0.0791
  652TMC3     H 9655   3.924   3.040  10.478 -2.0896  0.7356  3.5690
  652TMC3    H1 9656   3.980   3.377  10.212 -1.8456  2.0491 -0.9704
  652TMC3    H2 9657   3.642   3.369  10.457  0.2194  0.5291  0.3961
  652TMC3    C7 9658   3.834   3.510  10.324 -0.0257  0.1852 -0.6873
  652TMC3    C8 9659   3.728   3.155  10.615  0.5478 -0.4504  0.1614
  652TMC3    O1 9660   3.917   3.544  10.403  0.4691 -0.1788  0.1314
  652TMC3    O2 9661   3.814   3.102  10.681 -0.4032  0.3073  0.5504
  653MPD2     C 9662   0.870   3.412  17.448 -0.4124 -0.6445  0.1228
  653MPD2    C1 9663   0.903   3.484  17.333  0.2041  0.2560 -0.6763
  653MPD2    C2 9664   0.879   3.424  17.210  0.6392 -0.0465 -0.1339
  653MPD2    C3 9665   0.828   3.292  17.207  0.1984  1.2364  0.6882
  653MPD2    C4 9666   0.797   3.226  17.319 -0.1813 -0.1803 -0.1988
  653MPD2    C5 9667   0.815   3.290  17.439  0.0343  0.8932  0.1879
  653MPD2     H 9668   0.920   3.471  17.122  0.3541 -0.0417 -0.2636
  653MPD2    H1 9669   0.755   3.126  17.319 -0.1107 -0.2093  1.3383
  653MPD2    H2 9670   0.885   3.452  17.547 -1.1725 -2.0716  0.8158
  653MPD2    H3 9671   0.793   3.249  17.537 -0.5771  1.5231  0.3151
  653MPD2     N 9672   0.801   3.236  17.077  0.7429 -0.8480  0.7891
  653MPD2    H5 9673   0.822   3.297  16.999  2.1911 -0.1805  1.6999
  653MPD2    N1 9674   0.964   3.611  17.330  0.4629 -0.2300  0.0912
  653MPD2    H7 9675   0.979   3.671  17.250  2.9893 -1.4742 -0.3520
  654TMC3    C1 9676   0.778   3.082  16.908  0.1039  0.3265 -0.4898
  654TMC3    C2 9677   0.690   3.174  16.848  0.4525 -0.1356 -0.0604
  654TMC3    C3 9678   0.677   3.164  16.709 -0.2248 -0.1679  0.1669
  654TMC3    C4 9679   0.844   2.984  16.833 -0.5029  0.0175 -0.1385
  654TMC3    C5 9680   0.810   2.971  16.700  0.2476  0.1687 -0.5117
  654TMC3    C6 9681   0.730   3.058  16.634 -0.8126 -0.0965 -0.1670
  654TMC3     C 9682   0.799   3.101  17.048 -0.4535 -0.4597 -0.5173
  654TMC3     O 9683   0.825   2.998  17.115  0.1390  0.4363  0.2107
  654TMC3     H 9684   0.641   3.261  16.891  0.4178  0.4305 -1.2506
  654TMC3    H1 9685   0.899   2.912  16.894 -2.1475 -1.0696  0.0690
  654TMC3    H2 9686   0.726   3.053  16.526 -1.5811 -1.2114 -0.0862
  654TMC3    C7 9687   0.879   2.878  16.610  0.2304 -0.5190 -0.0697
  654TMC3    C8 9688   0.601   3.265  16.639 -0.2405  0.5953  0.5578
  654TMC3    O1 9689   0.894   2.917  16.494 -0.0083  0.4353 -0.4922
  654TMC3    O2 9690   0.613   3.381  16.678 -0.1004 -0.2270 -0.4629
  655MPD2     C 9691   2.621   3.356  15.450 -0.0402 -0.1324 -0.3048
  655MPD2    C1 9692   2.563   3.479  15.417 -0.4725 -0.3935 -0.5627
  655MPD2    C2 9693   2.572   3.537  15.294 -0.2863 -0.2178 -0.1346
  655MPD2    C3 9694   2.625   3.463  15.194  0.5289  0.4926  0.0124
  655MPD2    C4 9695   2.699   3.356  15.227 -0.0751  0.2246 -0.3787
  655MPD2    C5 9696   2.695   3.302  15.349 -0.1517 -0.3563 -0.2517
  655MPD2     H 9697   2.526   3.636  15.285 -2.2507 -1.0398  0.8311
  655MPD2    H1 9698   2.757   3.307  15.149 -0.0135 -3.1880  1.8381
  655MPD2    H2 9699   2.632   3.305  15.545 -0.1616  0.2312 -0.0974
  655MPD2    H3 9700   2.746   3.206  15.360  1.6633  0.5574 -0.6377
  655MPD2     N 9701   2.606   3.501  15.059 -0.5165 -0.1532 -0.0576
  655MPD2    H5 9702   2.651   3.437  14.994  0.2608 -3.0613  3.3139
  655MPD2    N1 9703   2.483   3.552  15.507  0.1050 -1.0305  0.1100
  655MPD2    H7 9704   2.440   3.640  15.479 -0.7245 -1.9520 -1.4860
  656TMC3    C1 9705   2.369   3.625  15.690  0.7739  0.8596 -0.0118
  656TMC3    C2 9706   2.266   3.570  15.766 -0.6998 -0.1373  0.3466
  656TMC3    C3 9707   2.148   3.642  15.772 -0.2255  0.0805 -0.2846
  656TMC3    C4 9708   2.355   3.744  15.622 -0.4880  0.1142 -0.3456
  656TMC3    C5 9709   2.236   3.810  15.635 -0.8244 -0.3091  0.6196
  656TMC3    C6 9710   2.127   3.753  15.696  0.3343 -0.4176  0.4932
  656TMC3     C 9711   2.458   3.530  15.634  0.1669 -0.4801 -0.2940
  656TMC3     O 9712   2.483   3.434  15.703 -0.2813 -0.4040  0.2821
  656TMC3     H 9713   2.290   3.488  15.832  0.7033  1.7869  2.2266
  656TMC3    H1 9714   2.436   3.792  15.570 -0.8068  0.6895 -0.3071
  656TMC3    H2 9715   2.027   3.794  15.681  0.4934 -0.3241 -0.2868
  656TMC3    C7 9716   2.197   3.900  15.524  0.5635  0.7231 -0.2957
  656TMC3    C8 9717   2.045   3.596  15.852  0.4127  0.7756  0.2287
  656TMC3    O1 9718   2.271   3.904  15.429 -0.2173  0.9029 -0.0931
  656TMC3    O2 9719   2.035   3.476  15.871 -0.3406 -0.2011  0.3232
  657TMC3    C1 9720   1.466   3.160  14.486 -0.0620 -0.4204 -0.6930
  657TMC3    C2 9721   1.485   3.216  14.612 -0.1544  0.0862 -0.0376
  657TMC3    C3 9722   1.409   3.328  14.647  0.4498 -0.4650 -0.3075
  657TMC3    C4 9723   1.383   3.220  14.403 -0.1720  0.1878 -0.2825
  657TMC3    C5 9724   1.309   3.330  14.443 -0.2595  0.1740 -0.0113
  657TMC3    C6 9725   1.321   3.384  14.564 -0.3633  0.1484 -0.3520
  657TMC3     C 9726   1.543   3.049  14.429 -0.0640  0.2539 -0.5662
  657TMC3     O 9727   1.487   2.986  14.340 -0.2544  0.3490 -0.4592
  657TMC3     H 9728   1.539   3.153  14.682  0.6479 -1.1926 -1.8103
  657TMC3    H1 9729   1.369   3.192  14.300  2.1964  2.1805 -1.1440
  657TMC3    H2 9730   1.282   3.482  14.590  0.2058  0.6183 -1.2864
  657TMC3    C7 9731   1.211   3.371  14.345 -0.2809  0.7666  0.5042
  657TMC3    C8 9732   1.432   3.397  14.774  0.5487  0.4064  0.4355
  657TMC3    O1 9733   1.233   3.348  14.229 -0.3788 -0.1251  0.3918
  657TMC3    O2 9734   1.355   3.487  14.804  0.0930 -0.3178 -0.4005
  658MPD2     C 9735   2.859   3.202  14.575 -0.1048  0.0271 -0.2281
  658MPD2    C1 9736   2.806   3.311  14.515 -0.2517  0.2580 -0.5017
  658MPD2    C2 9737   2.797   3.309  14.372  0.6262 -0.2384 -0.3344
  658MPD2    C3 9738   2.855   3.207  14.300 -0.4409  0.1294  0.0179
  658MPD2    C4 9739   2.932   3.115  14.367  0.4555  0.3465  0.2683
  658MPD2    C5 9740   2.925   3.105  14.503  0.2568  0.4119 -0.1718
  658MPD2     H 9741   2.759   3.386  14.305 -1.2352  0.1123  1.1507
  658MPD2    H1 9742   2.996   3.041  14.322 -0.1218 -0.3231  0.5539
  658MPD2    H2 9743   2.860   3.196  14.684  0.6962 -1.1692 -0.3028
  658MPD2    H3 9744   2.979   3.023  14.547 -0.7278 -0.8537 -1.3289
  658MPD2     N 9745   2.832   3.201  14.163 -0.6096  0.4258  0.1243
  658MPD2    H5 9746   2.761   3.265  14.128 -0.5500  1.4906  1.9438
  658MPD2    N1 9747   2.749   3.404  14.605  0.0247  0.7243  0.1303
  658MPD2    H7 9748   2.750   3.381  14.704  0.1062  0.1851  0.0015
  659TMC3    C1 9749   2.599   3.582  14.656 -0.0462  0.2302 -0.4360
  659TMC3    C2 9750   2.611   3.571  14.794 -0.5236 -0.2326 -0.1868
  659TMC3    C3 9751   2.506   3.607  14.873  0.2522 -0.6557 -0.7015
  659TMC3    C4 9752   2.481   3.631  14.600  0.2355  0.2137  0.1415
  659TMC3    C5 9753   2.381   3.667  14.691 -0.0402 -0.1618 -0.0434
  659TMC3    C6 9754   2.389   3.656  14.826  0.2954  0.2945  0.4739
  659TMC3     C 9755   2.683   3.523  14.562 -0.0290  0.1011  0.5201
  659TMC3     O 9756   2.686   3.583  14.456 -0.0215  0.4891 -0.1054
  659TMC3     H 9757   2.706   3.535  14.831 -1.0875 -0.3296  1.1445
  659TMC3    H1 9758   2.468   3.629  14.492  1.3921  0.0549  0.0024
  659TMC3    H2 9759   2.309   3.680  14.895 -1.2327 -0.8132 -0.9033
  659TMC3    C7 9760   2.250   3.701  14.629  0.0314 -0.1435 -0.2147
  659TMC3    C8 9761   2.526   3.603  15.010 -0.0679 -0.4963  0.2374
  659TMC3    O1 9762   2.182   3.768  14.703 -0.1125  0.2170  0.2876
  659TMC3    O2 9763   2.450   3.668  15.080  0.0467  0.4613  0.8859
  660MPD2     C 9764   0.903   2.142  12.549 -0.6799 -0.2204  0.4920
  660MPD2    C1 9765   0.795   2.222  12.557 -0.2362  0.3291 -0.0457
  660MPD2    C2 9766   0.678   2.178  12.625 -0.0620 -0.4306 -0.0757
  660MPD2    C3 9767   0.679   2.053  12.686 -0.6566  0.0863  0.0816
  660MPD2    C4 9768   0.788   1.980  12.686  0.7233  0.4813 -1.0215
  660MPD2    C5 9769   0.897   2.024  12.615 -0.2411  0.1946  0.2791
  660MPD2     H 9770   0.584   2.230  12.613  0.2995 -0.4431 -3.0550
  660MPD2    H1 9771   0.786   1.894  12.752  2.7316  1.8122  0.7729
  660MPD2    H2 9772   0.995   2.182  12.508  0.3800 -2.9882  0.1349
  660MPD2    H3 9773   0.993   1.973  12.618 -0.3651 -0.1108 -0.9663
  660MPD2     N 9774   0.573   2.009  12.768  0.1451  0.0480  0.5542
  660MPD2    H5 9775   0.585   1.916  12.808  1.3740  0.7425  1.7946
  660MPD2    N1 9776   0.793   2.352  12.488 -0.4314 -0.1940 -0.6551
  660MPD2    H7 9777   0.871   2.367  12.424  1.0257 -1.6627  0.7747
  661TMC3    C1 9778   0.683   2.520  12.364 -0.0737 -0.0587  0.8036
  661TMC3    C2 9779   0.803   2.567  12.299 -0.3904 -0.4617  0.4443
  661TMC3    C3 9780   0.787   2.612  12.172  0.2401  0.5821  0.6423
  661TMC3    C4 9781   0.557   2.530  12.308  0.7371  0.2018 -0.3953
  661TMC3    C5 9782   0.553   2.575  12.177 -0.9908 -0.3715 -0.3948
  661TMC3    C6 9783   0.663   2.605  12.103 -0.0942  0.2304 -0.2415
  661TMC3     C 9784   0.693   2.440  12.484  0.0469 -1.2411  0.0984
  661TMC3     O 9785   0.589   2.433  12.548 -0.7090 -0.4769  0.5237
  661TMC3     H 9786   0.901   2.556  12.345 -0.9176 -2.7014  0.9847
  661TMC3    H1 9787   0.472   2.505  12.371  0.2127 -1.2408 -1.6687
  661TMC3    H2 9788   0.653   2.656  12.007  0.9752 -1.0832 -1.0543
  661TMC3    C7 9789   0.435   2.535  12.108  0.0600 -0.5774 -1.0083
  661TMC3    C8 9790   0.907   2.655  12.104 -0.4558 -0.0815  1.4062
  661TMC3    O1 9791   0.340   2.516  12.187 -0.3848 -0.2108  0.8298
  661TMC3    O2 9792   1.015   2.644  12.163  0.1210  0.2113 -0.3212
  662MPD2     C 9793   0.972   1.834  16.546  0.3482  0.2125  0.2809
  662MPD2    C1 9794   0.973   1.817  16.685 -0.1161  0.3333  0.0417
  662MPD2    C2 9795   0.918   1.917  16.764 -0.1479  0.2191  0.5437
  662MPD2    C3 9796   0.863   2.032  16.706 -1.0878  0.4340  0.1473
  662MPD2    C4 9797   0.866   2.041  16.573  0.1508  0.7514 -0.0509
  662MPD2    C5 9798   0.917   1.948  16.491 -0.2165 -0.4165  0.0973
  662MPD2     H 9799   0.927   1.902  16.871 -0.0972 -2.1977  0.2054
  662MPD2    H1 9800   0.833   2.135  16.531 -0.0404 -0.3875 -2.4292
  662MPD2    H2 9801   1.016   1.767  16.473  1.4328 -0.1087  1.2217
  662MPD2    H3 9802   0.925   1.971  16.385 -1.9331 -0.6600 -0.0873
  662MPD2     N 9803   0.807   2.136  16.771 -0.1780 -0.5486  0.5082
  662MPD2    H5 9804   0.771   2.213  16.716 -0.5244 -0.2524  1.1404
  662MPD2    N1 9805   1.023   1.704  16.749  0.0309  0.2825  0.5750
  662MPD2    H7 9806   1.010   1.700  16.849 -0.5638 -0.3296  0.4729
  663TMC3    C1 9807   1.165   1.527  16.798 -0.8846  0.2852 -0.3408
  663TMC3    C2 9808   1.128   1.537  16.932  0.3064  0.1178  0.1789
  663TMC3    C3 9809   1.170   1.451  17.028 -0.6007 -0.1370 -0.0331
  663TMC3    C4 9810   1.246   1.430  16.753  0.9503  0.4174  0.1374
  663TMC3    C5 9811   1.293   1.347  16.851  0.5923 -0.6064  0.6495
  663TMC3    C6 9812   1.261   1.359  16.984 -0.3169 -0.5822  0.4435
  663TMC3     C 9813   1.092   1.602  16.694  0.1695  0.2632 -0.2549
  663TMC3     O 9814   1.109   1.579  16.575 -0.2634  0.0947 -0.1734
  663TMC3     H 9815   1.037   1.592  16.954 -0.8840 -1.7771 -0.0300
  663TMC3    H1 9816   1.266   1.412  16.648 -2.1914 -0.8566 -0.2301
  663TMC3    H2 9817   1.301   1.282  17.048  0.5619  0.3954  1.0699
  663TMC3    C7 9818   1.315   1.207  16.806  0.0052 -0.3128 -0.7780
  663TMC3    C8 9819   1.059   1.382  17.088  0.3943 -0.0576  1.2281
  663TMC3    O1 9820   1.371   1.185  16.701  0.2451  0.6184  0.2046
  663TMC3    O2 9821   1.042   1.266  17.047  0.0750  0.3983 -0.0634
  664MPD2     C 9822   3.680   4.616  17.179  0.4202 -1.3288  0.1571
  664MPD2    C1 9823   3.713   0.027  17.196  0.4514  0.2520  0.1479
  664MPD2    C2 9824   3.746   0.073  17.322 -0.1693  0.0934 -0.8628
  664MPD2    C3 9825   3.736   4.718  17.429 -1.1165  0.9853 -0.2735
  664MPD2    C4 9826   3.707   4.585  17.421  0.7040  0.0391 -0.2815
  664MPD2    C5 9827   3.678   4.537  17.292 -0.3354 -0.0950 -0.2273
  664MPD2     H 9828   3.782   0.172  17.346 -0.6746 -0.9982  4.3079
  664MPD2    H1 9829   3.706   4.508  17.498 -1.4931  0.9213  0.5853
  664MPD2    H2 9830   3.664   4.569  17.083 -1.6578  1.1196 -0.6943
  664MPD2    H3 9831   3.651   4.433  17.277 -0.7368  0.1179 -0.9729
  664MPD2     N 9832   3.769   0.047  17.562 -0.6829  0.0261 -0.0307
  664MPD2    H5 9833   3.808   0.141  17.565  0.3916 -0.4809  1.7123
  664MPD2    N1 9834   3.723   0.120  17.096  0.5168 -0.2194  0.0559
  664MPD2    H7 9835   3.739   0.217  17.121  1.1069 -0.1578 -0.5273
  665TMC3    C1 9836   3.783   0.022   0.117  0.1764 -0.1904 -0.9002
  665TMC3    C2 9837   3.742   4.691   0.240 -0.0195 -0.2698  0.6828
  665TMC3    C3 9838   3.811   0.008   0.344 -0.1142 -0.4861  0.5727
  665TMC3    C4 9839   3.901   0.086   0.108 -0.0641  0.0910  0.0180
  665TMC3    C5 9840   3.972   0.110   0.220  0.0500  0.1279 -0.3567
  665TMC3    C6 9841   3.936   0.066   0.346 -0.4297 -0.1869  0.7531
  665TMC3     C 9842   3.726   4.700  17.677 -0.1723  0.0407  0.3679
  665TMC3     O 9843   3.630   4.622  17.680 -0.1657 -0.1325 -0.0292
  665TMC3     H 9844   3.654   4.627   0.244 -0.4413  0.1894 -1.2395
  665TMC3    H1 9845   3.923   0.146   0.021 -2.4810  0.5678 -0.2847
  665TMC3    H2 9846   3.994   0.086   0.436 -1.2817 -1.4957  1.5908
  665TMC3    C7 9847   4.084   0.184   0.202 -0.0851 -0.4514  0.1565
  665TMC3    C8 9848   3.768   4.688   0.475  0.2756  0.4149 -0.7169
  665TMC3    O1 9849   4.133   0.181   0.087 -0.6685 -0.0596  0.0806
  665TMC3    O2 9850   3.851   4.649   0.552  0.1884 -0.1290  0.4489
  666TMC3    C1 9851   4.096   4.571   9.534  0.0062 -0.7150  0.4395
  666TMC3    C2 9852   4.180   4.483   9.603 -0.1762 -0.1589 -0.3897
  666TMC3    C3 9853   4.311   4.516   9.624 -0.5633  0.2432 -0.3047
  666TMC3    C4 9854   4.147   4.698   9.497  0.3452  0.5905 -0.4608
  666TMC3    C5 9855   4.286   4.712   9.510 -0.2449  0.0032  0.9589
  666TMC3    C6 9856   4.373   4.619   9.560 -0.0592  0.3127 -0.3655
  666TMC3     C 9857   3.958   4.579   9.579  0.6872  0.2928  0.0645
  666TMC3     O 9858   3.926   4.695   9.607 -1.2657 -0.6133  0.2711
  666TMC3     H 9859   4.127   4.414   9.667 -2.7062  1.3158 -0.9263
  666TMC3    H1 9860   4.086   0.053   9.452  0.4378  0.7911 -0.2475
  666TMC3    H2 9861   4.473   4.659   9.574  0.0710 -0.4085  0.7449
  666TMC3    C7 9862   4.325   0.131   9.519  0.8619  0.0723  0.0227
  666TMC3    C8 9863   4.346   4.496   9.770 -0.2395 -0.2412 -0.5863
  666TMC3    O1 9864   4.438   0.169   9.482 -0.2465  0.1082 -0.0044
  666TMC3    O2 9865   4.291   4.396   9.820 -1.1253 -0.5828 -0.2541
  667MPD2     C 9866   4.453   4.522  14.333 -0.5625  0.0191  0.7614
  667MPD2    C1 9867   4.333   4.575  14.372 -0.3985 -0.2457  0.6571
  667MPD2    C2 9868   4.215   4.539  14.306  0.0392  0.3459  0.0602
  667MPD2    C3 9869   4.225   4.442  14.203 -0.5915  0.1236  0.7144
  667MPD2    C4 9870   4.347   4.386  14.170 -0.1361 -0.6474  0.9716
  667MPD2    C5 9871   4.460   4.431  14.233  0.0501 -0.2432 -0.1396
  667MPD2     H 9872   4.117   4.580  14.329 -1.0078 -1.4711 -1.1146
  667MPD2    H1 9873   4.343   4.315  14.088  0.4065  0.8748 -0.3843
  667MPD2    H2 9874   4.540   4.552  14.390 -1.2513  2.2415  0.6367
  667MPD2    H3 9875   4.556   4.383  14.215  0.7855  0.7279  1.2278
  667MPD2     N 9876   4.119   4.413  14.112  0.7170  0.2433 -0.3018
  667MPD2    H5 9877   4.136   4.335  14.049  0.4642 -0.7935  0.9154
  667MPD2    N1 9878   4.324   4.670  14.480 -0.0845  0.0853 -0.0620
  667MPD2    H7 9879   4.231   4.692  14.512 -0.8819 -0.8374 -1.7160
  668TMC3    C1 9880   4.401   0.141  14.618  0.0122 -0.0267 -0.1323
  668TMC3    C2 9881   4.482   0.254  14.620 -0.1082  0.0323  0.1872
  668TMC3    C3 9882   4.487   0.327  14.735 -0.4097  0.1483 -0.2808
  668TMC3    C4 9883   4.321   0.103  14.725  0.3444 -0.4258  0.1430
  668TMC3    C5 9884   4.329   0.181  14.835  0.0870 -0.2301  0.0440
  668TMC3    C6 9885   4.415   0.288  14.843  0.9626  0.1719  0.5931
  668TMC3     C 9886   4.435   0.033  14.524 -0.3575 -0.4566 -0.1766
  668TMC3     O 9887   4.547   0.041  14.471  0.4379  0.2090  0.1871
  668TMC3     H 9888   4.553   0.277  14.541 -1.8683 -0.8630 -1.6671
  668TMC3    H1 9889   4.266   0.010  14.717  0.6734 -0.8419  2.7443
  668TMC3    H2 9890   4.424   0.341  14.938 -1.2146 -1.5575  1.7847
  668TMC3    C7 9891   4.248   0.156  14.956 -0.0264  1.0041 -0.0749
  668TMC3    C8 9892   4.600   0.410  14.757 -0.1329  0.1384  1.0251
  668TMC3    O1 9893   4.280   0.207  15.062  0.2745 -0.4146  0.0796
  668TMC3    O2 9894   4.658   0.390  14.862  0.6367 -0.1130 -0.1522
  669TMC3    C1 9895   2.506   0.489  14.246  0.8523  0.6428  0.0682
  669TMC3    C2 9896   2.376   0.482  14.200  0.3398 -0.2439  1.3563
  669TMC3    C3 9897   2.345   0.544  14.080 -0.2608  0.6673  0.4097
  669TMC3    C4 9898   2.604   0.547  14.173 -0.2453 -0.2335 -0.5533
  669TMC3    C5 9899   2.569   0.604  14.053  0.6769  0.6554 -0.6305
  669TMC3    C6 9900   2.445   0.598  13.998  0.2617  0.4337  0.1120
  669TMC3     C 9901   2.520   0.502  14.390  0.9033  0.6539  0.4810
  669TMC3     O 9902   2.491   0.609  14.439  0.6065 -0.5188 -0.4728
  669TMC3     H 9903   2.308   0.424  14.261  0.4053 -2.2429 -0.4277
  669TMC3    H1 9904   2.700   0.565  14.219  0.7464 -2.5781 -1.7068
  669TMC3    H2 9905   2.424   0.658  13.910 -1.7081  1.1183  1.0466
  669TMC3    C7 9906   2.680   0.659  13.977 -0.9209  0.0376  0.6745
  669TMC3    C8 9907   2.209   0.547  14.031  0.1607 -1.1790 -0.2904
  669TMC3    O1 9908   2.784   0.671  14.046 -0.4917  0.1603  0.4061
  669TMC3    O2 9909   2.196   0.600  13.922 -0.4829 -0.0103  0.2956
  670MPD2     C 9910   0.929   2.683  13.183  0.8026 -1.0904 -0.3684
  670MPD2    C1 9911   1.049   2.664  13.248  0.2209 -0.1114  0.6568
  670MPD2    C2 9912   1.040   2.642  13.384 -0.1204 -0.8936  0.2723
  670MPD2    C3 9913   0.923   2.619  13.452  0.7551  0.7655  0.0223
  670MPD2    C4 9914   0.805   2.631  13.381 -0.0198 -0.1069 -0.3692
  670MPD2    C5 9915   0.810   2.674  13.247  0.1879  0.5821  0.5446
  670MPD2     H 9916   1.135   2.622  13.433 -0.1654 -0.7387  0.4222
  670MPD2    H1 9917   0.705   2.620  13.421 -0.0117 -0.6495 -0.5038
  670MPD2    H2 9918   0.915   2.692  13.076 -4.8381  1.1087  0.5946
  670MPD2    H3 9919   0.719   2.683  13.190  0.0685 -1.5524  0.3676
  670MPD2     N 9920   0.933   2.567  13.581 -0.4314 -0.3507 -0.3441
  670MPD2    H5 9921   1.025   2.576  13.624 -0.9441  0.8759  0.4786
  670MPD2    N1 9922   1.171   2.681  13.183  0.5794 -0.1843 -0.0627
  670MPD2    H7 9923   1.247   2.686  13.249  0.9829  0.5488 -0.5817
  671TMC3    C1 9924   0.839   2.501  13.799 -0.2516 -0.1257  0.3773
  671TMC3    C2 9925   0.958   2.467  13.856 -0.2139 -0.2308 -0.4179
  671TMC3    C3 9926   0.953   2.423  13.987 -0.5840 -0.5187  0.0376
  671TMC3    C4 9927   0.720   2.467  13.863  0.4497 -0.4354 -1.2274
  671TMC3    C5 9928   0.722   2.408  13.986 -0.9051  0.5527 -0.4085
  671TMC3    C6 9929   0.837   2.408  14.059  0.2060  0.3829 -0.0360
  671TMC3     C 9930   0.822   2.524  13.655  0.8465  0.5565  0.0347
  671TMC3     O 9931   0.708   2.498  13.615 -0.1544 -0.6091 -0.1001
  671TMC3     H 9932   1.048   2.446  13.800  0.1778 -0.3722  0.2620
  671TMC3    H1 9933   0.624   2.486  13.817  0.3938 -0.4933 -1.1338
  671TMC3    H2 9934   0.831   2.372  14.160  0.6391  0.9518  0.1951
  671TMC3    C7 9935   0.655   2.283  14.010 -0.0919 -0.6554  0.0514
  671TMC3    C8 9936   1.030   2.291  14.007 -0.2178  0.0894 -0.7835
  671TMC3    O1 9937   0.681   2.214  14.109  0.0297  0.2581  0.4355
  671TMC3    O2 9938   1.051   2.218  13.910  0.6064  0.2368  0.3303
  672MPD2     C 9939   1.190   3.583   0.939 -0.1321 -0.3323  0.7041
  672MPD2    C1 9940   1.190   3.502   1.050  0.0374  0.5258  0.1396
  672MPD2    C2 9941   1.251   3.551   1.164  0.3578  0.3688  0.3872
  672MPD2    C3 9942   1.321   3.669   1.161  0.0817 -0.8914 -0.5321
  672MPD2    C4 9943   1.345   3.726   1.041 -0.2607  0.1934 -0.1351
  672MPD2    C5 9944   1.280   3.682   0.932  0.3324  0.4485 -0.3477
  672MPD2     H 9945   1.248   3.500   1.259  1.1354  0.4590  0.4617
  672MPD2    H1 9946   1.400   3.818   1.030  1.4200 -0.7837  0.1668
  672MPD2    H2 9947   1.140   3.569   0.843  2.4673 -1.2281 -0.5265
  672MPD2    H3 9948   1.288   3.740   0.841  0.3730 -0.5659 -0.9943
  672MPD2     N 9949   1.377   3.733   1.269  0.5093 -0.0068 -0.4747
  672MPD2    H5 9950   1.422   3.820   1.242 -0.7629  0.4475 -1.1310
  672MPD2    N1 9951   1.104   3.389   1.069 -0.4175 -0.1097  0.3138
  672MPD2    H7 9952   1.110   3.340   1.157  0.5971  0.3340  0.4917
  673TMC3    C1 9953   0.920   3.251   1.005  0.5083  0.2108  0.2605
  673TMC3    C2 9954   0.970   3.139   1.064 -0.4509 -0.4913 -0.2926
  673TMC3    C3 9955   0.895   3.030   1.063 -0.5799  0.5385  0.0129
  673TMC3    C4 9956   0.795   3.259   0.953 -0.3758  0.3934 -0.0607
  673TMC3    C5 9957   0.726   3.138   0.954 -0.4096 -0.1554 -0.3139
  673TMC3    C6 9958   0.768   3.027   1.012  0.4566 -0.4978  0.5582
  673TMC3     C 9959   1.002   3.367   0.976  0.0558 -0.2052 -0.1446
  673TMC3     O 9960   0.962   3.430   0.880 -0.5913 -0.3766  0.3551
  673TMC3     H 9961   1.075   3.143   1.091 -0.7617  0.9665  0.7505
  673TMC3    H1 9962   0.747   3.353   0.931 -0.7298 -0.1910 -1.7732
  673TMC3    H2 9963   0.715   2.934   0.998  0.0620 -0.1456 -0.3106
  673TMC3    C7 9964   0.641   3.118   0.846 -0.4961  0.4279 -0.2298
  673TMC3    C8 9965   0.947   2.901   1.119  0.3537  0.7260 -0.2673
  673TMC3    O1 9966   0.565   3.023   0.835  0.3025 -0.3240  0.8078
  673TMC3    O2 9967   0.871   2.803   1.109  0.0622 -0.0204 -0.9970
  674MPD2     C 9968   1.109   3.460   0.297 -0.1935  0.2591 -0.0757
  674MPD2    C1 9969   1.133   3.352   0.375 -0.0689 -0.0938  0.2733
  674MPD2    C2 9970   1.064   3.234   0.356  0.3043  0.1307  0.3743
  674MPD2    C3 9971   0.956   3.241   0.267  0.8668 -0.4933  0.0256
  674MPD2    C4 9972   0.919   3.356   0.194  1.1721  0.1623 -0.4717
  674MPD2    C5 9973   1.005   3.463   0.206 -0.1179 -0.4217  0.3002
  674MPD2     H 9974   1.084   3.135   0.397 -2.1325 -0.4338  0.2004
  674MPD2    H1 9975   0.830   3.377   0.136  1.7753 -1.6449 -2.0502
  674MPD2    H2 9976   1.165   3.553   0.298  3.6552 -2.0728  0.7622
  674MPD2    H3 9977   0.994   3.554   0.149  1.5949 -0.6542 -0.3990
  674MPD2     N 9978   0.880   3.123   0.260 -0.2092  0.2821  0.1684
  674MPD2    H5 9979   0.904   3.043   0.318 -1.0118  1.2260  1.8103
  674MPD2    N1 9980   1.241   3.371   0.469  0.2070 -0.2069  0.2182
  674MPD2    H7 9981   1.283   3.464   0.472  1.5530 -0.7763 -1.0353
  675TMC3    C1 9982   1.384   3.317   0.654  0.0945 -0.4392 -0.4613
  675TMC3    C2 9983   1.371   3.262   0.781 -0.1771  0.6058 -0.0311
  675TMC3    C3 9984   1.439   3.324   0.889 -0.0990 -0.3797 -0.3474
  675TMC3    C4 9985   1.458   3.431   0.635 -0.3859 -0.5158 -0.0619
  675TMC3    C5 9986   1.517   3.482   0.747 -0.1832  0.1875 -0.2683
  675TMC3    C6 9987   1.521   3.427   0.873 -0.1139  0.2935  0.8013
  675TMC3     C 9988   1.280   3.275   0.561 -0.2645  0.3812 -0.3116
  675TMC3     O 9989   1.215   3.173   0.587 -0.5338  0.0298  0.2229
  675TMC3     H 9990   1.309   3.175   0.794  1.2817 -0.6113 -1.2167
  675TMC3    H1 9991   1.465   3.474   0.535  1.7224 -1.6959 -0.4178
  675TMC3    H2 9992   1.574   3.490   0.944 -1.1223  0.5266  1.3515
  675TMC3    C7 9993   1.597   3.604   0.727  0.3095 -0.0868 -0.7333
  675TMC3    C8 9994   1.474   3.252   1.008 -0.2739  0.0065 -0.2188
  675TMC3    O1 9995   1.684   3.628   0.806 -0.1025  0.6607 -0.5727
  675TMC3    O2 9996   1.550   3.307   1.089  0.5616 -0.4040 -0.0092
  676MPD2     C 9997   4.187   1.056  10.794 -0.7761 -0.5541 -0.0851
  676MPD2    C1 9998   4.176   0.960  10.893  1.0305 -0.3611  0.0410
  676MPD2    C2 9999   4.202   0.829  10.862 -0.9779 -0.4318  0.5137
  676MPD2    C310000   4.232   0.790  10.730  0.5270 -0.4862  0.2063
  676MPD2    C410001   4.255   0.891  10.636 -0.3785 -0.7528 -0.3645
  676MPD2    C510002   4.238   1.023  10.670 -0.6983  0.0861  0.9284
  676MPD2     H10003   4.204   0.758  10.943  0.2859 -0.9717  0.0003
  676MPD2    H110004   4.300   0.869  10.540  0.3285  1.7452 -0.6096
  676MPD2    H210005   4.174   1.163  10.804 -1.7759 -0.7852  1.1901
  676MPD2    H310006   4.262   1.108  10.606  0.2063 -1.1639 -0.3932
  676MPD2     N10007   4.237   0.653  10.688 -0.3736 -0.5835  0.6293
  676MPD2    H510008   4.250   0.634  10.589 -0.0511  0.5552  0.4562
  676MPD2    N110009   4.149   0.990  11.024  0.3127  0.0020 -0.1589
  676MPD2    H710010   4.164   0.917  11.092 -1.0086 -0.7686 -0.6953
  677TMC3    C110011   4.058   1.100  11.207  0.5771 -0.0593 -0.0959
  677TMC3    C210012   4.010   0.988  11.272  0.3085  0.1212 -0.0722
  677TMC3    C310013   3.977   1.003  11.399  0.3001  1.0337 -0.0537
  677TMC3    C410014   4.068   1.220  11.264 -0.2696 -0.0450  0.2643
  677TMC3    C510015   4.037   1.231  11.396 -0.6455  0.1217  0.2100
  677TMC3    C610016   3.994   1.121  11.468  0.4066  0.3512  0.3383
  677TMC3     C10017   4.078   1.101  11.063  0.3013  0.0275  0.4365
  677TMC3     O10018   4.080   1.210  11.007  0.3032  0.4264 -0.1339
  677TMC3     H10019   3.994   0.891  11.227  0.1382 -0.3281  0.9467
  677TMC3    H110020   4.084   1.313  11.210  1.1574 -0.1995  0.4117
  677TMC3    H210021   3.972   1.127  11.574  1.1881 -1.6377  0.6240
  677TMC3    C710022   4.114   1.330  11.469  0.4208  0.1967 -0.5851
  677TMC3    C810023   4.034   0.890  11.479 -0.5430  0.6380 -0.0857
  677TMC3    O110024   4.109   1.334  11.590  0.3939  0.1540  0.2601
  677TMC3    O210025   4.102   0.812  11.417 -0.2658  0.3107 -0.0290
  678MPD2     C10026   0.755   1.322   1.256  0.2641  0.0203  0.5771
  678MPD2    C110027   0.768   1.266   1.130  0.1509  0.1515 -0.1418
  678MPD2    C210028   0.682   1.169   1.088 -0.2179  0.2201 -0.0463
  678MPD2    C310029   0.562   1.153   1.155 -0.0178 -0.5265  0.6928
  678MPD2    C410030   0.539   1.211   1.271  0.4803  0.2733 -0.0993
  678MPD2    C510031   0.639   1.295   1.323 -0.1478  0.5175  0.2635
  678MPD2     H10032   0.711   1.118   0.997  1.2127  1.9425 -0.5388
  678MPD2    H110033   0.445   1.199   1.324  0.1632 -0.7399 -0.9067
  678MPD2    H210034   0.818   1.396   1.305 -1.2551  3.0124 -2.0044
  678MPD2    H310035   0.627   1.330   1.425 -0.4791  1.7364 -0.1920
  678MPD2     N10036   0.474   1.068   1.089  0.2914 -0.0623 -0.0954
  678MPD2    H510037   0.507   1.024   1.003 -1.2599 -4.2241  1.4518
  678MPD2    N110038   0.881   1.288   1.049 -0.3491 -0.1514 -0.4245
  678MPD2    H710039   0.880   1.235   0.963 -0.3802  0.1272 -0.5946
  679TMC3    C110040   1.291   1.284   0.885  0.3077  0.3580  0.2012
  679TMC3    C210041   1.212   1.328   0.993 -0.5523 -0.3781  0.3120
  679TMC3    C310042   1.083   1.349   0.962 -0.6674 -0.0293  0.0158
  679TMC3    C410043   1.242   1.273   0.756 -0.5765 -0.6267 -0.3305
  679TMC3    C510044   1.111   1.302   0.734  0.6761 -0.5985 -0.7344
  679TMC3    C610045   1.031   1.340   0.835  0.0444 -0.0868  0.8717
  679TMC3     C10046   1.388   1.186   0.913  0.3742 -0.4729  0.2507
  679TMC3     O10047   1.399   1.088   0.839  0.0650 -0.4715  0.4596
  679TMC3     H10048   1.236   1.332   1.099  0.5416  0.2366  0.0474
  679TMC3    H110049   1.310   1.220   0.690 -0.0704  0.3535 -0.5963
  679TMC3    H210050   0.926   1.354   0.813  0.1221 -1.2267 -0.2060
  679TMC3    C710051   1.072   1.354   0.611 -0.6374 -0.0176 -0.3712
  679TMC3    C810052   0.994   1.356   1.076 -0.3410  0.6589 -0.3808
  679TMC3    O110053   0.977   1.429   0.618  0.0021  0.3155  0.0137
  679TMC3    O210054   1.032   1.407   1.178  0.2261  0.3316 -0.1170
  680MPD2     C10055   0.405   0.044  13.624 -0.2096  0.4612 -0.4280
  680MPD2    C110056   0.484   4.700  13.724 -0.4629 -0.0538 -0.2278
  680MPD2    C210057   0.608   0.032  13.762  0.6139 -0.7817 -0.0006
  680MPD2    C310058   0.656   0.151  13.703  0.0250  0.2083  0.2431
  680MPD2    C410059   0.573   0.207  13.604 -0.1217 -0.8293  0.1178
  680MPD2    C510060   0.451   0.160  13.567 -0.0057 -0.0403 -0.6881
  680MPD2     H10061   0.670   4.703  13.836  1.4520  1.0876  0.5699
  680MPD2    H110062   0.598   0.294  13.546 -2.0284 -0.9921 -0.9637
  680MPD2    H210063   0.310   0.004  13.593 -0.9517  1.9177 -0.0758
  680MPD2    H310064   0.397   0.219  13.494  0.6596  1.1498 -0.2193
  680MPD2     N10065   0.784   0.210  13.730 -0.7402 -0.2500 -0.3202
  680MPD2    H510066   0.799   0.291  13.670  1.8374  1.4140  2.5366
  680MPD2    N110067   0.446   4.584  13.789  0.2758 -0.1049 -0.5286
  680MPD2    H710068   0.506   4.545  13.861  1.8007  2.0599 -0.6332
  681TMC3    C110069   0.347   4.389  13.834  0.1854  0.1110  0.4642
  681TMC3    C210070   0.356   4.406  13.972  0.7444  0.6919 -0.6050
  681TMC3    C310071   0.349   4.290  14.047 -0.5136 -0.8790  0.2988
  681TMC3    C410072   0.337   4.266  13.774  0.0792 -0.4258 -0.1396
  681TMC3    C510073   0.318   4.161  13.861 -0.6908  0.6203 -0.0339
  681TMC3    C610074   0.321   4.169  13.995  0.1569  0.5231 -0.2815
  681TMC3     C10075   0.347   4.505  13.746 -0.1130  0.3187  0.1865
  681TMC3     O10076   0.279   4.508  13.645  0.0235 -0.6628 -0.6054
  681TMC3     H10077   0.328   4.499  14.021  0.6900 -0.1368  0.9425
  681TMC3    H110078   0.329   4.267  13.666 -1.1696 -3.3298 -0.0604
  681TMC3    H210079   0.318   4.079  14.056 -0.4193 -0.4466 -1.7478
  681TMC3    C710080   0.336   4.025  13.814  0.7476  0.5716  0.0626
  681TMC3    C810081   0.377   4.304  14.191 -0.8519 -0.3771 -0.6591
  681TMC3    O110082   0.279   3.939  13.880 -1.0925  0.5108 -0.7077
  681TMC3    O210083   0.342   4.212  14.259 -0.4328  0.9339 -0.5628
  682MPD2     C10084   3.598   1.100  10.369  0.7636  0.7160  0.9587
  682MPD2    C110085   3.524   0.993  10.319  0.8751 -0.1292 -0.1697
  682MPD2    C210086   3.383   1.004  10.334 -0.0518  0.4926 -0.4398
  682MPD2    C310087   3.321   1.094  10.407  0.2118 -0.9359 -0.3275
  682MPD2    C410088   3.401   1.196  10.459 -0.0163  0.4576 -0.2837
  682MPD2    C510089   3.538   1.198  10.446 -0.1214  0.2362  0.1106
  682MPD2     H10090   3.324   0.918  10.302 -2.8280  2.0309  0.5250
  682MPD2    H110091   3.346   1.279  10.503  1.4145  0.2912  1.8083
  682MPD2    H210092   3.706   1.092  10.359  0.5144 -0.5111 -0.8156
  682MPD2    H310093   3.601   1.275  10.488 -0.4868 -0.2820  1.6275
  682MPD2     N10094   3.187   1.096  10.454 -0.5956  0.7212 -0.3129
  682MPD2    H510095   3.169   1.169  10.523  0.0561 -2.2012  2.9119
  682MPD2    N110096   3.572   0.884  10.240 -1.2532 -0.1673 -0.4384
  682MPD2    H710097   3.498   0.822  10.209 -0.5904 -0.7285 -0.9076
  683TMC3    C110098   2.890   0.967  10.718 -0.7699  0.1957  0.3154
  683TMC3    C210099   2.787   0.887  10.664 -0.0369  0.0906 -0.4096
  683TMC3    C310100   2.775   0.884  10.530  0.1824  0.1923 -0.1754
  683TMC3    C410101   2.979   1.032  10.639  0.5853 -0.1738 -1.0540
  683TMC3    C510102   2.970   1.019  10.499  0.7536 -0.0161  0.4519
  683TMC3    C610103   2.860   0.961  10.451 -0.3966 -0.5580  1.0406
  683TMC3     C10104   2.912   0.988  10.856 -0.7048  0.5755 -0.0210
  683TMC3     O10105   3.030   0.998  10.897 -0.0502  1.0053  0.1115
  683TMC3     H10106   2.726   0.831  10.735  1.6531 -0.2794  0.7559
  683TMC3    H110107   3.076   1.058  10.681  1.0095 -0.2579 -1.9884
  683TMC3    H210108   2.850   0.947  10.344  1.0192 -1.6617  1.0471
  683TMC3    C710109   3.091   1.004  10.424  0.2594  0.2308 -0.7248
  683TMC3    C810110   2.729   0.753  10.477  0.2401 -0.1330 -0.7196
  683TMC3    O110111   3.095   0.911  10.347 -0.0158  0.0254 -0.4093
  683TMC3    O210112   2.620   0.738  10.427 -0.2235 -0.0199  0.2618
  684MPD2     C10113   0.642   0.824  16.270  0.3087 -0.6627 -0.6969
  684MPD2    C110114   0.682   0.815  16.140  0.5154  1.4231  0.1980
  684MPD2    C210115   0.751   0.925  16.091  0.1254  0.7838  0.3813
  684MPD2    C310116   0.777   1.036  16.163 -0.0784  0.0827 -0.5007
  684MPD2    C410117   0.735   1.038  16.289  0.3602  0.0482  0.6822
  684MPD2    C510118   0.660   0.934  16.340  0.4441  0.4222 -0.7913
  684MPD2     H10119   0.789   0.926  15.990 -2.1689  1.1379 -0.4892
  684MPD2    H110120   0.749   1.123  16.355  2.0603  0.4360 -0.1691
  684MPD2    H210121   0.589   0.739  16.311 -0.4072  1.0247  1.8600
  684MPD2    H310122   0.626   0.930  16.442  1.4927 -0.9017 -0.4864
  684MPD2     N10123   0.860   1.141  16.116  0.3596 -0.1316  0.7906
  684MPD2    H510124   0.885   1.213  16.183  0.1989  0.2956  0.3887
  684MPD2    N110125   0.677   0.699  16.051  0.3593  0.2276  0.9333
  684MPD2    H710126   0.703   0.704  15.953 -2.3464  1.2156  0.2881
  685TMC3    C110127   0.713   0.482  15.998 -0.2279  0.3479  0.1141
  685TMC3    C210128   0.670   0.509  15.870 -0.0395 -0.2193 -0.1917
  685TMC3    C310129   0.712   0.412  15.776 -0.1772  0.0710 -0.0798
  685TMC3    C410130   0.789   0.372  16.039 -0.6136  0.4620  0.9552
  685TMC3    C510131   0.833   0.291  15.936 -0.2686  0.5748  0.9424
  685TMC3    C610132   0.792   0.305  15.808  0.5015 -0.1730  0.4959
  685TMC3     C10133   0.659   0.573  16.097 -0.0695  0.8670  0.5906
  685TMC3     O10134   0.648   0.531  16.212  0.1773  0.2874 -0.6216
  685TMC3     H10135   0.604   0.590  15.842  2.7419  2.4617  0.9615
  685TMC3    H110136   0.842   0.385  16.133 -0.7141  1.0492  0.9305
  685TMC3    H210137   0.814   0.232  15.731 -0.0904  0.9448 -0.7364
  685TMC3    C710138   0.977   0.261  15.952 -0.1986 -0.1832  0.0041
  685TMC3    C810139   0.670   0.432  15.639  0.0050  0.1760 -0.6788
  685TMC3    O110140   1.004   0.242  16.070  0.1204 -0.3232 -0.1997
  685TMC3    O210141   0.699   0.342  15.560 -0.5201 -0.1225 -0.7995
  686MPD2     C10142   2.264   0.677  15.515  0.4943  0.0579 -0.7050
  686MPD2    C110143   2.275   0.590  15.621 -0.3216  0.8934  0.4436
  686MPD2    C210144   2.401   0.558  15.659 -0.7328 -0.0929  0.2914
  686MPD2    C310145   2.516   0.594  15.585 -0.1091  0.2029 -0.5655
  686MPD2    C410146   2.500   0.701  15.495 -0.7703 -0.1597 -0.2231
  686MPD2    C510147   2.373   0.726  15.458 -0.2248  0.3275 -0.0613
  686MPD2     H10148   2.407   0.504  15.753 -0.4536 -2.7806 -1.2649
  686MPD2    H110149   2.579   0.743  15.434 -0.0668 -0.4092  0.5185
  686MPD2    H210150   2.166   0.705  15.479  0.0533 -0.4971  0.0528
  686MPD2    H310151   2.355   0.795  15.376  1.0562  1.4237  0.5793
  686MPD2     N10152   2.641   0.539  15.607  0.1872  0.0657 -0.1957
  686MPD2    H510153   2.714   0.581  15.551  0.7762 -1.4839 -0.6040
  686MPD2    N110154   2.151   0.554  15.681 -0.2039 -0.3746  0.3349
  686MPD2    H710155   2.070   0.579  15.626  0.8583  2.2849 -0.0206
  687TMC3    C110156   2.587   0.321  15.716  0.4789 -0.1330 -0.1478
  687TMC3    C210157   2.489   0.284  15.629  0.0189 -0.0629 -0.0555
  687TMC3    C310158   2.402   0.194  15.675 -0.1073 -0.3411 -0.3842
  687TMC3    C410159   2.615   0.252  15.829  0.2954  0.8009  0.0708
  687TMC3    C510160   2.519   0.170  15.874  0.0347 -0.2042  0.2373
  687TMC3    C610161   2.408   0.135  15.798  0.4296 -0.7755 -0.2635
  687TMC3     C10162   2.687   0.424  15.669 -0.0596 -0.3030 -0.0794
  687TMC3     O10163   2.804   0.400  15.691 -0.5121 -0.0875 -0.6468
  687TMC3     H10164   2.473   0.334  15.534 -3.5354 -0.9695  0.0734
  687TMC3    H110165   2.697   0.284  15.892  1.1875 -0.1568 -0.6029
  687TMC3    H210166   2.326   0.078  15.841  0.5715 -0.4487  0.4433
  687TMC3    C710167   2.529   0.127  16.012  0.4210  0.4760 -0.2250
  687TMC3    C810168   2.274   0.177  15.607  0.4815 -0.4192 -0.0507
  687TMC3    O110169   2.633   0.137  16.069  0.3098 -0.1973 -0.1807
  687TMC3    O210170   2.202   0.082  15.642  0.3168  0.3776 -0.4030
  688MPD2     C10171   1.313   4.067  16.851  0.1869  0.5881 -0.2202
  688MPD2    C110172   1.356   3.958  16.933  0.5398  0.1971 -0.8469
  688MPD2    C210173   1.454   3.876  16.880 -0.4615  0.6002 -0.5960
  688MPD2    C310174   1.513   3.903  16.756 -0.0694  0.0704 -0.2743
  688MPD2    C410175   1.477   4.012  16.682 -0.5349 -0.8284 -0.0224
  688MPD2    C510176   1.373   4.083  16.731  0.0041  0.1997 -0.2423
  688MPD2     H10177   1.491   3.795  16.941 -1.0186 -1.5503 -3.1423
  688MPD2    H110178   1.523   4.037  16.587 -2.1187 -0.1572 -0.6128
  688MPD2    H210179   1.228   4.127  16.879 -0.4428  0.0026 -0.8816
  688MPD2    H310180   1.343   4.171  16.676  0.4470  0.7721  0.4286
  688MPD2     N10181   1.629   3.838  16.714 -0.0904 -0.0745 -0.1482
  688MPD2    H510182   1.677   3.873  16.632  1.0638 -3.8892 -1.1050
  688MPD2    N110183   1.302   3.935  17.062  0.2827 -0.3408  0.1565
  688MPD2    H710184   1.345   3.863  17.120 -0.0470  0.0067  0.8340
  689TMC3    C110185   1.146   3.960  17.239 -0.5232 -0.4434 -0.8607
  689TMC3    C210186   1.238   4.011  17.329 -0.4183 -0.4272  0.4657
  689TMC3    C310187   1.235   3.965  17.458  0.2302 -0.3950 -0.1071
  689TMC3    C410188   1.068   3.853  17.270 -0.5569 -0.1735  0.2204
  689TMC3    C510189   1.074   3.802  17.400  0.3568  0.3088 -0.6435
  689TMC3    C610190   1.153   3.859  17.489  0.3744 -0.7294 -0.2557
  689TMC3     C10191   1.181   3.985  17.098 -0.5217 -0.7477 -0.4604
  689TMC3     O10192   1.091   4.030  17.028 -0.5082 -0.1935  0.2196
  689TMC3     H10193   1.300   4.096  17.305  1.0011 -0.8550  2.6262
  689TMC3    H110194   1.002   3.814  17.193  1.4141 -1.1783 -0.9617
  689TMC3    H210195   1.145   3.811  17.586  1.5538  1.3815  0.8852
  689TMC3    C710196   1.026   3.670  17.434 -0.4554  0.1784 -0.8775
  689TMC3    C810197   1.323   4.017  17.562  0.0893 -0.1101 -0.4218
  689TMC3    O110198   1.065   3.617  17.536 -0.7401  0.5100 -0.0655
  689TMC3    O210199   1.287   3.988  17.677  1.0486  0.0154 -0.0848
  690MPD2     C10200   3.722   1.197  15.980 -0.1865  0.0990  0.6384
  690MPD2    C110201   3.745   1.119  15.869  0.7582 -0.0602  0.4323
  690MPD2    C210202   3.872   1.119  15.813  0.1337 -0.6603 -0.2815
  690MPD2    C310203   3.975   1.179  15.883  0.1960  0.0333 -0.5804
  690MPD2    C410204   3.958   1.234  16.008  0.0645 -0.6804 -0.0554
  690MPD2    C510205   3.825   1.245  16.050  0.1885  0.2908 -1.1089
  690MPD2     H10206   3.894   1.067  15.720 -0.1913 -0.0693 -0.6921
  690MPD2    H110207   4.042   1.289  16.048  1.0015 -3.0071  1.1442
  690MPD2    H210208   3.625   1.233  16.010  0.4441  1.0315  1.5729
  690MPD2    H310209   3.796   1.318  16.125  0.7789  1.3733 -1.9421
  690MPD2     N10210   4.102   1.183  15.818 -0.2673  0.0025  0.0871
  690MPD2    H510211   4.101   1.147  15.724 -0.7155  0.9983 -0.2898
  690MPD2    N110212   3.637   1.049  15.801 -0.0258 -0.2151 -0.4912
  690MPD2    H710213   3.664   0.993  15.721  2.2866 -0.8086  0.6987
  691TMC3    C110214   3.414   0.982  15.747  0.0694 -0.1299 -0.0500
  691TMC3    C210215   3.278   0.999  15.754 -0.4199 -0.6751 -1.1267
  691TMC3    C310216   3.199   0.911  15.681 -0.5861 -0.3713 -0.0654
  691TMC3    C410217   3.462   0.872  15.682 -0.3849 -0.3612 -0.8432
  691TMC3    C510218   3.381   0.783  15.614  0.2010 -0.1316  0.2797
  691TMC3    C610219   3.253   0.800  15.615 -0.5825 -0.2411 -0.2775
  691TMC3     C10220   3.502   1.077  15.817 -0.3999  0.1016 -0.2406
  691TMC3     O10221   3.451   1.176  15.870 -0.0972  0.3086  0.2406
  691TMC3     H10222   3.239   1.083  15.811  1.4074 -0.0718 -0.7819
  691TMC3    H110223   3.566   0.840  15.689  0.2547  1.0718 -3.7205
  691TMC3    H210224   3.196   0.767  15.529  0.1600  0.6586 -1.0978
  691TMC3    C710225   3.420   0.644  15.616 -0.2954  0.0048 -0.6776
  691TMC3    C810226   3.056   0.932  15.660  0.5852 -0.0605  0.6569
  691TMC3    O110227   3.536   0.609  15.630 -0.4064  0.2794 -0.1167
  691TMC3    O210228   2.993   0.843  15.608 -0.1185 -0.5035 -0.4209
  692TMC3    C110229   0.601   2.227  15.567 -0.8067 -0.3168 -0.2203
  692TMC3    C210230   0.711   2.271  15.639  0.1232 -0.0202  0.1926
  692TMC3    C310231   0.839   2.225  15.605 -0.2178  0.0355  0.2576
  692TMC3    C410232   0.607   2.145  15.464 -0.6025 -0.1855  0.7201
  692TMC3    C510233   0.731   2.093  15.440  0.3851  0.4917 -0.3648
  692TMC3    C610234   0.842   2.118  15.517  0.0581 -0.3619 -0.1914
  692TMC3     C10235   0.472   2.297  15.594 -0.1724  0.2110  0.1056
  692TMC3     O10236   0.367   2.253  15.556  0.0467  0.9707  0.4297
  692TMC3     H10237   0.683   2.292  15.741  0.8276 -0.5111  0.4871
  692TMC3    H110238   0.520   2.119  15.405 -0.2679  0.3523 -0.0058
  692TMC3    H210239   0.937   2.096  15.470 -0.7728 -1.0560 -1.5462
  692TMC3    C710240   0.720   1.960  15.397 -0.7369  0.1006 -0.0268
  692TMC3    C810241   0.919   2.197  15.721  0.8531  0.2992 -0.1132
  692TMC3    O110242   0.630   1.935  15.317  0.4922  0.1506 -0.0248
  692TMC3    O210243   0.975   2.089  15.724 -0.4005  0.4028  0.0263
  693MPD2     C10244   0.544   0.766  10.552 -0.7680  0.3060  0.3564
  693MPD2    C110245   0.550   0.647  10.476  0.2788  0.2368  0.0376
  693MPD2    C210246   0.673   0.570  10.482  0.2078  1.0281 -0.4975
  693MPD2    C310247   0.783   0.608  10.546  0.3134  0.1760  0.4544
  693MPD2    C410248   0.774   0.730  10.611 -0.8250  1.1138 -0.1154
  693MPD2    C510249   0.658   0.803  10.612  0.0647  0.4461 -0.7000
  693MPD2     H10250   0.673   0.474  10.432  1.3943  0.4537  0.5960
  693MPD2    H110251   0.858   0.770  10.666 -0.4166 -0.1559  0.2015
  693MPD2    H210252   0.451   0.822  10.550 -1.3869 -0.7210  0.2679
  693MPD2    H310253   0.665   0.899  10.662 -0.5057  0.2716 -0.2778
  693MPD2     N10254   0.902   0.534  10.562  0.5531 -0.1383 -0.4082
  693MPD2    H510255   0.974   0.571  10.623 -0.2975  1.8750 -0.6407
  693MPD2    N110256   0.436   0.600  10.407 -1.1529 -0.0878 -0.6744
  693MPD2    H710257   0.351   0.641  10.444 -0.3927  1.6182 -0.7912
  694TMC3    C110258   0.312   0.408  10.330 -0.2203 -0.5539 -0.4693
  694TMC3    C210259   0.310   0.294  10.254  0.7365  1.0751  0.1069
  694TMC3    C310260   0.234   0.190  10.303 -0.4370 -0.0441  1.0316
  694TMC3    C410261   0.234   0.434  10.438 -0.1178  0.2187 -0.0672
  694TMC3    C510262   0.159   0.331  10.476 -0.4606 -0.9431 -0.1674
  694TMC3    C610263   0.162   0.204  10.413 -0.1641  0.1718  0.5219
  694TMC3     C10264   0.426   0.498  10.312 -0.0912  0.1500  0.1229
  694TMC3     O10265   0.511   0.455  10.235 -0.7567 -0.0919  0.5555
  694TMC3     H10266   0.382   0.298  10.173  2.0425 -1.7378  1.1416
  694TMC3    H110267   0.228   0.523  10.499  0.6731 -1.2596  2.1547
  694TMC3    H210268   0.077   0.139  10.434 -0.0520 -0.8652 -2.2832
  694TMC3    C710269   0.091   0.342  10.601  0.6573 -0.2260  0.6406
  694TMC3    C810270   0.221   0.069  10.227  0.6747  0.1932 -0.5740
  694TMC3    O110271   0.054   0.454  10.640  0.7018  0.2448  0.7829
  694TMC3    O210272   0.171   4.690  10.278  0.4851 -0.0128  0.7360
  695MPD2     C10273   1.022   1.564  13.342  0.1614 -0.7490  0.1155
  695MPD2    C110274   0.978   1.641  13.451 -0.1548 -0.1585 -0.0496
  695MPD2    C210275   0.888   1.741  13.431  0.9905 -0.3919 -1.0843
  695MPD2    C310276   0.821   1.755  13.314  0.6157 -0.6631 -0.0826
  695MPD2    C410277   0.860   1.683  13.202 -0.1765 -0.3125  0.0929
  695MPD2    C510278   0.957   1.583  13.221 -0.1116  0.9464  0.0174
  695MPD2     H10279   0.868   1.810  13.512 -1.6517 -3.4910  0.9536
  695MPD2    H110280   0.826   1.705  13.102  1.9309 -0.1374 -0.5866
  695MPD2    H210281   1.094   1.483  13.348  3.1937  1.7869 -1.9051
  695MPD2    H310282   0.994   1.530  13.134 -1.2513 -1.5629  1.0758
  695MPD2     N10283   0.730   1.865  13.304  0.1721  0.1997  0.3280
  695MPD2    H510284   0.706   1.914  13.389  2.0776 -0.7015  1.3973
  695MPD2    N110285   1.041   1.620  13.577 -0.3077 -0.6641 -0.1812
  695MPD2    H710286   0.997   1.677  13.648  0.0970 -1.6571  0.8544
  696TMC3    C110287   0.557   1.983  13.218  0.0548  0.7686  0.0962
  696TMC3    C210288   0.473   1.956  13.319  0.2894  0.6026  0.1906
  696TMC3    C310289   0.364   2.041  13.342 -0.7984  0.4486 -0.6067
  696TMC3    C410290   0.532   2.096  13.138  0.6849  0.5920 -0.0583
  696TMC3    C510291   0.434   2.179  13.167 -0.6266 -0.1587 -0.0037
  696TMC3    C610292   0.349   2.153  13.271  0.9709 -0.2472  0.4814
  696TMC3     C10293   0.672   1.904  13.185  1.1032 -0.1545 -0.0606
  696TMC3     O10294   0.701   1.880  13.068 -0.2797 -0.1938  0.5119
  696TMC3     H10295   0.505   1.880  13.390 -0.9916 -0.7611 -0.7045
  696TMC3    H110296   0.599   2.116  13.055 -0.4668  0.9654 -0.9058
  696TMC3    H210297   0.262   2.214  13.290 -0.3249 -1.8505 -0.3092
  696TMC3    C710298   0.454   2.315  13.124  0.7633 -0.6895 -0.0657
  696TMC3    C810299   0.331   2.080  13.478 -0.3169  0.3192  0.8098
  696TMC3    O110300   0.500   2.345  13.014  1.0263 -0.0276  0.2624
  696TMC3    O210301   0.322   2.197  13.504 -0.6557 -0.6765  0.1592
  697MPD2     C10302   0.456   3.775  15.586 -0.0330  0.1754 -0.4181
  697MPD2    C110303   0.458   3.714  15.459  0.3237  0.3913 -0.9058
  697MPD2    C210304   0.451   3.790  15.346  0.7327  0.4807 -0.5996
  697MPD2    C310305   0.420   3.928  15.361  0.1344 -0.7178  1.1739
  697MPD2    C410306   0.428   3.984  15.490  0.2490  0.0987 -0.1608
  697MPD2    C510307   0.440   3.906  15.602 -0.4386  0.3053 -0.6591
  697MPD2     H10308   0.465   3.743  15.250 -0.2075 -3.3876  1.1468
  697MPD2    H110309   0.424   4.091  15.501  0.1114  0.0873 -0.0893
  697MPD2    H210310   0.447   3.715  15.676 -1.1535 -0.2856 -0.8276
  697MPD2    H310311   0.445   3.950  15.701 -0.5132 -0.9148 -0.1146
  697MPD2     N10312   0.407   4.007  15.246 -0.5234  0.2744 -0.4336
  697MPD2    H510313   0.437   3.954  15.165 -0.5073 -0.5767  0.1252
  697MPD2    N110314   0.461   3.574  15.446  0.5561  0.4088  0.3646
  697MPD2    H710315   0.473   3.535  15.353  2.7174  0.1567  0.7507
  698TMC3    C110316   0.396   4.194  15.106  0.1337 -0.5610 -0.5858
  698TMC3    C210317   0.380   4.328  15.096 -0.1314 -0.0639  0.2044
  698TMC3    C310318   0.471   4.391  15.017  0.2666 -0.0570 -0.0805
  698TMC3    C410319   0.470   4.119  15.016  0.1102  0.0184 -0.4893
  698TMC3    C510320   0.555   4.187  14.937  0.2644  0.0144  0.5331
  698TMC3    C610321   0.559   4.321  14.936 -0.1689 -0.3775 -0.9940
  698TMC3     C10322   0.356   4.134  15.233 -0.5314 -0.2711  0.5792
  698TMC3     O10323   0.295   4.199  15.315  0.0288 -0.5288 -0.1884
  698TMC3     H10324   0.302   4.386  15.143 -0.9038 -0.7359 -0.2436
  698TMC3    H110325   0.464   4.012  15.001  1.8730  0.0238 -1.2681
  698TMC3    H210326   0.622   4.371  14.864 -0.6291  1.4701 -0.1344
  698TMC3    C710327   0.553   4.129  14.804 -0.9233  0.1674 -0.3645
  698TMC3    C810328   0.431   4.516  14.964 -0.5919  0.2115 -0.5221
  698TMC3    O110329   0.454   4.063  14.771  0.2019 -0.6472  0.0118
  698TMC3    O210330   0.328   4.523  14.895  0.8991  0.3971  0.0900
  699TMC3    C110331   0.360   2.000  12.876  0.2369 -0.7062 -0.4676
  699TMC3    C210332   0.388   1.873  12.916 -0.4798 -0.2159  0.6807
  699TMC3    C310333   0.285   1.799  12.961 -0.0693 -0.0605 -0.0133
  699TMC3    C410334   0.244   2.064  12.897 -0.4490  0.8706  0.3792
  699TMC3    C510335   0.149   1.985  12.950  1.0112 -0.1612 -0.7322
  699TMC3    C610336   0.166   1.850  12.975 -0.4813  0.0025 -0.2003
  699TMC3     C10337   0.462   2.081  12.806 -0.5677  0.0277 -0.4807
  699TMC3     O10338   0.435   2.200  12.792 -0.1760  0.1631  0.5162
  699TMC3     H10339   0.488   1.843  12.943 -0.6087 -1.1606  0.1248
  699TMC3    H110340   0.220   2.162  12.857 -0.9813  1.5196  2.2669
  699TMC3    H210341   0.085   1.793  13.020 -0.9155  0.7407 -0.0525
  699TMC3    C710342   0.036   2.036  13.019 -0.0821  0.8327  0.6134
  699TMC3    C810343   0.309   1.673  13.030  0.2924  0.1939  0.1281
  699TMC3    O110344   0.057   2.145  13.069  0.4491 -0.0254 -0.3013
  699TMC3    O210345   0.213   1.622  13.092 -0.0718  0.5308  0.5922
  700TMC3    C110346   4.148   4.589  16.313  0.5334 -0.0971 -0.0021
  700TMC3    C210347   4.187   4.463  16.328 -0.3985  0.3118  0.6875
  700TMC3    C310348   4.164   4.397  16.447  0.1683  0.6706 -0.4760
  700TMC3    C410349   4.089   4.659  16.415 -0.4391 -1.1384 -0.2028
  700TMC3    C510350   4.075   4.599  16.536 -0.0306  0.6090  0.3064
  700TMC3    C610351   4.110   4.470  16.556  0.2960  0.3177  0.1265
  700TMC3     C10352   4.230   4.670  16.224  0.3599 -0.2472  0.7861
  700TMC3     O10353   4.278   4.635  16.117 -0.8193 -0.1783  0.1265
  700TMC3     H10354   4.233   4.413  16.243  0.3570  0.3386  1.0785
  700TMC3    H110355   4.058   0.040  16.393  3.7804  0.8100  2.7342
  700TMC3    H210356   4.084   4.410  16.642 -0.4999  0.2922 -0.1258
  700TMC3    C710357   4.056   4.685  16.649 -0.1442 -0.4424 -0.8093
  700TMC3    C810358   4.247   4.280  16.459  0.8455  0.4566  0.0648
  700TMC3    O110359   4.046   0.076  16.618 -0.2152 -0.4136 -0.3626
  700TMC3    O210360   4.260   4.210  16.360 -0.3705 -0.0737  0.3526
  701TMC3    C110361   4.407   3.056  15.332  0.4597  0.0042  0.4608
  701TMC3    C210362   4.438   2.991  15.212  0.4921  0.3671 -0.4507
  701TMC3    C310363   4.565   3.011  15.171 -0.6444  0.0213 -0.8048
  701TMC3    C410364   4.494   3.130  15.406 -0.6698  0.1426  0.7310
  701TMC3    C510365   4.623   3.141  15.361 -0.3042 -0.8577 -0.4553
  701TMC3    C610366   4.659   3.090  15.238 -0.0080 -0.0857  0.5797
  701TMC3     C10367   4.272   3.035  15.390 -0.4090  0.1903  0.2963
  701TMC3     O10368   4.241   3.118  15.473 -0.4077  0.0725  0.6703
  701TMC3     H10369   4.360   2.934  15.163 -0.3223 -1.4282  2.9593
  701TMC3    H110370   4.475   3.158  15.509  2.2939  2.2185  0.6947
  701TMC3    H210371   0.039   3.097  15.200 -0.8892  0.3925 -1.6790
  701TMC3    C710372   4.704   3.238  15.421  0.1290  0.2000  0.2999
  701TMC3    C810373   4.609   2.939  15.049  0.2074  0.0410  0.3016
  701TMC3    O110374   0.057   3.302  15.346  0.1540 -0.3886 -0.1466
  701TMC3    O210375   4.703   2.985  14.979  0.1802  0.4878  0.1863
  702MPD2     C10376   4.636   0.339  10.220  0.1012  0.3507 -0.3199
  702MPD2    C110377   4.589   0.434  10.303 -0.1660  0.4020  0.5698
  702MPD2    C210378   4.647   0.559  10.290 -0.1731 -0.3514 -0.7250
  702MPD2    C310379   0.025   0.593  10.198 -0.0743 -0.9053 -0.1256
  702MPD2    C410380   0.068   0.490  10.114  0.4827 -0.0280  0.1243
  702MPD2    C510381   0.015   0.364  10.127 -0.7633  0.1284 -0.0020
  702MPD2     H10382   4.613   0.634  10.361  0.1214 -1.5325  0.6723
  702MPD2    H110383   0.145   0.505  10.040  1.0194  2.3864  1.1793
  702MPD2    H210384   4.608   0.235  10.211  1.5163  0.1339 -2.3039
  702MPD2    H310385   0.044   0.286  10.057 -0.0967  1.2638 -0.9720
  702MPD2     N10386   0.078   0.722  10.161  0.7539 -0.5249 -0.1686
  702MPD2    H510387   0.148   0.724  10.087  1.0620  0.0040  0.1348
  702MPD2    N110388   4.482   0.412  10.396  0.0252  0.2253  0.0700
  702MPD2    H710389   4.445   0.495  10.440  0.1076  0.0845  0.4131
  703TMC3    C110390   0.105   0.954  10.177 -0.4742 -0.3627 -0.3118
  703TMC3    C210391   0.038   1.071  10.190  0.5755 -0.4487 -0.0265
  703TMC3    C310392   0.103   1.180  10.140 -0.2063 -0.1513  0.2340
  703TMC3    C410393   0.233   0.940  10.128  0.2228 -0.1104 -0.2092
  703TMC3    C510394   0.298   1.053  10.088 -0.0617  0.0849 -0.5726
  703TMC3    C610395   0.237   1.175  10.094 -0.7850 -0.0814  0.1491
  703TMC3     C10396   0.042   0.838  10.227  0.6373 -0.4948  0.1119
  703TMC3     O10397   4.659   0.859  10.287 -0.2045  0.0524  0.5788
  703TMC3     H10398   4.655   1.077  10.222  0.7089 -0.8204  0.4676
  703TMC3    H110399   0.281   0.845  10.148  0.1497  0.0023  0.4962
  703TMC3    H210400   0.292   1.260  10.055  0.5535 -1.6519 -1.3894
  703TMC3    C710401   0.437   1.042  10.054 -0.0771 -0.3224 -0.3692
  703TMC3    C810402   0.074   1.308  10.197  0.6983 -0.9271  0.1173
  703TMC3    O110403   0.489   1.138   9.998 -0.1314  0.4295  0.5924
  703TMC3    O210404   0.167   1.385  10.204  0.5533  0.5819 -0.1378
  704TMC3    C110405   1.897   3.397  12.131  0.2937 -0.1702 -0.2181
  704TMC3    C210406   2.017   3.457  12.149 -1.1028 -0.1939 -0.0720
  704TMC3    C310407   2.093   3.432  12.259 -0.5157  0.3633  0.6096
  704TMC3    C410408   1.852   3.308  12.225 -0.3525 -0.2039 -0.6650
  704TMC3    C510409   1.927   3.289  12.335  0.4320  0.5239 -0.3689
  704TMC3    C610410   2.052   3.343  12.353  0.1093 -0.5337 -0.1406
  704TMC3     C10411   1.809   3.435  12.026  0.0678  0.0987 -0.1231
  704TMC3     O10412   1.692   3.400  12.025 -0.6479 -0.6084 -0.2139
  704TMC3     H10413   2.055   3.533  12.082  1.8535 -1.0211  0.6362
  704TMC3    H110414   1.752   3.268  12.212 -1.0899  2.3201 -2.8322
  704TMC3    H210415   2.111   3.302  12.433  2.1361 -0.2293 -1.4836
  704TMC3    C710416   1.921   3.147  12.373 -0.1594  0.3849 -0.0084
  704TMC3    C810417   2.239   3.438  12.242  0.6121  0.1724  0.0890
  704TMC3    O110418   2.024   3.093  12.410 -0.3347 -0.2827 -0.4552
  704TMC3    O210419   2.280   3.457  12.129  0.0487 -0.1349  0.3115
  705MPD2     C10420   1.038   1.605  16.267 -0.1837 -0.2084  0.1192
  705MPD2    C110421   1.025   1.723  16.192  0.0684 -0.1959 -0.1676
  705MPD2    C210422   0.905   1.777  16.179  0.5170  0.3280 -0.4862
  705MPD2    C310423   0.792   1.719  16.246 -0.4195 -0.2690 -0.2648
  705MPD2    C410424   0.810   1.597  16.301  0.1999  0.0712 -0.3706
  705MPD2    C510425   0.927   1.534  16.312  0.3397 -0.6286 -0.5640
  705MPD2     H10426   0.896   1.873  16.130  0.2752  1.3098  1.4962
  705MPD2    H110427   0.719   1.554  16.341 -0.7554 -0.8225 -3.5162
  705MPD2    H210428   1.133   1.557  16.289  0.3368  1.9867  2.6241
  705MPD2    H310429   0.939   1.448  16.376 -1.7553  0.4464  1.2562
  705MPD2     N10430   0.672   1.790  16.263 -0.9015 -0.0628 -0.4806
  705MPD2    H510431   0.600   1.729  16.298  2.0249 -3.3432 -0.1598
  705MPD2    N110432   1.141   1.791  16.141 -0.3731 -0.2695  0.0133
  705MPD2    H710433   1.122   1.873  16.083  0.7858 -1.2275 -1.7245
  706TMC3    C110434   1.508   1.849  15.902 -0.0396  0.4052 -0.3410
  706TMC3    C210435   1.458   1.964  15.853  0.0725 -0.4192 -0.1104
  706TMC3    C310436   1.367   2.026  15.934  0.9319  1.0598  0.7948
  706TMC3    C410437   1.464   1.783  16.021  0.0931  0.4173  0.2293
  706TMC3    C510438   1.365   1.844  16.087 -0.2392 -0.0271 -0.0091
  706TMC3    C610439   1.330   1.971  16.056 -0.2545 -0.4300 -0.0973
  706TMC3     C10440   1.625   1.787  15.842 -0.0699  0.0635  0.2216
  706TMC3     O10441   1.676   1.699  15.910  0.3790 -0.3427 -0.0648
  706TMC3     H10442   1.509   2.012  15.771  0.2990  0.5614  0.6066
  706TMC3    H110443   1.515   1.698  16.064 -3.8492 -0.4511  3.2667
  706TMC3    H210444   1.258   2.016  16.124  0.7430 -2.0705  2.0449
  706TMC3    C710445   1.271   1.756  16.154  0.7413 -0.6422  1.2666
  706TMC3    C810446   1.349   2.164  15.899  0.7300  0.0627 -0.4025
  706TMC3    O110447   1.322   1.663  16.218  0.2497  0.4781 -0.2436
  706TMC3    O210448   1.385   2.198  15.784 -0.7297  0.3961  0.3134
  707TMC3    C110449   3.161   0.182   1.913  0.4996  0.3793 -0.5144
  707TMC3    C210450   3.219   0.054   1.919  0.2251  0.6129  0.1714
  707TMC3    C310451   3.133   4.684   1.974 -0.1319 -0.0913  0.5896
  707TMC3    C410452   3.048   0.229   1.976  0.2838 -0.2336  0.4856
  707TMC3    C510453   2.975   0.129   2.038 -0.0674 -0.4687 -0.5978
  707TMC3    C610454   3.012   4.718   2.035  0.1275  0.3935 -0.3817
  707TMC3     C10455   3.248   0.272   1.834  0.8244 -0.4117 -0.4071
  707TMC3     O10456   3.373   0.253   1.833 -0.2507  0.2486 -0.0908
  707TMC3     H10457   3.307   0.027   1.862 -0.0305 -1.5443  0.8068
  707TMC3    H110458   3.023   0.334   1.971  1.2251 -0.1186 -1.9282
  707TMC3    H210459   2.959   4.633   2.077 -1.5439  1.8244  0.4584
  707TMC3    C710460   2.840   0.161   2.078  0.1661 -0.7923 -0.1891
  707TMC3    C810461   3.173   4.542   1.962 -0.1276 -0.0352 -0.4131
  707TMC3    O110462   2.813   0.280   2.098  0.1914 -0.0754  0.1971
  707TMC3    O210463   3.171   4.473   2.062 -0.1669 -0.5652 -0.4143
  708MPD2     C10464   3.645   0.551  13.231 -0.6643 -0.0373 -0.2688
  708MPD2    C110465   3.557   0.539  13.339  0.3108 -1.4332  0.0373
  708MPD2    C210466   3.574   0.436  13.428 -1.2499 -0.0711  0.6787
  708MPD2    C310467   3.666   0.334  13.405 -0.8006 -0.3810  0.1051
  708MPD2    C410468   3.755   0.352  13.295 -0.6839 -0.2337 -0.4083
  708MPD2    C510469   3.746   0.458  13.211 -0.0589  0.1323  0.3435
  708MPD2     H10470   3.516   0.443  13.519  0.0681  1.6705  1.3930
  708MPD2    H110471   3.830   0.282  13.260 -0.9254 -2.5821  3.8450
  708MPD2    H210472   3.644   0.638  13.166  2.7092  0.9482  0.9740
  708MPD2    H310473   3.821   0.469  13.133 -1.0509 -1.4856 -0.8504
  708MPD2     N10474   3.670   0.222  13.491  0.2840  0.6808 -0.2432
  708MPD2    H510475   3.585   0.204  13.543 -0.2572  0.4352 -1.2141
  708MPD2    N110476   3.463   0.642  13.354 -0.1844  0.5051 -0.1544
  708MPD2    H710477   3.476   0.728  13.302  0.4569  1.4956  1.6562
  709TMC3    C110478   3.376   0.775  13.511  0.6130 -0.0702 -0.6902
  709TMC3    C210479   3.504   0.835  13.497  0.2574  0.3263 -0.6183
  709TMC3    C310480   3.577   0.843  13.617 -0.5345 -0.5574 -0.3555
  709TMC3    C410481   3.305   0.761  13.622  0.1582  0.4187 -0.3509
  709TMC3    C510482   3.381   0.792  13.734 -0.4463 -0.0506 -0.1045
  709TMC3    C610483   3.516   0.821  13.733 -0.3199  0.2377  0.7173
  709TMC3     C10484   3.370   0.645  13.451 -0.2795  0.1629 -0.1940
  709TMC3     O10485   3.332   0.555  13.525  0.3290  0.5824 -0.2186
  709TMC3     H10486   3.563   0.847  13.407 -0.3274  0.9893 -0.9130
  709TMC3    H110487   3.206   0.717  13.626 -0.1843  1.3839  2.0271
  709TMC3    H210488   3.568   0.819  13.828  0.9585 -1.4381 -0.0227
  709TMC3    C710489   3.340   0.721  13.850 -0.2558 -0.6441 -0.2057
  709TMC3    C810490   3.706   0.782  13.594 -0.8112 -0.0819 -0.0454
  709TMC3    O110491   3.338   0.768  13.964 -0.1266  0.0672  0.9633
  709TMC3    O210492   3.760   0.801  13.490  0.9250 -0.7658  0.2128
  710TMC3    C110493   0.444   1.610   0.112  0.0355  0.6977 -0.0658
  710TMC3    C210494   0.461   1.652  17.667  0.4734 -0.6622 -0.1081
  710TMC3    C310495   0.586   1.694  17.627 -0.1546  0.3970  0.3717
  710TMC3    C410496   0.546   1.597   0.197  0.0701  0.8821 -0.3263
  710TMC3    C510497   0.671   1.636   0.149 -0.5594 -0.2257  0.9485
  710TMC3    C610498   0.693   1.684   0.026  0.9629  0.1845  0.7759
  710TMC3     C10499   0.307   1.607   0.161  0.2935 -0.6114 -0.0115
  710TMC3     O10500   0.223   1.630   0.076 -1.0455 -0.0523 -0.4244
  710TMC3     H10501   0.379   1.658  17.596 -0.4466  0.0184  1.0129
  710TMC3    H110502   0.533   1.553   0.296  0.0033 -0.5384 -0.9660
  710TMC3    H210503   0.791   1.702  17.670  0.2963 -0.6773 -1.1362
  710TMC3    C710504   0.781   1.577   0.224  0.9189 -0.2703 -0.2994
  710TMC3    C810505   0.632   1.679  17.490 -0.6804 -0.5363  0.1001
  710TMC3    O110506   0.756   1.555   0.346  0.0890  0.2001 -0.1386
  710TMC3    O210507   0.709   1.760  17.443  0.2175  0.3912  0.4311
  711TMC3    C110508   0.240   2.540  14.661  0.0171  0.2964  0.3130
  711TMC3    C210509   0.274   2.652  14.724 -0.3877 -0.0990 -0.3131
  711TMC3    C310510   0.398   2.668  14.780  0.3038 -0.0950 -0.7105
  711TMC3    C410511   0.326   2.437  14.622  0.1852 -0.5799  0.1098
  711TMC3    C510512   0.445   2.451  14.692  0.3587 -0.9276 -0.0005
  711TMC3    C610513   0.482   2.565  14.764  0.4389 -0.0160 -0.0400
  711TMC3     C10514   0.107   2.489  14.701  0.3976  0.3979 -0.8816
  711TMC3     O10515   0.051   2.397  14.637 -0.4577 -0.1084 -0.1607
  711TMC3     H10516   0.196   2.725  14.745 -0.1473  0.7243 -2.2433
  711TMC3    H110517   0.274   2.354  14.577  0.4014 -0.0276 -1.1679
  711TMC3    H210518   0.586   2.567  14.795  0.5598  1.1564 -0.5232
  711TMC3    C710519   0.518   2.327  14.732  0.4150  0.2003 -0.2524
  711TMC3    C810520   0.397   2.718  14.919 -0.4966 -0.2839 -0.4921
  711TMC3    O110521   0.589   2.325  14.831  0.3237 -0.1466 -0.1082
  711TMC3    O210522   0.285   2.717  14.966 -0.2857 -0.3213 -0.9456
  712MPD2     C10523   2.167   3.638  12.935 -0.6293  0.3087  0.5913
  712MPD2    C110524   2.072   3.616  13.039 -0.5209  0.9033 -0.2909
  712MPD2    C210525   2.019   3.716  13.116 -0.2079  0.0215 -0.0036
  712MPD2    C310526   2.048   3.848  13.082 -0.2165  0.2047  0.3179
  712MPD2    C410527   2.139   3.869  12.980  0.1799 -0.5867 -0.3856
  712MPD2    C510528   2.199   3.771  12.911  0.1312 -0.2809  0.1235
  712MPD2     H10529   1.951   3.687  13.195 -0.5336 -1.2084 -0.7403
  712MPD2    H110530   2.164   3.972  12.957 -4.0482  0.4306 -0.2797
  712MPD2    H210531   2.211   3.564  12.870  0.0217  3.1120 -2.2145
  712MPD2    H310532   2.279   3.791  12.841 -0.1528  0.0524 -0.1028
  712MPD2     N10533   2.009   3.962  13.150 -0.6881 -0.5626 -0.1041
  712MPD2    H510534   2.034   4.048  13.102  1.1974 -1.6942 -1.1688
  712MPD2    N110535   2.007   3.485  13.061  0.5594 -0.3956 -0.0253
  712MPD2    H710536   1.932   3.487  13.129  0.4004  2.6610 -0.2717
  713TMC3    C110537   1.909   4.106  13.310 -0.0595  0.9077  0.2076
  713TMC3    C210538   1.904   4.192  13.201 -0.5243 -0.6798 -0.1243
  713TMC3    C310539   1.786   4.252  13.188 -0.2470  0.4251 -0.1748
  713TMC3    C410540   1.804   4.098  13.406  0.4612 -0.1695 -0.2632
  713TMC3    C510541   1.685   4.153  13.380 -0.3217  1.5479 -0.0526
  713TMC3    C610542   1.676   4.227  13.269 -0.0309  0.3587 -0.4775
  713TMC3     C10543   1.962   3.972  13.278 -0.8851 -0.5826  0.5721
  713TMC3     O10544   1.931   3.875  13.348  0.0692  0.5543 -0.0759
  713TMC3     H10545   1.985   4.220  13.134  0.6154 -0.3285  1.3795
  713TMC3    H110546   1.816   4.034  13.493  0.0553 -2.5643 -1.9566
  713TMC3    H210547   1.593   4.292  13.245  0.6860  1.0590 -1.0754
  713TMC3    C710548   1.563   4.118  13.456 -0.2823  0.4572  0.0040
  713TMC3    C810549   1.776   4.353  13.079  0.7173 -0.5408  0.1753
  713TMC3    O110550   1.571   4.014  13.518 -0.8515  0.0017 -0.2335
  713TMC3    O210551   1.884   4.410  13.064  0.1883  0.5128  0.0360
  714MPD2     C10552   3.812   1.354   1.711 -0.9073  0.0889 -0.5220
  714MPD2    C110553   3.792   1.427   1.601 -0.1792 -0.1010  0.3337
  714MPD2    C210554   3.664   1.446   1.556 -0.3668 -0.2357  0.1650
  714MPD2    C310555   3.555   1.390   1.608  0.8264  0.0965  0.4236
  714MPD2    C410556   3.572   1.306   1.718  0.3600 -0.0759 -0.3300
  714MPD2    C510557   3.699   1.298   1.773  0.2364  0.2995 -0.5203
  714MPD2     H10558   3.641   1.504   1.467 -1.3943  0.2269  0.7235
  714MPD2    H110559   3.491   1.250   1.764  1.3855 -0.3219  1.1907
  714MPD2    H210560   3.898   1.336   1.775 -1.7046 -2.0251 -0.0195
  714MPD2    H310561   3.717   1.235   1.860  2.6883 -0.8228 -1.8315
  714MPD2     N10562   3.429   1.411   1.543  0.0770  0.4330 -0.1024
  714MPD2    H510563   3.430   1.460   1.454  0.2834  1.7136  0.6031
  714MPD2    N110564   3.906   1.485   1.545 -0.9799  0.5213  0.1949
  714MPD2    H710565   3.994   1.476   1.596 -1.0539  1.9116  0.5654
  715TMC3    C110566   4.052   1.586   1.401  0.3125 -0.3413  0.0390
  715TMC3    C210567   4.113   1.563   1.281 -0.0217 -0.2295 -0.3072
  715TMC3    C310568   4.242   1.594   1.265 -0.7721  1.0621  0.5439
  715TMC3    C410569   4.122   1.640   1.508  0.3329  0.1749 -1.3078
  715TMC3    C510570   4.253   1.684   1.482  0.4580 -0.6334  0.4924
  715TMC3    C610571   4.317   1.657   1.360 -0.5727 -0.0425  0.2220
  715TMC3     C10572   3.919   1.536   1.420  1.3177  0.4915 -0.6843
  715TMC3     O10573   3.866   1.504   1.317  0.2423  0.3571  0.3567
  715TMC3     H10574   4.059   1.502   1.209  0.4891  0.6737 -1.4507
  715TMC3    H110575   4.063   1.662   1.596 -0.1243 -1.2317 -1.2529
  715TMC3    H210576   4.412   1.702   1.333 -1.6659  1.2092 -1.5508
  715TMC3    C710577   4.328   1.766   1.575  0.4026 -0.2951  0.1340
  715TMC3    C810578   4.315   1.514   1.177 -0.2065 -0.1716  0.1319
  715TMC3    O110579   4.438   1.810   1.549 -0.2371  0.4296 -0.5512
  715TMC3    O210580   4.254   1.459   1.087  0.0912  0.0519 -0.8509
  716MPD2     C10581   0.402   0.437   9.569 -0.1019  0.3422 -0.1769
  716MPD2    C110582   0.303   0.452   9.464 -0.7152  0.3299 -0.4933
  716MPD2    C210583   0.276   0.339   9.378 -0.0900  0.6504 -0.3380
  716MPD2    C310584   0.343   0.219   9.394  0.3246 -0.0084  0.7352
  716MPD2    C410585   0.446   0.210   9.486 -0.1563  0.5648  0.4241
  716MPD2    C510586   0.468   0.312   9.571  0.2362 -0.2952  0.4794
  716MPD2     H10587   0.217   0.349   9.288  1.4529  0.8558 -1.3314
  716MPD2    H110588   0.493   0.113   9.501  1.3061  1.4182  1.4491
  716MPD2    H210589   0.420   0.519   9.636 -1.0211  1.5825 -1.4439
  716MPD2    H310590   0.547   0.300   9.644  0.4763 -3.3573 -0.2896
  716MPD2     N10591   0.305   0.118   9.299  0.1722  0.5366 -0.0014
  716MPD2    H510592   0.244   0.136   9.220 -0.8966 -0.6424  0.5494
  716MPD2    N110593   0.231   0.573   9.456 -0.1574 -0.3826  0.4486
  716MPD2    H710594   0.267   0.655   9.503 -0.0880 -0.2097  0.0900
  717TMC3    C110595   0.313   4.631   9.188  0.1563 -0.7734  0.8728
  717TMC3    C210596   0.273   4.691   9.079  0.2823 -1.1970 -0.1898
  717TMC3    C310597   0.214   4.619   8.975  0.2967 -0.4573  0.2376
  717TMC3    C410598   0.287   4.501   9.213  0.3913  0.0296  0.5617
  717TMC3    C510599   0.245   4.427   9.104  0.0059  0.0032  0.2828
  717TMC3    C610600   0.198   4.485   8.990 -0.6722 -0.0257  0.0174
  717TMC3     C10601   0.364   4.708   9.300 -0.3116 -0.0531 -0.3144
  717TMC3     O10602   0.453   4.660   9.371 -0.0487 -0.3478  0.1562
  717TMC3     H10603   0.310   0.071   9.065 -1.3797 -0.6234 -0.3840
  717TMC3    H110604   0.293   4.464   9.314 -2.1747 -0.3763  0.5641
  717TMC3    H210605   0.163   4.425   8.907  0.6973 -2.2575  1.0597
  717TMC3    C710606   0.229   4.286   9.105 -0.0073  0.6457  0.1192
  717TMC3    C810607   0.135   4.698   8.880 -0.7780  0.1510  0.7026
  717TMC3    O110608   0.166   4.228   9.018 -0.3659 -0.5165 -0.4276
  717TMC3    O210609   0.153   0.097   8.890  0.3594  0.1560  0.4495
  718MPD2     C10610   3.703   4.646  12.766 -0.7411 -0.2558  0.7821
  718MPD2    C110611   3.641   4.702  12.648  0.1592  0.1291 -0.6288
  718MPD2    C210612   3.569   4.613  12.570  0.1667 -0.3039  0.7767
  718MPD2    C310613   3.549   4.480  12.612 -0.0577 -0.2382 -0.6607
  718MPD2    C410614   3.602   4.431  12.730 -0.4623 -0.7397 -0.0972
  718MPD2    C510615   3.678   4.519  12.807  0.7744  0.1513  0.3704
  718MPD2     H10616   3.537   4.641  12.470 -0.5580 -0.9513  0.8272
  718MPD2    H110617   3.596   4.324  12.748 -0.1874 -0.4284  1.8321
  718MPD2    H210618   3.763   4.701  12.838 -1.3769  1.0760  0.3014
  718MPD2    H310619   3.726   4.481  12.896 -0.0070 -3.2257 -0.6261
  718MPD2     N10620   3.474   4.405  12.512 -0.0657  0.5888  0.5201
  718MPD2    H510621   3.435   4.462  12.437  0.0699 -0.3008 -0.2195
  718MPD2    N110622   3.661   0.114  12.603 -0.1410 -0.4580  0.1787
  718MPD2    H710623   3.743   0.170  12.622 -0.1773 -0.6147  0.7877
  719TMC3    C110624   3.643   0.280  12.434 -0.7531  0.5804 -0.1112
  719TMC3    C210625   3.560   0.286  12.323  0.0324 -0.3339 -0.4686
  719TMC3    C310626   3.607   0.269  12.192 -0.7058  0.1427  0.8621
  719TMC3    C410627   3.774   0.243  12.411  1.1220  0.5357  0.1513
  719TMC3    C510628   3.825   0.235  12.284 -0.0441  0.5671  0.0816
  719TMC3    C610629   3.740   0.247  12.173  0.1961  0.8530  0.5346
  719TMC3     C10630   3.580   0.177  12.510  0.5600  0.1570  0.5687
  719TMC3     O10631   3.472   0.136  12.465  0.3320 -0.7147 -0.1542
  719TMC3     H10632   3.455   0.312  12.330  0.2435  0.9515 -1.9089
  719TMC3    H110633   3.844   0.239  12.494  0.6146  0.0944  0.5590
  719TMC3    H210634   3.787   0.246  12.076 -1.1685  1.7921 -0.1429
  719TMC3    C710635   3.960   0.182  12.262  0.6259 -0.2559 -0.6786
  719TMC3    C810636   3.519   0.176  12.123  0.2708  0.0631 -0.5587
  719TMC3    O110637   3.997   0.165  12.145  0.1587  0.1899  0.3562
  719TMC3    O210638   3.404   0.164  12.163 -0.6758 -0.8843 -0.0033
  720MPD2     C10639   1.566   0.859  13.743 -0.1654  0.4182 -0.2630
  720MPD2    C110640   1.684   0.883  13.672  0.6455 -0.1120 -0.2332
  720MPD2    C210641   1.800   0.897  13.746 -1.1491  0.2753  0.1528
  720MPD2    C310642   1.802   0.891  13.888  0.6293  0.0023  0.2487
  720MPD2    C410643   1.682   0.875  13.956 -0.1204 -0.1213 -0.4128
  720MPD2    C510644   1.568   0.865  13.880  0.3703 -0.7842 -0.1584
  720MPD2     H10645   1.892   0.924  13.696 -1.9547  2.3837 -0.1887
  720MPD2    H110646   1.672   0.881  14.064 -0.1756  1.3102 -0.4967
  720MPD2    H210647   1.469   0.863  13.695 -0.0618  1.8670 -0.3388
  720MPD2    H310648   1.469   0.857  13.922  0.3663  5.0362  0.8318
  720MPD2     N10649   1.925   0.906  13.948 -0.4914  0.0080 -0.0084
  720MPD2    H510650   2.007   0.907  13.887 -0.5424 -1.8389 -0.1097
  720MPD2    N110651   1.690   0.893  13.530  0.1046  0.1760  0.2063
  720MPD2    H710652   1.777   0.931  13.495  0.5004 -0.0239  0.9741
  721TMC3    C110653   2.099   0.945  14.115 -0.1634 -0.0850 -1.5574
  721TMC3    C210654   2.133   0.930  14.247  0.1868  0.0134  0.9422
  721TMC3    C310655   2.263   0.961  14.277 -0.2211 -0.4815 -0.1164
  721TMC3    C410656   2.189   0.973  14.017  0.4436  0.7703  0.1269
  721TMC3    C510657   2.313   1.010  14.057  0.6967 -0.1761 -0.8048
  721TMC3    C610658   2.356   1.007  14.186  0.0618  0.4857  0.9895
  721TMC3     C10659   1.957   0.909  14.080 -0.0442 -0.0535 -0.9270
  721TMC3     O10660   1.885   0.893  14.174  0.3123 -0.1690  0.1118
  721TMC3     H10661   2.058   0.912  14.323 -0.5033  1.9264  0.6958
  721TMC3    H110662   2.154   0.989  13.916 -0.3419 -0.9499  0.1183
  721TMC3    H210663   2.453   1.048  14.212 -0.5710  1.8358  1.2415
  721TMC3    C710664   2.418   1.036  13.958  0.0871  0.0528 -0.0686
  721TMC3    C810665   2.252   1.038  14.403  0.3889 -0.9698 -0.4409
  721TMC3    O110666   2.522   1.085  14.000 -0.2359  0.2766 -0.6360
  721TMC3    O210667   2.327   1.011  14.495  0.5861  0.6791  0.3071
  722MPD2     C10668   0.292   4.190  13.342 -0.0465  0.4605  0.2967
  722MPD2    C110669   0.329   4.321  13.315 -0.1787 -0.5453  0.2024
  722MPD2    C210670   0.278   4.370  13.192 -0.3136  0.2726 -0.5452
  722MPD2    C310671   0.177   4.313  13.117  0.3578  0.4368  0.1836
  722MPD2    C410672   0.152   4.181  13.144  0.1725 -0.1044 -0.3225
  722MPD2    C510673   0.203   4.123  13.258  0.1668  0.2764  0.3625
  722MPD2     H10674   0.316   4.470  13.174 -2.3759  0.6367 -2.8663
  722MPD2    H110675   0.069   4.129  13.097 -0.0854 -0.4111  0.4742
  722MPD2    H210676   0.327   4.130  13.425  0.7828 -0.1340 -0.4870
  722MPD2    H310677   0.180   4.020  13.283 -0.9997  0.6591  0.8204
  722MPD2     N10678   0.114   4.375  13.003  0.4159 -0.2973 -0.2502
  722MPD2    H510679   0.055   4.320  12.941 -1.6950  0.6065  0.9415
  722MPD2    N110680   0.437   4.397  13.366 -0.2228 -0.0441 -0.2406
  722MPD2    H710681   0.460   4.489  13.330  2.5210 -1.3729 -1.8054
  723TMC3    C110682   0.071   4.556  12.852  0.1794 -0.1699 -0.0436
  723TMC3    C210683   0.052   4.465  12.753  0.1848 -0.5179 -0.3123
  723TMC3    C310684   0.034   4.508  12.625 -0.5299  0.0006 -0.2545
  723TMC3    C410685   0.065   4.691  12.825  0.1638  0.1722 -0.6694
  723TMC3    C510686   0.047   0.014  12.694  0.6951  0.5200  0.1095
  723TMC3    C610687   0.029   4.638  12.598 -0.2985  0.5361  0.1297
  723TMC3     C10688   0.114   4.508  12.982 -0.2574  0.5491 -0.0913
  723TMC3     O10689   0.161   4.592  13.062  0.3345 -0.1072  0.1127
  723TMC3     H10690   0.059   4.357  12.761 -1.4288 -0.6524 -0.7671
  723TMC3    H110691   0.077   0.042  12.905 -0.0657  0.1882 -0.6490
  723TMC3    H210692   0.005   4.662  12.494  0.8439 -1.7636 -0.6554
  723TMC3    C710693   0.010   0.156  12.668  0.2074 -0.9783 -1.0445
  723TMC3    C810694   4.679   4.422  12.542  0.0630  0.2317  0.5803
  723TMC3    O110695   0.003   0.226  12.767  1.1803 -0.2422  0.0861
  723TMC3    O210696   4.573   4.464  12.494 -0.0963 -0.0568  0.5695
  724TMC3    C110697   1.446   3.654   8.907  0.0368 -0.4900 -0.2760
  724TMC3    C210698   1.483   3.776   8.958 -0.4079 -0.4189  0.5784
  724TMC3    C310699   1.592   3.777   9.042 -0.1912 -0.1286 -0.3669
  724TMC3    C410700   1.520   3.541   8.927  0.5394  0.5692 -0.0716
  724TMC3    C510701   1.631   3.551   9.003  0.0154 -0.1487 -1.0763
  724TMC3    C610702   1.667   3.662   9.067 -0.8572  0.1459 -0.2699
  724TMC3     C10703   1.346   3.640   8.805  0.4723  0.0095  0.7541
  724TMC3     O10704   1.325   3.531   8.754 -0.1285 -0.2277  0.0510
  724TMC3     H10705   1.409   3.855   8.951 -1.1374 -1.3053 -1.6428
  724TMC3    H110706   1.495   3.447   8.879  1.3233 -0.3958  1.4076
  724TMC3    H210707   1.737   3.670   9.149 -2.1833  0.7987  0.8024
  724TMC3    C710708   1.671   3.428   9.066  0.1951 -0.7319  0.4205
  724TMC3    C810709   1.628   3.903   9.105 -0.6684 -0.5582  1.1331
  724TMC3    O110710   1.612   3.328   9.032 -0.1998  0.3476 -0.1705
  724TMC3    O210711   1.548   3.991   9.091 -0.3893  0.1319  0.2834
  725TMC3    C110712   2.816   1.011  12.677  0.1576 -0.4008  0.9835
  725TMC3    C210713   2.685   1.050  12.659  0.5929 -0.5525 -0.0618
  725TMC3    C310714   2.608   0.947  12.607 -0.1152 -0.1360  0.9301
  725TMC3    C410715   2.867   0.892  12.643 -0.7247 -1.0882 -0.0462
  725TMC3    C510716   2.784   0.804  12.587  0.3607 -0.0383 -0.4481
  725TMC3    C610717   2.654   0.834  12.556 -0.3596 -0.3931 -0.2418
  725TMC3     C10718   2.905   1.127  12.697  0.6834  0.1420 -0.4316
  725TMC3     O10719   2.857   1.225  12.746 -0.1109 -0.0092 -0.0516
  725TMC3     H10720   2.640   1.146  12.684  0.5251 -0.1706 -1.6396
  725TMC3    H110721   2.973   0.868  12.649 -0.0775  1.2033 -2.3395
  725TMC3    H210722   2.583   0.756  12.534  1.5327 -2.1780  0.0084
  725TMC3    C710723   2.833   0.673  12.554 -0.8471  0.2364  0.1946
  725TMC3    C810724   2.484   0.988  12.545 -0.4235 -0.2369 -0.0284
  725TMC3    O110725   2.908   0.625  12.641 -0.5461 -0.3566  0.6072
  725TMC3    O210726   2.394   0.906  12.519 -0.4736  0.3793  0.0026
  726MPD2     C10727   0.766   2.485  10.293 -0.5801  0.0942 -0.4384
  726MPD2    C110728   0.838   2.581  10.360 -0.4969 -0.0992  0.2902
  726MPD2    C210729   0.791   2.631  10.484 -0.0188  0.4341  0.4190
  726MPD2    C310730   0.674   2.570  10.537  0.2584 -0.2867  0.0320
  726MPD2    C410731   0.613   2.466  10.468  0.2160 -0.3384 -0.4492
  726MPD2    C510732   0.657   2.428  10.349  0.4194 -0.8712 -0.3358
  726MPD2     H10733   0.843   2.705  10.544  0.8814  0.4025 -0.3081
  726MPD2    H110734   0.529   2.413  10.510 -1.2028  2.7369  0.5619
  726MPD2    H210735   0.801   2.455  10.195  0.6610  0.6978 -0.1910
  726MPD2    H310736   0.612   2.342  10.302  1.5029 -0.9854 -1.1658
  726MPD2     N10737   0.623   2.601  10.662 -0.8110  0.0026  0.4606
  726MPD2    H510738   0.537   2.551  10.686 -0.1919 -0.0541  2.5181
  726MPD2    N110739   0.952   2.646  10.311  0.3436 -0.5129  0.2699
  726MPD2    H710740   0.989   2.723  10.367  0.4727 -0.6343  0.3520
  727TMC3    C110741   1.093   2.752  10.160 -0.2883 -0.1985  0.1945
  727TMC3    C210742   1.178   2.796  10.256  0.5576  0.0248  0.1039
  727TMC3    C310743   1.228   2.923  10.234  0.0944 -0.4424 -0.3771
  727TMC3    C410744   1.078   2.812  10.036 -0.3763 -0.1214  0.5205
  727TMC3    C510745   1.138   2.932  10.010  0.4696  0.4915  0.1355
  727TMC3    C610746   1.219   2.985  10.109  0.3668  0.1384 -0.0612
  727TMC3     C10747   1.001   2.641  10.184 -0.7730 -0.1000 -0.1491
  727TMC3     O10748   0.964   2.584  10.083 -0.0377 -0.2029 -0.0064
  727TMC3     H10749   1.202   2.735  10.342  0.1402  0.3553  0.4503
  727TMC3    H110750   1.005   2.776   9.964  1.1940 -1.3215 -0.4823
  727TMC3    H210751   1.273   3.078  10.097 -0.3408  0.6979  1.0286
  727TMC3    C710752   1.060   3.028   9.930  0.3904 -0.2262  0.1135
  727TMC3    C810753   1.345   2.964  10.311  0.0016  0.8582 -0.2753
  727TMC3    O110754   0.946   2.993   9.908 -0.1101 -0.3514  0.5428
  727TMC3    O210755   1.414   3.052  10.256  0.7547  0.1773 -0.4641
  728TMC3    C110756   4.344   1.192  15.794  0.2758 -0.5081 -0.3079
  728TMC3    C210757   4.454   1.144  15.854  0.7598  0.2532 -0.2146
  728TMC3    C310758   4.560   1.132  15.772 -0.3012 -0.2036 -0.5949
  728TMC3    C410759   4.320   1.222  15.661  1.2756  0.1705  0.4976
  728TMC3    C510760   4.433   1.205  15.590  0.9219  0.2798  0.4322
  728TMC3    C610761   4.552   1.163  15.638 -0.4253 -0.6243 -0.2064
  728TMC3     C10762   4.230   1.205  15.882  0.5309 -0.4012 -0.2010
  728TMC3     O10763   4.253   1.211  16.004  0.3715  0.1578  0.6312
  728TMC3     H10764   4.475   1.146  15.960  1.3771 -3.2370 -0.2718
  728TMC3    H110765   4.231   1.277  15.630  0.4750 -0.8143  1.0283
  728TMC3    H210766   4.634   1.156  15.567  0.4572 -1.5750  0.9050
  728TMC3    C710767   4.432   1.224  15.445  0.5086  0.1094 -0.8081
  728TMC3    C810768   4.693   1.121  15.828  0.1582  0.9708  0.0632
  728TMC3    O110769   4.527   1.181  15.384  0.0606  0.1318  0.2664
  728TMC3    O210770   0.053   1.175  15.753 -0.0187 -0.0511  0.1830
  729MPD2     C10771   1.454   2.512  16.691 -0.0972  0.4876  0.0609
  729MPD2    C110772   1.502   2.404  16.756  0.5085  0.6622 -0.4282
  729MPD2    C210773   1.455   2.371  16.885 -0.1169 -0.8702  0.6939
  729MPD2    C310774   1.361   2.458  16.942 -0.1601 -0.1468  0.5588
  729MPD2    C410775   1.317   2.566  16.874  0.3890 -0.0546  0.9806
  729MPD2    C510776   1.360   2.594  16.748  0.1829 -0.2844 -0.5867
  729MPD2     H10777   1.483   2.278  16.934 -0.2970 -0.2742  1.9478
  729MPD2    H110778   1.250   2.636  16.924 -1.0744  0.2483 -1.3928
  729MPD2    H210779   1.493   2.541  16.594 -0.2583 -1.7039 -0.6512
  729MPD2    H310780   1.320   2.683  16.702  0.0610  0.3790  0.8036
  729MPD2     N10781   1.309   2.451  17.080  0.4600  0.4814  0.3041
  729MPD2    H510782   1.245   2.525  17.109 -1.2678 -0.2332 -1.6561
  729MPD2    N110783   1.596   2.324  16.692  0.4871  0.0395  0.0746
  729MPD2    H710784   1.623   2.355  16.599 -0.5360  0.9528  0.0905
  730TMC3    C110785   1.285   2.387  17.302  0.1159 -0.5793 -0.4364
  730TMC3    C210786   1.368   2.359  17.413 -0.2620 -0.3805 -0.3140
  730TMC3    C310787   1.375   2.445  17.520  0.1866 -0.6822 -0.8285
  730TMC3    C410788   1.218   2.502  17.306  0.4939  0.4233  0.3932
  730TMC3    C510789   1.248   2.592  17.404 -0.1011 -0.6602 -0.3785
  730TMC3    C610790   1.323   2.572  17.512 -0.5953  0.2256  0.9925
  730TMC3     C10791   1.350   2.358  17.173  0.1577 -0.3120  0.3288
  730TMC3     O10792   1.419   2.260  17.160 -0.3220 -0.0305  0.5975
  730TMC3     H10793   1.435   2.275  17.401 -1.2067 -1.2593  0.6588
  730TMC3    H110794   1.135   2.516  17.237  0.3267 -0.7173  0.3631
  730TMC3    H210795   1.314   2.649  17.589 -0.4415  0.6752  0.5621
  730TMC3    C710796   1.260   2.720  17.327  0.0638  0.6373  0.2498
  730TMC3    C810797   1.459   2.408  17.635 -0.3900  0.1941 -0.5761
  730TMC3    O110798   1.223   2.715  17.209 -0.1317  0.0630  0.0662
  730TMC3    O210799   1.549   2.330  17.604  0.3404 -0.3407 -0.0232
  731MPD2     C10800   2.513   4.519  10.828 -0.1871  0.5961  0.4362
  731MPD2    C110801   2.518   4.645  10.888 -0.3549  0.2263 -0.0655
  731MPD2    C210802   2.588   4.658  11.008 -0.3554 -0.1433  0.7597
  731MPD2    C310803   2.647   4.549  11.067 -0.4308 -0.4309  0.4354
  731MPD2    C410804   2.631   4.425  11.007 -1.0273 -0.1344 -0.5336
  731MPD2    C510805   2.565   4.411  10.889  0.9472 -0.0502  0.3813
  731MPD2     H10806   2.601   0.034  11.055 -0.3438 -0.5535  1.5954
  731MPD2    H110807   2.673   4.334  11.048 -1.8679  0.2651  1.2075
  731MPD2    H210808   2.468   4.502  10.731  1.5706  2.2842 -0.6756
  731MPD2    H310809   2.541   4.315  10.845  0.1806  1.0209 -1.5175
  731MPD2     N10810   2.715   4.582  11.181 -0.5505  0.3041 -0.5763
  731MPD2    H510811   2.707   4.681  11.204  2.2761  0.6593 -1.1025
  731MPD2    N110812   2.461   0.035  10.819  0.1207  0.2190  0.5586
  731MPD2    H710813   2.396   0.018  10.742 -0.5508  0.2715  1.1163
  732TMC3    C110814   2.341   0.242  10.869 -0.6333 -0.5370 -0.1154
  732TMC3    C210815   2.232   0.154  10.867  0.3216  0.3494  0.5112
  732TMC3    C310816   2.125   0.201  10.937  0.3194  0.4996 -0.6650
  732TMC3    C410817   2.351   0.363  10.936 -0.2344  0.7358  0.0781
  732TMC3    C510818   2.229   0.396  10.998 -0.1183 -0.5934 -0.8390
  732TMC3    C610819   2.117   0.320  10.998 -0.0809  0.5005 -0.4082
  732TMC3     C10820   2.468   0.167  10.866  0.2563 -0.2166  0.1595
  732TMC3     O10821   2.560   0.220  10.923  0.2752 -0.1699 -0.2798
  732TMC3     H10822   2.240   0.064  10.807 -1.2620  1.5005 -1.4212
  732TMC3    H110823   2.432   0.432  10.913  0.8171 -0.1567  1.1100
  732TMC3    H210824   2.034   0.362  11.054 -1.1381 -0.8035 -0.9965
  732TMC3    C710825   2.225   0.525  11.072  0.8457  0.4472  0.1289
  732TMC3    C810826   2.055   0.091  11.000 -0.0573 -0.5242  0.0158
  732TMC3    O110827   2.116   0.574  11.096 -0.0407  0.5495 -0.0252
  732TMC3    O210828   2.110   4.701  10.987 -0.4087 -0.3639  0.3041
  733TMC3    C110829   3.192   4.075  12.334  0.2690 -1.0992  0.2983
  733TMC3    C210830   3.252   4.123  12.447 -0.3379 -0.5056 -0.0690
  733TMC3    C310831   3.351   4.217  12.420 -0.2437 -1.2240  0.0685
  733TMC3    C410832   3.213   4.129  12.210  0.1813 -0.1893 -0.2287
  733TMC3    C510833   3.311   4.223  12.198 -0.6152  0.3773 -0.3444
  733TMC3    C610834   3.380   4.273  12.298 -0.2925  0.1198  0.2502
  733TMC3     C10835   3.073   3.990  12.349 -0.2045  0.2704 -0.7015
  733TMC3     O10836   2.983   4.019  12.275  0.2944  0.1608 -0.5930
  733TMC3     H10837   3.261   4.061  12.536  1.0826  0.0242  0.1486
  733TMC3    H110838   3.163   4.084  12.124 -0.4168  1.5973 -0.8119
  733TMC3    H210839   3.462   4.340  12.274 -0.1946 -0.2211 -0.3716
  733TMC3    C710840   3.329   4.282  12.071 -0.8437  0.8776  0.9579
  733TMC3    C810841   3.418   4.274  12.536 -0.0756  0.2372 -0.5047
  733TMC3    O110842   3.297   4.227  11.969  0.3698 -0.0395 -0.4202
  733TMC3    O210843   3.433   4.209  12.634 -0.0868 -0.5473 -0.2299
  734MPD2     C10844   0.710   1.637  12.076  0.2562  0.5713 -0.7237
  734MPD2    C110845   0.638   1.541  12.019 -0.0675  0.2759 -0.7509
  734MPD2    C210846   0.666   1.513  11.887 -0.1010  0.2161  0.1498
  734MPD2    C310847   0.758   1.577  11.819  0.2381  0.6746  0.8444
  734MPD2    C410848   0.822   1.683  11.874  0.0071  0.4769 -0.0959
  734MPD2    C510849   0.795   1.716  12.007 -0.7652  0.7732  0.7162
  734MPD2     H10850   0.605   1.445  11.828  0.2575 -0.9642  1.1402
  734MPD2    H110851   0.906   1.738  11.833  0.2640 -0.2182 -0.4856
  734MPD2    H210852   0.686   1.670  12.177  1.5151 -3.9653  1.0734
  734MPD2    H310853   0.841   1.802  12.055  2.7426 -1.1750  0.8253
  734MPD2     N10854   0.773   1.532  11.685  0.1142  0.2656  0.2515
  734MPD2    H510855   0.697   1.467  11.668  1.5601 -1.1856 -0.5742
  734MPD2    N110856   0.567   1.457  12.097 -0.3259 -0.3856 -0.0190
  734MPD2    H710857   0.569   1.467  12.198 -2.0462  2.0342 -0.2100
  735TMC3    C110858   0.487   1.237  12.158 -0.4498  0.2357  0.1331
  735TMC3    C210859   0.392   1.152  12.108  0.2080  0.1699 -0.4958
  735TMC3    C310860   0.423   1.021  12.106  0.3737 -0.0775  0.3743
  735TMC3    C410861   0.609   1.185  12.201  0.1586  0.0967  0.2912
  735TMC3    C510862   0.633   1.052  12.194  0.7380  0.1548  1.1051
  735TMC3    C610863   0.536   0.960  12.157 -0.6047 -0.2741  0.5572
  735TMC3     C10864   0.508   1.337  12.055  0.0088  0.9568 -0.1228
  735TMC3     O10865   0.503   1.289  11.943 -0.5848 -0.1380 -0.0752
  735TMC3     H10866   0.311   1.194  12.051 -0.5912  2.5935  2.4279
  735TMC3    H110867   0.688   1.239  12.252  1.4763 -0.6931 -0.9153
  735TMC3    H210868   0.561   0.857  12.139 -0.7209  0.1209 -1.9692
  735TMC3    C710869   0.772   1.021  12.155  0.3492  0.8367 -1.2509
  735TMC3    C810870   0.403   0.954  11.975 -0.1675  0.2978 -0.0369
  735TMC3    O110871   0.831   1.118  12.108  0.3065 -0.1505  0.2447
  735TMC3    O210872   0.426   0.833  11.973 -0.3993  0.3192 -0.0241
  736MPD2     C10873   0.965   0.711  12.129  0.4538 -0.7696  0.2727
  736MPD2    C110874   0.925   0.843  12.102  0.4960 -0.2678  0.4302
  736MPD2    C210875   0.998   0.910  12.005 -0.2162  0.1899 -0.0457
  736MPD2    C310876   1.120   0.863  11.951  0.1132 -0.2069 -0.7168
  736MPD2    C410877   1.151   0.736  11.986 -0.2768 -0.1297 -0.9463
  736MPD2    C510878   1.081   0.663  12.075 -0.4139 -0.2712 -0.1795
  736MPD2     H10879   0.958   1.004  11.969  1.6359  0.9529 -0.1012
  736MPD2    H110880   1.239   0.691  11.942  0.5548 -1.2953  1.9365
  736MPD2    H210881   0.895   0.647  12.182 -0.2553  0.4680  0.8308
  736MPD2    H310882   1.114   0.566  12.110  0.6560  1.3094  3.2148
  736MPD2     N10883   1.199   0.915  11.848 -0.0076 -0.3902  0.5558
  736MPD2    H510884   1.281   0.868  11.813  0.9153  0.1863  1.9389
  736MPD2    N110885   0.804   0.892  12.153 -0.3441  0.0344  0.3000
  736MPD2    H710886   0.744   0.828  12.205 -1.4461  0.4066 -0.5293
  737TMC3    C110887   1.255   1.069  11.678 -0.1392  0.3918 -0.5793
  737TMC3    C210888   1.255   1.202  11.653  0.0221 -0.3781 -0.1255
  737TMC3    C310889   1.336   1.247  11.554 -0.2090 -1.0303  0.7050
  737TMC3    C410890   1.323   0.981  11.600  0.0972  0.2636  0.1504
  737TMC3    C510891   1.414   1.038  11.506 -0.0285  0.0846  0.2275
  737TMC3    C610892   1.419   1.168  11.474  0.4871  0.1154 -0.0275
  737TMC3     C10893   1.176   1.036  11.791 -1.3195 -0.4494  0.9765
  737TMC3     O10894   1.092   1.121  11.828 -0.2706 -0.5851  0.5537
  737TMC3     H10895   1.188   1.274  11.698  0.3014  0.7137 -1.4661
  737TMC3    H110896   1.325   0.874  11.615  0.5538  0.7181  3.1864
  737TMC3    H210897   1.487   1.220  11.408 -0.0827  1.3272  0.3274
  737TMC3    C710898   1.494   0.947  11.429 -0.2444  0.4735  0.4857
  737TMC3    C810899   1.295   1.378  11.505 -0.0757  0.2269  0.3441
  737TMC3    O110900   1.597   1.001  11.386 -0.8895  0.5103 -0.1922
  737TMC3    O210901   1.280   1.470  11.581  0.1341  0.3995  0.1989
  738MPD2     C10902   0.494   0.023  14.778 -0.0712  0.1456 -0.0150
  738MPD2    C110903   0.573   4.707  14.884 -0.1269 -0.0611  0.5111
  738MPD2    C210904   0.693   0.052  14.910 -0.1879 -0.3818  0.2418
  738MPD2    C310905   0.734   0.157  14.832 -0.0565  0.3630  0.5629
  738MPD2    C410906   0.657   0.196  14.729 -0.1337 -0.0211  0.4200
  738MPD2    C510907   0.537   0.134  14.701 -0.5008 -0.0251  0.4383
  738MPD2     H10908   0.755   0.011  14.989 -0.3265 -1.6888 -0.3274
  738MPD2    H110909   0.684   0.276  14.662  1.3619 -1.8256 -1.1499
  738MPD2    H210910   0.401   4.693  14.758 -0.1173 -0.2908  1.3323
  738MPD2    H310911   0.477   0.170  14.618 -0.1497 -1.6472 -0.5139
  738MPD2     N10912   0.853   0.221  14.849  0.4304 -0.2922 -0.8846
  738MPD2    H510913   0.878   0.284  14.773  1.1597 -1.1220 -1.3348
  738MPD2    N110914   0.542   4.596  14.969 -0.1625  0.4895  0.7040
  738MPD2    H710915   0.616   4.564  15.030  0.5699 -0.4899 -0.6914
  739TMC3    C110916   1.041   0.314  14.944  0.1245 -0.0402  0.4466
  739TMC3    C210917   1.096   0.331  14.815 -0.2713  0.0590  0.5737
  739TMC3    C310918   1.175   0.442  14.790  0.3539 -0.0851 -0.0038
  739TMC3    C410919   1.058   0.414  15.037  0.3973  0.2697  0.3925
  739TMC3    C510920   1.129   0.527  15.002  0.4778  0.4309  0.6001
  739TMC3    C610921   1.194   0.537  14.882 -0.6644 -0.3507  0.6385
  739TMC3     C10922   0.937   0.219  14.955 -0.3047 -0.6107  0.4948
  739TMC3     O10923   0.920   0.157  15.062  0.7323 -0.4060 -0.4798
  739TMC3     H10924   1.081   0.248  14.746 -2.8332 -1.4248  2.9272
  739TMC3    H110925   0.996   0.405  15.126 -1.0851 -0.0055 -0.6664
  739TMC3    H210926   1.252   0.624  14.856 -0.7574  0.4433  3.0775
  739TMC3    C710927   1.192   0.609  15.108 -0.7150 -0.3695  0.3213
  739TMC3    C810928   1.171   0.470  14.645  0.4889  0.4383 -0.1646
  739TMC3    O110929   1.280   0.691  15.080 -0.1391  0.3932 -0.4651
  739TMC3    O210930   1.089   0.410  14.571 -0.2863  0.6184  0.5897
  740TMC3    C110931   1.582   1.246  14.037 -0.1311  0.3154 -0.6202
  740TMC3    C210932   1.562   1.184  14.158  0.3078  0.4437 -0.3313
  740TMC3    C310933   1.676   1.162  14.233 -0.1041  0.1510 -0.2981
  740TMC3    C410934   1.717   1.254  13.989  0.6309 -0.0624 -0.5820
  740TMC3    C510935   1.823   1.228  14.069 -0.6327 -0.3951 -0.2942
  740TMC3    C610936   1.804   1.192  14.194 -0.3612  0.6364 -0.3439
  740TMC3     C10937   1.468   1.253  13.946 -0.5156 -0.2782  0.4821
  740TMC3     O10938   1.481   1.268  13.823  0.0984  0.5969 -0.0726
  740TMC3     H10939   1.467   1.141  14.187  2.1431 -1.4057  2.8242
  740TMC3    H110940   1.734   1.289  13.888  0.6556 -0.0072 -0.5583
  740TMC3    H210941   1.884   1.184  14.267 -0.8307  1.4432  0.2587
  740TMC3    C710942   1.966   1.262  14.036 -0.5635  0.7795 -0.1105
  740TMC3    C810943   1.661   1.106  14.369 -0.7069 -0.2915 -0.4858
  740TMC3    O110944   2.049   1.249  14.128 -0.0587 -0.5880  0.1513
  740TMC3    O210945   1.549   1.114  14.410 -0.3662 -0.0525 -0.0793
  741TMC3    C110946   0.857   0.729  13.879  0.0444  0.5061  0.2240
  741TMC3    C210947   0.794   0.604  13.877 -0.5152  0.1105  0.6603
  741TMC3    C310948   0.765   0.550  13.993  0.0069  0.5790  0.3985
  741TMC3    C410949   0.922   0.775  13.992  0.2568  0.0467  0.5051
  741TMC3    C510950   0.911   0.697  14.104  0.7474 -0.4235 -0.4517
  741TMC3    C610951   0.820   0.591  14.113 -0.4151 -0.1923 -0.1430
  741TMC3     C10952   0.860   0.817  13.764  0.1737  0.3250 -0.8390
  741TMC3     O10953   0.956   0.889  13.754  0.1038 -0.2354 -0.0704
  741TMC3     H10954   0.737   0.570  13.791  0.7644  0.7929 -0.4555
  741TMC3    H110955   0.960   0.876  14.000  0.6347  0.0638 -1.5191
  741TMC3    H210956   0.796   0.547  14.209 -1.4324  2.6127  0.8874
  741TMC3    C710957   0.938   0.755  14.233  0.1637  0.5944 -0.3738
  741TMC3    C810958   0.654   0.456  14.009 -0.4158  0.6031  0.1061
  741TMC3    O110959   0.859   0.722  14.323  0.2989 -0.1343  0.1142
  741TMC3    O210960   0.578   0.443  13.919  0.0620 -0.0197 -0.6687
  742TMC3    C110961   0.787   3.754  15.121 -0.0813 -0.4903 -0.7005
  742TMC3    C210962   0.700   3.761  15.017  0.1243  0.8038  0.1098
  742TMC3    C310963   0.756   3.826  14.909  0.5803 -0.1643 -0.2871
  742TMC3    C410964   0.895   3.837  15.143 -0.1858  1.2322  0.0905
  742TMC3    C510965   0.937   3.908  15.038  0.1906  0.5717  0.1272
  742TMC3    C610966   0.881   3.893  14.914  0.2437 -0.1447  0.2507
  742TMC3     C10967   0.760   3.649  15.213 -0.6103 -0.3813 -0.2661
  742TMC3     O10968   0.720   3.537  15.178 -0.0264  0.0468 -0.0732
  742TMC3     H10969   0.646   3.669  15.000  0.4971  0.9162 -1.6333
  742TMC3    H110970   0.964   3.811  15.222  0.6944 -1.9856 -1.7517
  742TMC3    H210971   0.933   3.942  14.832  1.2724  0.2490  1.1357
  742TMC3    C710972   1.072   3.969  15.041 -0.3221  0.0420  0.0212
  742TMC3    C810973   0.728   3.774  14.782 -0.3599  0.3551  0.6619
  742TMC3    O110974   1.127   3.972  14.930  0.3550 -0.1571  0.4437
  742TMC3    O210975   0.819   3.766  14.699  0.6157  0.1017  0.6228
  743MPD2     C10976   3.962   3.870   1.135 -0.2039  0.7763  0.4071
  743MPD2    C110977   4.009   3.977   1.197  0.0522  0.2209  0.5787
  743MPD2    C210978   4.121   3.960   1.273 -0.6335  0.5871 -0.1314
  743MPD2    C310979   4.195   3.844   1.274 -0.3218 -0.1458  0.3052
  743MPD2    C410980   4.145   3.737   1.203  0.6321  0.1174 -0.2608
  743MPD2    C510981   4.022   3.747   1.144 -0.2093  0.1050  0.1299
  743MPD2     H10982   4.167   4.045   1.322 -0.9909  1.6308 -1.5970
  743MPD2    H110983   4.192   3.640   1.196 -0.7758 -0.6665  1.2569
  743MPD2    H210984   3.867   3.873   1.083 -0.5896  2.4498  1.2056
  743MPD2    H310985   3.968   3.668   1.093  2.2371 -2.3111  1.2852
  743MPD2     N10986   4.317   3.844   1.339  0.3902 -0.4621  0.6266
  743MPD2    H510987   4.337   3.934   1.383  1.9045 -0.6634  0.3230
  743MPD2    N110988   3.927   4.093   1.194  0.0280 -0.2465  0.7187
  743MPD2    H710989   3.845   4.088   1.134 -0.5299  2.4891  1.2192
  744TMC3    C110990   3.856   4.315   1.255  0.1359 -0.6691  0.2621
  744TMC3    C210991   3.785   4.353   1.360 -0.1278 -0.1644  0.1754
  744TMC3    C310992   3.682   4.439   1.335  0.4031  0.3429  0.4101
  744TMC3    C410993   3.846   4.367   1.128  0.3025 -0.0933  0.3311
  744TMC3    C510994   3.748   4.458   1.115 -0.9355 -0.1787  0.6769
  744TMC3    C610995   3.663   4.490   1.217  0.5383  0.1467  0.2545
  744TMC3     C10996   3.951   4.207   1.273  0.4792  0.0267  0.9035
  744TMC3     O10997   4.038   4.213   1.358  0.3139  0.2416  0.4538
  744TMC3     H10998   3.822   4.315   1.455 -1.8044 -1.7652  0.1839
  744TMC3    H110999   3.909   4.335   1.047 -0.4383 -0.8531  0.0475
  744TMC3    H211000   3.571   4.543   1.196 -0.9170 -2.6000 -0.3374
  744TMC3    C711001   3.734   4.518   0.988 -0.5434 -0.6038  0.1361
  744TMC3    C811002   3.566   4.446   1.438 -0.1983  0.9333 -0.6967
  744TMC3    O111003   3.832   4.510   0.913 -0.1921  0.9525  0.3446
  744TMC3    O211004   3.481   4.531   1.421 -0.3226  0.0253 -0.2622
  745TMC3    C111005   1.936   3.274  12.992  0.0298 -0.7285 -0.3861
  745TMC3    C211006   1.821   3.285  13.073  0.5671  0.6534  0.0774
  745TMC3    C311007   1.701   3.235  13.031 -0.0560  0.0374  0.6852
  745TMC3    C411008   1.915   3.208  12.868  0.4546  1.1438 -0.3867
  745TMC3    C511009   1.784   3.184  12.822  0.5387 -0.3460 -0.5101
  745TMC3    C611010   1.677   3.185  12.901 -0.7505 -0.4469 -0.2686
  745TMC3     C11011   2.037   3.375  12.992 -0.1611 -0.6320 -0.0728
  745TMC3     O11012   2.128   3.353  12.920  0.6748  0.5417  0.2334
  745TMC3     H11013   1.826   3.336  13.168 -1.4006 -1.0383  1.0868
  745TMC3    H111014   2.003   3.192  12.807  0.3371  0.8324 -0.4748
  745TMC3    H211015   1.578   3.158  12.867 -0.5596 -1.9413  0.3643
  745TMC3    C711016   1.748   3.251  12.694  0.6659  0.2402 -0.2190
  745TMC3    C811017   1.580   3.259  13.114  0.2592  0.3379  0.0145
  745TMC3    O111018   1.631   3.261  12.669 -0.4708  0.3044 -0.4653
  745TMC3    O211019   1.481   3.200  13.077 -0.0007 -0.6522  0.0699
  746TMC3    C111020   4.212   0.428  10.690 -0.1040 -0.5256  0.0300
  746TMC3    C211021   4.325   0.415  10.608 -0.3373 -0.2543 -0.1104
  746TMC3    C311022   4.325   0.309  10.526 -0.2681 -0.3381  0.7072
  746TMC3    C411023   4.120   0.330  10.703 -0.0655 -0.5596  0.1267
  746TMC3    C511024   4.123   0.231  10.612  0.0170 -0.4254  0.6691
  746TMC3    C611025   4.218   0.217  10.518  0.5445  0.2496 -0.7402
  746TMC3     C11026   4.193   0.546  10.760  0.5646 -0.3079 -0.5030
  746TMC3     O11027   4.140   0.540  10.867 -0.2459  0.3153 -0.4104
  746TMC3     H11028   4.403   0.491  10.611 -0.8189  0.2467 -0.3091
  746TMC3    H111029   4.043   0.342  10.777 -0.2052 -0.9259  0.0353
  746TMC3    H211030   4.220   0.145  10.436  1.8185  0.4448 -0.8813
  746TMC3    C711031   4.021   0.130  10.627 -0.6924  0.6672 -0.1085
  746TMC3    C811032   4.424   0.293  10.417 -0.1784 -0.7064  0.6008
  746TMC3    O111033   4.002   0.062  10.525 -0.0530  0.4940 -0.1569
  746TMC3    O211034   4.444   0.189  10.354  0.5933  0.3716  0.2708
  747TMC3    C111035   2.084   0.717  10.821 -0.7097  0.0497  0.7824
  747TMC3    C211036   1.952   0.677  10.809  0.1410  0.0693 -0.2800
  747TMC3    C311037   1.857   0.740  10.883  0.0043  0.1221  0.3301
  747TMC3    C411038   2.116   0.833  10.894 -0.4635  0.2784  0.3860
  747TMC3    C511039   2.011   0.893  10.961  0.4675 -0.1594  0.5194
  747TMC3    C611040   1.884   0.850  10.947 -0.1650  0.6949 -0.3882
  747TMC3     C11041   2.192   0.652  10.761 -0.2886 -0.0659  0.1246
  747TMC3     O11042   2.301   0.682  10.801 -0.0233 -0.4160 -0.3457
  747TMC3     H11043   1.923   0.583  10.763  1.2009 -0.1867 -0.4313
  747TMC3    H111044   2.221   0.851  10.910 -1.0976  3.3721  1.0018
  747TMC3    H211045   1.810   0.913  10.996  0.8826  1.4628  0.2110
  747TMC3    C711046   2.037   0.983  11.071  0.0843 -0.1302  0.0970
  747TMC3    C811047   1.751   0.661  10.936  0.0457 -0.4557 -0.1698
  747TMC3    O111048   1.960   0.978  11.162  0.1401 -0.2205  0.4133
  747TMC3    O211049   1.713   0.562  10.875 -0.9220  0.6868 -0.1606
  748MPD2     C11050   2.954   0.677   2.090 -0.0925 -0.3857 -0.4416
  748MPD2    C111051   3.083   0.632   2.079  0.2035 -0.1739 -0.6322
  748MPD2    C211052   3.161   0.680   1.969 -0.7880 -0.2519 -0.1268
  748MPD2    C311053   3.106   0.763   1.874 -1.0007 -0.3158  0.1831
  748MPD2    C411054   2.976   0.805   1.891 -0.5380 -0.6035  0.2372
  748MPD2    C511055   2.901   0.768   1.997 -0.2305 -0.0799 -0.3532
  748MPD2     H11056   3.258   0.637   1.948  0.0864  2.6744 -1.9901
  748MPD2    H111057   2.931   0.877   1.824  1.6183  2.3495  1.9684
  748MPD2    H211058   2.898   0.651   2.179  1.4492 -1.0959  0.3164
  748MPD2    H311059   2.813   0.828   2.018 -0.5781 -0.0924 -1.8157
  748MPD2     N11060   3.185   0.809   1.771 -0.2875  0.6406 -0.4565
  748MPD2    H511061   3.276   0.765   1.762 -0.1458  0.7016  0.6215
  748MPD2    N111062   3.130   0.545   2.182 -0.0428  0.3183 -0.5098
  748MPD2    H711063   3.060   0.511   2.247 -0.0437  2.8938  0.8487
  749TMC3    C111064   3.253   0.948   1.593 -0.2107  0.0418  0.4630
  749TMC3    C211065   3.384   0.926   1.618  0.1744  0.1452 -0.7225
  749TMC3    C311066   3.465   0.943   1.515  0.2244  0.0279  0.1421
  749TMC3    C411067   3.205   0.995   1.473 -0.3903  0.7351  0.3357
  749TMC3    C511068   3.290   1.016   1.372  0.5514 -0.6510 -0.5805
  749TMC3    C611069   3.424   0.985   1.388 -0.1969 -0.6032 -0.2897
  749TMC3     C11070   3.156   0.917   1.694 -0.2147  0.4476  0.4449
  749TMC3     O11071   3.052   0.979   1.676 -0.0684  0.4825 -0.6640
  749TMC3     H11072   3.422   0.886   1.711 -0.9205  2.9132  0.8803
  749TMC3    H111073   3.105   1.033   1.456 -1.2082 -1.1918  0.8591
  749TMC3    H211074   3.486   1.000   1.300  1.1571  0.0475  0.7681
  749TMC3    C711075   3.268   1.127   1.278  0.7259 -0.2130 -0.5309
  749TMC3    C811076   3.605   0.898   1.536  0.1671 -0.1144 -0.1931
  749TMC3    O111077   3.367   1.191   1.240  0.3171 -0.0154 -0.6586
  749TMC3    O211078   3.634   0.898   1.656 -0.1276 -0.3992  0.1124
  750MPD2     C11079   4.709   2.685  11.133  0.6571  0.1467 -0.1218
  750MPD2    C111080   4.607   2.633  11.208  0.3390  0.0894  0.1061
  750MPD2    C211081   4.491   2.587  11.143  0.4886 -1.2787  0.6125
  750MPD2    C311082   4.476   2.598  11.008 -0.2197  0.9036  0.2845
  750MPD2    C411083   4.579   2.664  10.937  0.3881 -0.1088 -0.6212
  750MPD2    C511084   4.691   2.702  11.000  0.3280 -0.5260  0.0300
  750MPD2     H11085   4.410   2.551  11.205 -1.3798 -0.0554 -1.1047
  750MPD2    H111086   4.574   2.691  10.832 -1.4800  2.5879  0.1417
  750MPD2    H211087   0.079   2.727  11.176  0.2247  1.2720 -0.3183
  750MPD2    H311088   0.040   2.763  10.943 -0.7407  1.7663  1.1658
  750MPD2     N11089   4.370   2.548  10.936  0.0890 -0.4386 -1.0060
  750MPD2    H511090   4.373   2.561  10.835 -0.9987 -0.5531 -1.0447
  750MPD2    N111091   4.630   2.623  11.346  0.3625  0.1891  0.6773
  750MPD2    H711092   4.708   2.674  11.386  0.4945  0.2111  0.3936
  751TMC3    C111093   4.158   2.447  10.898  0.1587 -0.4966  0.0048
  751TMC3    C211094   4.073   2.344  10.932  0.5662 -0.1551  0.7668
  751TMC3    C311095   3.981   2.311  10.835 -0.5099  0.2736  0.6789
  751TMC3    C411096   4.142   2.525  10.791 -0.5798 -0.1469  0.4334
  751TMC3    C511097   4.044   2.489  10.703 -0.2393  0.1592  0.0982
  751TMC3    C611098   3.968   2.377  10.714  0.3911  0.0681 -0.0241
  751TMC3     C11099   4.269   2.474  10.993  0.4138 -0.3955 -0.8430
  751TMC3     O11100   4.260   2.421  11.104 -0.8723  0.0749  0.4098
  751TMC3     H11101   4.085   2.281  11.019  0.2150  0.2027  1.0678
  751TMC3    H111102   4.194   2.619  10.776  1.1351 -1.2832 -0.7017
  751TMC3    H211103   3.886   2.352  10.648  1.2711 -0.0880 -1.0617
  751TMC3    C711104   4.084   2.513  10.563 -0.7627 -0.4226  0.5950
  751TMC3    C811105   3.901   2.191  10.848 -0.1324  0.1015  0.5439
  751TMC3    O111106   4.172   2.601  10.554 -0.1257 -0.0276  0.4674
  751TMC3    O211107   3.832   2.156  10.750  0.6562 -0.4409 -0.0423
  752TMC3    C111108   2.117   1.884  17.520 -0.1337 -0.0512 -0.3793
  752TMC3    C211109   1.978   1.874  17.493 -0.0864 -0.4644  0.2140
  752TMC3    C311110   1.894   1.843  17.594 -0.3214 -0.3969 -0.2852
  752TMC3    C411111   2.153   1.872  17.647 -0.0328 -0.1284 -0.7207
  752TMC3    C511112   2.067   1.826   0.057 -0.0855 -0.1617 -0.0839
  752TMC3    C611113   1.932   1.813   0.031  0.5096 -0.6589 -0.0178
  752TMC3     C11114   2.215   1.899  17.413 -1.1049 -0.7869 -0.0044
  752TMC3     O11115   2.329   1.872  17.436  0.3325 -0.3202  0.0907
  752TMC3     H11116   1.936   1.885  17.394  1.3457 -0.5397 -0.3982
  752TMC3    H111117   2.258   1.868  17.671 -0.5721 -0.4011  1.6267
  752TMC3    H211118   1.869   1.760   0.102  0.2353  0.7825  0.8003
  752TMC3    C711119   2.112   1.780   0.187  0.0477  0.5969  0.1520
  752TMC3    C811120   1.765   1.910  17.585 -0.0402 -0.4758  0.0370
  752TMC3    O111121   2.031   1.718   0.257  0.5132  0.4717 -0.6788
  752TMC3    O211122   1.708   1.936  17.479 -0.5604  0.6992  0.0105
  753TMC3    C111123   4.496   3.648  13.313  0.4631  0.2694  0.1513
  753TMC3    C211124   4.516   3.591  13.436  0.2456  0.0395 -0.5324
  753TMC3    C311125   4.513   3.452  13.433  0.3053 -0.4634 -0.3922
  753TMC3    C411126   4.477   3.575  13.198 -0.3116 -0.2804 -0.4370
  753TMC3    C511127   4.452   3.442  13.208 -0.1575  0.6061  0.5773
  753TMC3    C611128   4.469   3.377  13.329 -0.2281  0.0170  0.1641
  753TMC3     C11129   4.508   3.787  13.293  0.0986 -0.2611 -0.6161
  753TMC3     O11130   4.452   3.839  13.201 -0.3956  0.1429 -0.2771
  753TMC3     H11131   4.531   3.648  13.527  2.5973 -1.5722  0.0926
  753TMC3    H111132   4.475   3.617  13.098 -1.1991  0.3534 -0.1530
  753TMC3    H211133   4.476   3.269  13.328 -1.7795 -0.0803  0.8474
  753TMC3    C711134   4.425   3.362  13.096  0.7634 -0.0509  0.5476
  753TMC3    C811135   4.520   3.380  13.551 -0.0317  0.0754 -0.4294
  753TMC3    O111136   4.456   3.407  12.988  0.0691 -0.1788  0.1171
  753TMC3    O211137   4.466   3.270  13.563  0.2949 -0.0692 -0.1169
  754MPD2     C11138   3.792   2.232  13.159  0.1442  0.6336 -0.1101
  754MPD2    C111139   3.797   2.095  13.163 -0.5882  0.7764  0.3041
  754MPD2    C211140   3.695   2.033  13.090 -0.4085  0.0730 -0.1959
  754MPD2    C311141   3.585   2.102  13.043  0.0547  0.3072  0.1851
  754MPD2    C411142   3.595   2.240  13.041  0.3745  0.9060 -0.3211
  754MPD2    C511143   3.700   2.310  13.103 -0.0385  0.0489  0.4851
  754MPD2     H11144   3.699   1.926  13.079  0.1892  0.1678 -0.9193
  754MPD2    H111145   3.510   2.294  13.000  1.9598  1.5398 -2.7958
  754MPD2    H211146   3.874   2.284  13.208  0.8062 -1.1724  0.6916
  754MPD2    H311147   3.703   2.418  13.106 -0.2041  0.0922 -1.0413
  754MPD2     N11148   3.470   2.047  12.991 -0.3562 -0.4127 -0.0927
  754MPD2    H511149   3.401   2.101  12.939 -1.6364 -0.2899  1.7193
  754MPD2    N111150   3.904   2.038  13.227 -0.8983  0.1263  0.4833
  754MPD2    H711151   3.985   2.093  13.253  0.4104 -0.9758 -1.2980
  755MPD2     C11152   2.800   2.499  12.829  0.2887 -0.1024 -0.4024
  755MPD2    C111153   2.731   2.386  12.867 -0.0744  0.4754 -0.8151
  755MPD2    C211154   2.797   2.272  12.901 -0.0604 -0.3105 -0.8096
  755MPD2    C311155   2.934   2.263  12.895  0.2164  0.9445 -0.5301
  755MPD2    C411156   3.003   2.381  12.868  0.1230 -0.3863  0.3001
  755MPD2    C511157   2.937   2.500  12.839  0.3426 -0.3123  0.2869
  755MPD2     H11158   2.741   2.180  12.916 -2.2687  0.8241 -2.0931
  755MPD2    H111159   3.110   2.396  12.863  0.0931 -0.4212 -0.4313
  755MPD2    H211160   2.750   2.588  12.791 -0.3364 -0.0944  0.4580
  755MPD2    H311161   2.993   2.583  12.797 -0.9411 -0.8676 -2.4983
  755MPD2     N11162   3.010   2.142  12.906  0.6498 -0.2296 -0.5330
  755MPD2    H511163   3.111   2.149  12.908  0.7369 -0.6963 -2.9162
  755MPD2    N111164   2.589   2.381  12.857  0.3880 -0.0995 -0.2934
  755MPD2    H711165   2.552   2.293  12.891 -0.4413 -0.2764 -1.6198
  756MPD2     C11166   4.479   2.800   9.414  0.2656  0.5927 -0.2227
  756MPD2    C111167   4.391   2.751   9.505 -0.6499  0.2006  0.0227
  756MPD2    C211168   4.328   2.630   9.480 -0.5053 -0.1527 -0.6015
  756MPD2    C311169   4.346   2.572   9.354  0.2130  0.3579 -0.5913
  756MPD2    C411170   4.424   2.628   9.262  0.1764 -0.0282 -0.0116
  756MPD2    C511171   4.498   2.739   9.299  0.3019 -0.2367 -0.4030
  756MPD2     H11172   4.271   2.578   9.556 -1.1661 -1.3577 -1.9203
  756MPD2    H111173   4.443   2.581   9.166 -2.2644  0.3413 -0.6751
  756MPD2    H211174   4.521   2.897   9.437  0.9318 -0.5680  3.5490
  756MPD2    H311175   4.564   2.781   9.224  0.4790 -0.1565 -0.2016
  756MPD2     N11176   4.267   2.454   9.328  0.1616  0.3652 -0.6054
  756MPD2    H511177   4.202   2.428   9.402  0.2322  0.3432 -0.5508
  756MPD2    N111178   4.372   2.811   9.633  0.4049 -0.0811  0.1420
  756MPD2    H711179   4.305   2.765   9.694 -0.2848  0.6211 -0.0882
  757MPD2     C11180   3.427   2.018   9.588 -0.4408 -0.1965 -0.0139
  757MPD2    C111181   3.507   1.906   9.565 -0.9643  0.4670  0.2544
  757MPD2    C211182   3.626   1.939   9.510 -0.3660 -0.6415 -0.4293
  757MPD2    C311183   3.668   2.062   9.480  0.1938  0.2697  0.1612
  757MPD2    C411184   3.594   2.171   9.525 -0.3930  0.4810 -0.0538
  757MPD2    C511185   3.474   2.148   9.583  0.0987 -0.9996  0.1573
  757MPD2     H11186   3.695   1.860   9.481  2.8504  0.9392  2.9756
  757MPD2    H111187   3.634   2.272   9.522 -0.2377  0.4527  1.0846
  757MPD2    H211188   3.326   2.008   9.625 -0.4596 -0.8892 -0.2583
  757MPD2    H311189   3.412   2.233   9.611  0.9069  0.0451 -1.2251
  757MPD2     N11190   3.791   2.084   9.414 -0.1325  0.5108  0.8534
  757MPD2    H511191   3.828   1.995   9.380 -0.3066  0.8942 -0.3431
  757MPD2    N111192   3.468   1.774   9.595 -0.4714  0.0252  0.0343
  757MPD2    H711193   3.371   1.756   9.616 -0.7864  1.4401 -0.2566
  758MPD2     C11194   3.155   2.106  15.802 -0.3339 -0.4511 -0.6628
  758MPD2    C111195   3.209   2.018  15.891  0.0607 -0.2215  0.0595
  758MPD2    C211196   3.163   2.019  16.021 -0.0434  0.3655  0.5434
  758MPD2    C311197   3.070   2.115  16.070 -0.3865 -0.0348  0.6527
  758MPD2    C411198   3.027   2.209  15.977  0.7193 -0.2647 -0.3663
  758MPD2    C511199   3.075   2.203  15.852 -0.2605  0.1118 -0.5495
  758MPD2     H11200   3.186   1.934  16.084  1.7460  0.7446  0.4096
  758MPD2    H111201   2.947   2.280  15.993 -0.9746 -2.0399 -1.0391
  758MPD2    H211202   3.197   2.101  15.702  0.2301  0.7921 -0.4815
  758MPD2    H311203   3.043   2.275  15.778 -3.8154 -0.4393  0.4749
  758MPD2     N11204   3.019   2.116  16.200  0.4871 -0.0520 -0.0587
  758MPD2    H511205   2.941   2.177  16.225  0.9704  0.6590 -0.3151
  758MPD2    N111206   3.314   1.941  15.839 -0.4314 -0.0762  0.2903
  758MPD2    H711207   3.328   1.950  15.739  0.9115 -2.3302  0.2872
  759MPD2     C11208   3.717   0.260   9.661 -0.6375  0.2060 -0.8981
  759MPD2    C111209   3.583   0.298   9.653 -1.0341  0.4861 -0.4465
  759MPD2    C211210   3.543   0.373   9.542 -0.0478 -0.5257  0.4248
  759MPD2    C311211   3.635   0.407   9.443 -0.1789 -0.2090  0.0521
  759MPD2    C411212   3.771   0.370   9.450 -0.3305  0.6103  0.3789
  759MPD2    C511213   3.807   0.297   9.564  0.3117 -0.2501  0.5380
  759MPD2     H11214   3.443   0.408   9.522  0.6015  0.3980 -1.2037
  759MPD2    H111215   3.838   0.374   9.365  1.1849  1.1130  1.5806
  759MPD2    H211216   3.750   0.186   9.733 -1.8553 -0.6705 -1.2354
  759MPD2    H311217   3.902   0.245   9.575  0.6255  0.2470  0.1738
  759MPD2     N11218   3.576   0.467   9.325  0.5876 -0.1580 -0.1209
  759MPD2    H511219   3.475   0.482   9.323  0.1351 -3.1206 -0.8008
  759MPD2    N111220   3.484   0.274   9.751 -0.4061  0.4920 -0.2973
  759MPD2    H711221   3.390   0.308   9.736  0.1497  3.2521  2.6526
  760MPD2     C11222   2.256   2.346  11.802  0.8935 -0.1080 -0.0550
  760MPD2    C111223   2.380   2.301  11.775 -0.0426  0.1045 -0.0794
  760MPD2    C211224   2.410   2.171  11.776 -0.0277  0.6820 -0.5859
  760MPD2    C311225   2.309   2.082  11.822  0.3050  0.1665  0.4267
  760MPD2    C411226   2.192   2.136  11.859  0.0074 -0.0413  0.4274
  760MPD2    C511227   2.163   2.267  11.848  0.1074 -0.0988 -0.0391
  760MPD2     H11228   2.515   2.145  11.772 -0.3863 -0.8751  0.3993
  760MPD2    H111229   2.106   2.077  11.889 -2.6077  3.3421 -0.3504
  760MPD2    H211230   2.223   2.448  11.781 -0.0798 -0.3258  0.3975
  760MPD2    H311231   2.066   2.306  11.877 -0.5507 -1.2565 -0.7104
  760MPD2     N11232   2.329   1.947  11.837 -0.6710  0.4427 -0.1928
  760MPD2    H511233   2.269   1.889  11.895  0.3345  0.5174  0.9313
  760MPD2    N111234   2.478   2.386  11.729 -0.4030  0.3745  0.1497
  760MPD2    H711235   2.571   2.347  11.716  0.0994  1.0430  1.6944
  761MPD2     C11236   3.729   1.768  11.059 -0.8402 -0.2223  0.4816
  761MPD2    C111237   3.797   1.791  10.938  0.2853 -0.7142 -0.1162
  761MPD2    C211238   3.829   1.921  10.915 -0.6618 -0.7807 -0.9923
  761MPD2    C311239   3.818   2.025  11.008  0.2602  0.2198 -0.3460
  761MPD2    C411240   3.765   1.992  11.133 -0.0855  0.2013 -0.1071
  761MPD2    C511241   3.723   1.863  11.159  0.4828  0.6260 -0.4809
  761MPD2     H11242   3.864   1.938  10.814 -0.5342  3.4255 -0.2256
  761MPD2    H111243   3.748   2.068  11.208 -0.5902  0.4289 -0.4500
  761MPD2    H211244   3.674   1.678  11.082 -0.4990 -0.4317  0.4759
  761MPD2    H311245   3.675   1.853  11.256  2.0782  1.3805  0.3806
  761MPD2     N11246   3.868   2.150  10.982 -0.6603  0.0926  0.0503
  761MPD2    H511247   3.892   2.216  11.056 -0.2520 -0.5536  0.4980
  761MPD2    N111248   3.825   1.681  10.857  0.0689 -0.5903 -0.3554
  761MPD2    H711249   3.796   1.589  10.890  0.5492 -1.3019 -1.9004
  762MPD2     C11250   4.516   1.591  10.519 -0.3505 -0.5651  0.5898
  762MPD2    C111251   4.433   1.492  10.460 -0.4034 -0.5033 -0.6296
  762MPD2    C211252   4.478   1.407  10.369  0.0717  0.3021  0.8106
  762MPD2    C311253   4.609   1.416  10.332  0.0187  0.4562 -0.6125
  762MPD2    C411254   4.698   1.504  10.407 -0.0221 -0.1159  0.2336
  762MPD2    C511255   4.643   1.599  10.480 -0.3157 -0.0597 -1.1978
  762MPD2     H11256   4.415   1.332  10.322  1.3711  0.3601 -1.0123
  762MPD2    H111257   0.084   1.505  10.389  0.0044  0.4358  0.4461
  762MPD2    H211258   4.485   1.651  10.604 -1.1684 -0.0111 -0.0965
  762MPD2    H311259   4.706   1.672  10.529  1.8764 -2.4450 -0.4376
  762MPD2     N11260   4.666   1.322  10.245  0.7511  0.3589  0.5785
  762MPD2    H511261   4.598   1.260  10.202  1.3083 -0.6202  1.1118
  762MPD2    N111262   4.299   1.489  10.507  0.5009 -0.2571  0.0744
  762MPD2    H711263   4.281   1.564  10.573  0.3332  0.4850 -0.7991
  763MPD2     C11264   0.651   1.767  15.771  0.4199 -0.3469 -0.2856
  763MPD2    C111265   0.537   1.836  15.730 -0.0896 -0.3946  0.2938
  763MPD2    C211266   0.506   1.955  15.790 -0.2581  0.6244 -0.5551
  763MPD2    C311267   0.582   2.013  15.890  0.1879  0.4819  0.7876
  763MPD2    C411268   0.698   1.944  15.916  0.7763  0.6478 -0.0864
  763MPD2    C511269   0.723   1.818  15.870 -0.9048 -0.6281  0.2913
  763MPD2     H11270   0.420   2.014  15.760  0.1751  1.0428 -0.9532
  763MPD2    H111271   0.776   1.986  15.979  1.1424 -0.0017 -0.1050
  763MPD2    H211272   0.681   1.675  15.722 -0.4730 -1.2390  0.8307
  763MPD2    H311273   0.822   1.780  15.891  0.0876  0.1330 -3.0623
  763MPD2     N11274   0.555   2.134  15.953  0.1173 -0.2538 -0.6038
  763MPD2    H511275   0.622   2.158  16.025 -0.5232  1.7673 -0.6912
  763MPD2    N111276   0.468   1.780  15.618  0.4363  0.1417  0.5261
  763MPD2    H711277   0.389   1.835  15.584 -0.0618  0.6450  2.5018
  764MPD2     C11278   1.989   1.917   0.513  0.1411  0.0383 -0.5327
  764MPD2    C111279   2.027   2.048   0.534 -0.0305  0.3861  0.0781
  764MPD2    C211280   2.088   2.081   0.652 -0.0621  0.8424  0.9451
  764MPD2    C311281   2.113   1.984   0.744  0.1345  0.3055 -0.6309
  764MPD2    C411282   2.083   1.856   0.723  0.7225 -0.0548 -0.3090
  764MPD2    C511283   2.012   1.826   0.607  0.3984 -0.5318 -0.2108
  764MPD2     H11284   2.097   2.187   0.675 -1.7752  0.9299  1.2608
  764MPD2    H111285   2.114   1.771   0.784 -1.8443 -1.2352 -0.6207
  764MPD2    H211286   1.936   1.880   0.425  0.6837 -2.6254  0.2570
  764MPD2    H311287   1.988   1.722   0.590 -2.8755  0.3466 -0.9401
  764MPD2     N11288   2.178   2.011   0.868  0.3241  0.3819 -0.0152
  764MPD2    H511289   2.226   1.933   0.912 -0.6991 -1.4088 -2.0983
  764MPD2    N111290   2.010   2.151   0.438  0.2068 -0.1401  0.2587
  764MPD2    H711291   2.059   2.238   0.450 -1.4468  0.9863 -1.1143
  765MPD2     C11292   2.624   1.163  15.803  0.2513 -0.3834 -0.4811
  765MPD2    C111293   2.728   1.251  15.806  0.3417 -0.1547 -0.6468
  765MPD2    C211294   2.858   1.210  15.782  0.3176  0.3718  0.1564
  765MPD2    C311295   2.878   1.084  15.735  0.4746 -0.4514  0.1567
  765MPD2    C411296   2.772   0.994  15.724  0.3051 -0.3473  0.1767
  765MPD2    C511297   2.644   1.043  15.746 -0.6290  0.8031 -0.4196
  765MPD2     H11298   2.946   1.273  15.791 -0.2850  1.0329  1.3238
  765MPD2    H111299   2.789   0.894  15.684  0.8546 -0.2643  0.2036
  765MPD2    H211300   2.521   1.194  15.817  1.1116  1.8916  0.6713
  765MPD2    H311301   2.565   0.970  15.735 -1.1538  1.2961  0.1056
  765MPD2     N11302   3.014   1.049  15.705 -0.2529  0.4718  0.1254
  765MPD2    H511303   3.091   1.113  15.723  0.3150 -0.4000  0.8284
  765MPD2    N111304   2.695   1.387  15.823  0.5855 -0.3735  0.1605
  765MPD2    H711305   2.596   1.408  15.835  0.2074 -1.8744 -0.2348
  766MPD2     C11306   2.264   1.790  15.426  0.2986  0.0404  0.2093
  766MPD2    C111307   2.379   1.716  15.439  0.3645 -0.0766 -0.1606
  766MPD2    C211308   2.440   1.676  15.321 -0.1382  0.2911 -0.2451
  766MPD2    C311309   2.388   1.704  15.198 -0.0078  0.1963 -0.5954
  766MPD2    C411310   2.272   1.769  15.191  0.1531  0.2348  0.2197
  766MPD2    C511311   2.213   1.817  15.302  0.5965 -0.6847  0.6649
  766MPD2     H11312   2.537   1.629  15.327 -0.3778 -0.3243 -1.3524
  766MPD2    H111313   2.232   1.797  15.094 -0.1817  1.4600  0.7166
  766MPD2    H211314   2.202   1.821  15.510  0.0162 -1.3172  0.4994
  766MPD2    H311315   2.121   1.873  15.294  1.5581  0.4992 -2.0552
  766MPD2     N11316   2.436   1.664  15.074 -0.2106  0.7823  0.0846
  766MPD2    H511317   2.379   1.686  14.993 -0.0916  0.6614 -0.0332
  766MPD2    N111318   2.447   1.682  15.562 -0.3381 -0.2094  0.5824
  766MPD2    H711319   2.533   1.629  15.555  0.5254  1.2626 -0.0635
  767MPD2     C11320   2.055   1.956  14.954  0.2687 -0.5689  0.4046
  767MPD2    C111321   2.179   1.974  14.894 -0.3136 -0.6047  0.0981
  767MPD2    C211322   2.207   1.899  14.781  0.5937 -0.1065  0.2473
  767MPD2    C311323   2.116   1.811  14.719 -0.4507 -0.0819 -0.9600
  767MPD2    C411324   1.989   1.803  14.778 -0.1405 -0.2140  0.0936
  767MPD2    C511325   1.959   1.882  14.889  0.0088 -0.2553  0.4918
  767MPD2     H11326   2.303   1.912  14.733  0.6548  3.9597  1.4328
  767MPD2    H111327   1.904   1.747  14.741 -1.1306  0.7778  0.8842
  767MPD2    H211328   2.029   2.013  15.042 -0.5832 -0.1716 -0.1051
  767MPD2    H311329   1.859   1.879  14.929  0.2866 -1.7673  1.0871
  767MPD2     N11330   2.151   1.733  14.603  0.6429 -0.6077 -0.1083
  767MPD2    H511331   2.249   1.724  14.578  0.6467  0.5840 -0.5261
  767MPD2    N111332   2.279   2.049  14.962  0.0320 -0.2227 -0.5434
  767MPD2    H711333   2.253   2.103  15.044  0.3440 -0.1034 -0.5221
  768MPD2     C11334   4.080   4.336  10.308 -0.2078  0.2551 -0.4291
  768MPD2    C111335   3.996   4.270  10.398 -0.1876 -0.2792  0.4704
  768MPD2    C211336   4.036   4.255  10.530 -0.2766 -0.2012  0.0752
  768MPD2    C311337   4.145   4.332  10.574 -0.6306  0.1484 -0.0923
  768MPD2    C411338   4.227   4.402  10.486  0.6111 -0.0865 -0.2435
  768MPD2    C511339   4.198   4.401  10.355  0.6756  0.7859 -0.0207
  768MPD2     H11340   3.965   4.211  10.599 -0.7257 -2.0388 -1.5416
  768MPD2    H111341   4.298   4.473  10.526  0.0891 -1.2203  2.6964
  768MPD2    H211342   4.044   4.360  10.209 -0.6584  0.3771 -0.2418
  768MPD2    H311343   4.260   4.455  10.284  1.3883  1.5700  1.2066
  768MPD2     N11344   4.172   4.368  10.709 -0.0465 -0.4521 -0.1550
  768MPD2    H511345   4.247   4.436  10.714 -0.6510  0.1857  0.2265
  768MPD2    N111346   3.867   4.238  10.369  0.1897 -0.3896  0.4281
  768MPD2    H711347   3.814   4.188  10.439 -0.3885  0.5326  0.6446
  769MPD2     C11348   4.499   2.644  14.649  0.3274 -0.1094  0.4076
  769MPD2    C111349   4.414   2.612  14.749 -0.3454  0.3330  0.1517
  769MPD2    C211350   4.414   2.685  14.862  0.7286 -0.0674 -0.0339
  769MPD2    C311351   4.511   2.779  14.885 -0.6700 -0.2238 -0.8885
  769MPD2    C411352   4.602   2.807  14.778 -0.6142  0.4714  0.1564
  769MPD2    C511353   4.584   2.752  14.654 -0.4672 -0.7107  0.5059
  769MPD2     H11354   4.341   2.657  14.937  0.2412  0.7977 -0.1890
  769MPD2    H111355   4.668   2.892  14.779 -1.0467  0.8200 -0.6189
  769MPD2    H211356   4.515   2.584  14.560  0.8557  1.3375 -0.4861
  769MPD2    H311357   4.649   2.772  14.570  1.9872 -1.5192  2.2366
  769MPD2     N11358   4.514   2.846  15.012 -0.0803 -0.6716 -0.0367
  769MPD2    H511359   4.455   2.823  15.092 -0.3693  2.0584  0.5101
  769MPD2    N111360   4.328   2.494  14.735  0.5193  0.2171 -0.1942
  769MPD2    H711361   4.338   2.454  14.643  0.3355 -2.2655  0.8721
  770MPD2     C11362   3.444   1.997  15.096  1.0058  0.6948  0.4315
  770MPD2    C111363   3.493   1.911  15.000 -0.1042  0.8501  0.1262
  770MPD2    C211364   3.598   1.951  14.913  0.0038 -0.5170 -0.1990
  770MPD2    C311365   3.660   2.074  14.938 -1.0139 -0.9476  0.2751
  770MPD2    C411366   3.608   2.159  15.036  1.3114 -0.4820 -0.8918
  770MPD2    C511367   3.503   2.121  15.109 -0.3024 -0.2826 -0.3451
  770MPD2     H11368   3.631   1.878  14.840 -0.6244 -2.7122  1.7015
  770MPD2    H111369   3.649   2.256  15.058  0.0538 -0.3087  0.6868
  770MPD2    H211370   3.354   1.967  15.150  0.5269  4.0756  1.5318
  770MPD2    H311371   3.458   2.177  15.190 -1.9399 -1.3223 -0.5287
  770MPD2     N11372   3.763   2.129  14.851 -0.2319 -0.4343 -0.5491
  770MPD2    H511373   3.793   2.088  14.763 -0.3898 -1.5722 -0.0745
  770MPD2    N111374   3.429   1.786  14.993 -0.2873 -0.8245 -0.7637
  770MPD2    H711375   3.357   1.760  15.060 -2.1124  1.2343 -1.9178
  771MPD2     C11376   4.556   0.834  13.540  0.0568 -0.2280  0.4102
  771MPD2    C111377   4.647   0.916  13.477  0.1760  0.5005  0.7688
  771MPD2    C211378   4.646   0.926  13.340  0.0205 -0.1872 -0.1524
  771MPD2    C311379   4.564   0.854  13.259  0.6462 -0.0513  0.2715
  771MPD2    C411380   4.483   0.766  13.324 -0.2529 -0.2075  0.7194
  771MPD2    C511381   4.472   0.761  13.460 -0.4751  0.4715 -0.7896
  771MPD2     H11382   0.008   0.981  13.298  0.8905  0.7711  2.8028
  771MPD2    H111383   4.402   0.715  13.274 -1.6377  1.5723  1.1292
  771MPD2    H211384   4.541   0.848  13.647 -1.7803  1.1317 -0.0336
  771MPD2    H311385   4.386   0.713  13.505 -1.5444  1.4060 -1.8227
  771MPD2     N11386   4.563   0.886  13.123  0.2582 -0.7926  0.1788
  771MPD2    H511387   4.609   0.968  13.087 -0.3283 -0.3698  0.3884
  771MPD2    N111388   0.022   0.988  13.549 -0.1591  0.3226 -0.3273
  771MPD2    H711389   0.098   1.018  13.489  0.4703  0.8248  0.7096
  772MPD2     C11390   4.574   1.698  13.647 -0.4191 -0.1253 -0.6380
  772MPD2    C111391   4.561   1.588  13.726  0.0723  0.3967  0.3142
  772MPD2    C211392   4.445   1.558  13.788 -0.1375  0.1897 -0.1809
  772MPD2    C311393   4.331   1.634  13.767 -0.8126 -0.5376  0.1792
  772MPD2    C411394   4.343   1.746  13.691  0.4803 -0.8031 -0.0155
  772MPD2    C511395   4.467   1.780  13.642  0.7842 -0.2373 -0.1077
  772MPD2     H11396   4.446   1.470  13.852 -4.7897  0.8547  0.8369
  772MPD2    H111397   4.258   1.812  13.676  0.2129 -0.9660  0.7482
  772MPD2    H211398   4.665   1.725  13.594  0.9032 -1.3629  0.9666
  772MPD2    H311399   4.499   1.861  13.577 -1.1583  0.9299  0.3837
  772MPD2     N11400   4.209   1.602  13.824  0.2273  0.3950 -0.4869
  772MPD2    H511401   4.127   1.659  13.801  0.2414  0.5433 -0.1652
  772MPD2    N111402   4.670   1.500  13.755 -0.0709  0.1511 -0.3499
  772MPD2    H711403   4.649   1.418  13.811 -0.6824  0.7802  0.3364
  773MPD2     C11404   3.852   1.744   0.375 -0.1446  0.1308  0.6000
  773MPD2    C111405   3.816   1.680   0.255 -0.2998 -0.0625  0.3897
  773MPD2    C211406   3.905   1.580   0.207 -0.2506  0.1709 -0.0509
  773MPD2    C311407   4.028   1.563   0.264 -0.0225  0.0739 -0.3496
  773MPD2    C411408   4.056   1.632   0.378  1.0476  0.7374 -0.8343
  773MPD2    C511409   3.967   1.715   0.439 -0.1198  0.0732  0.3256
  773MPD2     H11410   3.872   1.522   0.122  0.0484 -0.5907  0.3475
  773MPD2    H111411   4.144   1.609   0.437  0.0979 -1.2205 -0.1869
  773MPD2    H211412   3.782   1.813   0.420 -1.5175 -0.9109  0.0881
  773MPD2    H311413   3.998   1.753   0.536  0.6749 -2.6471  1.1382
  773MPD2     N11414   4.118   1.479   0.194  0.5718  0.4321 -0.3243
  773MPD2    H511415   4.082   1.430   0.112 -2.2701 -0.7430  1.6004
  773MPD2    N111416   3.701   1.711   0.185 -0.3511 -0.4395  0.1397
  773MPD2    H711417   3.674   1.659   0.102 -0.2989 -1.4670  0.7576
  774MPD2     C11418   3.182   1.377  13.056  0.3518  0.2568 -0.3932
  774MPD2    C111419   3.154   1.482  13.143 -0.0366 -0.3415  0.2430
  774MPD2    C211420   3.253   1.544  13.215 -0.5055  0.3109  0.2584
  774MPD2    C311421   3.380   1.497  13.211 -0.3462 -0.0663  0.0793
  774MPD2    C411422   3.419   1.384  13.142  0.0766  0.2645 -0.7688
  774MPD2    C511423   3.312   1.331  13.064 -0.0574 -0.2222 -0.1483
  774MPD2     H11424   3.241   1.641  13.261 -1.6331  1.0352 -1.5607
  774MPD2    H111425   3.519   1.343  13.149 -0.5895 -1.5214 -1.7431
  774MPD2    H211426   3.102   1.321  13.009  1.6037 -2.1265  0.2743
  774MPD2    H311427   3.338   1.244  13.003  0.0549 -1.6595  1.9652
  774MPD2     N11428   3.477   1.569  13.281 -0.2360  0.3071 -0.0309
  774MPD2    H511429   3.442   1.648  13.334  0.1521  1.3770 -1.3823
  774MPD2    N111430   3.021   1.515  13.155  0.5696  0.5110 -0.1929
  774MPD2    H711431   2.953   1.449  13.119 -1.3881  2.0113  0.7397
  775MPD2     C11432   4.578   2.705  15.523  0.4161  0.3104 -0.0555
  775MPD2    C111433   4.594   2.820  15.594 -0.4344 -0.1694  0.3846
  775MPD2    C211434   4.713   2.890  15.575  0.0787  0.3699 -0.2031
  775MPD2    C311435   0.083   2.857  15.478 -0.5092 -0.0454  0.2149
  775MPD2    C411436   0.057   2.753  15.394  0.3241 -0.0871  0.1777
  775MPD2    C511437   4.680   2.664  15.438  0.5662 -0.0803  0.0030
  775MPD2     H11438   0.009   2.978  15.636  0.2435  0.4191 -0.3204
  775MPD2    H111439   0.130   2.720  15.321 -0.3517 -1.1839 -0.0038
  775MPD2    H211440   4.492   2.640  15.533  0.7544 -0.1423 -0.0624
  775MPD2    H311441   4.682   2.565  15.394  0.6609 -0.1898  0.2554
  775MPD2     N11442   0.204   2.929  15.464  0.3397  0.2938  0.4868
  775MPD2    H511443   0.256   2.913  15.378 -0.5414 -1.6145  0.3188
  775MPD2    N111444   4.485   2.853  15.674  0.0376 -0.4594  0.7308
  775MPD2    H711445   4.409   2.787  15.685 -0.0065 -0.5670 -0.2864
  776MPD2     C11446   0.110   3.096  11.776  0.6375  0.3540 -0.6924
  776MPD2    C111447   4.713   3.074  11.709 -0.4182 -0.5478 -0.1573
  776MPD2    C211448   4.662   3.165  11.617 -0.3156 -0.3628 -0.1143
  776MPD2    C311449   0.008   3.285  11.592 -0.1611  0.3608  0.1312
  776MPD2    C411450   0.119   3.314  11.669  0.0044 -0.2744 -0.3330
  776MPD2    C511451   0.175   3.217  11.758 -0.4487  0.0221 -0.0960
  776MPD2     H11452   4.570   3.147  11.561 -0.9417  0.4209  0.6542
  776MPD2    H111453   0.178   3.403  11.649 -0.2555  0.3248  1.5476
  776MPD2    H211454   0.153   3.021  11.841  0.7292  1.0596  0.0661
  776MPD2    H311455   0.269   3.235  11.809  0.3486 -0.4062 -1.4237
  776MPD2     N11456   4.684   3.381  11.498 -0.4208  1.1156 -0.0763
  776MPD2    H511457   4.714   3.477  11.513  4.4557 -0.5694  0.7948
  776MPD2    N111458   4.651   2.949  11.722 -0.2894  0.3189 -0.3651
  776MPD2    H711459   4.711   2.872  11.751 -1.5036 -0.5024 -0.0419
  777MPD2     C11460   4.456   0.469   0.391  0.4088  0.2423 -0.4093
  777MPD2    C111461   4.345   0.487   0.473  0.4787 -0.1025 -0.6134
  777MPD2    C211462   4.223   0.424   0.436  0.1243 -0.3920  0.3775
  777MPD2    C311463   4.214   0.347   0.322 -0.2460 -0.3581 -0.3837
  777MPD2    C411464   4.320   0.351   0.234 -0.5041 -0.7752  0.2641
  777MPD2    C511465   4.442   0.414   0.270 -0.4744  0.5392  0.3573
  777MPD2     H11466   4.132   0.447   0.492 -1.1688 -0.9664 -1.4748
  777MPD2    H111467   4.318   0.298   0.139 -1.1388 -0.6140  0.1857
  777MPD2    H211468   4.551   0.508   0.426 -0.7262  3.1807 -0.5572
  777MPD2    H311469   4.525   0.400   0.202 -2.0831 -1.9856 -1.0835
  777MPD2     N11470   4.100   0.274   0.302  0.5519 -0.3449 -0.1932
  777MPD2    H511471   4.025   0.289   0.369  2.5428  0.7531  1.7636
  777MPD2    N111472   4.364   0.549   0.601  0.7552  0.7376 -0.3595
  777MPD2    H711473   4.461   0.573   0.619  1.3332 -2.4132  0.7297
  778MPD2     C11474   0.101   0.605  14.750 -0.2083  0.3509 -0.2892
  778MPD2    C111475   0.022   0.572  14.645 -0.3202 -0.4618 -0.1833
  778MPD2    C211476   0.048   0.638  14.526 -0.4408 -0.3301  0.6122
  778MPD2    C311477   0.140   0.739  14.506  0.2850 -0.3596  0.1400
  778MPD2    C411478   0.221   0.760  14.613 -0.2877  0.4091 -0.3169
  778MPD2    C511479   0.209   0.690  14.735  0.0429 -0.1899  0.0784
  778MPD2     H11480   4.698   0.618  14.447 -0.7592 -1.6615  1.2406
  778MPD2    H111481   0.304   0.830  14.614 -1.5126  1.8357  1.6056
  778MPD2    H211482   0.091   0.552  14.844  0.2103 -1.7300 -1.4172
  778MPD2    H311483   0.283   0.711  14.811 -0.3410  2.4615 -0.3108
  778MPD2     N11484   0.148   0.818  14.388 -0.4564  0.3180 -0.0003
  778MPD2    H511485   0.090   0.803  14.307 -0.2363  0.8098 -0.2490
  778MPD2    N111486   4.632   0.482  14.650 -0.3321 -0.7317 -0.0940
  778MPD2    H711487   4.575   0.476  14.567  1.8899  0.0201 -1.6851
  779MPD2     C11488   4.645   4.049  13.933 -1.4871 -0.3193 -0.2062
  779MPD2    C111489   4.704   4.108  14.046  0.5169 -0.1546 -0.8419
  779MPD2    C211490   4.709   4.241  14.052 -0.4682 -0.2699  1.0203
  779MPD2    C311491   4.660   4.323  13.945  0.5556 -0.4308 -0.4625
  779MPD2    C411492   4.601   4.265  13.831  0.2574  0.0567 -0.1983
  779MPD2    C511493   4.595   4.131  13.830 -0.5599 -0.6967 -0.9326
  779MPD2     H11494   0.039   4.277  14.140  0.9155  0.9598 -0.2840
  779MPD2    H111495   4.578   4.327  13.746  0.5454 -0.7950 -0.8925
  779MPD2    H211496   4.640   3.941  13.923 -0.6107 -0.3831  0.0367
  779MPD2    H311497   4.549   4.084  13.744 -0.0374  0.1430 -1.6657
  779MPD2     N11498   4.672   4.466  13.954  0.4745 -0.3130 -0.2264
  779MPD2    H511499   0.019   4.503  14.020 -0.9926  0.6836  0.7139
  779MPD2    N111500   0.058   4.026  14.133 -0.4990 -0.0615 -0.4840
  779MPD2    H711501   0.129   4.064  14.195 -2.2902  1.0315  0.8916
  780MPD2     C11502   3.672   3.876   0.587  0.2603 -0.3894 -0.4096
  780MPD2    C111503   3.718   3.810   0.477 -0.0872 -1.2536  0.1297
  780MPD2    C211504   3.739   3.883   0.369  0.1218 -0.2821 -0.5521
  780MPD2    C311505   3.717   4.016   0.362 -0.3778 -0.2718 -0.0681
  780MPD2    C411506   3.671   4.085   0.475  0.1430  0.1978 -0.0257
  780MPD2    C511507   3.657   4.010   0.587  0.1328 -0.3976 -0.0695
  780MPD2     H11508   3.773   3.833   0.279 -0.9391  1.8836 -2.1472
  780MPD2    H111509   3.652   4.192   0.478 -1.0590 -0.0472  1.0472
  780MPD2    H211510   3.658   3.828   0.683  1.6596 -0.7097 -0.3700
  780MPD2    H311511   3.619   4.056   0.678 -0.6002 -2.4590  0.6602
  780MPD2     N11512   3.752   4.079   0.241 -0.3192  0.0907  0.7492
  780MPD2    H511513   3.793   4.015   0.172 -1.3890 -1.3665  1.4648
  780MPD2    N111514   3.740   3.672   0.484 -0.3402 -0.0563  0.9830
  780MPD2    H711515   3.754   3.641   0.580  0.5773  0.4129  1.0033
  781MPD2     C11516   1.496   1.197  12.027  0.3549  0.2729 -0.1860
  781MPD2    C111517   1.581   1.145  12.120  0.2946  0.4076  0.3340
  781MPD2    C211518   1.707   1.118  12.077  0.1505 -0.0007 -0.0507
  781MPD2    C311519   1.749   1.140  11.944  1.2556 -0.5074 -0.3173
  781MPD2    C411520   1.655   1.193  11.858 -0.3970 -0.6331  0.7807
  781MPD2    C511521   1.531   1.223  11.898 -0.0559 -0.5342 -0.2857
  781MPD2     H11522   1.781   1.080  12.147 -0.4028  0.0330  0.5555
  781MPD2    H111523   1.677   1.212  11.753 -1.9454 -0.1534  0.5447
  781MPD2    H211524   1.400   1.238  12.057 -1.9160 -2.8434 -3.1870
  781MPD2    H311525   1.468   1.270  11.824 -0.7767 -1.8678 -0.5215
  781MPD2     N11526   1.880   1.120  11.896 -0.7963  0.2357  0.1272
  781MPD2    H511527   1.905   1.146  11.801 -1.1881  2.0996  0.5229
  781MPD2    N111528   1.556   1.121  12.256 -0.2809  0.0932  0.4778
  781MPD2    H711529   1.641   1.101  12.307 -0.1411 -2.0470 -0.5608
  782MPD2     C11530   4.634   2.904  10.561 -0.1695  0.8216 -0.4736
  782MPD2    C111531   0.001   2.808  10.532 -1.0140  0.7785  0.2225
  782MPD2    C211532   0.114   2.788  10.614  0.3687  0.1563 -0.2108
  782MPD2    C311533   0.129   2.871  10.715  0.0936  0.3749  0.2230
  782MPD2    C411534   0.042   2.977  10.739 -0.1640  0.1090  0.3647
  782MPD2    C511535   4.651   2.984  10.667 -0.6817 -0.2800 -0.2502
  782MPD2     H11536   0.194   2.716  10.602 -0.5052 -0.3930 -2.6738
  782MPD2    H111537   0.054   3.044  10.823  1.8883  2.4247 -1.7600
  782MPD2    H211538   4.549   2.930  10.500  0.2053  1.5644 -0.6685
  782MPD2    H311539   4.574   3.053  10.698  1.7526  2.4707 -0.3112
  782MPD2     N11540   0.248   2.848  10.792 -0.5028  0.0003  0.2878
  782MPD2    H511541   0.308   2.772  10.762  1.1044  1.2780  0.2024
  782MPD2    N111542   4.705   2.750  10.407  0.0862  0.5111  0.0235
  782MPD2    H711543   4.624   2.780  10.353 -0.5393  1.7376  1.6485
  783MPD2     C11544   3.968   2.439  10.240 -0.0323 -0.0808 -0.2045
  783MPD2    C111545   4.061   2.445  10.337  0.0893  0.0343 -0.1742
  783MPD2    C211546   4.194   2.463  10.305 -0.4084 -0.4839  0.8909
  783MPD2    C311547   4.230   2.492  10.172 -0.6346 -0.7098 -0.4156
  783MPD2    C411548   4.134   2.493  10.074 -0.6609  0.9115 -0.0680
  783MPD2    C511549   4.005   2.454  10.111  0.7142 -0.7636  0.1093
  783MPD2     H11550   4.271   2.461  10.381 -0.6498 -0.8642  1.1243
  783MPD2    H111551   4.145   2.510   9.967  1.9833 -1.7617 -0.2104
  783MPD2    H211552   3.866   2.408  10.259 -0.0398  1.0108  1.5005
  783MPD2    H311553   3.929   2.463  10.034  1.6920 -2.0861 -1.0037
  783MPD2     N11554   4.365   2.524  10.159  0.2841 -0.1377 -0.4499
  783MPD2    H511555   4.420   2.514  10.244 -2.8758  0.0830  1.6231
  783MPD2    N111556   4.013   2.445  10.473  0.5038  0.2339  1.0510
  783MPD2    H711557   3.925   2.401  10.500  0.1511 -1.2599 -2.4950
  784MPD2     C11558   1.277   2.619   1.398 -0.8284  0.3316 -0.0943
  784MPD2    C111559   1.329   2.743   1.382  0.2005  0.1854 -0.0081
  784MPD2    C211560   1.250   2.839   1.321  0.3607  0.0634  0.3127
  784MPD2    C311561   1.128   2.804   1.270  0.1721  0.8306 -0.1525
  784MPD2    C411562   1.078   2.680   1.282 -0.0155 -0.1788 -0.8108
  784MPD2    C511563   1.147   2.595   1.360  0.0845  0.0744 -0.2240
  784MPD2     H11564   1.288   2.941   1.316 -1.6940  0.8228  0.3533
  784MPD2    H111565   0.986   2.647   1.234 -0.4420 -2.5324  1.6229
  784MPD2    H211566   1.341   2.544   1.442  0.7448  2.0243  0.5358
  784MPD2    H311567   1.105   2.496   1.373  1.9965 -0.9084 -1.4667
  784MPD2     N11568   1.067   2.910   1.193 -0.3844  0.0891 -0.1057
  784MPD2    H511569   1.113   3.000   1.185 -0.8523  0.3406  0.0536
  784MPD2    N111570   1.461   2.784   1.433  0.4608  0.2270 -0.7026
  784MPD2    H711571   1.490   2.880   1.416 -1.5059  0.8211 -0.5948
  785MPD2     C11572   2.248   4.314   9.618  0.4817  0.1395 -0.3373
  785MPD2    C111573   2.229   4.393   9.722 -0.0467  1.2797 -0.5039
  785MPD2    C211574   2.102   4.451   9.739 -0.9469  0.0222 -0.5944
  785MPD2    C311575   1.998   4.423   9.651 -0.5401  0.7497  0.0838
  785MPD2    C411576   2.026   4.357   9.532  0.2019 -1.1899  0.6429
  785MPD2    C511577   2.153   4.301   9.523  0.0048 -0.1819 -0.8192
  785MPD2     H11578   2.081   4.515   9.824 -0.6453 -0.0852 -0.4371
  785MPD2    H111579   1.950   4.343   9.456  0.4079  0.3424  0.1674
  785MPD2    H211580   2.338   4.257   9.595  0.6657  0.3951 -0.2532
  785MPD2    H311581   2.183   4.259   9.428 -1.3364 -1.6147 -0.6003
  785MPD2     N11582   1.872   4.481   9.677  0.5707 -0.1597 -0.4404
  785MPD2    H511583   1.854   4.527   9.766  0.8410  0.0156 -0.4796
  785MPD2    N111584   2.327   4.414   9.826  0.1630  0.0666  0.1889
  785MPD2    H711585   2.292   4.472   9.901  1.1300 -0.2560  0.8874
  786MPD2     C11586   0.367   3.584  14.470  0.2647 -0.0044  0.0550
  786MPD2    C111587   0.499   3.552  14.477  0.1692 -0.0745 -0.9768
  786MPD2    C211588   0.583   3.605  14.581  0.2557  1.3341 -0.4338
  786MPD2    C311589   0.524   3.690  14.678  0.1503  0.4152  0.0352
  786MPD2    C411590   0.387   3.722  14.663 -0.1145  0.1585  0.3328
  786MPD2    C511591   0.315   3.668  14.552  0.2205  0.9688  0.4209
  786MPD2     H11592   0.685   3.570  14.589 -0.0034  0.8935  1.0070
  786MPD2    H111593   0.348   3.808  14.715  1.6589  1.1851 -0.0607
  786MPD2    H211594   0.294   3.553  14.396  1.4166  0.6592 -1.3488
  786MPD2    H311595   0.214   3.707  14.546 -0.6812 -1.4306  0.1221
  786MPD2     N11596   0.591   3.759  14.774 -0.1000 -0.0885 -0.3541
  786MPD2    H511597   0.539   3.798  14.852  0.7884 -0.9099  0.6548
  786MPD2    N111598   0.558   3.468  14.378  0.8079  0.1578  0.7263
  786MPD2    H711599   0.655   3.442  14.396  0.6220 -0.7982  0.3606
  787MPD2     C11600   1.004   3.011  14.575  0.7704  0.0533  0.0907
  787MPD2    C111601   0.981   3.005  14.438  0.6051 -0.5284  0.1462
  787MPD2    C211602   1.064   2.927  14.369  0.0526 -0.2978  0.0892
  787MPD2    C311603   1.153   2.839  14.428  0.0045 -0.0980  0.5267
  787MPD2    C411604   1.163   2.834  14.569  0.2953  0.2146 -0.0100
  787MPD2    C511605   1.093   2.925  14.639  0.5644 -0.5364 -0.0141
  787MPD2     H11606   1.060   2.920  14.261  0.7340 -0.0297  0.0455
  787MPD2    H111607   1.232   2.771  14.624  0.0995 -0.0350 -0.0545
  787MPD2    H211608   0.957   3.083  14.640  2.3128 -0.5451  1.8948
  787MPD2    H311609   1.098   2.941  14.747 -3.9372  1.3317 -0.0746
  787MPD2     N11610   1.233   2.762  14.340  0.0426 -0.0255  0.1919
  787MPD2    H511611   1.218   2.786  14.243 -0.1019 -0.6198  0.0642
  787MPD2    N111612   0.892   3.101  14.369 -0.7403 -0.9732 -0.4414
  787MPD2    H711613   0.855   3.181  14.419 -1.6811  0.5953 -3.6135
  788MPD2     C11614   2.157   1.154   0.983  0.2357  0.5492 -0.3165
  788MPD2    C111615   2.067   1.134   0.877 -1.0280 -0.1508 -0.3416
  788MPD2    C211616   2.097   1.177   0.752  0.6930  0.0793 -0.1537
  788MPD2    C311617   2.216   1.231   0.728  0.3874  1.0856  0.3271
  788MPD2    C411618   2.307   1.252   0.832  0.2903 -0.3585 -0.6638
  788MPD2    C511619   2.277   1.220   0.961  0.1790 -0.1189 -0.2281
  788MPD2     H11620   2.025   1.152   0.675  1.2712 -1.0338 -0.3252
  788MPD2    H111621   2.397   1.304   0.801 -0.6646  0.2680 -2.3593
  788MPD2    H211622   2.142   1.119   1.084 -0.9400  1.6430 -0.1137
  788MPD2    H311623   2.341   1.247   1.045 -1.4598  0.0944  0.9627
  788MPD2     N11624   2.268   1.257   0.596 -0.8640 -0.2173  0.0425
  788MPD2    H511625   2.363   1.295   0.590 -0.6994 -0.8716 -1.4600
  788MPD2    N111626   1.946   1.063   0.891 -0.2708 -0.2832 -0.2176
  788MPD2    H711627   1.885   1.058   0.810  0.9990  1.2798 -1.2601
  789MPD2     C11628   2.823   1.432  16.151  0.0677  0.2756 -0.0995
  789MPD2    C111629   2.723   1.364  16.209  0.2540 -0.1517 -0.0402
  789MPD2    C211630   2.611   1.434  16.253 -0.3691 -0.2945 -0.0126
  789MPD2    C311631   2.605   1.572  16.246  0.4698  0.0976 -0.3700
  789MPD2    C411632   2.712   1.637  16.192  0.0594  0.0420  0.4330
  789MPD2    C511633   2.824   1.565  16.151  0.2410 -0.0264 -0.0058
  789MPD2     H11634   2.529   1.373  16.290 -1.0115  0.4981 -0.1458
  789MPD2    H111635   2.705   1.742  16.164 -3.4839  0.2833  2.2759
  789MPD2    H211636   2.916   1.393  16.110  0.3515 -0.2019  1.0025
  789MPD2    H311637   2.910   1.617  16.112 -0.3264  2.5048  2.0883
  789MPD2     N11638   2.491   1.643  16.290  0.0704 -0.0881  0.1476
  789MPD2    H511639   2.491   1.743  16.274  1.7895  0.0408  0.9435
  789MPD2    N111640   2.721   1.225  16.205 -0.0416 -0.3452 -0.1673
  789MPD2    H711641   2.628   1.185  16.219 -0.4718  0.2273 -1.3003
  790MPD2     C11642   4.149   3.549  13.400 -0.1036  0.4860 -0.0549
  790MPD2    C111643   4.146   3.410  13.396 -0.0218  0.0756  0.0884
  790MPD2    C211644   4.104   3.353  13.271 -0.2070 -0.5763 -0.2399
  790MPD2    C311645   4.073   3.432  13.161  0.8453  0.3455 -0.0577
  790MPD2    C411646   4.070   3.571  13.171 -0.5441  0.8222 -0.0984
  790MPD2    C511647   4.118   3.624  13.289  0.0925 -0.3998  0.1846
  790MPD2     H11648   4.093   3.247  13.250 -1.3205 -0.5749  0.3205
  790MPD2    H111649   4.042   3.646  13.098 -0.3619  2.7584  1.8247
  790MPD2    H211650   4.195   3.602  13.483 -0.5431  1.9444 -0.7487
  790MPD2    H311651   4.130   3.732  13.295  0.2658 -0.4491  0.7318
  790MPD2     N11652   4.020   3.361  13.047  0.1651  0.2938  0.4571
  790MPD2    H511653   3.998   3.262  13.053  1.6727 -0.1162 -0.7572
  790MPD2    N111654   4.164   3.346  13.514  1.0046  0.1077 -0.7084
  790MPD2    H711655   4.175   3.398  13.601 -0.5284  0.2189 -0.5968
  791MPD2     C11656   3.575   3.192  12.318 -0.6375 -0.0988 -0.8787
  791MPD2    C111657   3.610   3.136  12.434  0.7771  0.2579 -0.4026
  791MPD2    C211658   3.522   3.043  12.490  0.3240 -0.3960 -0.1677
  791MPD2    C311659   3.414   2.992  12.425 -0.6705 -0.6855 -0.4719
  791MPD2    C411660   3.382   3.049  12.301 -0.3458 -0.5725 -0.1554
  791MPD2    C511661   3.454   3.160  12.254  0.2129 -0.1934  0.0730
  791MPD2     H11662   3.550   3.000  12.585  0.4706 -0.6093 -0.3049
  791MPD2    H111663   3.292   3.025  12.247 -1.5442 -1.9041  2.4320
  791MPD2    H211664   3.642   3.263  12.271 -1.0322 -0.8798 -2.6245
  791MPD2    H311665   3.424   3.202  12.159 -0.6741 -2.9211 -0.8797
  791MPD2     N11666   3.351   2.879  12.474 -0.3251  0.5212  0.1380
  791MPD2    H511667   3.387   2.843  12.562 -0.8127  0.1205  0.1660
  791MPD2    N111668   3.730   3.178  12.495  0.1121  0.2005  0.4499
  791MPD2    H711669   3.807   3.217  12.442  1.0371 -1.3990  0.6148
  792MPD2     C11670   4.344   2.956  11.394 -0.0093  0.3216 -0.1134
  792MPD2    C111671   4.376   2.960  11.258 -0.4134 -0.3448  0.4252
  792MPD2    C211672   4.291   2.874  11.186 -0.2843 -0.4012  0.0774
  792MPD2    C311673   4.193   2.792  11.232  0.2348  0.1122 -0.2170
  792MPD2    C411674   4.176   2.789  11.366 -0.2061  0.0476 -0.0403
  792MPD2    C511675   4.252   2.868  11.448 -0.0139 -0.0280  0.2572
  792MPD2     H11676   4.306   2.867  11.079 -0.0401 -0.7548  0.1377
  792MPD2    H111677   4.094   2.737  11.415 -1.2788  1.0447 -0.7884
  792MPD2    H211678   4.394   3.015  11.471 -3.3790  0.9407  1.5989
  792MPD2    H311679   4.226   2.877  11.552  0.2987  1.5650  0.2058
  792MPD2     N11680   4.086   2.735  11.156  0.3976 -0.0208 -0.5371
  792MPD2    H511681   4.002   2.706  11.205  0.7931  0.4865  0.4322
  792MPD2    N111682   4.471   3.053  11.211  0.0478 -0.4449 -0.0397
  792MPD2    H711683   4.514   3.112  11.281  0.5610 -3.2366  2.0343
  793MPD2     C11684   3.846   2.840  10.170  0.3149 -0.8773  0.0355
  793MPD2    C111685   3.970   2.817  10.226  0.4931  0.1130 -0.2242
  793MPD2    C211686   3.976   2.782  10.367  0.1379 -0.2275 -0.0119
  793MPD2    C311687   3.857   2.774  10.440 -0.8564  0.3097 -0.3245
  793MPD2    C411688   3.738   2.809  10.376  0.0870  0.0300  0.6767
  793MPD2    C511689   3.733   2.845  10.243  0.4573  0.4297  0.3024
  793MPD2     H11690   4.069   2.767  10.420 -1.1494 -0.4402  2.1801
  793MPD2    H111691   3.641   2.802  10.425 -0.4471 -2.1015 -0.6942
  793MPD2    H211692   3.840   2.868  10.066  0.3522  0.3063  0.3560
  793MPD2    H311693   3.644   2.867  10.186 -0.3805 -1.0274  1.0301
  793MPD2     N11694   3.852   2.760  10.583 -0.3548  0.3405  0.1683
  793MPD2    H511695   3.939   2.740  10.631 -0.3568  1.4370  0.6283
  793MPD2    N111696   4.091   2.831  10.153  0.0265 -0.1547 -0.6837
  793MPD2    H711697   4.178   2.817  10.204 -0.0564 -0.5881 -0.6596
  794MPD2     C11698   3.337   2.340  17.405  0.0964  0.0920  0.9899
  794MPD2    C111699   3.269   2.223  17.414 -0.8035 -1.0898  0.8948
  794MPD2    C211700   3.162   2.210  17.325  0.0648  0.6149 -0.1114
  794MPD2    C311701   3.119   2.313  17.232 -0.6847  0.5634  0.1627
  794MPD2    C411702   3.197   2.431  17.226 -0.1995  0.1263 -0.4292
  794MPD2    C511703   3.302   2.448  17.320 -0.2422  0.6127  0.1140
  794MPD2     H11704   3.111   2.115  17.338  1.9570 -0.1620  1.6823
  794MPD2    H111705   3.169   2.514  17.162 -1.9685 -0.5399 -0.5170
  794MPD2    H211706   3.414   2.363  17.478  0.4411 -1.5250  1.1363
  794MPD2    H311707   3.362   2.538  17.326 -0.3813  0.7916 -1.2973
  794MPD2     N11708   3.004   2.304  17.146  0.6023 -0.2112 -0.6013
  794MPD2    H511709   2.980   2.373  17.076 -0.1199 -0.3279 -0.4727
  794MPD2    N111710   3.292   2.130  17.514  0.2246 -0.3194 -0.3473
  794MPD2    H711711   3.222   2.057  17.523  1.3443 -1.3375  0.0483
  795MPD2     C11712   1.051   4.049  13.506  0.4418 -0.5325  0.5180
  795MPD2    C111713   1.083   4.181  13.502 -0.9914 -1.4704 -0.7885
  795MPD2    C211714   1.212   4.223  13.483  0.1690 -0.6780  0.3826
  795MPD2    C311715   1.321   4.134  13.470  0.1544 -0.5068 -0.4492
  795MPD2    C411716   1.290   3.997  13.482  0.0481  0.6213 -0.2599
  795MPD2    C511717   1.159   3.963  13.498  0.3059  0.0015 -0.7397
  795MPD2     H11718   1.231   4.326  13.454  0.8757 -0.4087  1.8137
  795MPD2    H111719   1.361   3.915  13.477 -0.7618 -0.1761  1.2786
  795MPD2    H211720   0.953   4.009  13.526  0.9349 -0.3014  3.4656
  795MPD2    H311721   1.128   3.861  13.519  0.3225 -0.0038 -0.7406
  795MPD2     N11722   1.448   4.186  13.437 -0.4626 -0.6799  0.3590
  795MPD2    H511723   1.444   4.279  13.395  0.6455 -0.8990 -0.2235
  795MPD2    N111724   0.973   4.270  13.498  0.0974  0.5176 -0.6187
  795MPD2    H711725   0.882   4.224  13.497  0.3173  0.0927 -0.9014
  796MPD2     C11726   0.862   1.478  15.436  0.1061 -0.2424  0.3115
  796MPD2    C111727   0.921   1.549  15.540 -0.3883  0.0807  1.4446
  796MPD2    C211728   0.897   1.682  15.552 -0.9877 -0.0701  1.0425
  796MPD2    C311729   0.823   1.742  15.456 -0.2158 -0.6698 -0.4491
  796MPD2    C411730   0.763   1.678  15.352 -0.5673  0.8349  0.9730
  796MPD2    C511731   0.783   1.545  15.346 -0.3574  0.2906 -0.2680
  796MPD2     H11732   0.941   1.743  15.631 -0.9818  1.3887 -0.0933
  796MPD2    H111733   0.709   1.734  15.277  1.4868  0.0077 -1.0821
  796MPD2    H211734   0.877   1.371  15.433  0.5757 -0.1283 -1.3662
  796MPD2    H311735   0.738   1.492  15.263  2.6181  0.9080 -2.2519
  796MPD2     N11736   0.803   1.883  15.468  0.0978  0.1132  0.3709
  796MPD2    H511737   0.845   1.924  15.551  0.2700 -0.9134  0.7867
  796MPD2    N111738   0.980   1.474  15.641  0.7313 -0.4782 -0.4934
  796MPD2    H711739   0.985   1.374  15.626 -1.8562 -0.3722 -2.0629
  797MPD2     C11740   1.671   0.931  17.139  0.2019 -0.2144 -0.0151
  797MPD2    C111741   1.749   1.040  17.165  0.1778 -0.4068  0.8009
  797MPD2    C211742   1.745   1.149  17.083  0.3039  0.6285  0.9418
  797MPD2    C311743   1.677   1.142  16.959 -0.3106  0.5918 -0.2329
  797MPD2    C411744   1.598   1.033  16.936 -0.4191 -0.3146 -0.2352
  797MPD2    C511745   1.595   0.926  17.026 -0.3904 -0.1396 -0.7543
  797MPD2     H11746   1.814   1.231  17.104  1.2533 -0.0469  0.4820
  797MPD2    H111747   1.540   1.033  16.845 -0.6752  1.3507 -0.0801
  797MPD2    H211748   1.668   0.846  17.207 -3.2934  1.3623  1.8170
  797MPD2    H311749   1.525   0.846  17.005  0.5279 -0.7471 -1.4715
  797MPD2     N11750   1.677   1.246  16.866  0.4976  0.5589 -0.5150
  797MPD2    H511751   1.662   1.218  16.770  0.7332  0.5920 -0.5606
  797MPD2    N111752   1.842   1.052  17.276  0.0421 -0.4667  0.4659
  797MPD2    H711753   1.919   1.118  17.276 -0.6566  0.3273  2.0473
  798MPD2     C11754   2.255   1.584  17.117 -0.5866  0.1490  0.0755
  798MPD2    C111755   2.226   1.476  17.041 -0.8852  0.4579  0.4236
  798MPD2    C211756   2.262   1.352  17.099  0.3092  0.3162  0.2397
  798MPD2    C311757   2.289   1.334  17.231  0.2665 -0.1671  0.1560
  798MPD2    C411758   2.304   1.444  17.303 -0.4367  0.2569 -0.7339
  798MPD2    C511759   2.297   1.570  17.249 -0.0384  0.4459 -0.5782
  798MPD2     H11760   2.244   1.262  17.041  1.9388  1.2596 -1.7597
  798MPD2    H111761   2.313   1.445  17.411  2.1333 -1.9031 -0.9236
  798MPD2    H211762   2.238   1.684  17.077 -0.7802 -0.1702 -0.6420
  798MPD2    H311763   2.322   1.659  17.306  1.2300 -0.3733  0.1440
  798MPD2     N11764   2.278   1.208  17.289  0.0795  0.3731  0.7019
  798MPD2    H511765   2.252   1.123  17.239  0.0668  0.7300  0.1093
  798MPD2    N111766   2.173   1.488  16.915  0.6764 -0.5029 -0.1984
  798MPD2    H711767   2.148   1.579  16.878 -1.1014 -1.4772 -1.4247
  799MPD2     C11768   0.738   2.534  14.497 -0.0513 -1.1419 -0.0501
  799MPD2    C111769   0.671   2.478  14.390  0.8992  0.0731  0.0024
  799MPD2    C211770   0.618   2.567  14.290  0.1247  0.2456 -0.2005
  799MPD2    C311771   0.663   2.693  14.277 -0.1231  0.8366  0.4654
  799MPD2    C411772   0.738   2.749  14.380 -0.6990  0.1553  0.4752
  799MPD2    C511773   0.776   2.667  14.486  0.4521  0.4309 -0.1251
  799MPD2     H11774   0.557   2.522  14.213 -0.5328  1.5095 -0.4113
  799MPD2    H111775   0.767   2.853  14.378  0.6151 -0.1744  2.4636
  799MPD2    H211776   0.760   2.481  14.589 -0.8893  1.3625  1.6130
  799MPD2    H311777   0.827   2.713  14.570  0.4784 -1.9920  1.1873
  799MPD2     N11778   0.653   2.772  14.159  0.1312  0.3468 -0.1440
  799MPD2    H511779   0.720   2.849  14.161 -1.9763  2.1520  1.6659
  799MPD2    N111780   0.651   2.337  14.373 -0.0352  0.0926  0.2891
  799MPD2    H711781   0.599   2.305  14.292 -0.5885  0.6359  0.4312
  800MPD2     C11782   1.365   3.408  13.554  0.4454  0.2625 -0.2351
  800MPD2    C111783   1.490   3.461  13.551  0.5293 -0.3437  0.6376
  800MPD2    C211784   1.570   3.419  13.446  0.6587 -0.5310 -0.1091
  800MPD2    C311785   1.520   3.349  13.336 -0.2629 -0.1570 -0.4416
  800MPD2    C411786   1.388   3.326  13.331  0.0378  0.6443 -0.8176
  800MPD2    C511787   1.316   3.341  13.445  0.4860  0.3141 -0.4722
  800MPD2     H11788   1.676   3.441  13.437  0.4732  0.7444  0.8302
  800MPD2    H111789   1.338   3.291  13.241  0.4781 -0.6221 -0.5710
  800MPD2    H211790   1.300   3.433  13.637 -0.8028 -0.2154 -1.0597
  800MPD2    H311791   1.209   3.321  13.444  0.5291  0.1042 -2.1413
  800MPD2     N11792   1.612   3.322  13.229  0.5035 -0.2229 -0.0949
  800MPD2    H511793   1.708   3.346  13.252  0.1851  0.3346  0.6668
  800MPD2    N111794   1.531   3.548  13.650  0.3364  0.3796  0.3635
  800MPD2    H711795   1.472   3.582  13.726  1.1020 -2.6084  2.3061
  801MPD2     C11796   1.262   4.222  13.840  0.1847 -0.2980 -0.5352
  801MPD2    C111797   1.371   4.203  13.932 -0.2603 -0.5376 -0.4198
  801MPD2    C211798   1.377   4.287  14.043  1.6063  0.2905  0.0232
  801MPD2    C311799   1.262   4.364  14.062 -0.8066  0.7192 -0.3363
  801MPD2    C411800   1.161   4.382  13.969 -0.2674  0.3718 -0.1453
  801MPD2    C511801   1.161   4.307  13.853  0.4757  0.2283  0.3457
  801MPD2     H11802   1.474   4.277  14.089  0.4242  1.2436  2.7083
  801MPD2    H111803   1.090   4.463  13.969  0.2511  0.8278 -0.9287
  801MPD2    H211804   1.266   4.170  13.745 -0.5190 -1.0164 -0.1731
  801MPD2    H311805   1.097   4.318  13.766  0.5427  1.7791  0.5016
  801MPD2     N11806   1.245   4.431  14.185  0.3816  0.2420  0.0845
  801MPD2    H511807   1.157   4.478  14.203 -0.3997 -0.9273 -0.7145
  801MPD2    N111808   1.471   4.104  13.917  0.2844  0.2071  0.5743
  801MPD2    H711809   1.546   4.105  13.985 -1.5161 -1.5494  2.5635
  802MPD2     C11810   4.571   4.512  16.436  0.3860  0.5078 -0.6024
  802MPD2    C111811   4.613   4.510  16.569  0.1241  0.3732  0.6149
  802MPD2    C211812   0.009   4.440  16.596  0.1174  0.0937 -0.3242
  802MPD2    C311813   0.093   4.383  16.503  0.7915 -0.3475 -0.2099
  802MPD2    C411814   0.052   4.398  16.374 -0.1229  0.9260 -0.0190
  802MPD2    C511815   4.654   4.452  16.339  0.8892 -0.1602  0.3081
  802MPD2     H11816   0.032   4.437  16.702  0.7056  0.9462 -0.4299
  802MPD2    H111817   0.112   4.361  16.291 -3.1426 -0.0039 -1.8112
  802MPD2    H211818   4.477   4.556  16.404 -1.1037 -0.1713  2.8608
  802MPD2    H311819   4.620   4.460  16.237  4.3579  0.0896 -0.7926
  802MPD2     N11820   0.216   4.324  16.544 -0.0342 -0.5535 -0.4199
  802MPD2    H511821   0.228   4.317  16.645 -1.8450 -1.7491 -0.2743
  802MPD2    N111822   4.535   4.559  16.679 -0.1165 -0.5341 -0.7701
  802MPD2    H711823   4.579   4.543  16.769 -0.0377  1.0366 -0.5234
  803MPD2     C11824   2.529   2.987  11.691 -0.3511 -0.8828  0.4484
  803MPD2    C111825   2.595   2.949  11.811  0.3066 -0.2668  0.4460
  803MPD2    C211826   2.537   2.846  11.887 -0.0291 -0.1094  0.2437
  803MPD2    C311827   2.414   2.797  11.856  0.3292  0.3164 -0.0807
  803MPD2    C411828   2.349   2.850  11.746 -0.2880 -0.0400  0.3522
  803MPD2    C511829   2.407   2.938  11.660 -0.1256 -0.3308 -0.6569
  803MPD2     H11830   2.584   2.801  11.973 -4.0347 -1.5738  1.6644
  803MPD2    H111831   2.244   2.831  11.730 -0.1992 -2.9090  2.9984
  803MPD2    H211832   2.567   3.062  11.623  1.2461 -1.6305  0.5185
  803MPD2    H311833   2.349   2.966  11.573  0.7154 -0.1738 -1.1675
  803MPD2     N11834   2.338   2.700  11.933  0.5425  0.1041 -0.0770
  803MPD2    H511835   2.238   2.701  11.916  0.6887 -0.3768 -0.9586
  803MPD2    N111836   2.718   2.991  11.851  0.0427  0.7098  0.6577
  803MPD2    H711837   2.740   2.972  11.949  1.9345  2.1974  0.5052
  804MPD2     C11838   1.009   4.215  16.614 -0.4191  0.4648 -0.1140
  804MPD2    C111839   0.987   4.189  16.747  0.3612 -0.1280  0.6560
  804MPD2    C211840   1.009   4.291  16.839 -0.1178 -0.8149  0.1634
  804MPD2    C311841   1.066   4.410  16.804  0.1086 -0.0766 -0.2385
  804MPD2    C411842   1.086   4.438  16.675  0.5124 -0.3505 -0.8708
  804MPD2    C511843   1.053   4.341  16.583 -0.0292  0.1648  0.4818
  804MPD2     H11844   0.993   4.274  16.945 -1.1786  1.0500  0.2997
  804MPD2    H111845   1.146   4.522  16.643  0.4272 -0.3798 -1.1159
  804MPD2    H211846   1.015   4.137  16.538  0.7851  0.3925  0.0581
  804MPD2    H311847   1.089   4.352  16.482 -0.3392  0.9085  0.4498
  804MPD2     N11848   1.117   4.490  16.914 -0.5665  0.5231  0.1580
  804MPD2    H511849   1.104   4.455  17.009  1.8200  1.2819  0.7628
  804MPD2    N111850   0.952   4.061  16.790  0.5270 -0.4669  0.3340
  804MPD2    H711851   0.973   4.055  16.889  0.6073  2.8747  0.5306
  805MPD2     C11852   0.440   2.697  15.203 -0.9588  0.5747 -0.6916
  805MPD2    C111853   0.541   2.731  15.112  0.2702 -0.0171  0.0412
  805MPD2    C211854   0.663   2.771  15.163 -0.1480 -0.6300  0.1717
  805MPD2    C311855   0.688   2.789  15.299 -0.5956  0.1564 -0.5027
  805MPD2    C411856   0.587   2.759  15.384  0.4069 -0.8558  0.4214
  805MPD2    C511857   0.469   2.719  15.333 -0.2651  0.1136  0.3817
  805MPD2     H11858   0.749   2.781  15.098  0.3493 -0.5685  0.8488
  805MPD2    H111859   0.606   2.779  15.489 -0.5574  1.3425  0.1807
  805MPD2    H211860   0.346   2.647  15.178 -1.3150  0.6859  0.4392
  805MPD2    H311861   0.393   2.693  15.406 -0.1610 -1.3654 -0.0210
  805MPD2     N11862   0.819   2.815  15.345 -0.4485 -0.7318 -0.4094
  805MPD2    H511863   0.885   2.838  15.272  1.1849  2.5533  2.0884
  805MPD2    N111864   0.524   2.720  14.977 -0.1518  0.0773 -0.1213
  805MPD2    H711865   0.610   2.713  14.925  0.7103  0.4438  1.2554
  806MPD2     C11866   1.677   2.811   1.183 -0.1395 -0.0757 -0.1653
  806MPD2    C111867   1.561   2.783   1.119  0.0231 -0.4038  0.0709
  806MPD2    C211868   1.492   2.886   1.059 -0.0720  0.4505 -0.1321
  806MPD2    C311869   1.526   3.016   1.074 -0.4903  0.1227  0.7309
  806MPD2    C411870   1.640   3.042   1.133  0.1458  0.1369  0.3274
  806MPD2    C511871   1.717   2.943   1.179 -0.1501 -0.0471  0.0872
  806MPD2     H11872   1.399   2.855   1.014  0.7981 -1.4815 -0.5960
  806MPD2    H111873   1.681   3.142   1.129  1.8257 -0.5518  0.1275
  806MPD2    H211874   1.741   2.734   1.223 -0.6350 -0.2828  0.2287
  806MPD2    H311875   1.812   2.979   1.218 -0.2419 -0.9243  1.1446
  806MPD2     N11876   1.446   3.113   1.000  0.1771 -0.4046  0.8890
  806MPD2    H511877   1.377   3.078   0.935 -1.1041  2.7323  0.5717
  806MPD2    N111878   1.526   2.647   1.119  0.8335 -0.0190 -0.3485
  806MPD2    H711879   1.587   2.579   1.162 -1.0047 -1.0409  0.6521
  807MPD2     C11880   1.744   2.099   1.503  0.4622  0.1222  0.3759
  807MPD2    C111881   1.644   2.038   1.433 -0.1239  0.5323 -0.8243
  807MPD2    C211882   1.601   1.910   1.462  0.0181  0.3181 -0.4290
  807MPD2    C311883   1.656   1.830   1.562  0.2331  0.0195  0.2601
  807MPD2    C411884   1.756   1.890   1.634  0.7832 -0.3298 -0.1921
  807MPD2    C511885   1.801   2.017   1.602 -0.1383  0.1495 -0.4869
  807MPD2     H11886   1.521   1.868   1.402 -0.7525  1.7893 -0.4215
  807MPD2    H111887   1.814   1.838   1.710 -0.7257 -2.7429 -0.6702
  807MPD2    H211888   1.795   2.191   1.475 -0.0909 -0.0615 -1.2151
  807MPD2    H311889   1.885   2.058   1.657 -0.4433  1.4545 -0.9756
  807MPD2     N11890   1.597   1.708   1.597  0.7077 -0.4313  0.1272
  807MPD2    H511891   1.529   1.671   1.531 -1.1276 -0.8616  2.2505
  807MPD2    N111892   1.587   2.094   1.325 -0.3002 -0.2588  0.0257
  807MPD2    H711893   1.523   2.036   1.272  0.2647  1.0501 -2.0849
  808MPD2     C11894   2.667   4.608   8.838  0.0505  0.0031 -0.1584
  808MPD2    C111895   2.751   4.516   8.890 -0.5587  0.8948 -0.2140
  808MPD2    C211896   2.882   4.557   8.909 -0.4748  0.3794 -0.4894
  808MPD2    C311897   2.928   4.683   8.874 -0.5042  0.7946 -0.0695
  808MPD2    C411898   2.835   0.054   8.829 -0.2742 -0.1028 -0.1099
  808MPD2    C511899   2.710   0.012   8.798 -0.4680  0.1169 -0.2857
  808MPD2     H11900   2.948   4.480   8.946 -0.0967  0.8918 -0.1127
  808MPD2    H111901   2.864   0.155   8.805 -0.4921  0.3370  1.4933
  808MPD2    H211902   2.559   4.602   8.836 -0.0142  1.2882 -1.3384
  808MPD2    H311903   2.653   0.091   8.750  0.5330  0.0589 -1.5542
  808MPD2     N11904   3.057   0.012   8.906 -0.2022  0.1721  0.2454
  808MPD2    H511905   3.075   0.105   8.870 -0.7572  0.2810  0.2429
  808MPD2    N111906   2.716   4.388   8.945 -0.0656  0.1959  0.3418
  808MPD2    H711907   2.793   4.335   8.983 -0.4673 -0.3125  0.4401
  809MPD2     C11908   4.121   0.033   9.178 -0.4048  0.0267  0.3620
  809MPD2    C111909   4.033   4.643   9.185 -0.5978  0.0103 -0.7859
  809MPD2    C211910   3.895   4.663   9.182  0.2775  0.7165  0.0620
  809MPD2    C311911   3.846   0.071   9.182 -0.7925 -0.2493 -0.9119
  809MPD2    C411912   3.938   0.172   9.187  0.1000  0.0536 -0.3173
  809MPD2    C511913   4.071   0.159   9.183 -0.1363  0.4176 -0.5509
  809MPD2     H11914   3.818   4.590   9.205  0.8421 -0.7223 -2.5315
  809MPD2    H111915   3.913   0.278   9.184 -1.6994 -0.4008 -1.9645
  809MPD2    H211916   4.228   0.017   9.164 -0.8375 -1.0308 -1.6362
  809MPD2    H311917   4.137   0.245   9.176 -0.8688  1.0017 -0.1875
  809MPD2     N11918   3.706   0.099   9.156 -0.3206  0.3873  0.4582
  809MPD2    H511919   3.671   0.193   9.175  0.3829  0.3192  2.1007
  809MPD2    N111920   4.076   4.507   9.177 -0.3654 -0.0300  0.1219
  809MPD2    H711921   4.001   4.442   9.199  1.3123 -2.1885 -0.4458
  810MPD2     C11922   1.979   3.066   9.687 -0.2742 -0.1448 -0.5640
  810MPD2    C111923   1.935   2.991   9.795  0.1930 -0.1707 -0.5194
  810MPD2    C211924   1.972   3.031   9.921  0.3177 -0.5767 -0.1338
  810MPD2    C311925   2.069   3.125   9.942  0.5230  0.7715  0.2713
  810MPD2    C411926   2.115   3.196   9.833 -0.2093 -0.4074  1.3354
  810MPD2    C511927   2.065   3.174   9.708 -0.2997  0.8446  0.4854
  810MPD2     H11928   1.923   2.979  10.002 -1.0689  0.9509  0.0136
  810MPD2    H111929   2.184   3.279   9.838 -0.3270  0.0664 -4.1149
  810MPD2    H211930   1.943   3.054   9.586 -0.2354 -1.3796 -0.4431
  810MPD2    H311931   2.090   3.229   9.619  2.3329  0.7548  1.1667
  810MPD2     N11932   2.124   3.145  10.070  0.0484  0.3231  0.4093
  810MPD2    H511933   2.188   3.224  10.069 -0.9587  1.2029  3.7428
  810MPD2    N111934   1.829   2.901   9.768 -0.2064  0.1524 -0.2236
  810MPD2    H711935   1.811   2.885   9.670  1.3138 -1.4604 -0.2540
  811MPD2     C11936   0.993   2.927   9.530 -0.2720  0.0226  0.2134
  811MPD2    C111937   1.114   2.977   9.579  0.1361  0.4000 -1.0008
  811MPD2    C211938   1.139   3.114   9.563  0.3445  0.3272 -0.7066
  811MPD2    C311939   1.050   3.192   9.497  0.2428  0.1453  0.6972
  811MPD2    C411940   0.934   3.142   9.447 -0.7180  0.3904  0.4546
  811MPD2    C511941   0.909   3.009   9.467  0.2156 -0.4796 -0.4411
  811MPD2     H11942   1.234   3.156   9.593  0.6306 -0.4637 -0.4978
  811MPD2    H111943   0.868   3.205   9.387  0.8952  1.7507  0.1154
  811MPD2    H211944   0.980   2.820   9.537  2.7041 -0.2944  1.0179
  811MPD2    H311945   0.819   2.967   9.424  1.4137 -3.4206 -0.0287
  811MPD2     N11946   1.094   3.322   9.478  0.8057 -0.7947  0.1428
  811MPD2    H511947   1.193   3.336   9.499  0.2257  2.4289  0.6276
  811MPD2    N111948   1.216   2.888   9.632  0.0585  0.1761  0.0109
  811MPD2    H711949   1.199   2.788   9.631  0.5359  0.0899  0.6984
  812MPD2     C11950   4.633   3.405  11.937  0.0908 -0.6440  0.1125
  812MPD2    C111951   0.026   3.435  12.007  0.2073 -0.5857 -0.7452
  812MPD2    C211952   0.090   3.332  12.087 -0.0066 -0.2772 -0.2555
  812MPD2    C311953   0.026   3.208  12.095 -0.2811  0.8256  0.2243
  812MPD2    C411954   4.638   3.185  12.016  0.1876 -0.0747 -0.2800
  812MPD2    C511955   4.575   3.282  11.946 -0.1196 -0.4227 -0.2717
  812MPD2     H11956   0.175   3.362  12.147  0.3502  0.7256 -1.2692
  812MPD2    H111957   4.592   3.087  12.014 -0.7162  0.3695 -1.0409
  812MPD2    H211958   4.591   3.487  11.879  0.0676 -1.0007 -0.3742
  812MPD2    H311959   4.483   3.257  11.894  0.6351 -3.0156 -0.3446
  812MPD2     N11960   0.083   3.093  12.166 -0.0992  0.1714 -0.3205
  812MPD2    H511961   0.174   3.099  12.210  1.1142 -0.2984 -2.7514
  812MPD2    N111962   0.069   3.566  12.002  0.1061 -0.3573  0.1404
  812MPD2    H711963   0.017   3.634  11.947 -0.2528 -0.4342  0.3837
  813MPD2     C11964   3.882   4.626  13.266 -0.1109  0.0951  0.3223
  813MPD2    C111965   3.882   0.007  13.172  0.3851 -0.5028 -0.0161
  813MPD2    C211966   3.765   0.062  13.122  0.2443  0.6790  0.2166
  813MPD2    C311967   3.647   4.719  13.160  0.0038  0.5390 -0.1746
  813MPD2    C411968   3.643   4.608  13.244  0.0201  0.0529 -0.0258
  813MPD2    C511969   3.768   4.563  13.297  0.3099  0.4360  0.0549
  813MPD2     H11970   3.772   0.140  13.046 -0.7692 -0.8848 -1.4982
  813MPD2    H111971   3.553   4.563  13.283 -0.3687 -0.2370 -1.2821
  813MPD2    H211972   3.974   4.582  13.301  0.1930  1.1965  0.9144
  813MPD2    H311973   3.764   4.480  13.366  2.4964  0.1617 -0.1551
  813MPD2     N11974   3.530   0.065  13.122  0.2341  0.0545  0.0359
  813MPD2    H511975   3.548   0.141  13.057 -1.3090 -1.6884 -2.4419
  813MPD2    N111976   4.007   0.072  13.148  0.0982 -0.3349 -0.1366
  813MPD2    H711977   4.090   0.047  13.201 -0.3787  1.3609  1.4193
  814MPD2     C11978   0.104   1.338  12.072  0.4502  0.0040 -0.8375
  814MPD2    C111979   0.132   1.365  11.942  0.0398  0.0731  0.0949
  814MPD2    C211980   0.205   1.484  11.913 -0.3922 -0.3092  0.3393
  814MPD2    C311981   0.248   1.575  12.006  0.4671 -0.5215 -0.4904
  814MPD2    C411982   0.215   1.545  12.136  0.2273  0.0987  0.0459
  814MPD2    C511983   0.141   1.432  12.168 -0.9804  0.6806 -0.1832
  814MPD2     H11984   0.219   1.512  11.810  2.6133 -1.8577  0.3285
  814MPD2    H111985   0.246   1.612  12.215  0.6484 -0.5187  0.4103
  814MPD2    H211986   0.045   1.256  12.111 -0.7015  0.8871 -0.7290
  814MPD2    H311987   0.110   1.423  12.271 -1.4011 -2.3130 -0.5808
  814MPD2     N11988   0.314   1.700  11.985  0.4669  0.1779  0.0505
  814MPD2    H511989   0.345   1.751  12.067  1.6189  0.3352 -0.4811
  814MPD2    N111990   0.114   1.276  11.833  0.2892 -0.1586 -0.0541
  814MPD2    H711991   0.120   1.302  11.735 -2.2680  0.9998  0.0994
  815MPD2     C11992   0.665   0.000  11.611  1.0970  0.1343 -0.3217
  815MPD2    C111993   0.602   4.601  11.638 -0.6292 -0.2728 -0.4884
  815MPD2    C211994   0.478   4.599  11.702 -0.5492 -0.6210 -0.8274
  815MPD2    C311995   0.420   4.718  11.742  0.1073 -0.3487 -0.5001
  815MPD2    C411996   0.491   0.115  11.729 -0.5486  0.1879  0.3438
  815MPD2    C511997   0.606   0.117  11.657  0.1070 -0.5968 -0.8951
  815MPD2     H11998   0.411   4.515  11.707 -2.3460  0.8673  0.1982
  815MPD2    H111999   0.466   0.213  11.769 -1.9072 -0.2638  0.6253
  815MPD2    H212000   0.758   0.002  11.555  0.9203 -0.9313 -0.6497
  815MPD2    H312001   0.653   0.210  11.630 -2.2239  0.8523  0.0449
  815MPD2     N12002   0.286   4.702  11.767  0.3970 -0.7192  0.0535
  815MPD2    H512003   0.248   4.608  11.756  0.0492 -0.7546  1.6074
  815MPD2    N112004   0.655   4.490  11.585  0.2146 -0.0559  1.1098
  815MPD2    H712005   0.721   4.500  11.509  0.8159 -0.5464  1.5666
  816MPD2     C12006   4.421   4.120  16.740  0.3837 -0.3595 -0.0895
  816MPD2    C112007   4.414   4.179  16.614  0.0138 -0.7173 -0.0830
  816MPD2    C212008   4.519   4.161  16.522 -0.2719 -0.9916 -0.0242
  816MPD2    C312009   4.625   4.076  16.553  0.3135  1.1250  0.1416
  816MPD2    C412010   4.632   4.018  16.680  0.2923  0.7204 -0.2237
  816MPD2    C512011   4.530   4.039  16.771  0.6587 -0.1149  0.2297
  816MPD2     H12012   4.527   4.209  16.426  1.2001  0.7647  0.9765
  816MPD2    H112013   4.711   3.954  16.718 -0.2138 -0.2184 -0.7411
  816MPD2    H212014   4.341   4.125  16.813  0.6339  2.1480 -0.0007
  816MPD2    H312015   4.528   3.997  16.870  1.9064 -2.1065 -0.5871
  816MPD2     N12016   0.003   4.060  16.451  0.8811  0.3773 -0.5991
  816MPD2    H512017   4.718   4.119  16.368  0.2856  3.1079  1.3787
  816MPD2    N112018   4.297   4.259  16.587  0.0002  0.3077 -0.1941
  816MPD2    H712019   4.252   4.304  16.666  0.7856 -0.0357  0.4511
  817MPD2     C12020   0.141   0.779   9.807  0.4688 -0.1983 -0.5997
  817MPD2    C112021   0.263   0.848   9.780 -1.1108  0.3038  0.7433
  817MPD2    C212022   0.258   0.987   9.760 -0.0792 -0.2445  0.1525
  817MPD2    C312023   0.140   1.059   9.763 -0.0798 -0.1653 -0.0578
  817MPD2    C412024   0.022   0.993   9.794  0.2903  0.5442  0.4820
  817MPD2    C512025   0.034   0.855   9.823  0.2791 -0.0643 -0.3740
  817MPD2     H12026   0.350   1.025   9.717  0.2789  1.0965  2.1436
  817MPD2    H112027   4.646   1.042   9.797 -2.0637 -4.1557  1.1375
  817MPD2    H212028   0.129   0.674   9.831  3.2417 -0.2951  0.4880
  817MPD2    H312029   4.664   0.803   9.850 -0.4445  1.1926 -0.4093
  817MPD2     N12030   0.150   1.197   9.728  0.5938 -0.1481  0.2546
  817MPD2    H512031   0.245   1.231   9.714  0.5572  0.6638  1.9317
  817MPD2    N112032   0.391   0.790   9.789 -0.3474  0.6301 -0.3451
  817MPD2    H712033   0.468   0.853   9.767 -0.6647  1.4228  0.7885
  818MPD2     C12034   4.240   0.575   9.757  0.0082 -0.1820 -0.1459
  818MPD2    C112035   4.129   0.495   9.776 -1.5172 -0.5243  0.7006
  818MPD2    C212036   4.122   0.375   9.713 -0.0365  0.3344  0.2094
  818MPD2    C312037   4.229   0.331   9.639  0.2219 -0.7392 -0.6344
  818MPD2    C412038   4.341   0.417   9.618 -0.4668  0.1441 -0.5145
  818MPD2    C512039   4.339   0.542   9.670 -0.0831 -0.0594  0.1148
  818MPD2     H12040   4.036   0.314   9.738 -0.4907  0.3645 -1.2875
  818MPD2    H112041   4.421   0.396   9.548 -0.1979 -0.2480 -0.0834
  818MPD2    H212042   4.241   0.674   9.801  0.6862 -1.2672  2.2679
  818MPD2    H312043   4.419   0.610   9.645 -1.0889  0.5744 -1.3880
  818MPD2     N12044   4.228   0.196   9.591  0.1199  0.0955 -0.0247
  818MPD2    H512045   4.141   0.151   9.619  0.9685 -0.0900  2.3195
  818MPD2    N112046   4.033   0.517   9.875  0.2512 -0.3697 -0.3543
  818MPD2    H712047   3.951   0.458   9.866 -0.5834  1.0018 -1.7013
  819MPD2     C12048   1.268   2.253  15.134 -0.3037 -0.1916  1.0560
  819MPD2    C112049   1.276   2.128  15.187 -0.1932 -0.6973 -0.8100
  819MPD2    C212050   1.391   2.088  15.253 -0.0144 -0.0450 -0.9556
  819MPD2    C312051   1.505   2.170  15.266 -0.0501 -0.9526  1.0741
  819MPD2    C412052   1.491   2.298  15.222  0.3423 -0.3048  0.1144
  819MPD2    C512053   1.382   2.337  15.153 -0.4132 -0.6337 -0.2014
  819MPD2     H12054   1.404   1.982  15.266  1.3058  0.2858  0.3713
  819MPD2    H112055   1.574   2.367  15.212 -1.7426  2.3408  0.8194
  819MPD2    H212056   1.177   2.278  15.082  0.7448 -1.8763 -1.6135
  819MPD2    H312057   1.370   2.440  15.122 -2.9322 -0.6264  0.7782
  819MPD2     N12058   1.625   2.111  15.310  0.0307 -0.7180  0.5028
  819MPD2    H512059   1.630   2.011  15.325  1.5911 -0.4137  2.0068
  819MPD2    N112060   1.164   2.044  15.170  0.3978  0.1531  0.9452
  819MPD2    H712061   1.091   2.062  15.102  2.9391  1.8542 -1.3503
  820MPD2     C12062   0.374   2.000  14.643 -0.2017  0.4906 -0.9454
  820MPD2    C112063   0.468   2.087  14.693  0.1198 -0.2040  0.4122
  820MPD2    C212064   0.578   2.042  14.758  0.0909 -0.2412  0.1629
  820MPD2    C312065   0.581   1.911  14.798 -0.1207 -0.2860 -0.2506
  820MPD2    C412066   0.486   1.823  14.749 -0.0160 -0.0272 -0.2546
  820MPD2    C512067   0.386   1.866  14.669  0.4756 -0.1193  0.0920
  820MPD2     H12068   0.664   2.103  14.783 -0.9341  1.4386 -0.4046
  820MPD2    H112069   0.477   1.720  14.783 -1.6195  0.1112 -0.2622
  820MPD2    H212070   0.281   2.040  14.605 -0.4829 -0.1852 -0.9678
  820MPD2    H312071   0.299   1.807  14.646 -0.7614  1.5331  0.5538
  820MPD2     N12072   0.690   1.864  14.877 -0.7401 -0.7140 -0.6481
  820MPD2    H512073   0.701   1.763  14.874 -0.7894 -0.7164 -0.7641
  820MPD2    N112074   0.454   2.227  14.662  0.1775 -0.7297  0.7226
  820MPD2    H712075   0.382   2.252  14.595 -2.4987 -1.2002  3.3833
  821MPD2     C12076   1.720   3.485  12.524 -0.1020  0.0038 -0.0814
  821MPD2    C112077   1.833   3.462  12.592  0.0323 -0.1967  0.7051
  821MPD2    C212078   1.939   3.541  12.580 -0.1608  0.6208 -0.1337
  821MPD2    C312079   1.934   3.651  12.502  0.7842 -0.3206 -0.1835
  821MPD2    C412080   1.819   3.680  12.427 -0.3697 -0.3508  0.1375
  821MPD2    C512081   1.710   3.597  12.448  0.2004 -0.4233 -0.0530
  821MPD2     H12082   2.028   3.521  12.638  1.0957 -0.8772 -2.6109
  821MPD2    H112083   1.818   3.759  12.353 -0.1663 -0.9508 -0.4999
  821MPD2    H212084   1.626   3.434  12.546  0.0419 -0.6591 -0.9816
  821MPD2    H312085   1.615   3.612  12.398 -0.0474 -1.4536  0.1104
  821MPD2     N12086   2.045   3.739  12.488  0.0493 -0.2635 -0.1987
  821MPD2    H512087   2.028   3.803  12.411  1.9169  0.8818  0.3532
  821MPD2    N112088   1.851   3.345  12.668 -0.6062 -0.2496  0.3884
  821MPD2    H712089   1.939   3.337  12.718  0.4050  0.7653 -1.2399
  822MPD2     C12090   1.857   3.669  15.474  0.3400  1.0191 -0.2425
  822MPD2    C112091   1.821   3.598  15.586 -0.8605  0.1764 -0.5985
  822MPD2    C212092   1.750   3.670  15.677 -0.3040 -1.1332 -0.2610
  822MPD2    C312093   1.708   3.800  15.653  0.6107  0.5541  0.1466
  822MPD2    C412094   1.752   3.869  15.546  0.3008  0.1835 -0.2701
  822MPD2    C512095   1.821   3.803  15.456 -0.4150  0.4408  0.6414
  822MPD2     H12096   1.731   3.627  15.775 -1.4595 -0.2527 -0.0942
  822MPD2    H112097   1.719   3.971  15.527  3.7902  1.3227 -0.1674
  822MPD2    H212098   1.925   3.632  15.399  3.2318  1.0386  2.3624
  822MPD2    H312099   1.863   3.857  15.372 -1.9814  1.0166  0.2247
  822MPD2     N12100   1.627   3.854  15.757 -0.0585 -0.0010  0.1431
  822MPD2    H512101   1.581   3.787  15.817  1.0889  0.8884  2.0285
  822MPD2    N112102   1.868   3.473  15.620  0.2260 -0.2227  0.1298
  822MPD2    H712103   1.849   3.433  15.712  0.2466 -1.3495 -0.3571
  823MPD2     C12104   1.245   3.820  16.501 -0.1665  0.0329 -0.3705
  823MPD2    C112105   1.331   3.768  16.411 -0.5037 -0.4347 -0.6415
  823MPD2    C212106   1.396   3.652  16.442  0.0164 -0.3370 -0.6630
  823MPD2    C312107   1.378   3.586  16.560  0.0278  0.7139 -0.0058
  823MPD2    C412108   1.280   3.638  16.641  0.0437 -0.2144 -0.0593
  823MPD2    C512109   1.219   3.751  16.615 -0.7852 -0.3769 -0.1472
  823MPD2     H12110   1.481   3.626  16.380  1.0170  0.0533  0.5511
  823MPD2    H112111   1.265   3.587  16.736 -1.6197 -1.9674 -1.2515
  823MPD2    H212112   1.196   3.914  16.482 -1.4525 -0.5166  0.2769
  823MPD2    H312113   1.156   3.798  16.690  0.5267 -0.1614  0.8205
  823MPD2     N12114   1.453   3.481  16.602 -0.5807  0.3761 -0.0930
  823MPD2    H512115   1.427   3.443  16.693 -3.9679  0.5561 -0.9873
  823MPD2    N112116   1.363   3.841  16.295 -0.5974  0.3961  0.5584
  823MPD2    H712117   1.322   3.934  16.287  1.3255  1.3875  2.5482
  824MPD2     C12118   2.623   3.102  15.792  0.2584  0.3669 -0.3624
  824MPD2    C112119   2.539   3.084  15.687 -0.2180 -0.0581  0.6778
  824MPD2    C212120   2.586   2.999  15.582  0.0862 -0.5241 -0.2055
  824MPD2    C312121   2.690   2.910  15.602 -0.5917  0.0902  0.8360
  824MPD2    C412122   2.754   2.911  15.722 -0.4622 -0.2507  0.0615
  824MPD2    C512123   2.724   3.012  15.809 -0.2360  0.6644  1.0440
  824MPD2     H12124   2.533   2.994  15.488 -1.1163 -2.1427  0.5554
  824MPD2    H112125   2.843   2.852  15.739 -3.5963 -4.7001  0.9342
  824MPD2    H212126   2.608   3.172  15.872  0.9551 -1.2159  1.1562
  824MPD2    H312127   2.790   3.029  15.894  1.1708  3.1195 -0.5328
  824MPD2     N12128   2.730   2.828  15.488 -0.0241  0.3801  0.0833
  824MPD2    H512129   2.694   2.857  15.397  0.6232  2.1327  0.4029
  824MPD2    N112130   2.417   3.149  15.684 -0.2824  0.6156 -0.3590
  824MPD2    H712131   2.390   3.193  15.772  0.0838  0.0376  0.0464
  825MPD2     C12132   3.182   2.655  14.748  0.3917 -0.3989 -0.0209
  825MPD2    C112133   3.136   2.744  14.843  0.2526  0.3072 -1.0234
  825MPD2    C212134   3.153   2.877  14.820  0.7656 -0.5361  0.3884
  825MPD2    C312135   3.230   2.925  14.710 -0.1036 -0.0582  0.4787
  825MPD2    C412136   3.273   2.834  14.616  0.6522  0.3616  0.5062
  825MPD2    C512137   3.243   2.702  14.634  0.1175 -1.3637  0.1115
  825MPD2     H12138   3.120   2.948  14.895  1.2150 -0.5781  0.6281
  825MPD2    H112139   3.331   2.867  14.531  0.6985  0.9380  0.7593
  825MPD2    H212140   3.177   2.548  14.763  0.3470 -0.2567  1.0036
  825MPD2    H312141   3.289   2.628  14.569  3.3488 -1.6695  2.7707
  825MPD2     N12142   3.246   3.067  14.683  0.5573  0.1664 -0.0463
  825MPD2    H512143   3.288   3.096  14.595  0.6080 -1.9176 -0.7073
  825MPD2    N112144   3.079   2.684  14.963 -0.5711 -0.5765  0.3953
  825MPD2    H712145   3.063   2.584  14.961 -1.5978 -0.3582 -2.3423
  826MPD2     C12146   2.578   2.702  13.093  0.3160 -0.3332  0.5230
  826MPD2    C112147   2.676   2.797  13.087  0.3125 -0.2928  0.0705
  826MPD2    C212148   2.651   2.928  13.133  0.4398 -0.2699 -0.3092
  826MPD2    C312149   2.527   2.967  13.176  0.2579 -0.6353  0.4851
  826MPD2    C412150   2.431   2.871  13.171 -0.6600  0.5660 -0.4308
  826MPD2    C512151   2.456   2.744  13.132 -0.2659 -0.3901  0.7892
  826MPD2     H12152   2.731   3.001  13.133 -0.0933  0.2895 -2.5417
  826MPD2    H112153   2.333   2.884  13.215 -1.3839  2.6933 -2.6993
  826MPD2    H212154   2.600   2.602  13.058  1.7987 -0.1414  0.9152
  826MPD2    H312155   2.383   2.665  13.142  0.0493 -0.6826  0.7623
  826MPD2     N12156   2.500   3.097  13.222 -0.3416  0.1006 -0.0694
  826MPD2    H512157   2.408   3.119  13.259 -0.9171 -1.8153 -0.4013
  826MPD2    N112158   2.802   2.757  13.029  0.0093  0.2576  0.6207
  826MPD2    H712159   2.812   2.658  13.010  0.2487  0.4801 -0.3952
  827MPD2     C12160   4.394   4.146   9.573 -0.2938 -0.2381 -0.2205
  827MPD2    C112161   4.409   4.039   9.662  0.3264 -0.2616  0.1046
  827MPD2    C212162   4.346   3.922   9.634  0.4068  0.3511  0.2144
  827MPD2    C312163   4.283   3.903   9.518  0.2169  0.2163  0.8846
  827MPD2    C412164   4.267   4.008   9.425 -0.5992 -0.0908 -0.8000
  827MPD2    C512165   4.320   4.135   9.458  0.5124 -0.1640  0.1274
  827MPD2     H12166   4.361   3.832   9.693  0.4416  0.5047  0.4405
  827MPD2    H112167   4.215   3.998   9.331  2.5504 -3.3379 -2.1968
  827MPD2    H212168   4.456   4.234   9.582 -0.9043  0.4600 -2.9230
  827MPD2    H312169   4.324   4.216   9.387  1.1535  1.3955  1.9274
  827MPD2     N12170   4.223   3.777   9.494 -0.0662 -0.0452 -0.1429
  827MPD2    H512171   4.223   3.706   9.567  0.0636  0.4112  0.2962
  827MPD2    N112172   4.496   4.061   9.772  0.2978 -0.3965  0.0581
  827MPD2    H712173   4.535   4.151   9.796 -0.1444 -0.0546 -0.5362
  828MPD2     C12174   2.347   3.773  12.253 -0.0684  0.3302  0.4464
  828MPD2    C112175   2.334   3.829  12.125  0.7537  0.2922  0.0524
  828MPD2    C212176   2.453   3.859  12.049  0.1585 -0.1949  0.0753
  828MPD2    C312177   2.576   3.830  12.096  0.1587 -0.1429  0.7957
  828MPD2    C412178   2.584   3.772  12.217 -0.0156 -0.5939 -0.4954
  828MPD2    C512179   2.474   3.752  12.296  0.5892  0.5121  0.6054
  828MPD2     H12180   2.439   3.916  11.958  0.7857 -0.6813 -0.3239
  828MPD2    H112181   2.683   3.747  12.253 -1.1032 -1.4571  1.8649
  828MPD2    H212182   2.265   3.734  12.311  1.5441 -2.2989  0.9271
  828MPD2    H312183   2.482   3.692  12.386  0.2518  2.1420  1.7188
  828MPD2     N12184   2.700   3.843  12.021  0.2303 -0.1093  0.0766
  828MPD2    H512185   2.788   3.811  12.062 -1.0758 -2.1080  1.3058
  828MPD2    N112186   2.212   3.862  12.062 -0.6274  0.3360 -0.1134
  828MPD2    H712187   2.225   3.886  11.965 -1.0471  1.1367  0.0238
  829MPD2     C12188   2.282   4.056  11.292  0.3277  0.0082  0.4048
  829MPD2    C112189   2.153   4.101  11.302  0.4516  0.0795 -0.0677
  829MPD2    C212190   2.075   4.066  11.411 -0.9112  0.1607  0.5841
  829MPD2    C312191   2.128   3.973  11.502 -0.0143  0.3390 -0.0610
  829MPD2    C412192   2.256   3.925  11.485 -0.4922  0.4709 -0.0264
  829MPD2    C512193   2.331   3.965  11.376 -0.3029  0.9364  0.6018
  829MPD2     H12194   1.973   4.102  11.411 -0.5334  1.2493  0.1063
  829MPD2    H112195   2.300   3.842  11.540 -3.5958 -0.9958  0.2709
  829MPD2    H212196   2.349   4.085  11.211  1.6987 -4.3724 -0.0573
  829MPD2    H312197   2.419   3.903  11.358 -0.4862  1.1457 -1.0685
  829MPD2     N12198   2.056   3.921  11.616  0.2394  0.4653  0.0454
  829MPD2    H512199   2.110   3.870  11.685  0.0113  0.6774  0.3830
  829MPD2    N112200   2.112   4.177  11.190  0.0019 -0.2190 -0.3317
  829MPD2    H712201   2.186   4.202  11.125  0.5328  0.0239  0.3713
  830MPD2     C12202   2.449   2.425  15.458  0.5638 -0.1719  0.4068
  830MPD2    C112203   2.353   2.389  15.373  0.4232  0.7276 -0.2741
  830MPD2    C212204   2.335   2.455  15.249 -0.1050 -0.7078  1.3178
  830MPD2    C312205   2.429   2.556  15.219  0.1848 -0.3199  0.1943
  830MPD2    C412206   2.528   2.590  15.309 -0.1479  0.7448 -0.3244
  830MPD2    C512207   2.536   2.526  15.430  0.3765  0.1258 -0.6129
  830MPD2     H12208   2.255   2.429  15.182  0.6589 -1.3668  0.6669
  830MPD2    H112209   2.606   2.662  15.286 -0.0159  0.6848 -0.0713
  830MPD2    H212210   2.452   2.386  15.559  2.0268 -0.8212  0.1012
  830MPD2    H312211   2.597   2.569  15.510 -1.6492  2.7779 -0.4984
  830MPD2     N12212   2.427   2.634  15.105 -0.6786 -0.0495  0.3105
  830MPD2    H512213   2.513   2.687  15.089 -1.3050  0.8249 -0.2049
  830MPD2    N112214   2.266   2.286  15.405  0.2659 -0.2586 -0.3113
  830MPD2    H712215   2.249   2.268  15.503  0.0772  0.1785 -0.2633
  831MPD2     C12216   1.887   3.793  16.125  0.1498  0.2970 -0.7267
  831MPD2    C112217   1.901   3.690  16.034 -0.2025 -1.5952 -0.1577
  831MPD2    C212218   1.817   3.582  16.037 -0.4101  0.1711  0.0528
  831MPD2    C312219   1.727   3.563  16.143 -0.2191  0.3766  0.2505
  831MPD2    C412220   1.724   3.658  16.243 -0.2196  0.5798 -0.4785
  831MPD2    C512221   1.798   3.773  16.224 -0.9247 -0.8712  0.1212
  831MPD2     H12222   1.823   3.505  15.961 -1.9699 -2.8127  2.9508
  831MPD2    H112223   1.666   3.644  16.333  0.8827 -0.3760  0.0821
  831MPD2    H212224   1.938   3.888  16.116  0.6784 -0.1011 -1.9645
  831MPD2    H312225   1.788   3.847  16.303 -1.5684  0.9902 -1.7097
  831MPD2     N12226   1.642   3.453  16.154  0.1534 -0.2575  0.5456
  831MPD2    H512227   1.609   3.432  16.248 -1.2125  1.3506  0.4259
  831MPD2    N112228   1.995   3.702  15.931  0.2203  0.3756 -0.3481
  831MPD2    H712229   2.039   3.794  15.924 -1.9682  1.4390 -0.0181
  832MPD2     C12230   0.493   0.160  17.168  1.1454  0.4207  0.2338
  832MPD2    C112231   0.520   0.290  17.133 -0.0706 -0.0880 -0.3642
  832MPD2    C212232   0.453   0.336  17.024 -0.5508 -0.5010 -0.1947
  832MPD2    C312233   0.353   0.265  16.958 -0.1006 -0.3244  0.4062
  832MPD2    C412234   0.332   0.132  16.981  0.2190  0.4953 -0.7518
  832MPD2    C512235   0.403   0.089  17.092 -0.5485 -0.2159 -0.5406
  832MPD2     H12236   0.474   0.442  17.015 -1.1915 -0.3897 -0.3771
  832MPD2    H112237   0.264   0.066  16.928 -0.4798  1.2105 -0.7410
  832MPD2    H212238   0.548   0.118  17.251 -2.0100 -0.5754  1.8345
  832MPD2    H312239   0.414   4.705  17.114 -1.7754 -0.2993 -0.3369
  832MPD2     N12240   0.263   0.330  16.870  0.0194 -0.1973 -0.3035
  832MPD2    H512241   0.185   0.270  16.842  0.9945 -1.3878 -0.4439
  832MPD2    N112242   0.624   0.354  17.191  0.2285  0.0153 -0.3703
  832MPD2    H712243   0.671   0.298  17.261 -2.9092 -1.2703  0.6900
  833MPD2     C12244   2.798   1.090  12.317 -0.0462 -0.4781  0.5825
  833MPD2    C112245   2.916   1.151  12.266 -0.8539 -0.2594 -0.1689
  833MPD2    C212246   2.964   1.101  12.155 -0.1727  0.2868  0.6736
  833MPD2    C312247   2.910   0.989  12.104 -0.4141 -0.3181  0.0951
  833MPD2    C412248   2.788   0.936  12.144  0.2638  0.0410 -0.6520
  833MPD2    C512249   2.734   0.991  12.254 -0.5487 -0.0991 -0.5313
  833MPD2     H12250   3.030   1.161  12.094 -0.8028  0.3901  0.0907
  833MPD2    H112251   2.737   0.856  12.091  1.8575 -0.7939 -0.9407
  833MPD2    H212252   2.743   1.131  12.401  2.1223  1.5071  1.0286
  833MPD2    H312253   2.637   0.962  12.291 -0.4431 -0.6986 -0.7216
  833MPD2     N12254   2.969   0.931  11.985  0.7325 -0.6381  0.1673
  833MPD2    H512255   2.931   0.843  11.951 -0.3820 -0.3774  0.7335
  833MPD2    N112256   2.970   1.262  12.333  0.4817 -0.3103 -0.6662
  833MPD2    H712257   2.920   1.306  12.409 -0.0119  2.1393 -2.4113
  834MPD2     C12258   2.640   1.011  11.103  0.3306  0.3914 -0.0497
  834MPD2    C112259   2.769   0.991  11.060 -0.6034 -0.3508 -0.4555
  834MPD2    C212260   2.877   0.983  11.146  0.0680  0.0010 -0.0116
  834MPD2    C312261   2.846   0.984  11.283 -0.1665 -0.1323  0.4602
  834MPD2    C412262   2.718   1.019  11.323 -0.1692  0.8531  0.1807
  834MPD2    C512263   2.621   1.034  11.235 -0.4952  0.3205 -0.7590
  834MPD2     H12264   2.983   0.977  11.123  0.5151  1.8835  1.4723
  834MPD2    H112265   2.691   1.024  11.427 -0.8091 -3.5836  0.2575
  834MPD2    H212266   2.558   1.029  11.034  0.0962  0.6110  0.2888
  834MPD2    H312267   2.521   1.064  11.263 -0.8346 -1.5475  0.0261
  834MPD2     N12268   2.939   0.945  11.380 -0.2932 -0.1274  0.0880
  834MPD2    H512269   3.035   0.939  11.350  0.3972  1.3544  2.0350
  834MPD2    N112270   2.788   0.984  10.923 -0.2953 -0.7291  0.0141
  834MPD2    H712271   2.705   0.983  10.865 -0.4208 -2.2325  0.2385
  835MPD2     C12272   3.420   3.915  10.312  0.6992  0.6694  0.0974
  835MPD2    C112273   3.296   3.930  10.376  0.1245 -0.4021 -0.7082
  835MPD2    C212274   3.293   3.953  10.515 -0.3535  0.2782 -0.1612
  835MPD2    C312275   3.410   3.958  10.588 -0.3940 -0.6205 -0.0571
  835MPD2    C412276   3.537   3.948  10.519  0.1769  0.3830 -0.0099
  835MPD2    C512277   3.540   3.931  10.383 -0.2753 -0.0364 -0.4657
  835MPD2     H12278   3.197   3.965  10.564  0.3935  1.2013  1.0443
  835MPD2    H112279   3.635   3.940  10.563 -0.4822  0.0998  1.4012
  835MPD2    H212280   3.413   3.898  10.205  1.2124  0.1912  0.1374
  835MPD2    H312281   3.633   3.912  10.331 -0.4944 -0.5819 -0.6608
  835MPD2     N12282   3.410   3.980  10.727 -0.0109  0.9034  0.0899
  835MPD2    H512283   3.500   3.982  10.774  0.5389 -0.1506 -0.9305
  835MPD2    N112284   3.175   3.938  10.312  0.5133 -0.0515  0.5490
  835MPD2    H712285   3.084   3.958  10.351  0.1242  1.0118 -0.9102
  836MPD2     C12286   3.159   4.042  11.608  0.1044 -0.7271 -0.0667
  836MPD2    C112287   3.080   4.026  11.487 -0.4825  0.7418 -0.0869
  836MPD2    C212288   2.940   4.058  11.485 -0.2057  0.4505  0.2771
  836MPD2    C312289   2.885   4.107  11.599  0.0400  0.3161  0.4887
  836MPD2    C412290   2.964   4.135  11.714 -0.2396 -0.4560 -0.2881
  836MPD2    C512291   3.099   4.099  11.717 -0.5137  0.4160  0.0067
  836MPD2     H12292   2.879   4.036  11.398 -0.1770 -0.7098  0.5547
  836MPD2    H112293   2.915   4.174  11.803  2.7718 -1.2938  1.7687
  836MPD2    H212294   3.266   4.027  11.617 -0.0825 -0.8070  2.0457
  836MPD2    H312295   3.162   4.109  11.804  1.2990 -0.7087 -1.1839
  836MPD2     N12296   2.748   4.131  11.614 -0.1957 -0.1580 -0.7400
  836MPD2    H512297   2.719   4.152  11.709  0.8484  0.1817 -0.5003
  836MPD2    N112298   3.143   3.976  11.369  0.2616  0.4029  0.3761
  836MPD2    H712299   3.233   3.934  11.389 -0.0852 -1.3935 -1.8615
  837MPD2     C12300   1.550   3.839   9.837 -0.4124 -0.1295  0.6749
  837MPD2    C112301   1.421   3.871   9.828  0.1967  0.0359  0.3263
  837MPD2    C212302   1.389   3.995   9.872 -0.0931 -0.2523 -0.0720
  837MPD2    C312303   1.478   4.077   9.932 -0.9768 -0.2600 -0.3617
  837MPD2    C412304   1.611   4.042   9.943  0.5211  0.0218 -0.4937
  837MPD2    C512305   1.644   3.924   9.887 -0.6538 -0.3096 -0.2374
  837MPD2     H12306   1.294   4.042   9.849 -0.3124 -0.8541 -0.4151
  837MPD2    H112307   1.691   4.103   9.983 -0.0536  1.1628 -1.0829
  837MPD2    H212308   1.591   3.747   9.798  1.1413  0.6973  0.3560
  837MPD2    H312309   1.744   3.882   9.890 -0.8010 -0.6769 -0.4266
  837MPD2     N12310   1.432   4.207   9.966  0.0198 -0.4707  0.3690
  837MPD2    H512311   1.335   4.233   9.955  0.2763  0.2857 -0.0896
  837MPD2    N112312   1.321   3.802   9.754 -0.0834 -0.6779  0.3003
  837MPD2    H712313   1.228   3.843   9.748 -0.4044 -1.6289 -1.1921
  838MPD2     C12314   4.448   1.532  10.856 -0.2528  1.1293 -0.2028
  838MPD2    C112315   4.476   1.632  10.949 -0.5385 -1.1823  0.2827
  838MPD2    C212316   4.375   1.692  11.014 -0.0877  0.6662  0.1947
  838MPD2    C312317   4.247   1.633  11.006  1.0407 -0.4061  0.4731
  838MPD2    C412318   4.218   1.528  10.921 -0.5582 -0.5248 -0.2746
  838MPD2    C512319   4.318   1.486  10.845  0.0307 -0.3118 -0.6264
  838MPD2     H12320   4.387   1.771  11.087 -1.4548 -0.3021  1.4771
  838MPD2    H112321   4.126   1.471  10.924 -0.5535 -0.5099  0.1763
  838MPD2    H212322   4.526   1.489  10.794  1.6987 -2.7162  4.8699
  838MPD2    H312323   4.290   1.401  10.783 -0.2661 -0.7190  0.0690
  838MPD2     N12324   4.154   1.681  11.094  0.0671  0.3079 -0.1994
  838MPD2    H512325   4.186   1.751  11.161 -0.3353  0.4541 -0.1590
  838MPD2    N112326   4.605   1.688  10.966  0.1073 -0.2508  0.0229
  838MPD2    H712327   4.602   1.781  11.006  0.3440 -0.5546  0.7509
  839MPD2     C12328   4.236   1.590  11.565 -0.1259  0.4751 -0.4527
  839MPD2    C112329   4.277   1.516  11.453  0.8493  0.2323  0.4090
  839MPD2    C212330   4.397   1.554  11.393 -0.7705 -0.1581 -0.6244
  839MPD2    C312331   4.475   1.657  11.448 -0.9799  0.1682  0.0601
  839MPD2    C412332   4.427   1.737  11.545  0.2205  0.0333  0.6520
  839MPD2    C512333   4.312   1.700  11.607 -0.7637  0.2232 -0.1494
  839MPD2     H12334   4.435   1.501  11.306  0.1896  1.7100 -1.3437
  839MPD2    H112335   4.477   1.826  11.582  1.5589  0.0627 -1.2420
  839MPD2    H212336   4.139   1.572  11.610  0.7980 -1.8911  0.6037
  839MPD2    H312337   4.277   1.766  11.685  1.7788 -0.5329  1.6267
  839MPD2     N12338   4.600   1.697  11.395  0.2444 -0.5269 -0.5727
  839MPD2    H512339   4.644   1.782  11.429  1.9880  0.1809 -4.5444
  839MPD2    N112340   4.212   1.399  11.400 -0.2639 -0.5926 -0.2448
  839MPD2    H712341   4.249   1.363  11.313 -1.2668 -4.9458  1.1305
  840MPD2     C12342   0.231   4.508   9.790  0.1519 -0.3766  0.3830
  840MPD2    C112343   0.189   4.475   9.922  0.2309  0.4005 -0.1605
  840MPD2    C212344   0.196   4.572  10.021 -0.0195 -0.3236  0.2424
  840MPD2    C312345   0.240   4.700   9.994 -0.9138  0.9804  0.1065
  840MPD2    C412346   0.282   0.003   9.865  0.0584 -1.1886  0.6687
  840MPD2    C512347   0.280   4.630   9.770 -0.3753 -0.1803  0.4882
  840MPD2     H12348   0.157   4.551  10.119 -2.6654 -0.7191 -0.8850
  840MPD2    H112349   0.330   0.098   9.843  0.4560 -0.9841  2.4016
  840MPD2    H212350   0.248   4.434   9.712 -0.2056 -0.0670  0.0131
  840MPD2    H312351   0.323   4.650   9.672 -2.3163  0.1561 -0.2929
  840MPD2     N12352   0.258   0.079  10.091 -0.2826  0.4411 -0.3883
  840MPD2    H512353   0.278   0.173  10.059 -1.0145  0.0991 -1.8100
  840MPD2    N112354   0.135   4.349   9.935 -0.3079  0.5890  0.3125
  840MPD2    H712355   0.095   4.313   9.849  0.0978 -3.3471  1.7201
  841MPD2     C12356   3.395   3.904  14.381  0.1568  0.0313 -0.5184
  841MPD2    C112357   3.503   3.855  14.312 -0.0609  0.2435 -0.3776
  841MPD2    C212358   3.565   3.946  14.223  0.5512 -0.7978  0.5451
  841MPD2    C312359   3.533   4.078  14.217  0.2224  0.2912 -0.1620
  841MPD2    C412360   3.423   4.118  14.292 -0.0379  0.4289  0.1661
  841MPD2    C512361   3.353   4.031  14.363 -0.7147  0.2984 -0.5658
  841MPD2     H12362   3.643   3.907  14.158  0.7879 -0.5141  0.6576
  841MPD2    H112363   3.380   4.218  14.293 -2.3344 -0.5529  0.4559
  841MPD2    H212364   3.333   3.836  14.438 -1.0623  1.4915 -0.0807
  841MPD2    H312365   3.262   4.070  14.407 -1.3632 -1.5705 -0.2154
  841MPD2     N12366   3.602   4.156  14.120 -0.5025  0.7794 -0.7326
  841MPD2    H512367   3.676   4.111  14.067 -0.0610  0.0830  0.4695
  841MPD2    N112368   3.558   3.727  14.314 -0.2717 -0.6805 -0.0282
  841MPD2    H712369   3.640   3.712  14.255 -0.7433  1.7662 -1.3191
  842MPD2     C12370   4.050   0.358  16.098  0.1985  0.7608  0.0345
  842MPD2    C112371   3.930   0.284  16.118 -0.6158  0.2502  0.3823
  842MPD2    C212372   3.869   0.266  16.241 -0.0866 -0.0475  1.2268
  842MPD2    C312373   3.935   0.328  16.349  0.5492 -0.2115 -0.4955
  842MPD2    C412374   4.057   0.388  16.331  0.2001 -0.5926 -0.0322
  842MPD2    C512375   4.113   0.403  16.211  0.0193  0.2699 -0.6981
  842MPD2     H12376   3.765   0.238  16.250 -0.0412 -0.6805 -0.2452
  842MPD2    H112377   4.113   0.431  16.414  0.3367 -1.2064  0.1955
  842MPD2    H212378   4.091   0.377  16.000 -0.3592  2.7249  0.1837
  842MPD2    H312379   4.211   0.449  16.199 -0.8026  1.3744 -3.0937
  842MPD2     N12380   3.886   0.328  16.480 -0.4366 -0.0293  0.0384
  842MPD2    H512381   3.940   0.369  16.556 -0.4662  1.7225 -0.8914
  842MPD2    N112382   3.865   0.239  16.003 -0.8220  0.3028 -0.0487
  842MPD2    H712383   3.894   0.280  15.914 -1.2829 -2.0472 -1.2746
  843MPD2     C12384   1.604   0.456   0.056 -0.0512 -0.4311  0.2044
  843MPD2    C112385   1.478   0.469   0.012 -0.1495  0.2222  0.2306
  843MPD2    C212386   1.448   0.580  17.624  0.2086 -0.5570 -0.0310
  843MPD2    C312387   1.547   0.675  17.590  0.0114 -0.3941  0.3877
  843MPD2    C412388   1.678   0.643  17.626 -1.1182 -0.4896 -0.6929
  843MPD2    C512389   1.708   0.530   0.010  0.1758  0.7327  0.3327
  843MPD2     H12390   1.344   0.602  17.605  0.3364  0.8910  0.9748
  843MPD2    H112391   1.758   0.704  17.585 -0.7883 -0.9120 -0.6745
  843MPD2    H212392   1.628   0.376   0.125  3.3083 -1.7317 -2.4438
  843MPD2    H312393   1.810   0.512   0.041  0.1070  1.1436  0.7995
  843MPD2     N12394   1.522   0.800  17.530 -0.3430  0.9633 -0.7724
  843MPD2    H512395   1.606   0.856  17.526  0.4870 -0.1060  1.3883
  843MPD2    N112396   1.375   0.392   0.068 -0.0747 -0.2705  0.2812
  843MPD2    H712397   1.404   0.323   0.137 -4.0406 -0.2191  1.9804
  844MPD2     C12398   4.669   0.532  15.909 -0.0534  0.5377 -0.6834
  844MPD2    C112399   0.014   0.419  15.937 -0.7059 -0.2400 -0.4710
  844MPD2    C212400   0.105   0.406  16.043 -0.6157 -0.2821  0.6822
  844MPD2    C312401   0.123   0.517  16.122  0.4926  0.0799 -0.0936
  844MPD2    C412402   0.056   0.632  16.094  0.0067  0.2364  0.5532
  844MPD2    C512403   4.699   0.642  15.982 -0.1888  0.6090  0.1605
  844MPD2     H12404   0.164   0.316  16.053  1.9227  1.3363  0.4468
  844MPD2    H112405   0.073   0.719  16.157  0.9638 -1.6581  2.9057
  844MPD2    H212406   4.595   0.540  15.830  0.2474 -1.8895 -1.2129
  844MPD2    H312407   4.649   0.734  15.954  0.2585  0.6904 -0.3750
  844MPD2     N12408   0.214   0.507  16.236  0.3635 -0.3560  0.0960
  844MPD2    H512409   0.271   0.424  16.248 -0.0088 -0.4318  1.3702
  844MPD2    N112410   4.710   0.315  15.842  0.2193 -1.1589  0.5736
  844MPD2    H712411   4.655   0.344  15.762  2.9700  1.2315 -0.4756
  845MPD2     C12412   0.480   1.216  16.953 -0.2785 -0.2187 -0.0207
  845MPD2    C112413   0.356   1.200  16.896 -0.3564 -0.0246 -0.0326
  845MPD2    C212414   0.334   1.098  16.807 -0.1337  0.0827 -0.7746
  845MPD2    C312415   0.439   1.010  16.785  0.5984  0.5122 -0.7095
  845MPD2    C412416   0.565   1.041  16.834 -0.3599 -0.3755  0.2487
  845MPD2    C512417   0.582   1.137  16.924  0.7603 -0.6973  0.2959
  845MPD2     H12418   0.238   1.089  16.757 -0.0994  1.2720 -1.0388
  845MPD2    H112419   0.655   0.983  16.817  0.3214  0.8911 -0.4991
  845MPD2    H212420   0.503   1.301  17.017 -1.5803  0.4699 -0.4623
  845MPD2    H312421   0.676   1.148  16.977 -0.1625  3.4707  1.0625
  845MPD2     N12422   0.416   0.900  16.696 -0.2410  0.4713 -0.0841
  845MPD2    H512423   0.322   0.885  16.662  0.7950 -3.4083 -1.2537
  845MPD2    N112424   0.253   1.288  16.938  0.3294 -0.1887  0.1302
  845MPD2    H712425   0.280   1.347  17.016  0.1398 -1.2100  0.9552
  846MPD2     C12426   2.384   1.371  13.755 -0.6737  0.3402  0.3414
  846MPD2    C112427   2.282   1.336  13.674  0.2436 -0.6725 -0.2917
  846MPD2    C212428   2.156   1.304  13.725  0.0890  0.2036  0.6254
  846MPD2    C312429   2.132   1.314  13.861 -0.1331 -0.1769  0.4908
  846MPD2    C412430   2.245   1.344  13.945  0.3369  0.2073  0.4438
  846MPD2    C512431   2.367   1.361  13.890 -0.2536  0.1395  0.1730
  846MPD2     H12432   2.082   1.255  13.663  0.5909  2.3479 -1.6907
  846MPD2    H112433   2.240   1.345  14.053 -2.2132 -1.1302  0.3477
  846MPD2    H212434   2.484   1.393  13.717 -1.9116  1.4888 -2.2568
  846MPD2    H312435   2.451   1.371  13.959 -0.3489  0.4958  0.2399
  846MPD2     N12436   1.998   1.283  13.905 -0.0107 -0.4048  0.2927
  846MPD2    H512437   1.928   1.269  13.833 -1.4817  0.0584  1.6385
  846MPD2    N112438   2.315   1.330  13.536 -0.5479 -0.2851  0.5510
  846MPD2    H712439   2.408   1.368  13.523 -0.1892 -0.8948  1.4275
  847MPD2     C12440   2.305   2.812  13.498 -0.4427 -0.0586  0.1138
  847MPD2    C112441   2.344   2.843  13.625  0.5178  0.2962 -0.0673
  847MPD2    C212442   2.401   2.747  13.709 -0.2638  0.3039 -0.3674
  847MPD2    C312443   2.427   2.622  13.661  0.0804 -0.0271 -0.4982
  847MPD2    C412444   2.375   2.585  13.536 -0.2728 -0.2784 -0.2139
  847MPD2    C512445   2.309   2.679  13.463  0.5789  0.1097 -0.0850
  847MPD2     H12446   2.420   2.770  13.813  0.8723 -0.7175 -0.3476
  847MPD2    H112447   2.389   2.484  13.500 -0.3001 -1.2646  2.5523
  847MPD2    H212448   2.261   2.896  13.444  0.3286 -0.5236 -1.2387
  847MPD2    H312449   2.263   2.650  13.369  0.8857 -2.0725  0.4391
  847MPD2     N12450   2.482   2.535  13.752 -0.5526 -0.8613  0.5647
  847MPD2    H512451   2.513   2.571  13.842 -1.4407  1.5954 -0.1170
  847MPD2    N112452   2.325   2.962  13.691  0.2118 -0.0764  0.0037
  847MPD2    H712453   2.376   2.966  13.779  0.3653 -0.6071 -0.0551
  848MPD2     C12454   4.697   1.092  16.508  0.1671  0.2561  0.7731
  848MPD2    C112455   4.627   0.978  16.484 -0.7097  0.2739 -0.1040
  848MPD2    C212456   4.510   0.987  16.418  0.7274 -0.0641 -0.7333
  848MPD2    C312457   4.462   1.111  16.382 -0.3062 -0.1236  0.9393
  848MPD2    C412458   4.533   1.226  16.416 -0.0566  0.2564  0.0623
  848MPD2    C512459   4.657   1.219  16.470  0.3620 -0.5980 -0.5817
  848MPD2     H12460   4.458   0.892  16.405  0.8563 -0.1680 -0.4959
  848MPD2    H112461   4.500   1.328  16.396  2.6939  1.0566 -0.4531
  848MPD2    H212462   0.066   1.084  16.567  0.4784 -2.7545 -0.1007
  848MPD2    H312463   0.004   1.302  16.486 -0.0381 -0.1836 -1.0191
  848MPD2     N12464   4.332   1.134  16.332 -0.0654  0.2205 -0.4000
  848MPD2    H512465   4.289   1.226  16.340  0.6352  0.4684  0.4650
  848MPD2    N112466   4.670   0.854  16.526  0.9852 -0.4644  0.7602
  848MPD2    H712467   4.611   0.781  16.487  0.4075  0.3715  0.0700
  849MPD2     C12468   3.268   0.475  14.023 -0.2892 -0.8999  0.1206
  849MPD2    C112469   3.310   0.476  13.893  0.2593  0.7344 -0.3439
  849MPD2    C212470   3.330   0.356  13.833 -0.1262  0.3835 -0.2797
  849MPD2    C312471   3.323   0.239  13.903  0.5739  0.1055  0.0954
  849MPD2    C412472   3.273   0.234  14.031  0.0188 -0.2990 -0.0067
  849MPD2    C512473   3.233   0.355  14.081  0.2774 -0.4047  0.2095
  849MPD2     H12474   3.374   0.362  13.734 -0.3262  0.9593 -0.3335
  849MPD2    H112475   3.270   0.144  14.091 -1.4189 -0.3434 -0.1656
  849MPD2    H212476   3.240   0.562  14.081 -0.7366 -0.5650 -0.6005
  849MPD2    H312477   3.187   0.356  14.179 -0.4949 -4.7033 -0.1124
  849MPD2     N12478   3.386   0.120  13.853 -0.1397  0.5689 -0.1954
  849MPD2    H512479   3.407   0.041  13.913 -0.8573 -1.6723 -2.8799
  849MPD2    N112480   3.327   0.589  13.809 -0.3178  0.5507 -0.0857
  849MPD2    H712481   3.344   0.573  13.710  0.5411 -1.1267  0.3254
  850MPD2     C12482   1.859   3.587  14.331  0.2542 -0.2583 -0.2991
  850MPD2    C112483   1.863   3.681  14.430 -0.4475 -0.0672 -0.4366
  850MPD2    C212484   1.982   3.714  14.486 -0.8661 -0.1939 -0.0217
  850MPD2    C312485   2.092   3.635  14.453  0.8567 -0.0431 -0.0026
  850MPD2    C412486   2.091   3.551  14.342  0.1309  0.8631 -0.4560
  850MPD2    C512487   1.972   3.532  14.271 -0.1803  0.4444  0.6214
  850MPD2     H12488   1.992   3.785  14.568  3.0424  1.8839 -2.2938
  850MPD2    H112489   2.177   3.496  14.305  0.5567  0.6148  0.8922
  850MPD2    H212490   1.762   3.566  14.288  0.3236 -0.3922 -0.3893
  850MPD2    H312491   1.962   3.466  14.186  2.7659  2.4573 -1.2680
  850MPD2     N12492   2.223   3.634  14.513 -0.5258 -0.6670  0.2824
  850MPD2    H512493   2.292   3.576  14.467  1.2003 -0.9676  3.1915
  850MPD2    N112494   1.739   3.728  14.485 -0.2133  0.5290 -0.0811
  850MPD2    H712495   1.648   3.696  14.453  0.2274 -0.5946 -0.2166
  851MPD2     C12496   2.196   3.448  15.157 -0.6418 -0.1994 -0.3340
  851MPD2    C112497   2.154   3.436  15.024  0.3566 -1.0211 -0.3685
  851MPD2    C212498   2.201   3.334  14.949  0.2109  0.0413 -0.3274
  851MPD2    C312499   2.297   3.251  14.994 -0.0775 -0.2090  0.9628
  851MPD2    C412500   2.329   3.260  15.125 -0.1451 -0.1291 -0.8804
  851MPD2    C512501   2.290   3.361  15.200 -0.0241 -0.7687 -0.3315
  851MPD2     H12502   2.164   3.323  14.848  0.6345  1.1212 -0.5946
  851MPD2    H112503   2.395   3.196  15.183 -0.3728  0.3912 -0.0353
  851MPD2    H212504   2.160   3.531  15.217  0.9931 -0.6197  1.2402
  851MPD2    H312505   2.325   3.362  15.303 -0.7036 -0.0864 -0.1000
  851MPD2     N12506   2.346   3.153  14.904  0.6245  0.2777 -0.3111
  851MPD2    H512507   2.289   3.130  14.823  0.2684  0.3307 -0.0749
  851MPD2    N112508   2.063   3.532  14.976 -0.0910 -0.3351 -0.3192
  851MPD2    H712509   2.042   3.615  15.030 -0.7929  0.5781 -1.9891
  852MPD2     C12510   1.830   0.454   9.355 -0.0050  0.1950  0.2231
  852MPD2    C112511   1.895   0.402   9.463  0.3294 -0.9364  0.0636
  852MPD2    C212512   2.013   0.462   9.499  0.3930 -0.0354  0.3427
  852MPD2    C312513   2.070   0.562   9.428  0.7790  0.1416  0.0540
  852MPD2    C412514   2.005   0.601   9.313  0.6075 -0.0563 -0.2987
  852MPD2    C512515   1.881   0.550   9.283 -0.0256  0.8294 -0.3949
  852MPD2     H12516   2.075   0.407   9.569 -0.3116  0.1159  1.0865
  852MPD2    H112517   2.043   0.671   9.240 -3.2055  2.1170 -0.2043
  852MPD2    H212518   1.738   0.409   9.321  0.4638 -1.2259  0.8117
  852MPD2    H312519   1.836   0.585   9.191  0.8547  0.3466 -1.0074
  852MPD2     N12520   2.194   0.614   9.475 -0.0471  0.2533  0.0230
  852MPD2    H512521   2.240   0.576   9.558 -0.4785  0.6882  0.4529
  852MPD2    N112522   1.845   0.300   9.542  0.1123 -0.0286  0.3877
  852MPD2    H712523   1.902   0.271   9.621  1.0020  0.4029 -0.0984
  853MPD2     C12524   3.896   0.525  12.089 -0.0035  0.4516  0.0770
  853MPD2    C112525   3.787   0.610  12.047 -0.5992  0.1094  0.6910
  853MPD2    C212526   3.767   0.622  11.909 -0.0537 -0.4463  0.4153
  853MPD2    C312527   3.856   0.569  11.815  0.0055  0.7517 -0.5528
  853MPD2    C412528   3.956   0.490  11.861 -0.1095 -0.0337 -0.5363
  853MPD2    C512529   3.967   0.461  11.992  0.4497 -0.1973  0.6491
  853MPD2     H12530   3.684   0.679  11.871  0.6929 -0.3736 -1.0972
  853MPD2    H112531   4.018   0.435  11.792  0.6918  0.3631 -0.1266
  853MPD2    H212532   3.926   0.512  12.193 -0.6194  0.5700  0.2705
  853MPD2    H312533   4.046   0.394  12.022  0.5086 -0.6442 -0.5039
  853MPD2     N12534   3.857   0.596  11.678 -0.4849  0.4099  0.2232
  853MPD2    H512535   3.932   0.546  11.632 -0.1598  0.0528  1.1425
  853MPD2    N112536   3.706   0.680  12.139 -0.4087 -0.0722 -0.0506
  853MPD2    H712537   3.638   0.745  12.101 -0.7914  0.0248  0.7973
  854MPD2     C12538   0.330   0.290  12.410 -0.1997 -0.4021 -0.2795
  854MPD2    C112539   0.383   0.414  12.421  0.2132 -0.7426  0.8097
  854MPD2    C212540   0.510   0.431  12.476 -0.3527 -0.1217 -1.1168
  854MPD2    C312541   0.588   0.325  12.512  0.2573  0.1679  0.6010
  854MPD2    C412542   0.542   0.200  12.482  0.6322 -0.7049 -0.3409
  854MPD2    C512543   0.409   0.182  12.449  0.1562  0.1288  0.1174
  854MPD2     H12544   0.551   0.531  12.483  0.2296 -0.4458  0.1753
  854MPD2    H112545   0.597   0.107  12.487 -0.1745 -1.1155  1.1175
  854MPD2    H212546   0.224   0.283  12.388 -0.8236  1.1900  2.1941
  854MPD2    H312547   0.366   0.086  12.423  0.3092 -0.1727  0.9835
  854MPD2     N12548   0.711   0.338  12.567 -0.1152  0.5764 -0.2343
  854MPD2    H512549   0.766   0.253  12.569  0.2121  0.7659 -1.2359
  854MPD2    N112550   0.297   0.511  12.367  0.0101  0.0286 -0.1455
  854MPD2    H712551   0.221   0.476  12.309  0.8385  1.1872 -1.9534
  855MPD2     C12552   1.111   0.713  13.405 -0.0268 -0.3916  0.4513
  855MPD2    C112553   1.109   0.579  13.391 -0.0148 -0.7186 -0.4963
  855MPD2    C212554   1.090   0.518  13.265 -0.1280 -0.0867 -0.4906
  855MPD2    C312555   1.079   0.590  13.153  0.3336 -0.8333  0.7518
  855MPD2    C412556   1.072   0.727  13.170  0.8836 -0.2574 -0.4471
  855MPD2    C512557   1.099   0.788  13.291  0.1945  0.4518 -0.7235
  855MPD2     H12558   1.087   0.410  13.259 -0.2196 -0.2197  1.7945
  855MPD2    H112559   1.075   0.793  13.084 -0.5979 -0.2232 -0.4622
  855MPD2    H212560   1.110   0.769  13.497  1.6351 -1.4551  1.1219
  855MPD2    H312561   1.096   0.896  13.297  4.2691  0.5434 -0.2420
  855MPD2     N12562   1.060   0.540  13.022 -0.2276 -0.1534 -0.6490
  855MPD2    H512563   1.039   0.614  12.956  1.2432 -0.9335 -1.9675
  855MPD2    N112564   1.118   0.496  13.507  0.0869 -0.1466 -0.0166
  855MPD2    H712565   1.119   0.395  13.493  2.7620  0.0559 -1.2204
  856MPD2     C12566   2.548   1.701  13.901 -0.0386  0.8473 -0.2974
  856MPD2    C112567   2.666   1.777  13.882 -0.0200 -0.8261  0.1626
  856MPD2    C212568   2.667   1.887  13.791 -0.9218 -0.3252  0.1945
  856MPD2    C312569   2.559   1.922  13.713 -0.8871 -0.3826 -1.0541
  856MPD2    C412570   2.447   1.850  13.737 -0.6926 -0.4766  0.1193
  856MPD2    C512571   2.441   1.742  13.826  0.7900 -0.5573 -0.7922
  856MPD2     H12572   2.759   1.943  13.777 -0.8331 -0.0563  1.8498
  856MPD2    H112573   2.362   1.885  13.681 -0.2995  1.1948  0.5459
  856MPD2    H212574   2.533   1.620  13.972  0.7188  1.8002  0.9509
  856MPD2    H312575   2.348   1.687  13.828 -0.3244  1.4277  1.8176
  856MPD2     N12576   2.551   2.032  13.618  0.1039 -0.7689 -0.2071
  856MPD2    H512577   2.461   2.045  13.573 -0.4736 -4.7672 -0.2364
  856MPD2    N112578   2.773   1.745  13.962 -0.1979 -0.5060 -0.0923
  856MPD2    H712579   2.764   1.663  14.022  1.3553 -1.6713 -1.4540
  857MPD2     C12580   4.584   3.952  12.382  0.0772  0.7635  0.6009
  857MPD2    C112581   4.717   3.965  12.399  0.4594  0.5303  0.6146
  857MPD2    C212582   0.050   4.086  12.436 -0.3162 -0.1530  0.1987
  857MPD2    C312583   4.688   4.195  12.462  0.4267  0.1868 -0.5495
  857MPD2    C412584   4.549   4.180  12.437 -0.6732 -0.4613 -0.0624
  857MPD2    C512585   4.501   4.059  12.395 -0.2102 -0.2829  0.0222
  857MPD2     H12586   0.157   4.096  12.450 -0.4509  2.5619 -0.7058
  857MPD2    H112587   4.480   4.263  12.446 -1.3426 -0.9967 -0.2408
  857MPD2    H212588   4.544   3.859  12.343 -0.2779  1.0834  0.2096
  857MPD2    H312589   4.393   4.046  12.393 -0.2444 -0.0939  0.5864
  857MPD2     N12590   0.031   4.312  12.511 -0.6538 -0.0765  0.1699
  857MPD2    H512591   0.128   4.298  12.536 -0.1573  0.0428 -1.6207
  857MPD2    N112592   0.075   3.849  12.389 -0.0492 -0.3197  0.1441
  857MPD2    H712593   0.024   3.763  12.373 -0.9052  0.0358  0.9413
  858MPD2     C12594   4.690   2.528  16.287 -0.4008 -0.4448  0.5021
  858MPD2    C112595   0.079   2.607  16.252 -0.4448  0.0680 -0.4621
  858MPD2    C212596   0.087   2.733  16.310  0.1013  0.5312  0.3325
  858MPD2    C312597   4.717   2.786  16.401 -0.9376 -0.1578  0.6132
  858MPD2    C412598   4.601   2.709  16.429 -0.1361 -0.0901  0.3440
  858MPD2    C512599   4.586   2.586  16.367 -0.2754  0.4544 -0.1199
  858MPD2     H12600   0.170   2.798  16.288  0.8909  0.1140  2.0541
  858MPD2    H112601   4.531   2.735  16.507 -0.3440  2.1853 -0.5886
  858MPD2    H212602   4.688   2.423  16.260 -0.1591 -0.6369  1.2269
  858MPD2    H312603   4.500   2.524  16.392  0.7978 -0.9500  0.0926
  858MPD2     N12604   0.015   2.905  16.478  0.2961  0.1134 -0.4717
  858MPD2    H512605   4.662   2.913  16.546 -0.4373  0.9976 -1.3855
  858MPD2    N112606   0.178   2.553  16.167 -0.0772 -0.9108  0.2619
  858MPD2    H712607   0.177   2.451  16.161  1.6670 -0.8688 -0.7711
  859MPD2     C12608   3.606   4.535  14.508 -0.2261 -0.0331  0.7395
  859MPD2    C112609   3.680   4.562  14.619  0.2365 -0.3887  0.3158
  859MPD2    C212610   3.729   4.455  14.695 -0.4837 -0.4734 -0.4930
  859MPD2    C312611   3.692   4.327  14.658 -0.0472  0.2588 -0.9028
  859MPD2    C412612   3.607   4.305  14.547  0.5105 -0.1452 -0.1369
  859MPD2    C512613   3.565   4.411  14.475  0.4488  0.9886  0.1443
  859MPD2     H12614   3.802   4.463  14.775 -0.7003 -0.7703 -0.2658
  859MPD2    H112615   3.585   4.202  14.522 -1.7027  0.1952  0.3696
  859MPD2    H212616   3.558   4.616  14.454  1.0397 -0.9979 -1.8512
  859MPD2    H312617   3.493   4.399  14.394  2.2778 -3.1746 -0.8781
  859MPD2     N12618   3.753   4.212  14.709  0.0923 -0.0888 -0.1022
  859MPD2    H512619   3.728   4.126  14.662  1.3796  0.1417 -1.1980
  859MPD2    N112620   3.698   4.694  14.639 -0.1385 -0.8607 -0.3557
  859MPD2    H712621   3.634   0.031  14.586  0.2938  1.4569  1.6677
  860MPD2     C12622   1.950   4.647  11.224 -0.6463  0.2011  0.2065
  860MPD2    C112623   1.903   0.046  11.182 -0.4199  0.4964  0.3741
  860MPD2    C212624   1.797   0.106  11.254  0.0238 -0.3914  0.2196
  860MPD2    C312625   1.748   0.050  11.369  0.3062  0.1324  0.0538
  860MPD2    C412626   1.804   4.649  11.404  0.5854 -0.5446  0.1859
  860MPD2    C512627   1.899   4.586  11.332 -0.2298 -0.3596 -0.1366
  860MPD2     H12628   1.755   0.196  11.212 -0.3202 -0.1086  1.1644
  860MPD2    H112629   1.774   4.603  11.498  1.7022  0.4293  1.0132
  860MPD2    H212630   2.036   4.604  11.174 -2.4177 -0.1009 -2.6476
  860MPD2    H312631   1.930   4.487  11.362  1.2919  0.3829  0.7054
  860MPD2     N12632   1.636   0.110  11.432  0.6746 -0.5023 -0.2460
  860MPD2    H512633   1.618   0.206  11.404 -1.4743 -0.7758  0.2449
  860MPD2    N112634   1.962   0.128  11.085 -1.0269 -0.6313 -0.2735
  860MPD2    H712635   1.936   0.225  11.072  1.5423  0.2398  1.1429
  861MPD2     C12636   0.434   3.228  10.823 -0.0820 -0.1511 -0.5373
  861MPD2    C112637   0.500   3.332  10.879  0.7136 -0.5834 -0.0035
  861MPD2    C212638   0.493   3.459  10.827 -0.4744 -0.5200  0.3251
  861MPD2    C312639   0.414   3.487  10.715 -0.6490 -0.1376 -0.4189
  861MPD2    C412640   0.341   3.373  10.659  0.0252  1.0580  0.0612
  861MPD2    C512641   0.352   3.246  10.714  0.3305 -1.1557 -0.2341
  861MPD2     H12642   0.531   3.535  10.895 -1.5067  0.0303  0.2871
  861MPD2    H112643   0.291   3.381  10.563 -0.7498 -0.8319  0.2965
  861MPD2    H212644   0.442   3.128  10.866  0.2834 -0.4066 -1.2026
  861MPD2    H312645   0.301   3.161  10.670 -2.4111  0.4686 -0.1855
  861MPD2     N12646   0.384   3.614  10.662  0.1569 -0.1771  0.3255
  861MPD2    H512647   0.326   3.629  10.581  1.4252 -0.3982 -0.6203
  861MPD2    N112648   0.581   3.312  10.999  0.7934  0.2648 -1.0929
  861MPD2    H712649   0.589   3.398  11.053 -2.3750 -0.5925  0.7428
  862MPD2     C12650   0.476   3.905  10.069  0.0297 -0.1473 -0.0684
  862MPD2    C112651   0.534   3.850  10.183 -0.4769  0.0879  0.2372
  862MPD2    C212652   0.607   3.732  10.182 -0.7271  0.0394  0.2396
  862MPD2    C312653   0.629   3.669  10.062  0.2161 -0.6030  0.2918
  862MPD2    C412654   0.582   3.721   9.947 -0.0494 -0.5101 -0.2095
  862MPD2    C512655   0.505   3.832   9.954 -0.3328  0.0949 -0.0711
  862MPD2     H12656   0.664   3.687  10.262 -0.9382 -0.0145  0.3622
  862MPD2    H112657   0.595   3.664   9.856  2.3710  0.3241 -0.4017
  862MPD2    H212658   0.427   4.002  10.071  2.2213  0.9445  0.2093
  862MPD2    H312659   0.466   3.873   9.861  1.2771 -0.0134 -0.7901
  862MPD2     N12660   0.693   3.540  10.050  0.0956 -0.1102 -0.2491
  862MPD2    H512661   0.702   3.501   9.957 -1.1334  0.7331 -0.7205
  862MPD2    N112662   0.519   3.896  10.315  0.0120 -0.4529  0.6213
  862MPD2    H712663   0.543   3.825  10.382 -1.8974 -0.9061  0.8047
  863MPD2     C12664   3.368   2.374  16.839  0.3414 -0.0724 -0.4032
  863MPD2    C112665   3.324   2.246  16.857 -0.1274 -0.3490  0.9720
  863MPD2    C212666   3.379   2.169  16.961  0.6514  0.2560  0.3654
  863MPD2    C312667   3.470   2.225  17.051 -0.1990  0.5980 -0.1138
  863MPD2    C412668   3.505   2.354  17.038  0.2397 -0.0165  0.2632
  863MPD2    C512669   3.456   2.426  16.931  0.4072 -0.1594 -0.1430
  863MPD2     H12670   3.358   2.063  16.964  0.1054  0.3731  0.6948
  863MPD2    H112671   3.574   2.405  17.104 -2.4749  1.3760  2.0296
  863MPD2    H212672   3.350   2.428  16.747  1.4458 -1.0031 -1.1643
  863MPD2    H312673   3.497   2.526  16.921 -1.6130  0.6821  0.0969
  863MPD2     N12674   3.519   2.153  17.166 -0.5778  0.2809  0.8459
  863MPD2    H512675   3.587   2.212  17.213 -1.4261  3.0120 -1.3376
  863MPD2    N112676   3.240   2.196  16.758  0.3449  0.5267  0.1565
  863MPD2    H712677   3.218   2.256  16.679  1.4609 -0.7297 -1.0968
  864MPD2     C12678   3.511   3.520  16.698  1.2096  0.2500  0.7336
  864MPD2    C112679   3.573   3.417  16.624 -1.5387 -0.1836  0.6384
  864MPD2    C212680   3.673   3.443  16.528  0.2338  0.6914  0.6556
  864MPD2    C312681   3.724   3.567  16.523 -0.2148 -0.2252 -0.0780
  864MPD2    C412682   3.663   3.667  16.597  0.3187  0.0834 -0.0124
  864MPD2    C512683   3.556   3.645  16.689  0.8011  1.1935 -0.7431
  864MPD2     H12684   3.715   3.361  16.470  0.9978 -0.4029  2.7418
  864MPD2    H112685   3.704   3.766  16.600 -1.0164  0.6011  1.6123
  864MPD2    H212686   3.432   3.507  16.771 -0.6672 -2.1368 -1.7189
  864MPD2    H312687   3.515   3.734  16.736  1.4704  1.5860 -0.8997
  864MPD2     N12688   3.843   3.602  16.441  0.2129  0.4340 -0.2893
  864MPD2    H512689   3.879   3.697  16.442  1.7032 -0.1531  1.6366
  864MPD2    N112690   3.512   3.287  16.644  0.5966  0.6120 -0.2330
  864MPD2    H712691   3.441   3.277  16.716  0.9935 -0.4651  0.0126
  865MPD2     C12692   4.459   3.546  15.803  0.1591 -0.2902 -0.2465
  865MPD2    C112693   4.357   3.508  15.881  0.1018 -0.2071  0.0009
  865MPD2    C212694   4.268   3.606  15.930 -0.6510 -0.1536 -0.2346
  865MPD2    C312695   4.301   3.735  15.917 -0.6623 -0.2865 -0.3009
  865MPD2    C412696   4.405   3.767  15.831  0.2365  0.2942  0.0410
  865MPD2    C512697   4.493   3.673  15.786 -0.2257  0.8745 -0.5004
  865MPD2     H12698   4.174   3.576  15.974  0.4305 -2.4392  0.5591
  865MPD2    H112699   4.422   3.870  15.800  0.3604  0.9069  2.1054
  865MPD2    H212700   4.519   3.466  15.761 -2.2894 -2.6630  0.7916
  865MPD2    H312701   4.576   3.699  15.721  0.8591  2.9278  1.6906
  865MPD2     N12702   4.219   3.838  15.967 -0.2221  0.1835  0.8472
  865MPD2    H512703   4.220   3.922  15.911  1.6583 -0.5604 -0.2104
  865MPD2    N112704   4.338   3.371  15.892  0.5400 -0.6261  0.7472
  865MPD2    H712705   4.397   3.305  15.843  2.5950  0.7538  1.3428
  866MPD2     C12706   1.542   3.900  11.296  0.2785 -0.1697  0.2196
  866MPD2    C112707   1.491   3.797  11.229  0.6095  0.0266 -0.9311
  866MPD2    C212708   1.363   3.798  11.174 -1.1863 -0.2122  0.1717
  866MPD2    C312709   1.278   3.904  11.192 -0.1890  0.3440 -0.6933
  866MPD2    C412710   1.331   4.007  11.271 -0.0387 -0.0847 -0.2265
  866MPD2    C512711   1.460   4.008  11.321 -0.1771  0.3899  0.7672
  866MPD2     H12712   1.324   3.714  11.119 -0.3157 -0.2521 -0.3711
  866MPD2    H112713   1.270   4.095  11.290 -0.4045 -0.3237 -0.2942
  866MPD2    H212714   1.648   3.911  11.314 -0.3149  0.7720  3.0781
  866MPD2    H312715   1.489   4.096  11.378  1.1764  0.7209 -0.4406
  866MPD2     N12716   1.148   3.915  11.139 -0.7575 -0.4249  0.1923
  866MPD2    H512717   1.083   3.983  11.179  1.4440  0.3555  2.4376
  866MPD2    N112718   1.586   3.697  11.211 -0.0438  0.3418 -0.1618
  866MPD2    H712719   1.681   3.714  11.241  0.0024  0.7483 -0.5424
  867MPD2     C12720   2.199   2.553  17.142 -0.1313  0.3145  0.8180
  867MPD2    C112721   2.235   2.441  17.215  0.1036 -0.2258  0.3936
  867MPD2    C212722   2.177   2.401  17.334 -0.2533  0.0426 -0.6757
  867MPD2    C312723   2.062   2.469  17.364  0.1710  0.0928  0.3262
  867MPD2    C412724   2.022   2.583  17.286 -0.1749 -0.7770  0.3838
  867MPD2    C512725   2.094   2.627  17.177 -0.0802 -0.1110  0.3461
  867MPD2     H12726   2.205   2.307  17.378  1.2393  1.3467  1.1599
  867MPD2    H112727   1.933   2.642  17.306  0.5689  1.1104 -1.9288
  867MPD2    H212728   2.261   2.577  17.057  2.0593  0.9441  2.5883
  867MPD2    H312729   2.050   2.695  17.105 -1.9254  1.4165  2.9225
  867MPD2     N12730   1.986   2.432  17.477 -0.2564  0.2326  0.1103
  867MPD2    H512731   1.895   2.477  17.489 -0.5048 -0.6107  1.4621
  867MPD2    N112732   2.348   2.375  17.163  0.6020 -0.1794 -0.2023
  867MPD2    H712733   2.397   2.419  17.086 -0.6907 -0.7159 -1.3347
  868MPD2     C12734   4.408   1.977  12.933  0.1492 -0.2899 -0.4600
  868MPD2    C112735   4.513   2.030  13.006  0.5558  0.0324  0.3099
  868MPD2    C212736   4.485   2.081  13.129  0.0372  0.0704 -0.2241
  868MPD2    C312737   4.354   2.093  13.179  0.0135  0.5285  0.4923
  868MPD2    C412738   4.252   2.048  13.093  0.0986  0.1833 -0.3205
  868MPD2    C512739   4.280   1.992  12.972  0.5564 -0.3372  0.2692
  868MPD2     H12740   4.566   2.111  13.195 -0.4879  1.5839 -0.2565
  868MPD2    H112741   4.148   2.045  13.122  0.3496  1.6743  0.7174
  868MPD2    H212742   4.427   1.913  12.848 -1.2332 -2.7398  1.0922
  868MPD2    H312743   4.202   1.953  12.908 -0.4468 -0.1653  1.3884
  868MPD2     N12744   4.338   2.163  13.296  0.8631 -0.1703 -0.9153
  868MPD2    H512745   4.424   2.205  13.330  1.2678 -3.2938  1.8358
  868MPD2    N112746   4.642   1.990  12.962 -0.4767  0.1495  0.3251
  868MPD2    H712747   4.638   1.926  12.883  0.1538 -1.2320  1.4402
  869MPD2     C12748   1.935   0.116   1.512 -0.2893 -0.2640 -0.5483
  869MPD2    C112749   1.806   0.081   1.522  0.7872 -0.4671 -0.5583
  869MPD2    C212750   1.716   0.122   1.422  0.0127 -0.0803 -0.4300
  869MPD2    C312751   1.760   0.213   1.331  0.5708  0.3646  0.4850
  869MPD2    C412752   1.888   0.261   1.335  0.3388 -0.2325  0.3909
  869MPD2    C512753   1.976   0.218   1.429  0.1887  0.2613  0.2750
  869MPD2     H12754   1.611   0.101   1.439  0.1372 -0.3670  0.0017
  869MPD2    H112755   1.913   0.329   1.255 -1.0285  0.2133  0.3459
  869MPD2    H212756   2.004   0.071   1.583 -0.1172 -0.3086 -0.7427
  869MPD2    H312757   2.080   0.246   1.435 -0.3470  2.6088 -1.3113
  869MPD2     N12758   1.681   0.277   1.239 -0.4921  0.1524  0.0101
  869MPD2    H512759   1.715   0.356   1.186  0.6097  0.7337  1.5846
  869MPD2    N112760   1.766   4.707   1.617  0.0548 -0.1823  0.0945
  869MPD2    H712761   1.824   4.686   1.698  1.0327  0.3397 -0.4726
  870MPD2     C12762   0.751   3.078   1.416 -0.3968 -0.5181 -0.7597
  870MPD2    C112763   0.869   3.125   1.470 -0.0734 -0.3335 -0.2936
  870MPD2    C212764   0.886   3.257   1.444  0.1955 -0.3006  0.5602
  870MPD2    C312765   0.813   3.340   1.359  0.4607 -0.0941 -0.3501
  870MPD2    C412766   0.697   3.281   1.308  0.1636  0.0488  0.6455
  870MPD2    C512767   0.668   3.147   1.340  0.1023 -0.1765 -0.4112
  870MPD2     H12768   0.978   3.302   1.478 -2.0557  4.2671  0.6281
  870MPD2    H112769   0.634   3.337   1.241  0.6916 -0.7900 -0.5449
  870MPD2    H212770   0.719   2.984   1.459 -1.8671  0.2142 -0.2550
  870MPD2    H312771   0.575   3.101   1.308 -1.2977  1.4889  1.2962
  870MPD2     N12772   0.862   3.469   1.336 -0.2211 -0.4503 -0.4562
  870MPD2    H512773   0.947   3.488   1.388 -0.1713 -1.5044 -0.1431
  870MPD2    N112774   0.948   3.043   1.551  0.5377  0.2870 -0.2488
  870MPD2    H712775   0.911   2.949   1.561  1.3856  0.1643  1.6292
  871MPD2     C12776   1.825   2.874  16.262  0.7902  0.4299 -0.4017
  871MPD2    C112777   1.761   2.837  16.383  0.1544  0.7802 -0.1339
  871MPD2    C212778   1.775   2.707  16.428  0.0668  0.0655  0.0621
  871MPD2    C312779   1.859   2.612  16.362 -0.1645 -0.0434  0.2858
  871MPD2    C412780   1.933   2.651  16.250 -0.3151  0.6859  0.1634
  871MPD2    C512781   1.905   2.776  16.197 -0.2550 -0.8045  0.1876
  871MPD2     H12782   1.737   2.676  16.525 -0.8845  0.7810 -0.0907
  871MPD2    H112783   1.979   2.574  16.190 -0.1744  1.0524 -0.1949
  871MPD2    H212784   1.801   2.968  16.214 -0.4015  0.5172  0.3717
  871MPD2    H312785   1.933   2.794  16.094  0.6168 -1.1758  0.3531
  871MPD2     N12786   1.860   2.482  16.418 -0.3235  0.1612  0.9642
  871MPD2    H512787   1.803   2.466  16.501 -2.0411 -0.7540 -0.4067
  871MPD2    N112788   1.694   2.941  16.455  0.2121  0.3970 -0.2627
  871MPD2    H712789   1.703   3.036  16.420 -1.6788  0.9403  0.7400
  872MPD2     C12790   2.562   1.033  13.458 -0.0925 -0.2946  0.3050
  872MPD2    C112791   2.611   1.102  13.563  0.3148 -0.1824  0.9417
  872MPD2    C212792   2.556   1.075  13.693 -0.4058 -0.4186  0.0961
  872MPD2    C312793   2.441   1.002  13.710  0.3108  0.2059  0.1410
  872MPD2    C412794   2.385   0.938  13.603  0.5115 -0.0220 -0.4985
  872MPD2    C512795   2.446   0.954  13.476  0.4277  0.1377 -0.0393
  872MPD2     H12796   2.604   1.127  13.775 -1.1750 -0.9446  0.8767
  872MPD2    H112797   2.293   0.881  13.605  1.6534 -1.9170 -1.0193
  872MPD2    H212798   2.599   1.047  13.357  3.6306 -1.8758  1.4227
  872MPD2    H312799   2.396   0.908  13.392 -0.1150 -0.1278  0.4367
  872MPD2     N12800   2.379   0.981  13.832 -0.5180  0.6195  0.2654
  872MPD2    H512801   2.294   0.926  13.826  1.0209 -1.9724  2.2621
  872MPD2    N112802   2.725   1.193  13.556 -0.7891 -0.0107 -0.1692
  872MPD2    H712803   2.757   1.234  13.642  1.0215 -1.4989 -0.1360
  873MPD2     C12804   0.772   0.569   0.983  0.2142  1.1988 -0.3291
  873MPD2    C112805   0.651   0.549   0.922  0.1490 -0.7560 -0.5421
  873MPD2    C212806   0.618   0.414   0.891 -0.1636  0.4111 -0.1249
  873MPD2    C312807   0.708   0.314   0.915 -0.2162 -0.2923 -0.0742
  873MPD2    C412808   0.826   0.347   0.982  0.3327 -0.1347  0.4391
  873MPD2    C512809   0.863   0.473   1.000  1.1164  0.2031 -0.6139
  873MPD2     H12810   0.524   0.392   0.841 -0.3945 -0.2960  0.6350
  873MPD2    H112811   0.899   0.269   0.999  2.5182  1.1865 -2.7918
  873MPD2    H212812   0.786   0.667   1.027  0.5351 -0.2834  2.8789
  873MPD2    H312813   0.952   0.494   1.058  0.9801  1.3946 -0.8209
  873MPD2     N12814   0.680   0.177   0.887 -0.1482 -0.1404 -0.3580
  873MPD2    H512815   0.750   0.114   0.926 -0.2581 -0.8424 -1.2985
  873MPD2    N112816   0.570   0.662   0.895 -0.1982  0.1371 -0.2069
  873MPD2    H712817   0.609   0.752   0.920  0.3064 -0.5918  1.6606
  874MPD2     C12818   3.338   0.800  16.046  0.0121 -0.0034  0.2145
  874MPD2    C112819   3.446   0.719  16.057  0.4683  0.1967 -0.5098
  874MPD2    C212820   3.556   0.782  16.115  0.0528  0.5977  0.2478
  874MPD2    C312821   3.558   0.909  16.154  0.0380 -0.3110  0.4809
  874MPD2    C412822   3.445   0.987  16.138 -0.4514 -0.0630  0.5009
  874MPD2    C512823   3.338   0.929  16.085  1.0101  0.8363 -0.1044
  874MPD2     H12824   3.646   0.722  16.125  0.1349  0.7644  0.5017
  874MPD2    H112825   3.439   1.091  16.167  1.1741 -0.8553  3.6582
  874MPD2    H212826   3.256   0.758  15.989 -0.4396 -1.9963  2.3346
  874MPD2    H312827   3.258   1.000  16.068  2.0260  1.8739 -0.5681
  874MPD2     N12828   3.667   0.970  16.224  0.7513  0.2461 -0.1907
  874MPD2    H512829   3.649   1.064  16.260 -0.7810 -0.3468  0.5840
  874MPD2    N112830   3.446   0.586  16.002  0.5552 -0.3166  0.3378
  874MPD2    H712831   3.356   0.548  15.975 -0.1607  1.5873  0.0922
  875MPD2     C12832   0.747   4.034  14.333  0.3237 -1.1912  0.1508
  875MPD2    C112833   0.628   4.000  14.392  0.5157 -0.2007 -0.8328
  875MPD2    C212834   0.603   4.035  14.525 -0.1816 -0.3473 -0.1384
  875MPD2    C312835   0.698   4.101  14.606  0.6865 -0.6390 -0.4548
  875MPD2    C412836   0.819   4.119  14.552  0.1395 -0.1265 -1.1202
  875MPD2    C512837   0.837   4.105  14.414  0.3817 -0.0439 -0.5739
  875MPD2     H12838   0.503   4.019  14.564  0.7058 -1.8181  1.5736
  875MPD2    H112839   0.888   4.177  14.611  0.2067 -0.5850 -0.7504
  875MPD2    H212840   0.770   3.999  14.233 -0.1853 -0.8370 -0.0902
  875MPD2    H312841   0.937   4.114  14.374  0.7427 -2.2905 -0.1510
  875MPD2     N12842   0.665   4.152  14.733  0.5204 -0.7592 -0.0739
  875MPD2    H512843   0.737   4.205  14.781 -0.6966 -0.8246  1.7909
  875MPD2    N112844   0.513   3.948  14.327 -0.3058  0.3149  0.3370
  875MPD2    H712845   0.430   3.949  14.387 -1.3141  2.1912 -1.1213
  876MPD2     C12846   3.650   0.034  15.530 -0.0729 -0.4510  0.1670
  876MPD2    C112847   3.771   0.084  15.578 -0.7780  0.3132  0.0627
  876MPD2    C212848   3.834   0.022  15.687 -0.1099 -0.5887 -0.3217
  876MPD2    C312849   3.771   4.633  15.742  0.2959 -0.4217  0.4704
  876MPD2    C412850   3.649   4.582  15.692  0.4305 -0.8568 -0.2417
  876MPD2    C512851   3.593   4.636  15.580 -0.0210 -0.4228  0.0076
  876MPD2     H12852   3.928   0.059  15.724  0.5951 -0.3993 -2.3067
  876MPD2    H112853   3.614   4.484  15.722  0.1681 -1.1449 -1.4815
  876MPD2    H212854   3.614   0.088  15.443 -0.8272 -2.4688 -0.7856
  876MPD2    H312855   3.508   4.588  15.532  0.6636 -1.0150 -0.6271
  876MPD2     N12856   3.844   4.575  15.846 -0.2709 -0.0387  0.1640
  876MPD2    H512857   3.934   4.616  15.868 -1.0894  2.2788 -0.8654
  876MPD2    N112858   3.817   0.207  15.521  0.0304 -0.0202  0.2168
  876MPD2    H712859   3.789   0.243  15.430  1.5521 -1.4669 -0.8292
  877MPD2     C12860   3.652   0.845  15.116  0.5315  1.0603 -0.0887
  877MPD2    C112861   3.769   0.771  15.084 -0.5255  0.0695  0.0123
  877MPD2    C212862   3.821   0.759  14.960 -0.6538  0.0071  0.1118
  877MPD2    C312863   3.760   0.824  14.857 -0.0327 -0.3897 -0.9077
  877MPD2    C412864   3.634   0.887  14.877  0.9915 -0.8846 -0.0231
  877MPD2    C512865   3.580   0.894  15.006 -0.2301 -0.8098  0.4265
  877MPD2     H12866   3.917   0.708  14.956  1.1892  3.4132  1.2307
  877MPD2    H112867   3.574   0.927  14.796  0.0300 -0.6045  0.8197
  877MPD2    H212868   3.612   0.860  15.216 -0.5617 -1.5279 -0.1418
  877MPD2    H312869   3.493   0.952  15.034  1.0484  1.1734  0.3270
  877MPD2     N12870   3.813   0.834  14.726 -0.1674  0.4939  0.0804
  877MPD2    H512871   3.746   0.873  14.660  0.0075  1.5003  0.4966
  877MPD2    N112872   3.849   0.716  15.189  0.4432  0.5902 -0.2421
  877MPD2    H712873   3.941   0.681  15.164  0.7946 -0.1932  2.2143
  878MPD2     C12874   4.033   0.386  13.705 -0.8407  0.2677  0.0948
  878MPD2    C112875   4.025   0.460  13.589 -0.2580 -0.2067  0.2703
  878MPD2    C212876   3.920   0.553  13.574 -0.0999  0.6791  0.8274
  878MPD2    C312877   3.843   0.590  13.688 -0.6204  0.1985  0.4237
  878MPD2    C412878   3.856   0.526  13.806 -1.1232  0.8611 -0.2806
  878MPD2    C512879   3.956   0.425  13.811 -0.2079  0.2241  0.5137
  878MPD2     H12880   3.897   0.600  13.479  2.9005  2.1927  0.8414
  878MPD2    H112881   3.787   0.533  13.889 -1.8582  0.8523 -0.8875
  878MPD2    H212882   4.103   0.304  13.716  1.6034  2.4000  0.2735
  878MPD2    H312883   3.972   0.372  13.904  1.9467 -0.6420 -0.3507
  878MPD2     N12884   3.738   0.690  13.693  0.3562 -0.1119 -0.2131
  878MPD2    H512885   3.681   0.689  13.777 -2.2850  1.0014 -1.9659
  878MPD2    N112886   4.109   0.428  13.481  0.5801  0.2438  0.0311
  878MPD2    H712887   4.163   0.342  13.482 -3.0351 -2.0329  0.7115
  879MPD2     C12888   3.815   2.169  16.934 -0.6060 -0.0149  0.1465
  879MPD2    C112889   3.874   2.063  17.004  0.2137 -0.0763 -0.3127
  879MPD2    C212890   3.816   1.940  17.005  0.0074 -0.2204  0.0807
  879MPD2    C312891   3.709   1.920  16.920 -0.0132 -0.1547 -0.0378
  879MPD2    C412892   3.660   2.018  16.837 -0.5007 -0.3328  0.5661
  879MPD2    C512893   3.714   2.145  16.849 -0.4684 -0.0961 -0.2715
  879MPD2     H12894   3.869   1.863  17.061 -1.3414 -0.6760  0.7125
  879MPD2    H112895   3.578   2.006  16.767 -1.7225 -0.4879  2.0186
  879MPD2    H212896   3.851   2.272  16.937 -0.7753  0.0054  1.5769
  879MPD2    H312897   3.672   2.225  16.790 -1.1454 -1.5741 -1.8029
  879MPD2     N12898   3.651   1.791  16.907 -0.1268 -0.2742  0.0820
  879MPD2    H512899   3.584   1.782  16.831  1.4222 -1.5992 -1.1277
  879MPD2    N112900   3.996   2.094  17.068  0.3902  1.1564  0.5623
  879MPD2    H712901   4.030   2.187  17.045  0.7243  1.3704  1.9225
  880MPD2     C12902   0.552   3.259   0.354 -0.2698  0.1631  0.7196
  880MPD2    C112903   0.618   3.360   0.418 -0.0172 -0.2118 -0.2916
  880MPD2    C212904   0.661   3.339   0.547 -0.1305 -0.7083  0.4382
  880MPD2    C312905   0.624   3.223   0.620  1.4724 -0.4275 -0.0912
  880MPD2    C412906   0.550   3.127   0.557 -0.0805  0.1577 -0.6644
  880MPD2    C512907   0.522   3.145   0.426  0.6261 -0.1252 -0.4508
  880MPD2     H12908   0.736   3.397   0.598  2.1977 -1.6425 -1.9239
  880MPD2    H112909   0.508   3.036   0.598 -2.4732  0.7876 -1.7341
  880MPD2    H212910   0.518   3.262   0.251 -0.2461  1.6446  0.7586
  880MPD2    H312911   0.460   3.071   0.376  2.1107 -0.8349 -1.2458
  880MPD2     N12912   0.667   3.216   0.753  0.5248  0.1377 -0.2549
  880MPD2    H512913   0.737   3.285   0.777  1.2036 -0.9696  1.0026
  880MPD2    N112914   0.656   3.474   0.338  0.6307  0.0314 -0.0286
  880MPD2    H712915   0.632   3.469   0.239 -1.8723 -1.0739  0.6252
  881MPD2     C12916   0.413   3.632  17.249 -0.6977  0.9272  0.0841
  881MPD2    C112917   0.533   3.694  17.235  0.3846 -0.0750 -0.8852
  881MPD2    C212918   0.602   3.706  17.359  0.0547  0.6864  0.6786
  881MPD2    C312919   0.537   3.702  17.487 -0.7402  0.1435  0.0848
  881MPD2    C412920   0.408   3.657  17.491  0.1646  0.2497 -0.1165
  881MPD2    C512921   0.351   3.623  17.374  0.2343  0.3100 -0.0075
  881MPD2     H12922   0.708   3.725  17.353  0.3901 -1.4316 -0.3473
  881MPD2    H112923   0.352   3.667  17.583  1.6724 -2.3039  1.0770
  881MPD2    H212924   0.362   3.612  17.156  2.2302  0.8090 -1.5228
  881MPD2    H312925   0.250   3.584  17.380  0.3902  0.0480  0.9319
  881MPD2     N12926   0.591   3.735  17.611  0.4183 -0.5279  0.0207
  881MPD2    H512927   0.536   3.714   0.007 -0.8212 -1.7684 -1.1133
  881MPD2    N112928   0.602   3.682  17.111  0.2304  0.3230  0.1106
  881MPD2    H712929   0.559   3.657  17.023 -0.8058  0.3954  0.5942
  882MPD2     C12930   3.923   0.934  13.894  0.2267  0.0296  0.5142
  882MPD2    C112931   3.835   0.937  13.995  0.0089  0.4416  0.1916
  882MPD2    C212932   3.724   1.019  13.981 -0.1207 -0.3705  0.4585
  882MPD2    C312933   3.694   1.084  13.867  0.5543  0.9190 -0.2264
  882MPD2    C412934   3.782   1.081  13.760 -0.0690  0.0754 -0.1688
  882MPD2    C512935   3.893   1.004  13.780 -0.0033  0.5254 -0.7072
  882MPD2     H12936   3.659   1.024  14.067 -0.1400 -2.1094  0.5394
  882MPD2    H112937   3.768   1.129  13.664  3.1034  0.9510 -0.2044
  882MPD2    H212938   4.016   0.879  13.897  0.5464  0.4357 -1.3424
  882MPD2    H312939   3.964   0.996  13.698 -0.9833 -2.3747 -1.2974
  882MPD2     N12940   3.576   1.161  13.852  0.2997 -0.6695 -0.2476
  882MPD2    H512941   3.568   1.205  13.761 -0.1247  0.6818  0.4584
  882MPD2    N112942   3.866   0.863  14.112  0.9188  0.3579  0.1019
  882MPD2    H712943   3.946   0.801  14.109  1.0545  0.6234 -1.5471
  883MPD2     C12944   1.003   0.676  15.986  0.3087 -0.0003 -0.2673
  883MPD2    C112945   1.071   0.778  15.930 -0.1207 -0.0424  0.4037
  883MPD2    C212946   1.192   0.828  15.984  0.0882 -0.0814  0.8274
  883MPD2    C312947   1.232   0.776  16.098 -0.9108  0.3774 -0.4267
  883MPD2    C412948   1.169   0.677  16.166 -0.4836 -0.3599  0.5466
  883MPD2    C512949   1.055   0.622  16.108 -0.1464 -0.7501 -0.5283
  883MPD2     H12950   1.243   0.910  15.934  1.0974  0.0414  2.0703
  883MPD2    H112951   1.196   0.637  16.263  0.8268 -1.4089 -0.2598
  883MPD2    H212952   0.917   0.631  15.937 -1.3003  3.6739 -0.7692
  883MPD2    H312953   0.998   0.539  16.148 -3.1058  1.8267  0.6672
  883MPD2     N12954   1.353   0.822  16.140  0.4014  0.2754  0.0043
  883MPD2    H512955   1.404   0.889  16.084  0.3124  0.1146 -0.2681
  883MPD2    N112956   1.023   0.848  15.821 -0.2255  0.2156 -0.4313
  883MPD2    H712957   1.087   0.919  15.786 -0.4263  0.8847  0.5473
  884MPD2     C12958   2.881   1.653  15.321  0.0713  0.4617 -0.3717
  884MPD2    C112959   2.931   1.722  15.207  0.0500 -0.3837 -0.5685
  884MPD2    C212960   2.879   1.847  15.177  0.0103  0.4391 -0.3831
  884MPD2    C312961   2.785   1.902  15.262  0.0989  0.2387 -0.0183
  884MPD2    C412962   2.741   1.836  15.378 -0.0215  0.1777  0.1999
  884MPD2    C512963   2.795   1.712  15.403  0.5933  0.0343 -0.2900
  884MPD2     H12964   2.901   1.896  15.083  0.2448 -0.1258 -0.6265
  884MPD2    H112965   2.681   1.884  15.454  0.0705  1.2267 -0.3824
  884MPD2    H212966   2.903   1.547  15.331 -0.7889  0.1672 -1.4954
  884MPD2    H312967   2.751   1.659  15.487 -0.5420  0.4878 -0.5992
  884MPD2     N12968   2.736   2.035  15.243  0.4285 -0.2959 -0.5033
  884MPD2    H512969   2.775   2.078  15.160 -0.5639  0.3409 -0.6383
  884MPD2    N112970   3.004   1.654  15.105  0.4786  0.1238  0.6450
  884MPD2    H712971   3.011   1.708  15.019  1.6275 -0.7911  0.1733
  885MPD2     C12972   1.022   1.881  17.645 -0.3458 -0.5579  0.2077
  885MPD2    C112973   1.139   1.826  17.602 -0.5613 -0.5491 -0.1887
  885MPD2    C212974   1.187   1.850  17.470  0.4549 -0.3853 -0.1872
  885MPD2    C312975   1.130   1.948  17.395 -0.1766 -0.0351  0.8008
  885MPD2    C412976   1.022   2.023  17.447 -0.6166  0.0815  0.2514
  885MPD2    C512977   0.967   1.983  17.571 -0.0184 -0.2628 -0.5860
  885MPD2     H12978   1.284   1.820  17.431  0.3772 -0.0100 -0.6683
  885MPD2    H112979   0.964   2.099  17.397 -0.8314 -0.7583 -0.7789
  885MPD2    H212980   0.977   1.849   0.051  0.6708  0.9011  1.2110
  885MPD2    H312981   0.879   2.032  17.611 -1.3889 -2.3144 -1.0940
  885MPD2     N12982   1.186   1.982  17.271  0.6520  0.4235  0.8199
  885MPD2    H512983   1.255   1.924  17.225 -0.0918 -0.2135  0.5040
  885MPD2    N112984   1.212   1.750   0.012 -0.0218 -0.1959  0.0894
  885MPD2    H712985   1.176   1.744   0.106 -0.2113 -0.6236 -0.0119
  886MPD2     C12986   2.404   0.415  15.206  0.0035 -0.4503  0.7365
  886MPD2    C112987   2.541   0.419  15.249  0.8022  0.7429  0.3886
  886MPD2    C212988   2.618   0.530  15.205  0.3255 -0.5578  0.0219
  886MPD2    C312989   2.559   0.630  15.131  0.2678  0.0188 -0.0520
  886MPD2    C412990   2.427   0.619  15.093  0.0273 -0.1421 -0.1857
  886MPD2    C512991   2.350   0.512  15.132  0.1754 -0.0031 -0.0511
  886MPD2     H12992   2.723   0.522  15.229  0.3548 -1.7636 -0.5115
  886MPD2    H112993   2.378   0.690  15.026  0.2507  1.8746  1.8055
  886MPD2    H212994   2.333   0.341  15.243  2.1049 -3.4016 -1.1206
  886MPD2    H312995   2.245   0.503  15.105  0.4061 -0.1881 -0.8853
  886MPD2     N12996   2.625   0.749  15.083  0.1634 -0.4428 -0.3524
  886MPD2    H512997   2.574   0.800  15.012 -0.5536 -1.4310 -0.5581
  886MPD2    N112998   2.601   0.303  15.317  0.6463  0.2223 -0.5270
  886MPD2    H712999   2.694   0.324  15.352  0.1968 -0.1520  0.8951
  887MPD2     C13000   3.241   0.157  15.602 -0.1851  0.3286  0.5112
  887MPD2    C113001   3.142   0.250  15.584 -0.2186  0.8803 -0.3434
  887MPD2    C213002   3.160   0.385  15.584 -0.8724  0.3711  0.2227
  887MPD2    C313003   3.289   0.430  15.617  0.0266 -0.8857 -0.3263
  887MPD2    C413004   3.393   0.342  15.625 -0.2314  0.0777  0.4753
  887MPD2    C513005   3.370   0.204  15.625 -0.1519 -0.5020  0.6345
  887MPD2     H13006   3.082   0.455  15.556  0.3180  0.8771 -1.8585
  887MPD2    H113007   3.495   0.371  15.647 -0.0985  0.1502 -0.2394
  887MPD2    H213008   3.226   0.051  15.614 -1.3207  0.4248 -0.0806
  887MPD2    H313009   3.460   0.144  15.638  0.3788  0.2771  0.5759
  887MPD2     N13010   3.306   0.572  15.614 -0.0900 -0.2465  0.1502
  887MPD2    H513011   3.216   0.618  15.609 -0.4938 -0.8233  2.3337
  887MPD2    N113012   3.011   0.209  15.557 -0.3832 -0.3887 -0.1988
  887MPD2    H713013   2.955   0.287  15.523  1.0243  0.3977 -0.6829
  888MPD2     C13014   0.266   0.469  14.235 -0.3015  0.4434  0.4392
  888MPD2    C113015   0.314   0.483  14.358  0.2447 -0.2070  0.2894
  888MPD2    C213016   0.417   0.577  14.383 -0.4131  0.3587  0.0672
  888MPD2    C313017   0.467   0.655  14.283  0.4345  0.6748 -0.4152
  888MPD2    C413018   0.413   0.640  14.158 -0.2368 -0.1039  0.4335
  888MPD2    C513019   0.312   0.546  14.141 -0.2572  0.0737  0.2032
  888MPD2     H13020   0.470   0.568  14.476  0.4508 -0.5683 -0.5197
  888MPD2    H113021   0.453   0.684  14.067  0.8848 -1.2073  0.3879
  888MPD2    H213022   0.200   0.390  14.202 -1.0898  0.6690  1.4518
  888MPD2    H313023   0.267   0.525  14.044 -1.0497  1.4397  0.2652
  888MPD2     N13024   0.558   0.761  14.309  0.2746 -0.1384  0.4011
  888MPD2    H513025   0.594   0.765  14.404 -1.0786 -0.2135  0.9250
  888MPD2    N113026   0.275   0.403  14.463  0.2883  0.5785 -0.1252
  888MPD2    H713027   0.320   0.420  14.552 -2.0069  0.5859  1.0494
  889MPD2     C13028   4.674   0.337  12.346  0.5729 -0.8283 -0.4736
  889MPD2    C113029   4.706   0.329  12.480  0.1954  0.0837 -0.1919
  889MPD2    C213030   4.673   0.443  12.553  0.5912 -0.5348 -0.3855
  889MPD2    C313031   4.630   0.555  12.494  0.1335 -0.5361 -0.0640
  889MPD2    C413032   4.613   0.559  12.365 -0.4821  0.2959 -0.4040
  889MPD2    C513033   4.636   0.454  12.292  0.3915  0.6287  0.4642
  889MPD2     H13034   4.672   0.433  12.661 -0.3040 -1.2566 -0.4586
  889MPD2    H113035   4.584   0.651  12.315  2.5026  0.8980 -1.0149
  889MPD2    H213036   4.700   0.253  12.283 -0.5695 -0.9914 -0.7235
  889MPD2    H313037   4.602   0.461  12.190  1.6189  0.8793  0.0744
  889MPD2     N13038   4.597   0.657  12.589  0.8707  0.4484  0.4929
  889MPD2    H513039   4.606   0.645  12.689  1.0437  1.1306  0.5603
  889MPD2    N113040   0.003   0.196  12.532 -0.5913 -0.4136  0.5916
  889MPD2    H713041   0.022   0.136  12.452  1.3879 -1.4657  1.8436
  890MPD2     C13042   4.256   1.412  15.016  0.3633  0.1305  0.3207
  890MPD2    C113043   4.240   1.517  15.109  0.4762  0.0764 -0.2868
  890MPD2    C213044   4.253   1.475  15.241 -0.4242 -0.3138  0.4642
  890MPD2    C313045   4.316   1.353  15.269  0.7362  0.4990 -0.3017
  890MPD2    C413046   4.357   1.266  15.172  0.5060 -0.9450 -0.3679
  890MPD2    C513047   4.326   1.298  15.042 -0.8730  0.5791 -0.0618
  890MPD2     H13048   4.237   1.547  15.321  2.0254  0.4413  0.2966
  890MPD2    H113049   4.394   1.168  15.197  2.0928 -0.5486 -1.1308
  890MPD2    H213050   4.237   1.424  14.910  1.8455  1.1734  0.1731
  890MPD2    H313051   4.341   1.229  14.959 -3.4808  0.0836 -0.1023
  890MPD2     N13052   4.339   1.318  15.405 -0.4858  0.7572 -0.3651
  890MPD2    H513053   4.291   1.371  15.477 -0.7036  0.6618 -0.4394
  890MPD2    N113054   4.202   1.644  15.061 -0.2948  0.4404 -0.4140
  890MPD2    H713055   4.222   1.653  14.962 -1.3353 -0.3446 -0.6971
  891MPD2     C13056   2.128   0.262  16.422  0.7228 -0.2598  0.5289
  891MPD2    C113057   2.018   0.232  16.506  0.0870  0.1967 -0.1031
  891MPD2    C213058   2.037   0.176  16.628 -0.3400  0.4680  0.0236
  891MPD2    C313059   2.173   0.150  16.667 -0.5034  0.1936 -1.0971
  891MPD2    C413060   2.279   0.170  16.579 -0.6609  0.4349 -0.2395
  891MPD2    C513061   2.258   0.235  16.458  0.2594  0.6384  0.7436
  891MPD2     H13062   1.961   0.158  16.703 -1.6688  0.8220 -1.2544
  891MPD2    H113063   2.380   0.138  16.604 -1.4906 -0.5027  1.9785
  891MPD2    H213064   2.113   0.315  16.328  1.6296 -1.2881 -0.1918
  891MPD2    H313065   2.344   0.247  16.393 -1.4068 -0.5856 -1.6772
  891MPD2     N13066   2.193   0.109  16.803  0.1429 -0.3637 -0.0687
  891MPD2    H513067   2.117   0.063  16.852 -0.9234  0.4762 -0.9336
  891MPD2    N113068   1.888   0.277  16.456 -0.2282  0.1680  0.7344
  891MPD2    H713069   1.884   0.313  16.361 -0.7299 -2.6987 -0.3107
  892MPD2     C13070   3.117   1.262  14.657  0.0679 -0.3480  0.4431
  892MPD2    C113071   3.026   1.328  14.582 -0.6143 -0.6731  0.4301
  892MPD2    C213072   3.044   1.326  14.443 -0.0342 -0.2162  0.1468
  892MPD2    C313073   3.142   1.254  14.388  0.2153 -0.5738  0.2337
  892MPD2    C413074   3.227   1.192  14.474 -0.0281 -0.4402  0.9126
  892MPD2    C513075   3.220   1.194  14.609  0.3629  0.1081 -0.2350
  892MPD2     H13076   2.975   1.376  14.377  2.1318 -0.8240 -2.5972
  892MPD2    H113077   3.316   1.144  14.434  0.5275  1.5910 -0.3066
  892MPD2    H213078   3.103   1.260  14.765  3.1206 -0.9206  0.8290
  892MPD2    H313079   3.301   1.155  14.669 -0.9485 -0.4834  1.1398
  892MPD2     N13080   3.168   1.247  14.249 -0.1500  0.3970 -0.3861
  892MPD2    H513081   3.240   1.181  14.220 -0.8128 -0.7125  0.4738
  892MPD2    N113082   2.907   1.387  14.636  0.1405 -0.2359  0.1076
  892MPD2    H713083   2.850   1.432  14.565 -0.8320 -2.7077 -0.6566
  893MPD2     C13084   0.329   3.618   1.295 -0.6515 -0.6881  0.1236
  893MPD2    C113085   0.429   3.663   1.377 -0.1103 -0.6666 -0.1368
  893MPD2    C213086   0.477   3.574   1.482 -0.0175  0.1014 -0.0882
  893MPD2    C313087   0.409   3.456   1.508 -0.0596 -0.2015  0.2022
  893MPD2    C413088   0.298   3.426   1.436  0.3980 -0.6350  0.1163
  893MPD2    C513089   0.267   3.499   1.323 -1.0102  0.3314 -0.2815
  893MPD2     H13090   0.561   3.602   1.545  2.1761 -0.1119 -2.9312
  893MPD2    H113091   0.239   3.337   1.457 -0.0157  0.2637  2.8119
  893MPD2    H213092   0.299   3.671   1.205  0.4328 -1.3605 -0.6355
  893MPD2    H313093   0.180   3.461   1.271  0.1506 -2.2198 -0.3233
  893MPD2     N13094   0.444   3.365   1.612  0.0829 -0.0769 -0.4116
  893MPD2    H513095   0.413   3.270   1.599 -0.4795 -0.0259  0.5195
  893MPD2    N113096   0.495   3.783   1.344 -0.4275 -0.2255 -0.1298
  893MPD2    H713097   0.473   3.832   1.258 -0.1990  0.2756  0.0942
  894MPD2     C13098   2.359   1.229   1.326  0.0464 -0.0974  0.1457
  894MPD2    C113099   2.397   1.358   1.300  0.7910  0.2369 -0.0304
  894MPD2    C213100   2.524   1.398   1.313  0.1240 -0.3035 -0.9726
  894MPD2    C313101   2.622   1.314   1.357 -0.0727 -0.2417 -0.3676
  894MPD2    C413102   2.580   1.182   1.380  0.1724 -0.4264  0.0078
  894MPD2    C513103   2.451   1.135   1.351 -0.3096  0.6113  0.4616
  894MPD2     H13104   2.544   1.504   1.305 -0.6464 -0.2196 -1.7214
  894MPD2    H113105   2.653   1.103   1.397  1.3344  0.0660 -2.7941
  894MPD2    H213106   2.259   1.197   1.301  0.9361 -1.9089 -1.1508
  894MPD2    H313107   2.416   1.033   1.353  1.5489 -0.0595 -0.8255
  894MPD2     N13108   2.750   1.370   1.380 -0.2083  0.7450  0.4452
  894MPD2    H513109   2.766   1.470   1.372  1.8481  0.2542 -1.6651
  894MPD2    N113110   2.305   1.460   1.261  0.7777  0.0826 -0.4500
  894MPD2    H713111   2.344   1.550   1.232 -2.0862  0.6104 -2.6364
  895MPD2     C13112   1.817   0.695  11.953 -0.3006  0.3492 -0.2652
  895MPD2    C113113   1.846   0.561  11.953  0.2197  0.0089  0.0007
  895MPD2    C213114   1.808   0.482  12.063 -0.2248 -0.1119  0.0723
  895MPD2    C313115   1.779   0.547  12.180  0.2906 -0.2116  0.0083
  895MPD2    C413116   1.744   0.676  12.177 -0.8441 -0.0561 -0.3818
  895MPD2    C513117   1.752   0.750  12.061  0.5335 -0.2200  0.3546
  895MPD2     H13118   1.830   0.376  12.071 -1.1717 -0.2427  1.0010
  895MPD2    H113119   1.705   0.734  12.259 -2.5511 -1.6186 -0.0652
  895MPD2    H213120   1.827   0.771  11.877  3.1762  0.8810  0.6945
  895MPD2    H313121   1.745   0.858  12.057 -0.2734 -0.4127 -2.7248
  895MPD2     N13122   1.768   0.473  12.305  0.3740  0.1990  0.2818
  895MPD2    H513123   1.793   0.375  12.309 -0.0906  0.2066  3.6727
  895MPD2    N113124   1.896   0.496  11.840  0.5517  0.0965 -0.9104
  895MPD2    H713125   1.910   0.396  11.853 -1.3342  0.1735  1.7148
  896MPD2     C13126   0.143   2.366   1.658 -0.4178 -0.1239  0.0018
  896MPD2    C113127   0.112   2.384   1.521  0.0411  0.2530 -0.9121
  896MPD2    C213128   4.701   2.349   1.485 -0.8844  0.0771 -0.0776
  896MPD2    C313129   4.607   2.307   1.576 -0.7700  0.6439 -0.4187
  896MPD2    C413130   4.640   2.301   1.708  0.1434 -0.3184  0.2881
  896MPD2    C513131   0.042   2.336   1.749  0.5173  0.3191 -0.3097
  896MPD2     H13132   4.673   2.344   1.381 -0.6808  0.5263 -0.1583
  896MPD2    H113133   4.571   2.260   1.781 -0.3411 -1.0930 -0.5938
  896MPD2    H213134   0.242   2.395   1.689 -1.6236  0.4522  3.3699
  896MPD2    H313135   0.061   2.343   1.855  1.2035 -2.4959 -0.2520
  896MPD2     N13136   4.482   2.278   1.520  0.0714  0.2708 -0.3288
  896MPD2    H513137   4.477   2.284   1.419  0.3053 -1.2049 -0.4347
  896MPD2    N113138   0.212   2.408   1.425  0.0898  0.6608  0.0939
  896MPD2    H713139   0.304   2.438   1.456  0.2341  1.8782 -1.5062
  897MPD2     C13140   1.525   4.352  10.354 -0.0910 -0.3608 -0.1312
  897MPD2    C113141   1.601   4.467  10.387  0.3705  0.4819  0.3255
  897MPD2    C213142   1.529   4.578  10.425 -0.1487 -0.5165  0.2719
  897MPD2    C313143   1.390   4.579  10.410 -0.5314 -0.6550  0.8327
  897MPD2    C413144   1.324   4.479  10.356 -0.6178 -0.6013 -0.3035
  897MPD2    C513145   1.389   4.360  10.332  0.4422  0.2646 -0.2730
  897MPD2     H13146   1.577   4.672  10.450  0.7240 -0.2238 -2.4417
  897MPD2    H113147   1.216   4.482  10.357 -0.5742  2.2116 -2.0686
  897MPD2    H213148   1.567   4.254  10.338 -0.2594 -0.3602 -0.5660
  897MPD2    H313149   1.328   4.271  10.320  2.7933 -1.1903 -1.4833
  897MPD2     N13150   1.331   4.704  10.449 -0.1213 -0.3208 -0.0683
  897MPD2    H513151   1.389   0.045  10.503  1.7186 -1.4992 -0.6801
  897MPD2    N113152   1.746   4.457  10.388 -0.0901  0.6750 -0.0417
  897MPD2    H713153   1.781   4.366  10.360 -2.4251 -0.2544  0.0412
  898MPD2     C13154   3.465   0.241  17.623  0.5763  0.4784  1.0139
  898MPD2    C113155   3.404   0.374  17.632  0.5467 -0.4618 -0.2375
  898MPD2    C213156   3.309   0.404  17.538  0.2518  0.7563 -0.5809
  898MPD2    C313157   3.279   0.324  17.435 -0.7050  0.0989 -0.9970
  898MPD2    C413158   3.339   0.201  17.419 -0.3475  0.4380  0.5684
  898MPD2    C513159   3.439   0.163  17.509  0.3513  0.1715  0.3591
  898MPD2     H13160   3.261   0.499  17.555 -3.3171 -1.2154  0.3338
  898MPD2    H113161   3.322   0.136  17.333  1.7118 -0.1983  0.6462
  898MPD2    H213162   3.539   0.206   0.007  0.2456  0.7835  1.5125
  898MPD2    H313163   3.489   0.069  17.491 -0.5119 -0.4595  1.2299
  898MPD2     N13164   3.177   0.369  17.355  0.1980  0.5251 -0.1731
  898MPD2    H513165   3.155   0.468  17.365 -1.3249  0.1986 -0.1956
  898MPD2    N113166   3.431   0.467   0.048  0.5553 -0.4629 -0.3292
  898MPD2    H713167   3.382   0.555   0.035 -1.3085 -1.2409  1.4458
  899MPD2     C13168   4.137   1.587  17.405 -0.1092  0.7147  0.5702
  899MPD2    C113169   4.006   1.587  17.427 -0.1388  0.8786  0.1302
  899MPD2    C213170   3.950   1.464  17.461  0.5882 -1.0285 -0.3729
  899MPD2    C313171   4.027   1.345  17.455 -0.6357 -0.1180 -0.5082
  899MPD2    C413172   4.162   1.357  17.437  0.4937 -0.2408  0.6660
  899MPD2    C513173   4.215   1.478  17.401  0.6311 -0.0195 -0.8133
  899MPD2     H13174   3.844   1.459  17.482  0.0811  0.9955 -2.4121
  899MPD2    H113175   4.226   1.271  17.449  2.6329  0.8263 -3.3890
  899MPD2    H213176   4.189   1.675  17.370 -0.5625 -0.7332 -3.7908
  899MPD2    H313177   4.323   1.485  17.393  0.6462  0.6025 -0.1137
  899MPD2     N13178   3.976   1.223  17.499 -0.9572  0.1885  0.1269
  899MPD2    H513179   4.044   1.147  17.492 -0.3954  0.8121 -1.3772
  899MPD2    N113180   3.934   1.707  17.402  0.1072 -0.4831 -0.4228
  899MPD2    H713181   3.993   1.781  17.365 -1.5711  1.5584  1.0013
  900MPD2     C13182   4.297   2.723  12.410  0.4524  0.4329 -0.0926
  900MPD2    C113183   4.199   2.623  12.404 -0.7398 -0.0708 -1.1283
  900MPD2    C213184   4.073   2.649  12.356 -0.3399  0.0937 -0.0494
  900MPD2    C313185   4.048   2.777  12.308 -0.5796  0.5832 -0.7088
  900MPD2    C413186   4.144   2.877  12.318  0.3567 -0.1684 -0.0366
  900MPD2    C513187   4.265   2.850  12.373  0.3677  0.5471  0.2439
  900MPD2     H13188   3.993   2.576  12.347  0.7850 -0.8587 -2.5483
  900MPD2    H113189   4.135   2.979  12.286 -2.1267  0.1179  1.5310
  900MPD2    H213190   4.398   2.696  12.439  1.1196  1.3129 -1.6064
  900MPD2    H313191   4.336   2.932  12.369 -1.1089  1.8371  0.2190
  900MPD2     N13192   3.928   2.811  12.260  0.0334  0.4272  0.6760
  900MPD2    H513193   3.863   2.734  12.247 -0.5002  1.0519 -0.3129
  900MPD2    N113194   4.243   2.495  12.450  0.3002 -0.2846  0.9732
  900MPD2    H713195   4.332   2.485  12.497  1.0121  1.4269  0.0049
  901MPD2     C13196   3.978   1.449  12.693  0.4584 -0.5958 -0.2889
  901MPD2    C113197   4.015   1.454  12.560  0.7207 -0.4864  0.6859
  901MPD2    C213198   4.064   1.582  12.520 -0.5032 -0.2652 -0.5375
  901MPD2    C313199   4.064   1.695  12.599 -0.1273 -1.0370 -0.0209
  901MPD2    C413200   4.016   1.684  12.730 -0.6445 -0.2106  1.0225
  901MPD2    C513201   3.979   1.559  12.776  0.0868 -0.2231 -0.4405
  901MPD2     H13202   4.101   1.603  12.420 -2.2929 -1.2720 -1.4191
  901MPD2    H113203   4.004   1.764  12.803  2.1081  0.5978  0.5697
  901MPD2    H213204   3.958   1.347  12.725 -0.8334 -0.2216  0.1162
  901MPD2    H313205   3.961   1.543  12.882 -1.6531  1.3476 -0.5014
  901MPD2     N13206   4.127   1.816  12.550  0.1046 -0.1967 -0.2234
  901MPD2    H513207   4.193   1.811  12.473  0.4200  0.6194 -0.0134
  901MPD2    N113208   4.005   1.340  12.482 -0.2857  0.3229 -0.0497
  901MPD2    H713209   3.974   1.257  12.531  1.0546 -1.3991 -2.0718
  902MPD2     C13210   2.983   0.457  12.409 -0.0013 -0.3553 -0.1810
  902MPD2    C113211   2.896   0.545  12.353  0.1532 -1.4291 -0.8265
  902MPD2    C213212   2.885   0.539  12.212  0.4775  0.0398  0.5253
  902MPD2    C313213   2.967   0.466  12.136 -0.5187 -0.5225  0.8663
  902MPD2    C413214   3.050   0.378  12.198  0.0065  0.2461 -0.3607
  902MPD2    C513215   3.055   0.374  12.334 -0.3656 -0.4624 -0.3806
  902MPD2     H13216   2.813   0.608  12.170  2.8592  0.9169 -2.1885
  902MPD2    H113217   3.091   0.292  12.146 -0.9520  0.2904 -1.1829
  902MPD2    H213218   2.992   0.441  12.516  2.0304 -0.8601 -0.4198
  902MPD2    H313219   3.125   0.310  12.386 -1.7082 -1.2906  0.4097
  902MPD2     N13220   2.963   0.472  11.996  0.4341  0.2587 -0.0633
  902MPD2    H513221   3.014   0.397  11.950 -0.6410 -0.4059 -0.1669
  902MPD2    N113222   2.812   0.638  12.422 -0.3058 -0.1113  0.4141
  902MPD2    H713223   2.748   0.691  12.364  0.8683 -2.4054 -3.0048
  903MPD2     C13224   2.458   0.787  11.444 -0.1274  0.6230  1.0776
  903MPD2    C113225   2.537   0.684  11.411  0.7789 -0.0196  0.4564
  903MPD2    C213226   2.489   0.594  11.315 -0.3088 -0.2575 -0.3998
  903MPD2    C313227   2.368   0.623  11.249  0.2509 -0.3358 -1.4036
  903MPD2    C413228   2.292   0.729  11.285  0.3709  0.9072  0.2133
  903MPD2    C513229   2.339   0.810  11.382 -0.5212 -0.3651 -0.1502
  903MPD2     H13230   2.532   0.498  11.287 -1.7465 -0.7748 -0.8408
  903MPD2    H113231   2.205   0.761  11.230  1.8358  1.1267 -1.9529
  903MPD2    H213232   2.495   0.873  11.498  0.1356  0.1200  1.6982
  903MPD2    H313233   2.296   0.907  11.403 -0.4287  0.0753 -2.0038
  903MPD2     N13234   2.339   0.528  11.148  0.4858 -0.1095 -0.0461
  903MPD2    H513235   2.402   0.449  11.133 -0.6163 -1.1487  0.7800
  903MPD2    N113236   2.662   0.672  11.479  0.0888 -0.1021 -0.1501
  903MPD2    H713237   2.697   0.753  11.528  0.9786 -0.0795 -0.8384
  904MPD2     C13238   1.527   4.626  13.640 -0.2489  1.2362 -0.7628
  904MPD2    C113239   1.608   0.003  13.592  0.3215 -0.2463  0.2035
  904MPD2    C213240   1.736   4.693  13.548 -0.2418 -0.1335 -0.5897
  904MPD2    C313241   1.791   4.567  13.548  1.0991  0.1772  0.5576
  904MPD2    C413242   1.712   4.471  13.607 -0.4614  0.3161 -0.0004
  904MPD2    C513243   1.583   4.500  13.653 -0.1300  0.3501  0.6188
  904MPD2     H13244   1.784   0.046  13.485  1.0883 -1.4424 -1.1483
  904MPD2    H113245   1.740   4.367  13.611 -2.0361 -0.0750  0.8745
  904MPD2    H213246   1.425   4.638  13.675  0.6170  0.8690  1.9237
  904MPD2    H313247   1.525   4.412  13.677  0.7289 -0.1619  0.8111
  904MPD2     N13248   1.914   4.544  13.484 -0.2263  0.4750  0.7820
  904MPD2    H513249   1.953   4.621  13.431  1.0178 -0.4027  0.4381
  904MPD2    N113250   1.562   0.140  13.577  0.4682  0.2834  0.0585
  904MPD2    H713251   1.625   0.200  13.526  0.8942  0.5160  0.8526
  905MPD2     C13252   1.941   0.751  13.288  0.2062 -0.2032 -0.5405
  905MPD2    C113253   1.847   0.650  13.273 -0.5240  0.1955  0.0218
  905MPD2    C213254   1.826   0.597  13.150 -0.3237 -0.6081 -0.0633
  905MPD2    C313255   1.904   0.635  13.042 -0.6118 -1.1899 -0.3376
  905MPD2    C413256   1.990   0.739  13.056  0.3469  0.0504 -0.0377
  905MPD2    C513257   2.014   0.797  13.179  0.1132 -0.4177 -0.0676
  905MPD2     H13258   1.744   0.529  13.134 -1.1245  0.6668 -1.3404
  905MPD2    H113259   2.054   0.772  12.975  0.0270 -0.5099 -0.5182
  905MPD2    H213260   1.960   0.794  13.386  0.9889  0.9215 -1.1799
  905MPD2    H313261   2.074   0.886  13.201  0.0620 -0.4707  0.2826
  905MPD2     N13262   1.896   0.567  12.915  0.4361 -0.2709 -0.1734
  905MPD2    H513263   1.937   0.614  12.835  2.0408 -0.2216  0.6645
  905MPD2    N113264   1.778   0.608  13.389 -0.1208 -0.0702 -0.7446
  905MPD2    H713265   1.823   0.623  13.479  2.0993 -1.4474 -1.6155
  906MPD2     C13266   4.657   0.282  10.851  0.3018  0.4258 -0.7693
  906MPD2    C113267   0.025   0.198  10.791  0.6971  0.1089 -0.1388
  906MPD2    C213268   0.073   0.086  10.860  0.1059  0.0375  0.4741
  906MPD2    C313269   0.014   0.046  10.976  0.4896  0.4963 -0.8832
  906MPD2    C413270   4.634   0.127  11.026 -0.3145 -0.0076  0.2598
  906MPD2    C513271   4.596   0.247  10.970  0.2993  0.3299  0.0895
  906MPD2     H13272   0.165   0.039  10.827  1.8496  1.8348  2.7232
  906MPD2    H113273   4.592   0.099  11.122 -0.4201 -0.5831  0.0454
  906MPD2    H213274   4.635   0.382  10.815 -0.0366 -0.3687 -2.7199
  906MPD2    H313275   4.527   0.309  11.026 -1.5128 -0.7721 -0.9232
  906MPD2     N13276   0.054   4.657  11.051  0.5221  0.0702 -0.2640
  906MPD2    H513277   4.715   4.642  11.132  0.8409  0.1377 -0.0177
  906MPD2    N113278   0.095   0.226  10.672 -0.0836 -0.2833 -0.1763
  906MPD2    H713279   0.150   0.154  10.627  0.6553 -1.1466  2.1117
  907MPD2     C13280   2.870   3.730  15.058 -0.4210  0.4863 -0.7124
  907MPD2    C113281   2.970   3.639  15.068 -0.7465 -0.1689  0.3869
  907MPD2    C213282   3.028   3.610  15.195 -0.2748  0.0515 -0.1977
  907MPD2    C313283   2.983   3.669  15.308  0.4632  0.0046  0.4309
  907MPD2    C413284   2.881   3.756  15.293  0.0872 -0.4844 -0.0650
  907MPD2    C513285   2.822   3.783  15.174  0.3220  0.5053 -0.4930
  907MPD2     H13286   3.119   3.551  15.196  0.0241  0.5641  2.2682
  907MPD2    H113287   2.839   3.810  15.377 -2.2252 -0.1726 -1.4165
  907MPD2    H213288   2.817   3.746  14.965  0.0688  0.5575 -0.9790
  907MPD2    H313289   2.735   3.847  15.166 -0.7641 -0.5919  2.4150
  907MPD2     N13290   3.053   3.649  15.434 -0.4931  0.1256  0.0082
  907MPD2    H513291   3.135   3.590  15.431 -1.2757 -0.9995  0.4003
  907MPD2    N113292   3.037   3.569  14.961 -0.1863 -0.4858 -0.6022
  907MPD2    H713293   3.112   3.507  14.992  2.0168  2.2354 -0.5019
  908MPD2     C13294   2.196   4.035   9.834  0.2879  0.2269  0.7232
  908MPD2    C113295   2.075   4.098   9.855 -0.4361 -0.4706 -0.1219
  908MPD2    C213296   2.053   4.167   9.969  0.1596 -0.5660  0.1961
  908MPD2    C313297   2.157   4.181  10.065 -0.3394 -0.0485 -0.1539
  908MPD2    C413298   2.290   4.130  10.035 -0.0130 -0.9559  0.0147
  908MPD2    C513299   2.301   4.055   9.921  0.4666 -0.0209  0.2015
  908MPD2     H13300   1.966   4.230   9.981  0.2416 -0.4348  0.1027
  908MPD2    H113301   2.378   4.129  10.099 -0.3079 -0.4306  0.4291
  908MPD2    H213302   2.211   3.978   9.743  2.5551  1.6288  0.2180
  908MPD2    H313303   2.398   4.013   9.894  0.5496 -0.6673  1.4987
  908MPD2     N13304   2.121   4.267  10.175 -0.1511  0.3229 -0.1091
  908MPD2    H513305   2.031   4.315  10.175  0.6244  1.7804  1.8249
  908MPD2    N113306   1.961   4.077   9.772 -0.0762 -0.2560 -0.2230
  908MPD2    H713307   1.875   4.129   9.789  1.1761  1.8192 -0.1423
  909MPD2     C13308   1.805   2.483  11.857  0.4544  0.0465 -0.3021
  909MPD2    C113309   1.826   2.605  11.804 -0.2878 -0.4148 -0.0979
  909MPD2    C213310   1.746   2.716  11.845  0.6473 -0.0429  0.4401
  909MPD2    C313311   1.628   2.697  11.917  0.0371 -0.9856 -0.0093
  909MPD2    C413312   1.608   2.576  11.971 -0.7819  0.4940 -0.5246
  909MPD2    C513313   1.695   2.475  11.939  0.5563  0.3908 -0.0486
  909MPD2     H13314   1.768   2.813  11.802 -3.5121  1.1316  1.0143
  909MPD2    H113315   1.527   2.549  12.038 -1.6129 -0.2134 -1.8223
  909MPD2    H213316   1.868   2.397  11.839 -1.6854 -1.5373 -0.1795
  909MPD2    H313317   1.679   2.377  11.981  1.2378  0.6473  0.8083
  909MPD2     N13318   1.529   2.799  11.934 -0.3695  0.1663 -0.3014
  909MPD2    H513319   1.556   2.892  11.905  1.6058 -0.3997 -0.2908
  909MPD2    N113320   1.918   2.637  11.707 -0.2556 -0.4342  0.1877
  909MPD2    H713321   1.927   2.736  11.687  0.1448 -1.1087 -2.8293
  910MPD2     C13322   2.336   4.326  15.391  0.8181 -0.2706  0.2143
  910MPD2    C113323   2.467   4.302  15.425 -0.1914  0.5446 -0.2642
  910MPD2    C213324   2.564   4.349  15.339  0.5347  0.0016  0.4262
  910MPD2    C313325   2.535   4.424  15.222  0.6021 -0.1966 -0.0925
  910MPD2    C413326   2.400   4.437  15.185  0.2565 -0.1425  0.1495
  910MPD2    C513327   2.301   4.387  15.273  0.4674  0.7934 -0.1148
  910MPD2     H13328   2.664   4.337  15.380  1.3232 -0.2273 -1.5802
  910MPD2    H113329   2.382   4.504  15.101  1.5297 -0.5832 -0.4709
  910MPD2    H213330   2.252   4.317  15.460  2.0185  1.4553  1.9069
  910MPD2    H313331   2.200   4.419  15.252  0.2958 -0.0960 -0.6711
  910MPD2     N13332   2.633   4.488  15.144 -0.0782 -0.0862  0.6446
  910MPD2    H513333   2.602   4.547  15.067 -1.0430  1.0554  1.9185
  910MPD2    N113334   2.505   4.245  15.550 -0.3232  0.4539 -0.3424
  910MPD2    H713335   2.604   4.245  15.573  0.0604  1.7743 -1.9446
  911MPD2     C13336   0.377   0.202  15.727 -0.3794 -0.6800 -0.6016
  911MPD2    C113337   0.403   0.276  15.842  0.4535  0.1236 -0.8219
  911MPD2    C213338   0.377   0.407  15.838 -0.0861  0.0461 -0.6092
  911MPD2    C313339   0.312   0.467  15.732  0.3537  0.0021 -0.3416
  911MPD2    C413340   0.269   0.384  15.627  0.6386  0.2880  0.2948
  911MPD2    C513341   0.315   0.257  15.619  0.1967 -1.0517  0.5790
  911MPD2     H13342   0.397   0.465  15.927 -2.7742 -1.7714  1.1710
  911MPD2    H113343   0.213   0.430  15.546 -1.7803  0.6089  2.1627
  911MPD2    H213344   0.416   0.102  15.713  1.8517  0.3958 -2.1226
  911MPD2    H313345   0.316   0.198  15.528  1.8351  2.3498 -1.6184
  911MPD2     N13346   0.262   0.600  15.729  0.2454 -0.1697  0.6701
  911MPD2    H513347   0.206   0.619  15.647  0.2681  0.7407  0.8704
  911MPD2    N113348   0.463   0.211  15.953 -0.5186  0.3791 -0.6331
  911MPD2    H713349   0.490   0.115  15.934 -0.0409  0.8142 -2.1491
  912MPD2     C13350   0.004   0.706  15.198 -0.7114 -0.2669  0.1229
  912MPD2    C113351   4.708   0.699  15.335 -0.3104  0.2755  0.7543
  912MPD2    C213352   4.678   0.579  15.397  0.1966 -1.1431  0.0947
  912MPD2    C313353   4.672   0.464  15.328  0.1586 -0.3057  0.1433
  912MPD2    C413354   4.680   0.469  15.193 -1.0751 -0.4025  0.3020
  912MPD2    C513355   4.706   0.587  15.128 -0.2096 -0.4324 -0.7464
  912MPD2     H13356   4.683   0.580  15.506 -0.2404 -1.7223  0.1167
  912MPD2    H113357   4.673   0.377  15.137  4.1095  0.8535 -2.3628
  912MPD2    H213358   0.028   0.798  15.147  0.4289  0.0943  1.3049
  912MPD2    H313359   4.713   0.600  15.020  0.4336  1.8250 -0.4211
  912MPD2     N13360   4.656   0.346  15.405 -0.0086  0.0316 -0.1066
  912MPD2    H513361   4.620   0.355  15.499 -1.9008 -0.9308 -0.7409
  912MPD2    N113362   0.015   0.820  15.408 -0.0552 -0.0542  0.0496
  912MPD2    H713363   0.076   0.888  15.365  1.5799 -1.4453  0.1713
  913MPD2     C13364   0.921   1.118  10.695  0.2676 -0.3432  0.1702
  913MPD2    C113365   0.922   1.137  10.552  0.2442 -0.7304  0.5129
  913MPD2    C213366   1.043   1.145  10.492 -0.0444  0.0399  0.1982
  913MPD2    C313367   1.154   1.145  10.576 -0.0619  0.0342  0.2602
  913MPD2    C413368   1.149   1.149  10.714 -0.8906  0.3540 -0.0079
  913MPD2    C513369   1.035   1.127  10.776 -0.9098 -1.0214 -0.5035
  913MPD2     H13370   1.048   1.158  10.385 -0.3739 -3.5673 -0.2317
  913MPD2    H113371   1.242   1.139  10.769 -0.4120 -0.2826 -0.9370
  913MPD2    H213372   0.830   1.109  10.753 -0.7939 -1.2961 -1.6421
  913MPD2    H313373   1.045   1.113  10.883 -1.0539 -0.0449 -0.3639
  913MPD2     N13374   1.282   1.147  10.523 -0.2239  0.6603 -0.1952
  913MPD2    H513375   1.349   1.181  10.591  0.4311  0.5801 -0.8039
  913MPD2    N113376   0.803   1.164  10.490  0.1872  0.3444 -0.2859
  913MPD2    H713377   0.724   1.175  10.552 -0.5315 -0.6878 -1.0151
  914MPD2     C13378   3.702   1.214  11.507  0.3605 -0.0396  0.6368
  914MPD2    C113379   3.755   1.317  11.581 -0.2354  0.0690 -1.3514
  914MPD2    C213380   3.819   1.295  11.699 -0.9214  0.4254  0.6352
  914MPD2    C313381   3.804   1.178  11.768 -0.0402 -0.2051  0.2484
  914MPD2    C413382   3.725   1.081  11.707 -0.2998  0.1561 -0.5144
  914MPD2    C513383   3.686   1.100  11.579 -0.3132  0.1327 -0.3897
  914MPD2     H13384   3.877   1.370  11.752 -2.0776  1.5019  0.3825
  914MPD2    H113385   3.701   0.983  11.747 -2.2710  1.1222  0.6571
  914MPD2    H213386   3.677   1.228  11.402  0.0983  2.2802  1.0161
  914MPD2    H313387   3.632   1.016  11.538 -0.3180  0.2482 -0.6184
  914MPD2     N13388   3.861   1.169  11.897 -0.3326  0.2598 -0.2683
  914MPD2    H513389   3.918   1.251  11.915  0.9493 -0.4638 -1.0598
  914MPD2    N113390   3.772   1.437  11.509  0.3213  0.1505  0.0910
  914MPD2    H713391   3.708   1.442  11.431 -1.0490 -1.5829  1.0929
  915MPD2     C13392   1.946   1.676  15.449  0.8903 -0.3900 -0.2527
  915MPD2    C113393   1.823   1.715  15.399  0.4979  0.2546  0.0474
  915MPD2    C213394   1.724   1.768  15.487 -0.2986  0.0259 -1.2844
  915MPD2    C313395   1.750   1.777  15.623 -0.8070 -0.1937 -0.3826
  915MPD2    C413396   1.859   1.725  15.678  0.4520  0.1654  0.2066
  915MPD2    C513397   1.963   1.688  15.589  0.2104  0.4633  0.1334
  915MPD2     H13398   1.624   1.788  15.450  0.3806  1.5138 -2.3183
  915MPD2    H113399   1.868   1.717  15.786  0.7943 -2.4712 -0.0231
  915MPD2    H213400   2.029   1.645  15.386  1.0106 -2.0823  0.7364
  915MPD2    H313401   2.057   1.649  15.626 -0.4702 -0.8584  0.4822
  915MPD2     N13402   1.639   1.811  15.709  0.0814  0.0374 -0.1680
  915MPD2    H513403   1.565   1.865  15.665 -0.7378 -0.8308  0.1452
  915MPD2    N113404   1.802   1.691  15.262  0.0824 -0.1544  0.0834
  915MPD2    H713405   1.882   1.650  15.214  0.6463 -1.4761  2.1878
  916MPD2     C13406   4.439   4.060  16.139 -0.2963  0.0033 -0.4133
  916MPD2    C113407   4.388   4.144  16.047 -0.0414  0.1471  0.1542
  916MPD2    C213408   4.452   4.161  15.926  0.0020  0.3556  0.2258
  916MPD2    C313409   4.567   4.086  15.903 -0.4714 -0.7708  0.0799
  916MPD2    C413410   4.616   4.001  15.999  0.3792 -0.7910 -0.6166
  916MPD2    C513411   4.554   3.994  16.118  0.4664  0.7163  0.1108
  916MPD2     H13412   4.409   4.222  15.847 -0.2270  0.1792  0.2155
  916MPD2    H113413   4.707   3.943  15.986 -0.2887 -2.2903  1.3073
  916MPD2    H213414   4.375   4.047  16.225 -1.3698 -3.3629 -1.7206
  916MPD2    H313415   4.594   3.936  16.201  0.9771  1.2295  0.2302
  916MPD2     N13416   4.633   4.086  15.777  0.4092 -0.4445  0.6185
  916MPD2    H513417   4.704   4.014  15.772  0.2833 -0.6153  1.1894
  916MPD2    N113418   4.266   4.200  16.078  0.4774 -0.3789 -0.4462
  916MPD2    H713419   4.232   4.178  16.171 -0.0618  0.6462 -0.4073
  917MPD2     C13420   0.570   2.079  10.803  0.1852 -0.6039 -0.2635
  917MPD2    C113421   0.616   2.119  10.924 -0.6773  0.2916 -0.4570
  917MPD2    C213422   0.705   2.223  10.919 -0.1180  0.0350 -0.3009
  917MPD2    C313423   0.765   2.267  10.801 -0.0125 -0.1206  0.6004
  917MPD2    C413424   0.719   2.222  10.682  0.0389  0.0189 -0.2705
  917MPD2    C513425   0.619   2.128  10.690 -0.2084  0.2935 -0.4360
  917MPD2     H13426   0.746   2.252  11.015 -0.9065  1.7635 -0.4773
  917MPD2    H113427   0.759   2.255  10.587 -0.6213  0.4407 -0.4005
  917MPD2    H213428   0.486   2.011  10.803  0.9815 -1.5858 -3.2579
  917MPD2    H313429   0.592   2.081  10.596 -1.5349  0.2327 -0.0134
  917MPD2     N13430   0.874   2.357  10.791  0.3150 -0.1868 -0.0843
  917MPD2    H513431   0.924   2.358  10.703  0.6767  0.8799  0.1341
  917MPD2    N113432   0.568   2.059  11.044  0.2983  0.4797 -0.6451
  917MPD2    H713433   0.513   1.975  11.034  0.5146  0.5096 -2.1559
  918MPD2     C13434   0.243   2.408  11.949 -0.0429 -0.4206  0.6731
  918MPD2    C113435   0.373   2.422  11.909  0.5467 -0.4710 -0.2003
  918MPD2    C213436   0.410   2.364  11.791 -0.5290  0.1457 -0.3773
  918MPD2    C313437   0.324   2.286  11.722 -0.0683  0.1856  0.2788
  918MPD2    C413438   0.192   2.267  11.766  0.0116  0.3820 -0.5488
  918MPD2    C513439   0.155   2.334  11.879 -0.2900 -0.0864  0.2931
  918MPD2     H13440   0.514   2.372  11.761 -0.9950  1.8745 -1.5256
  918MPD2    H113441   0.118   2.216  11.705 -0.9042  0.0801  0.8144
  918MPD2    H213442   0.196   2.456  12.034 -0.1456 -1.1161  1.0085
  918MPD2    H313443   0.050   2.330  11.906 -0.7412 -1.0909 -1.6224
  918MPD2     N13444   0.381   2.217  11.608 -0.4930 -0.0503  0.5002
  918MPD2    H513445   0.477   2.240  11.582 -1.0378 -0.1873 -1.6340
  918MPD2    N113446   0.460   2.496  11.977 -0.0246  0.3110 -0.4773
  918MPD2    H713447   0.545   2.524  11.928 -0.1911 -1.5101 -1.7964
  919MPD2     C13448   1.209   1.611  11.336  0.1948  0.0731  0.5652
  919MPD2    C113449   1.212   1.480  11.296  0.4765 -0.4684 -0.3438
  919MPD2    C213450   1.159   1.441  11.173 -0.2827  0.3612  0.0311
  919MPD2    C313451   1.127   1.542  11.078  0.4921  0.0520 -0.7017
  919MPD2    C413452   1.141   1.680  11.115  0.2855 -0.3490  0.6657
  919MPD2    C513453   1.183   1.713  11.242  0.4559  0.4523  0.3055
  919MPD2     H13454   1.130   1.342  11.137 -0.2508  0.0764  0.7950
  919MPD2    H113455   1.116   1.755  11.041  1.6960 -1.1725 -0.6611
  919MPD2    H213456   1.254   1.637  11.431 -1.4921  2.0319  0.8283
  919MPD2    H313457   1.208   1.817  11.257 -2.2067  1.2605 -0.8348
  919MPD2     N13458   1.066   1.517  10.958 -0.1612  0.2374  0.4583
  919MPD2    H513459   1.066   1.591  10.888  2.3990  0.6229  0.8674
  919MPD2    N113460   1.262   1.373  11.370  0.5557  0.0718  0.6504
  919MPD2    H713461   1.281   1.284  11.325 -1.6111 -0.6717  1.2046
  920MPD2     C13462   1.426   1.489  10.215  0.3966  0.2165  0.0507
  920MPD2    C113463   1.300   1.417  10.205 -0.2763  0.0791  0.8571
  920MPD2    C213464   1.202   1.432  10.303 -0.2026 -0.2792  0.5589
  920MPD2    C313465   1.226   1.524  10.403 -0.9103 -0.4467 -0.3211
  920MPD2    C413466   1.352   1.577  10.421  0.3837 -0.5872 -0.1859
  920MPD2    C513467   1.446   1.555  10.329  0.4290 -0.3750  0.3828
  920MPD2     H13468   1.112   1.373  10.301 -0.3136 -0.0884 -0.2766
  920MPD2    H113469   1.366   1.647  10.502 -1.8010  0.1263 -0.4138
  920MPD2    H213470   1.508   1.493  10.144 -0.7629 -1.2803 -1.3882
  920MPD2    H313471   1.542   1.604  10.343  0.7228 -0.3882 -1.5437
  920MPD2     N13472   1.123   1.550  10.499 -0.6082  0.1015 -0.3043
  920MPD2    H513473   1.154   1.597  10.584 -1.9629 -2.4604  1.6003
  920MPD2    N113474   1.262   1.340  10.098  0.2493 -0.4552  0.1705
  920MPD2    H713475   1.164   1.315  10.098  0.0698  0.3564  3.7986
  921MPD2     C13476   1.051   0.681  16.507  0.5106 -0.3654 -0.1657
  921MPD2    C113477   1.099   0.553  16.512 -0.1041 -0.1940  1.0107
  921MPD2    C213478   1.023   0.442  16.488  0.8024  0.3395 -0.1547
  921MPD2    C313479   0.887   0.470  16.451 -0.3183 -0.0107 -0.1511
  921MPD2    C413480   0.841   0.596  16.459 -0.8921  0.3220 -0.6568
  921MPD2    C513481   0.920   0.704  16.495 -0.9981  0.6575  0.2415
  921MPD2     H13482   1.061   0.343  16.467  0.5456  0.0302  0.8445
  921MPD2    H113483   0.742   0.621  16.422 -0.4612 -1.0332 -2.7513
  921MPD2    H213484   1.117   0.766  16.518 -0.2700  0.1694  0.3963
  921MPD2    H313485   0.874   0.802  16.490 -3.4428 -0.4717  0.3774
  921MPD2     N13486   0.791   0.370  16.402 -0.1461  0.4159 -0.6809
  921MPD2    H513487   0.705   0.409  16.365 -0.4101  1.5755  1.1738
  921MPD2    N113488   1.244   0.544  16.509 -0.9425  0.2418  0.7084
  921MPD2    H713489   1.305   0.624  16.497 -0.3691 -0.4248 -0.8144
  922MPD2     C13490   1.625   2.431   0.415 -0.4738  0.2664  0.2079
  922MPD2    C113491   1.574   2.552   0.391  0.2194 -0.9488 -0.4014
  922MPD2    C213492   1.518   2.576   0.270  0.5210  0.3969 -0.0564
  922MPD2    C313493   1.516   2.472   0.177 -0.5361 -0.5076  0.2566
  922MPD2    C413494   1.566   2.351   0.213 -0.4433  0.1866 -0.4741
  922MPD2    C513495   1.622   2.328   0.336 -0.4812  0.6073  1.0499
  922MPD2     H13496   1.482   2.675   0.245 -0.4708 -0.0763 -0.5308
  922MPD2    H113497   1.563   2.258   0.157  0.2171 -0.8067  1.1365
  922MPD2    H213498   1.675   2.417   0.510 -0.7236  1.4741  0.5197
  922MPD2    H313499   1.679   2.241   0.368 -1.1537 -0.4141 -0.5431
  922MPD2     N13500   1.448   2.492   0.057  0.2403 -0.0625  0.0325
  922MPD2    H513501   1.395   2.578   0.046  0.0364 -0.4374 -2.0100
  922MPD2    N113502   1.581   2.659   0.480  0.0385 -0.2134 -0.0094
  922MPD2    H713503   1.571   2.755   0.446  0.9169  0.5325  1.8291
  923MPD2     C13504   4.514   0.079   8.521 -0.3559  0.3184 -0.2823
  923MPD2    C113505   4.560   0.168   8.622  0.5111 -0.5608  0.1918
  923MPD2    C213506   4.632   0.109   8.724 -0.2746  0.3960  0.0233
  923MPD2    C313507   4.674   4.692   8.717 -0.6357 -0.0557 -0.4498
  923MPD2    C413508   4.629   4.617   8.614 -0.1803  0.2579 -0.0353
  923MPD2    C513509   4.548   4.669   8.526  0.3725  0.4996  0.7569
  923MPD2     H13510   4.658   0.161   8.815  0.8701 -0.1762  0.0186
  923MPD2    H113511   4.658   4.513   8.604 -2.0482 -0.1831 -0.7539
  923MPD2    H213512   4.458   0.122   8.438 -0.9401 -2.5505 -1.3640
  923MPD2    H313513   4.523   4.610   8.438  0.4280  2.4440 -0.5612
  923MPD2     N13514   0.043   4.634   8.809 -0.1936  0.6277 -0.1173
  923MPD2    H513515   0.038   4.533   8.817 -1.7587  0.4713 -3.1275
  923MPD2    N113516   4.520   0.304   8.619 -0.5689 -0.3486  0.1615
  923MPD2    H713517   4.452   0.325   8.548 -0.6913 -1.4234 -0.0384
  924MPD2     C13518   3.082   2.991  15.856  0.1792 -0.2794  0.3988
  924MPD2    C113519   3.104   3.084  15.952  0.6775 -1.0549 -0.0056
  924MPD2    C213520   3.163   3.205  15.912 -0.5828 -0.1797 -0.5646
  924MPD2    C313521   3.202   3.233  15.783 -0.5512 -0.1644  0.1007
  924MPD2    C413522   3.192   3.133  15.695  1.0212 -0.6588 -0.9075
  924MPD2    C513523   3.122   3.019  15.730  0.1011  0.0031 -0.0687
  924MPD2     H13524   3.174   3.280  15.989 -1.1611  1.4052 -2.0227
  924MPD2    H113525   3.246   3.127  15.601 -1.4711 -0.2213 -2.3954
  924MPD2    H213526   3.027   2.900  15.872 -0.6400  0.0912 -0.3046
  924MPD2    H313527   3.088   2.949  15.655 -3.4656 -1.5247  2.9695
  924MPD2     N13528   3.251   3.354  15.731  0.1417  0.4027 -0.2060
  924MPD2    H513529   3.257   3.360  15.630 -1.1960  0.9966 -0.2449
  924MPD2    N113530   3.060   3.076  16.087  0.4868  0.0162 -0.2493
  924MPD2    H713531   3.081   3.155  16.147  1.7847 -0.4546 -0.0862
  925MPD2     C13532   2.022   1.307  14.489  0.2641 -0.1778  0.2026
  925MPD2    C113533   2.090   1.193  14.511 -1.1781  0.8025  0.2752
  925MPD2    C213534   2.084   1.134  14.638 -0.1252 -0.2119  0.3100
  925MPD2    C313535   2.014   1.194  14.741 -0.4974  0.0269  0.3610
  925MPD2    C413536   1.946   1.305  14.715 -0.3878  0.0200  0.3522
  925MPD2    C513537   1.945   1.352  14.587  0.3741 -0.1847 -0.2427
  925MPD2     H13538   2.143   1.045  14.658  1.8317  0.7952 -0.9343
  925MPD2    H113539   1.874   1.357  14.777  0.1489  2.7209 -1.2475
  925MPD2    H213540   2.024   1.355  14.392  0.3312 -0.5658  0.0145
  925MPD2    H313541   1.881   1.437  14.564 -0.2771 -0.5898  0.0829
  925MPD2     N13542   1.993   1.135  14.865  0.3553  0.0515  0.1514
  925MPD2    H513543   1.923   1.180  14.923  1.8608  0.4983  1.6295
  925MPD2    N113544   2.156   1.132  14.398 -0.2296  0.5459  0.2754
  925MPD2    H713545   2.128   1.167  14.307  1.2155  2.8841  0.7400
  926MPD2     C13546   0.483   3.772  13.759  0.3001  0.6488 -0.0821
  926MPD2    C113547   0.496   3.889  13.684  0.9311 -0.7081  0.8062
  926MPD2    C213548   0.586   3.888  13.584 -0.3250 -0.3704 -0.4371
  926MPD2    C313549   0.653   3.767  13.558 -0.3440  0.4742  0.1480
  926MPD2    C413550   0.633   3.654  13.631 -0.1368 -0.0097 -0.0843
  926MPD2    C513551   0.543   3.659  13.728  0.0872  0.4462 -0.1856
  926MPD2     H13552   0.600   3.983  13.535  5.5531 -1.5177 -0.9964
  926MPD2    H113553   0.677   3.558  13.608 -2.2839 -0.6336 -1.5827
  926MPD2    H213554   0.404   3.761  13.832 -0.1202  0.3744 -0.5700
  926MPD2    H313555   0.529   3.568  13.785 -1.2947  0.7890  0.0263
  926MPD2     N13556   0.745   3.754  13.455 -0.0760 -0.4328  0.6633
  926MPD2    H513557   0.779   3.660  13.442  1.7326 -0.0317  2.4231
  926MPD2    N113558   0.432   4.010  13.714  0.2338  0.3493 -0.1523
  926MPD2    H713559   0.467   4.094  13.668 -1.1551  1.1350  0.1941
  927MPD2     C13560   0.616   1.352  17.328 -0.1798  0.6736  0.7335
  927MPD2    C113561   0.673   1.471  17.352 -0.2005  0.7727 -0.5485
  927MPD2    C213562   0.792   1.504  17.299 -0.5185 -0.7335  0.0573
  927MPD2    C313563   0.850   1.420  17.212  0.0223  0.4472  0.0856
  927MPD2    C413564   0.797   1.296  17.193  0.5450  0.1137 -0.1892
  927MPD2    C513565   0.681   1.265  17.253 -0.4178 -1.0173 -0.0133
  927MPD2     H13566   0.844   1.596  17.322 -0.8814 -0.8638  1.4134
  927MPD2    H113567   0.830   1.222  17.121 -1.1652  0.5978 -1.4889
  927MPD2    H213568   0.518   1.326  17.364 -0.7030  0.0587 -1.1244
  927MPD2    H313569   0.628   1.173  17.232  0.5719 -0.9388 -2.8435
  927MPD2     N13570   0.975   1.462  17.160 -0.3443  0.2345 -0.3740
  927MPD2    H513571   1.010   1.555  17.181 -0.5702  0.0722  0.7190
  927MPD2    N113572   0.599   1.550  17.448  0.1269 -0.6080  0.5747
  927MPD2    H713573   0.518   1.506  17.490 -0.7632  0.9577  0.4949
  928MPD2     C13574   3.415   4.595   0.836 -0.9919 -0.1890  0.2438
  928MPD2    C113575   3.550   4.591   0.840  0.7310  0.4295 -0.5837
  928MPD2    C213576   3.625   4.624   0.730  0.4942 -0.0699 -0.1552
  928MPD2    C313577   3.565   4.658   0.608 -0.2690  0.3333 -0.1783
  928MPD2    C413578   3.422   4.665   0.611  0.1740 -0.4090 -0.4023
  928MPD2    C513579   3.349   4.628   0.720 -0.3387  0.3349 -0.0610
  928MPD2     H13580   3.732   4.639   0.735  0.4033  0.1836  1.0896
  928MPD2    H113581   3.374   4.680   0.515  1.7492 -0.3310 -1.1882
  928MPD2    H213582   3.366   4.567   0.928 -0.9590  0.9829  0.6166
  928MPD2    H313583   3.241   4.627   0.715 -0.2713  1.6082 -1.8077
  928MPD2     N13584   3.631   4.688   0.492  0.3353  0.8024 -0.0505
  928MPD2    H513585   3.572   0.005   0.419 -0.7779 -1.9089 -0.5641
  928MPD2    N113586   3.600   4.548   0.964 -0.0838 -0.2119  0.2032
  928MPD2    H713587   3.528   4.513   1.026 -1.0460  0.5800 -0.4619
  929MPD2     C13588   4.610   4.564  10.201  0.0857  0.1081 -0.5237
  929MPD2    C113589   4.544   4.453  10.154 -0.0334 -0.5074 -0.2998
  929MPD2    C213590   4.488   4.459  10.028  0.1684  0.1940 -0.2732
  929MPD2    C313591   4.496   4.573   9.948  0.1737  0.7213 -0.0259
  929MPD2    C413592   4.564   4.686  10.000  0.2096  0.3789  0.2764
  929MPD2    C513593   4.621   4.682  10.125  0.1494 -0.8642  0.4740
  929MPD2     H13594   4.440   4.375   9.981 -1.5146  1.0966 -0.1807
  929MPD2    H113595   4.588   0.058   9.950  0.9720  0.2214  0.3359
  929MPD2    H213596   4.635   4.557  10.306 -1.1536  0.3047 -0.2190
  929MPD2    H313597   4.678   0.042  10.169  1.2636 -1.7921  0.7675
  929MPD2     N13598   4.440   4.579   9.821  0.8010  0.3717 -0.1294
  929MPD2    H513599   4.464   4.663   9.769 -1.1209  0.9153 -0.1237
  929MPD2    N113600   4.525   4.341  10.243  0.1661 -0.4574 -0.4056
  929MPD2    H713601   4.569   4.356  10.334 -3.2040  1.3751  0.9128
  930MPD2     C13602   0.522   2.024  13.951 -0.2639  0.2097 -0.8158
  930MPD2    C113603   0.532   2.129  13.868  0.1411 -0.1017  0.3501
  930MPD2    C213604   0.473   2.123  13.745 -0.3875 -0.1992 -0.3713
  930MPD2    C313605   0.404   2.009  13.704  0.2855 -0.9960 -0.3980
  930MPD2    C413606   0.410   1.900  13.794 -0.4322 -0.2594  0.0134
  930MPD2    C513607   0.478   1.908  13.909  0.2036 -0.3002 -0.2912
  930MPD2     H13608   0.483   2.200  13.670 -3.2234  2.7696  2.2551
  930MPD2    H113609   0.376   1.801  13.764 -1.8771 -0.0338  0.8863
  930MPD2    H213610   0.548   2.031  14.056  1.1816  1.0612 -1.2268
  930MPD2    H313611   0.483   1.823  13.976 -0.5666  0.5996  0.9151
  930MPD2     N13612   0.364   1.982  13.571  0.1976  0.3996  0.4896
  930MPD2    H513613   0.352   1.884  13.551 -0.1205  0.5235  0.0708
  930MPD2    N113614   0.586   2.253  13.896 -0.1968  0.1164  0.0228
  930MPD2    H713615   0.578   2.321  13.821 -0.6791 -2.4262 -2.2645
  931MPD2     C13616   1.080   1.392   0.101 -0.1429 -0.2484 -0.3597
  931MPD2    C113617   0.992   1.458   0.190 -0.0685  0.0327  0.8977
  931MPD2    C213618   1.012   1.428   0.321 -0.0843 -0.2892 -0.3624
  931MPD2    C313619   1.123   1.358   0.371 -0.0567 -0.4308  0.4225
  931MPD2    C413620   1.208   1.297   0.278 -0.1361 -0.3264  0.1154
  931MPD2    C513621   1.177   1.311   0.146  0.5552  0.3240  0.3059
  931MPD2     H13622   0.960   1.493   0.392 -2.0722 -1.6571 -0.5559
  931MPD2    H113623   1.296   1.244   0.312 -0.3379 -1.3584 -0.9744
  931MPD2    H213624   1.073   1.404  17.680 -0.3930  1.1415 -0.1958
  931MPD2    H313625   1.225   1.257   0.065  1.4715  1.0365  0.3850
  931MPD2     N13626   1.148   1.323   0.503 -0.3461  0.5390 -0.2664
  931MPD2    H513627   1.215   1.248   0.513  0.2572  0.9106 -1.4864
  931MPD2    N113628   0.888   1.537   0.145 -0.3231 -0.1756  0.1666
  931MPD2    H713629   0.894   1.561   0.046  1.3884  0.8131  0.5055
  932MPD2     C13630   2.753   0.479  10.369  0.2509 -0.4234 -0.1606
  932MPD2    C113631   2.832   0.529  10.469  0.2205 -0.6063 -0.0240
  932MPD2    C213632   2.929   0.450  10.521 -0.0864 -0.2318 -0.1979
  932MPD2    C313633   2.925   0.314  10.499 -0.1437  0.3582 -0.2182
  932MPD2    C413634   2.823   0.264  10.420  0.4266 -0.3957  0.7709
  932MPD2    C513635   2.748   0.346  10.342  0.0018  0.3527 -0.5086
  932MPD2     H13636   2.998   0.495  10.592 -0.2415 -1.6960  0.8730
  932MPD2    H113637   2.792   0.161  10.405 -1.7487  0.2329  0.9682
  932MPD2    H213638   2.675   0.534  10.316  1.3566  0.3427 -0.9900
  932MPD2    H313639   2.664   0.315  10.281  0.3602 -1.5778  0.0021
  932MPD2     N13640   3.011   0.218  10.565  0.0094  0.2349  0.7502
  932MPD2    H513641   2.974   0.124  10.560  0.5044 -0.0765  2.9688
  932MPD2    N113642   2.830   0.663  10.509  0.0942  0.2951 -0.3059
  932MPD2    H713643   2.910   0.700  10.560 -0.3076  1.4044 -0.4600
  933MPD2     C13644   3.512   4.226   1.738 -0.1583  0.5365  0.5831
  933MPD2    C113645   3.486   4.327   1.650  0.2204  0.3935  0.1682
  933MPD2    C213646   3.387   4.420   1.682 -0.0801  0.3517  0.1855
  933MPD2    C313647   3.317   4.418   1.798 -0.1502 -0.1300 -0.8031
  933MPD2    C413648   3.343   4.313   1.887  0.4410 -0.2177 -0.2314
  933MPD2    C513649   3.439   4.221   1.854 -0.7212  0.5488 -0.1604
  933MPD2     H13650   3.357   4.492   1.607  3.2443  0.7381 -0.7780
  933MPD2    H113651   3.295   4.307   1.984 -0.5547 -0.2977 -0.7224
  933MPD2    H213652   3.591   4.155   1.718 -0.0769  0.1926  2.1783
  933MPD2    H313653   3.471   4.152   1.931  1.4908  1.7026 -0.0568
  933MPD2     N13654   3.231   4.525   1.840 -0.1052  0.0824 -0.3497
  933MPD2    H513655   3.212   4.592   1.767 -1.5671  0.0213 -0.0190
  933MPD2    N113656   3.577   4.343   1.535 -0.4044  0.2801  0.2649
  933MPD2    H713657   3.647   4.270   1.522 -0.8476 -0.2403  0.7807
  934MPD2     C13658   4.373   1.945   2.049 -0.0651  0.9084 -0.1244
  934MPD2    C113659   4.464   1.943   1.947  0.1508 -0.2794 -0.6550
  934MPD2    C213660   4.436   1.872   1.833 -0.0721 -0.3308  0.0908
  934MPD2    C313661   4.307   1.825   1.820 -0.9852  0.6133  0.1419
  934MPD2    C413662   4.211   1.830   1.919  0.4626 -0.2877 -0.5511
  934MPD2    C513663   4.249   1.894   2.036 -0.1224 -0.1342  0.2189
  934MPD2     H13664   4.504   1.865   1.749  0.3621  0.7917  0.3549
  934MPD2    H113665   4.113   1.787   1.906 -1.0666  3.5507 -1.7372
  934MPD2    H213666   4.403   1.986   2.145 -1.9554  0.1857  0.7904
  934MPD2    H313667   4.179   1.899   2.118 -0.6236  2.4926 -0.3519
  934MPD2     N13668   4.266   1.769   1.698 -0.5058 -0.5031  0.3420
  934MPD2    H513669   4.175   1.725   1.708 -0.9819  0.0087 -1.6655
  934MPD2    N113670   4.597   2.000   1.955  0.5753 -0.4512 -0.3737
  934MPD2    H713671   4.660   1.982   1.878  0.2949 -1.7342 -0.3156
  935MPD2     C13672   0.046   1.294   1.065  0.4139 -0.2126  0.0072
  935MPD2    C113673   4.658   1.326   0.986  0.1851 -0.6506 -1.0843
  935MPD2    C213674   4.542   1.379   1.048  0.7357 -0.1376  0.0897
  935MPD2    C313675   4.534   1.400   1.186 -1.0770  0.3684  0.0218
  935MPD2    C413676   4.644   1.363   1.258 -0.0370  0.2054 -0.0728
  935MPD2    C513677   0.040   1.315   1.198  0.7147  0.3324  0.0413
  935MPD2     H13678   4.459   1.408   0.985  2.1526 -0.5413 -1.9309
  935MPD2    H113679   4.641   1.388   1.364 -0.3647 -0.4224  0.0634
  935MPD2    H213680   0.141   1.273   1.018  1.1789 -0.5349  1.6844
  935MPD2    H313681   0.129   1.290   1.254  0.9296 -1.9632 -1.2913
  935MPD2     N13682   4.431   1.473   1.240 -0.0212 -0.4707  0.4316
  935MPD2    H513683   4.456   1.508   1.332 -1.9749  2.4199 -0.1245
  935MPD2    N113684   4.656   1.325   0.846 -0.6440  0.2013 -0.1354
  935MPD2    H713685   4.567   1.343   0.802 -1.1727  0.7002  1.1210
  936MPD2     C13686   3.436   4.472  11.863 -0.2991 -0.8037  0.0038
  936MPD2    C113687   3.406   4.510  11.991  0.1220  0.3394  0.0357
  936MPD2    C213688   3.438   4.631  12.040 -0.0388  0.1418  0.8698
  936MPD2    C313689   3.519   4.717  11.965  0.2463  0.4078 -0.1550
  936MPD2    C413690   3.552   4.679  11.836 -0.4168  0.5997 -0.0984
  936MPD2    C513691   3.503   4.560  11.785 -0.2068 -0.0091 -0.8356
  936MPD2     H13692   3.423   4.651  12.145 -1.0726  0.5543  0.6410
  936MPD2    H113693   3.623   0.023  11.786  2.3041 -1.1666  1.4259
  936MPD2    H213694   3.416   4.372  11.826  1.6746 -0.8330 -0.9593
  936MPD2    H313695   3.529   4.545  11.681  0.9406 -0.9387 -0.4208
  936MPD2     N13696   3.578   0.109  12.021 -0.6149  0.4525  0.0716
  936MPD2    H513697   3.656   0.149  11.971  0.3028  0.3295  1.4095
  936MPD2    N113698   3.358   4.419  12.085 -0.2890  0.4274 -0.3946
  936MPD2    H713699   3.340   4.460  12.176  0.4662 -0.7862  0.3030
  937MPD2     C13700   1.371   0.637  11.269 -0.4586  1.0537  0.5258
  937MPD2    C113701   1.471   0.725  11.310 -0.4352 -0.3918  0.5058
  937MPD2    C213702   1.579   0.750  11.235 -0.1586 -0.3380  0.1804
  937MPD2    C313703   1.605   0.667  11.132  0.3656 -0.0634 -0.0333
  937MPD2    C413704   1.513   0.576  11.097  0.1784  0.6201  0.2924
  937MPD2    C513705   1.394   0.561  11.165 -0.2577  0.6033 -0.3357
  937MPD2     H13706   1.641   0.839  11.241 -0.4541 -0.0628 -0.8266
  937MPD2    H113707   1.517   0.522  11.003 -1.1107  0.7021  0.1857
  937MPD2    H213708   1.283   0.620  11.329 -0.7894 -2.0189 -0.8448
  937MPD2    H313709   1.316   0.498  11.124 -1.0194  0.0466  1.9967
  937MPD2     N13710   1.713   0.704  11.056  0.2933 -0.2261 -0.0189
  937MPD2    H513711   1.770   0.777  11.098  1.4729 -0.2154 -1.6497
  937MPD2    N113712   1.432   0.825  11.401  0.4430 -0.1489 -0.0477
  937MPD2    H713713   1.342   0.807  11.443 -0.2529  0.5432 -1.2317
  938MPD2     C13714   2.963   1.389   0.949  0.0967 -0.2694 -0.0744
  938MPD2    C113715   3.093   1.425   0.989 -0.1593  0.3120  0.3232
  938MPD2    C213716   3.152   1.347   1.092 -0.4747  0.0051 -0.4487
  938MPD2    C313717   3.090   1.229   1.131  0.2230  0.2493 -0.3299
  938MPD2    C413718   2.956   1.208   1.096 -0.5258 -0.1709 -0.6242
  938MPD2    C513719   2.895   1.284   1.009 -0.0029  0.1401 -0.2670
  938MPD2     H13720   3.253   1.372   1.122 -1.3089  1.5785  1.0530
  938MPD2    H113721   2.906   1.127   1.148 -0.2848  0.5921  0.8226
  938MPD2    H213722   2.913   1.445   0.870 -1.0394 -1.6871 -0.3687
  938MPD2    H313723   2.793   1.257   0.984 -0.2248 -0.3273  1.1706
  938MPD2     N13724   3.138   1.137   1.228  0.0253  0.5175  0.2200
  938MPD2    H513725   3.071   1.062   1.244  1.3854 -0.7372 -0.0459
  938MPD2    N113726   3.161   1.540   0.929 -0.3342  0.7942 -0.8833
  938MPD2    H713727   3.256   1.540   0.964 -0.8210 -0.6192  0.4523
  939MPD2     C13728   0.256   2.332   0.450 -0.5626  0.1798  0.4266
  939MPD2    C113729   0.139   2.359   0.386  0.7371  0.3383  0.2094
  939MPD2    C213730   0.154   2.387   0.247  0.4942  0.0886  0.1040
  939MPD2    C313731   0.272   2.392   0.177 -0.0121 -0.1394  0.2500
  939MPD2    C413732   0.381   2.349   0.248  0.5077 -0.7494 -0.2555
  939MPD2    C513733   0.374   2.322   0.384  0.2478 -0.2337  0.0313
  939MPD2     H13734   0.064   2.402   0.189 -0.1965 -3.6128  0.2472
  939MPD2    H113735   0.484   2.348   0.212  0.1189 -2.6539 -1.2825
  939MPD2    H213736   0.251   2.321   0.558  0.1682 -2.3419  0.1960
  939MPD2    H313737   0.464   2.302   0.442 -1.4522  0.9319  3.0790
  939MPD2     N13738   0.270   2.460   0.056 -0.1199  0.5910  0.5806
  939MPD2    H513739   0.184   2.478   0.005  0.4652 -0.1213 -0.6643
  939MPD2    N113740   0.014   2.362   0.450  0.2139 -0.2119  0.3306
  939MPD2    H713741   0.016   2.340   0.549 -0.6907 -0.0068  0.3978
  940MPD2     C13742   3.614   3.530  12.656 -0.8340  0.0652 -0.7312
  940MPD2    C113743   3.724   3.587  12.714 -0.1929 -0.4993  0.5129
  940MPD2    C213744   3.845   3.603  12.636  0.0963 -0.5310  0.3928
  940MPD2    C313745   3.849   3.565  12.507 -0.2015  0.1475 -0.4905
  940MPD2    C413746   3.743   3.503  12.454 -0.3530 -0.4384  0.2712
  940MPD2    C513747   3.627   3.493  12.524 -0.6175  0.5145 -1.1707
  940MPD2     H13748   3.928   3.642  12.693  0.1191 -0.3353  0.2246
  940MPD2    H113749   3.746   3.473  12.349  1.0658 -0.0992  0.2126
  940MPD2    H213750   3.526   3.519  12.717  0.0812 -1.2179  0.3518
  940MPD2    H313751   3.539   3.452  12.476  0.8355 -2.4757 -1.2971
  940MPD2     N13752   3.970   3.556  12.429  0.0331 -0.1740 -0.0776
  940MPD2    H513753   3.966   3.492  12.350 -0.9537 -0.0393 -0.1318
  940MPD2    N113754   3.733   3.610  12.851 -0.3459  0.6694  0.1948
  940MPD2    H713755   3.806   3.675  12.877  1.5177 -2.1871  2.0415
  941MPD2     C13756   4.118   2.597   8.966  0.4295  0.2290 -0.5158
  941MPD2    C113757   4.032   2.624   9.070 -0.1772  0.3161  0.0215
  941MPD2    C213758   3.916   2.552   9.079 -0.3783 -0.3662 -0.5368
  941MPD2    C313759   3.878   2.462   8.976 -0.3161 -0.7938 -0.2268
  941MPD2    C413760   3.954   2.445   8.860  0.7490  0.1938 -0.1618
  941MPD2    C513761   4.073   2.518   8.859  0.1013 -0.4575  0.8769
  941MPD2     H13762   3.848   2.555   9.163  0.9002 -0.9823  0.5130
  941MPD2    H113763   3.927   2.379   8.779  1.6543  0.2028 -0.4718
  941MPD2    H213764   4.219   2.637   8.959  0.7840 -0.5603  0.0025
  941MPD2    H313765   4.146   2.499   8.781 -1.7346  2.3838 -1.5318
  941MPD2     N13766   3.770   2.377   8.993  0.1025 -0.2195  0.0714
  941MPD2    H513767   3.771   2.290   8.942  0.6591 -0.3815  0.3574
  941MPD2    N113768   4.066   2.719   9.176  0.0137 -0.1028  0.7772
  941MPD2    H713769   3.998   2.725   9.250 -1.4782 -0.5337 -0.5587
  942MPD2     C13770   4.064   4.159   8.753  0.1246 -0.1391  0.1869
  942MPD2    C113771   3.994   4.255   8.817 -0.2696  0.3219 -0.0904
  942MPD2    C213772   4.035   4.393   8.816 -0.5693  0.1764 -0.7395
  942MPD2    C313773   4.165   4.415   8.772  0.4587  1.2136  0.1981
  942MPD2    C413774   4.252   4.311   8.730 -0.3641 -0.1486  0.0883
  942MPD2    C513775   4.194   4.192   8.707 -0.0977 -0.2615  0.1702
  942MPD2     H13776   3.978   4.477   8.853 -1.7705 -0.7992 -0.3751
  942MPD2    H113777   4.351   4.333   8.691 -0.9265 -1.1073 -1.9309
  942MPD2    H213778   4.037   4.055   8.769  0.9444 -0.4229 -0.2555
  942MPD2    H313779   4.259   4.112   8.675 -1.3204 -1.0264 -0.4203
  942MPD2     N13780   4.221   4.546   8.781  0.0066 -0.3394  0.7705
  942MPD2    H513781   4.321   4.552   8.792  0.2085  0.0756 -1.2482
  942MPD2    N113782   3.874   4.246   8.888 -0.0568 -0.1508 -0.3636
  942MPD2    H713783   3.828   4.331   8.918  0.8813 -0.5414  2.2142
  943MPD2     C13784   1.458   2.098   9.898 -0.1614 -0.0110 -0.1796
  943MPD2    C113785   1.576   2.166   9.887 -0.4492 -0.4473 -0.6298
  943MPD2    C213786   1.596   2.256   9.789  0.1804 -0.6459 -0.3161
  943MPD2    C313787   1.488   2.295   9.706 -0.3156 -0.0958  0.8016
  943MPD2    C413788   1.373   2.239   9.711 -0.3159 -0.5564  0.6576
  943MPD2    C513789   1.357   2.128   9.805 -0.6071 -0.2365 -0.2709
  943MPD2     H13790   1.695   2.300   9.787  0.5714 -1.5645 -0.9906
  943MPD2    H113791   1.297   2.261   9.637  1.1979 -1.9455 -1.3019
  943MPD2    H213792   1.445   2.024   9.976 -2.3263 -0.1244 -0.6577
  943MPD2    H313793   1.262   2.076   9.810 -0.9580  0.4285 -0.0100
  943MPD2     N13794   1.506   2.392   9.604 -0.4482  0.7883 -0.1181
  943MPD2    H513795   1.428   2.405   9.540 -1.1583 -0.7176  0.4469
  943MPD2    N113796   1.684   2.128   9.977  0.0907 -0.3298 -0.3507
  943MPD2    H713797   1.657   2.054  10.040  0.7887  0.9761  1.4940
  944MPD2     C13798   2.003   1.837  11.728 -0.1252 -0.3091 -0.0539
  944MPD2    C113799   1.948   1.852  11.598 -0.2577  0.7870 -0.0067
  944MPD2    C213800   1.850   1.944  11.571 -0.0869 -0.3324  0.3453
  944MPD2    C313801   1.788   2.018  11.670 -0.3897 -0.1080  0.9258
  944MPD2    C413802   1.833   1.989  11.801  0.2032  0.3587  0.7137
  944MPD2    C513803   1.933   1.900  11.826  0.7788 -0.2264  0.9160
  944MPD2     H13804   1.799   1.942  11.475 -0.9029  3.5033  0.7051
  944MPD2    H113805   1.782   2.034  11.886 -1.0293  2.4405 -1.1174
  944MPD2    H213806   2.081   1.765  11.747  0.8579  0.6541 -0.4645
  944MPD2    H313807   1.977   1.899  11.925  0.1816  0.0213  1.1816
  944MPD2     N13808   1.690   2.110  11.638  0.5026 -0.1555  0.7813
  944MPD2    H513809   1.671   2.119  11.539  0.1863 -0.4012  0.8223
  944MPD2    N113810   2.005   1.770  11.498 -0.4123  0.2246 -0.0297
  944MPD2    H713811   2.102   1.742  11.510 -0.8711 -2.2605 -2.2000
    1TCq1    O113812   4.187   2.697  13.680  0.2326  0.3998  0.3781
    1TCq1    C113813   4.227   2.664  13.803  0.0918  0.2781  0.7192
    1TCq1    O213814   4.163   2.648  13.906 -0.5372 -0.0496 -0.3624
    1TCq1    C213815   4.368   2.627  13.805  0.0230 -0.0786 -0.0025
    1TCq1    C313816   4.428   2.546  13.706  0.7071  0.8557 -0.5852
    1TCq1    C413817   4.551   2.496  13.725 -0.5674  0.7105 -0.5903
    1TCq1    C513818   4.626   2.521  13.836 -0.6723  0.2163  0.0542
    1TCq1    C613819   4.563   2.595  13.935  0.1060  0.0428 -0.3370
    1TCq1    C713820   4.436   2.643  13.926  0.7030 -0.1886  0.6975
    1TCq1    C813821   4.651   2.649  14.041  0.3014  0.4262  0.6455
    1TCq1    O413822   0.044   2.604  14.050  0.3150  0.4298  0.4224
    1TCq1    C913823   4.617   2.438  13.610 -0.1834 -0.5744  0.6909
    1TCq1    O513824   0.014   2.409  13.625 -0.2050 -0.0044  0.0990
    1TCq1    O613825   4.558   2.451  13.498  0.7208  0.1905 -0.0008
    1TCq1    H113826   4.259   2.707  13.614  1.1329  0.4210  1.3705
    1TCq1    H213827   4.379   2.526  13.612  1.3160 -1.0270 -0.5023
    1TCq1    H313828   0.003   2.477  13.844 -1.1244 -0.7625  0.1922
    1TCq1    H413829   4.378   2.695  14.002 -0.8048  0.8948 -1.2015
    2MPD2     C13830   0.011   2.962  14.446  0.8426  0.2112  0.2305
    2MPD2    C113831   4.627   3.013  14.369 -0.1812 -0.1545  0.1493
    2MPD2    C213832   4.597   2.952  14.243  0.0002 -0.0745  0.0393
    2MPD2    C313833   4.673   2.844  14.209 -0.2012 -0.3538 -0.7792
    2MPD2    C413834   0.063   2.793  14.284  0.4327  0.0899  1.0685
    2MPD2    C513835   0.082   2.851  14.406  0.4308 -0.9706 -0.7052
    2MPD2     H13836   4.522   2.995  14.177 -2.8924 -1.7044  2.2686
    2MPD2    H113837   0.121   2.704  14.263 -0.3981 -0.7788  2.5516
    2MPD2    H213838   0.036   2.996  14.546  3.2545  0.5718 -0.4975
    2MPD2    H313839   0.170   2.811  14.456 -0.5606 -2.2494  0.0407
    2MPD2     N13840   4.618   2.778  14.090 -0.5391 -0.3757  0.1348
    2MPD2    H513841   4.546   2.836  14.047 -0.8610 -1.3776 -0.6645
    2MPD2    N113842   4.568   3.137  14.402 -0.2592  0.3367  0.6676
    2MPD2    H713843   4.606   3.195  14.477  0.7938 -0.6745  0.9150
    3TMC2    C113844   4.426   3.329  14.357 -0.7462  0.5102 -0.0703
    3TMC2    C213845   4.497   3.399  14.456 -0.0974  0.4999  0.5613
    3TMC2    C313846   4.514   3.534  14.435  0.4808 -0.1255 -0.2822
    3TMC2    C413847   4.359   3.388  14.257 -0.7723 -0.3105 -0.2439
    3TMC2    C513848   4.378   3.521  14.245 -0.3361 -0.3489  0.2351
    3TMC2    C613849   4.458   3.594  14.329  0.6466  0.0381  0.5013
    3TMC2     C13850   4.453   3.185  14.345 -0.4433 -0.0473  0.0828
    3TMC2     O13851   4.385   3.132  14.259  0.2178 -0.1391 -0.0877
    3TMC2     H13852   4.538   3.354  14.545  1.8230  2.0316  0.4338
    3TMC2    H113853   4.307   3.325  14.186 -0.8896  1.1708 -1.4772
    3TMC2    H213854   4.467   3.702  14.319  0.3948  0.2217  2.1535
    3TMC2    C713855   4.315   3.573  14.124  0.3498 -0.2938 -0.7221
    3TMC2    C813856   4.592   3.615  14.528 -0.5249 -0.4493 -0.2122
    3TMC2    O113857   4.203   3.538  14.094 -0.0238  0.3222  0.5294
    3TMC2    O213858   4.530   3.702  14.583 -0.2746  0.1375  0.0452
    3TMC2    O513859   4.701   3.629  14.451 -0.1624 -0.3618  0.1203
    3TMC2    H513860   0.014   3.543  14.417  0.7615 -0.5455  1.5355
    4MPD2     C13861   3.120   3.683  13.293  0.0659 -0.7170  0.6970
    4MPD2    C113862   3.198   3.777  13.226  0.5126  0.3537 -0.2717
    4MPD2    C213863   3.320   3.806  13.285 -0.1854 -0.1713 -0.1003
    4MPD2    C313864   3.370   3.736  13.397  0.0173  0.2167 -0.6834
    4MPD2    C413865   3.293   3.632  13.445  0.6240 -0.0075 -0.4842
    4MPD2    C513866   3.168   3.606  13.395 -0.2469  0.2632  0.0687
    4MPD2     H13867   3.373   3.891  13.243  2.1836 -1.6763 -0.1663
    4MPD2    H113868   3.328   3.564  13.522 -2.9046 -2.9430 -1.4647
    4MPD2    H213869   3.024   3.651  13.254  1.3078 -2.3330 -1.0397
    4MPD2    H313870   3.100   3.530  13.432 -0.6233  0.4784 -0.1748
    4MPD2     N13871   3.494   3.767  13.452  0.2086  0.2099 -0.0392
    4MPD2    H513872   3.551   3.842  13.413 -2.9537  1.3520 -2.4300
    4MPD2    N113873   3.136   3.848  13.117 -0.7333  0.4252 -0.3398
    4MPD2    H713874   3.042   3.818  13.093 -0.8482  1.3209 -1.0556
    5TCq2    C113875   3.551   3.713  13.563 -0.2316  0.0293  0.0277
    5TCq2    O213876   3.544   3.598  13.610 -0.5000 -0.2075  0.5042
    5TCq2    C213877   3.663   3.789  13.613  0.1733  0.1317 -0.1474
    5TCq2    C313878   3.664   3.925  13.591 -0.5963 -0.0243  0.6029
    5TCq2    C413879   3.784   3.991  13.612 -0.7451  0.0837  0.1207
    5TCq2    C513880   3.895   3.929  13.658  0.3257  0.2916 -0.1672
    5TCq2    C613881   3.885   3.795  13.695  0.6881 -0.3064 -0.6062
    5TCq2    C713882   3.775   3.727  13.668  0.4034  0.8131  0.0854
    5TCq2    C813883   4.012   3.732  13.733 -0.7174  0.2036 -0.3128
    5TCq2    O413884   4.003   3.616  13.772 -0.1069 -0.5532 -0.6212
    5TCq2    C913885   3.785   4.135  13.583  0.0412 -0.3874 -0.0351
    5TCq2    O513886   3.680   4.194  13.595 -0.1066  0.0192  0.2265
    5TCq2    O613887   3.900   4.185  13.558  0.3236  0.3910 -1.0078
    5TCq2    H213888   3.582   3.988  13.560  0.6286 -0.2688 -3.1503
    5TCq2    H313889   3.978   3.998  13.672  0.6623  0.0943 -1.1595
    5TCq2    H413890   3.769   3.621  13.692  1.0015  0.5021 -1.1444
    6MPD1     C13891   2.108   0.601  12.276  0.3424 -0.0037 -0.0679
    6MPD1    C113892   2.195   0.675  12.353 -0.2105 -0.5702 -0.0390
    6MPD1    C213893   2.286   0.603  12.433  0.3888 -0.3150 -0.5476
    6MPD1    C313894   2.276   0.462  12.451  0.9134  0.4483  0.2874
    6MPD1    C413895   2.176   0.399  12.387 -0.0034  0.2297 -0.3510
    6MPD1    C513896   2.109   0.460  12.279 -0.1865  0.3232  0.5294
    6MPD1     H13897   2.361   0.656  12.490  0.5897 -0.7098 -0.4504
    6MPD1    H113898   2.158   0.293  12.399  0.0201  0.2606 -0.0336
    6MPD1    H213899   2.043   0.641  12.198 -2.1426 -0.8084  1.6125
    6MPD1    H313900   2.033   0.407  12.222  0.6751 -1.4784  1.0826
    6MPD1     N13901   2.344   0.382  12.546  0.3368 -0.5450 -0.5186
    6MPD1    H513902   2.324   0.283  12.545  0.9287 -0.6667 -0.0481
    6MPD1    N113903   2.206   0.818  12.334 -0.6900 -1.0751  0.7779
    6MPD1    H613904   2.116   0.862  12.318  1.0197  2.0098 -0.4261
    6MPD1    H713905   2.260   0.858  12.411 -1.3526 -0.9806  1.1924
    7MPD2     C13906   2.415   4.394  12.878  0.8606  0.6506  0.1347
    7MPD2    C113907   2.525   4.440  12.812  0.5939  0.0026 -0.0512
    7MPD2    C213908   2.631   4.360  12.796  0.2368  0.3890 -0.0146
    7MPD2    C313909   2.626   4.227  12.820 -0.0062 -0.0878 -0.2944
    7MPD2    C413910   2.506   4.174  12.861  0.7187  0.1449 -0.0044
    7MPD2    C513911   2.406   4.252  12.893 -0.7714 -0.0670 -0.2781
    7MPD2     H13912   2.714   4.416  12.755  2.0793 -2.0400  0.3527
    7MPD2    H113913   2.491   4.066  12.869  0.6618  0.2317  1.1440
    7MPD2    H213914   2.330   4.456  12.904  1.2089  0.8187  0.8787
    7MPD2    H313915   2.321   4.213  12.949 -1.7082  2.7362  0.2490
    7MPD2     N13916   2.744   4.154  12.802  0.6518  0.2804 -0.5336
    7MPD2    H513917   2.821   4.215  12.776  0.6971  0.6359  0.4315
    7MPD2    N113918   2.545   4.573  12.775  0.2290  0.1009  0.2882
    7MPD2    H713919   2.621   4.595  12.712 -0.1058  0.7149  0.0965
    8TMC3    C113920   2.926   4.013  12.815  0.1263  0.1745 -0.5377
    8TMC3    C213921   2.980   3.969  12.925  0.1558  1.0437  0.5750
    8TMC3    C313922   3.111   4.020  12.952  0.8765 -0.4247 -0.4377
    8TMC3    C413923   2.986   4.100  12.729 -0.5515  0.6688  0.4417
    8TMC3    C513924   3.103   4.161  12.759  0.1525 -0.9600  0.1046
    8TMC3    C613925   3.168   4.120  12.876 -0.1328 -0.1644 -0.2764
    8TMC3     C13926   2.783   4.022  12.837 -0.4512 -0.3621 -1.0918
    8TMC3     O13927   2.722   3.939  12.906 -0.5892  0.3226 -0.5207
    8TMC3     H13928   2.927   3.923  13.007  1.2037  1.0585  1.2634
    8TMC3    H113929   2.941   4.118  12.632  0.4180  0.2218 -0.0927
    8TMC3    H213930   3.254   4.174  12.915  0.7491  0.3497 -2.8813
    8TMC3    C713931   3.073   4.306  12.744  0.0515 -0.1355 -0.0315
    8TMC3    C813932   3.192   3.956  13.057 -0.0235 -0.8478  0.3045
    8TMC3    O113933   2.956   4.326  12.717  0.3410 -0.6588 -0.1720
    8TMC3    O213934   3.296   4.017  13.087  0.1932  0.5375  0.0434
    9TMC3    C113935   2.522   0.294  12.666 -0.3218  0.4858  0.2744
    9TMC3    C213936   2.651   0.313  12.694 -0.1169 -0.1302 -0.4764
    9TMC3    C313937   2.713   0.203  12.753 -0.3330  0.2985 -0.5642
    9TMC3    C413938   2.454   0.180  12.704 -1.5592  0.4785 -0.1101
    9TMC3    C513939   2.523   0.082  12.769  0.5096 -0.0385  0.2074
    9TMC3    C613940   2.657   0.088  12.795 -0.0327  0.2964  0.1696
    9TMC3     C13941   2.451   0.412  12.622 -0.1909  0.8488 -0.0595
    9TMC3     O13942   2.510   0.515  12.635  0.0994  0.3564  0.0302
    9TMC3     H13943   2.706   0.393  12.646 -0.0390  0.5570  0.7499
    9TMC3    H113944   2.351   0.156  12.678 -0.4533 -2.8572 -1.3977
    9TMC3    H213945   2.712   0.013  12.850  0.8677  0.8571  0.0297
    9TMC3    C713946   2.462   4.677  12.805  0.1428  0.2255  0.2385
    9TMC3    C813947   2.861   0.204  12.748  0.3791  0.5851 -0.1035
    9TMC3    O113948   2.345   4.678  12.840 -0.5205 -0.2285 -0.1174
    9TMC3    O213949   2.915   0.310  12.767  0.0461  0.7675  0.0018
   10MPD2     C13950   3.273   4.622  12.805 -0.3641  0.3169  0.0443
   10MPD2    C113951   3.164   4.538  12.773 -0.4095  0.8953 -0.4358
   10MPD2    C213952   3.046   4.608  12.743  0.4211 -0.5705  0.2013
   10MPD2    C313953   3.037   0.025  12.755 -0.8608 -0.4533  0.0179
   10MPD2    C413954   3.148   0.105  12.781 -0.5182  0.0232 -0.4619
   10MPD2    C513955   3.263   0.037  12.805 -0.5979  0.5717 -0.2030
   10MPD2     H13956   2.956   4.556  12.711  1.8388 -2.3161 -0.9281
   10MPD2    H113957   3.145   0.213  12.779 -0.8191  0.0202 -0.0475
   10MPD2    H213958   3.372   4.579  12.818 -0.8940 -0.9827 -0.1777
   10MPD2    H313959   3.354   0.096  12.814 -0.5400  0.6490 -1.2741
   10MPD2     N13960   2.905   0.076  12.740  0.4659 -0.0845 -0.2422
   10MPD2    H513961   2.836   0.006  12.715 -0.2422  0.6005 -0.2056
   10MPD2    N113962   3.173   4.395  12.772 -0.4554 -0.3079  0.3365
   10MPD2    H713963   3.263   4.354  12.797 -0.1067  0.6822  0.6911
   11MPD2     C13964   4.504   3.739  13.847  0.2524  0.3234 -0.8090
   11MPD2    C113965   4.394   3.682  13.914 -0.3051  0.5227  0.2762
   11MPD2    C213966   4.269   3.717  13.866  0.3927 -0.1790  0.0894
   11MPD2    C313967   4.254   3.778  13.744 -0.3177  0.1425  0.1329
   11MPD2    C413968   4.361   3.837  13.677  0.5801 -0.2454 -0.0517
   11MPD2    C513969   4.482   3.823  13.734 -0.1629 -0.5078 -0.0973
   11MPD2     H13970   4.182   3.673  13.912  1.0347 -3.8208 -2.1435
   11MPD2    H113971   4.349   3.883  13.580  1.1320 -0.3730 -0.1773
   11MPD2    H213972   4.605   3.719  13.882  0.8971  0.3470 -2.6552
   11MPD2    H313973   4.567   3.873  13.689 -0.9505 -0.3082 -1.3761
   11MPD2     N13974   4.122   3.801  13.696  0.1226 -0.0522 -0.1607
   11MPD2    H513975   4.107   3.877  13.630  2.4334 -0.7071 -1.4477
   11MPD2    N113976   4.412   3.629  14.040  0.2793 -0.0396  0.3417
   11MPD2    H713977   4.504   3.643  14.080  0.7552  0.1544 -0.8199
    1MPD1     C13978   1.181   0.333  17.272 -0.3226  0.1713  0.6337
    1MPD1    C113979   1.164   0.355  17.138 -0.5133 -0.3370  0.0206
    1MPD1    C213980   1.281   0.389  17.070 -0.7490  0.3749 -0.1055
    1MPD1    C313981   1.407   0.412  17.138 -0.3969  0.2076 -0.0519
    1MPD1    C413982   1.414   0.393  17.275  0.1793  0.0299 -0.5862
    1MPD1    C513983   1.304   0.353  17.336 -0.3255 -0.2460 -0.7997
    1MPD1     H13984   1.278   0.398  16.962 -2.1520 -0.4486 -0.1288
    1MPD1    H113985   1.502   0.416  17.333 -1.3776 -1.0237  2.1939
    1MPD1    H213986   1.105   0.299  17.340 -1.6727 -0.2840 -1.0952
    1MPD1    H313987   1.308   0.347  17.444  0.8774 -0.2025 -0.8432
    1MPD1     N13988   1.522   0.466  17.074  0.2565  0.3407 -0.1763
    1MPD1    H513989   1.598   0.491  17.137 -0.9143 -0.7528  1.6983
    1MPD1    N113990   1.046   0.313  17.079 -0.9276  0.2102  0.4419
    1MPD1    H613991   1.025   0.346  16.985 -1.5744  0.3071  0.6207
    1MPD1    H713992   0.961   0.322  17.134 -1.1874 -0.5244  0.1534
    2MPD1     C13993   2.395   0.938  17.213  0.2079 -0.1083 -0.3735
    2MPD1    C113994   2.366   0.978  17.083 -0.3175 -0.0470 -0.3743
    2MPD1    C213995   2.249   0.941  17.024  0.2029  0.4680 -0.2073
    2MPD1    C313996   2.164   0.847  17.081  0.2014 -0.1358  0.6799
    2MPD1    C413997   2.201   0.789  17.199 -0.6625 -0.1127  0.0501
    2MPD1    C513998   2.310   0.838  17.262  0.1382 -1.0660 -0.1172
    2MPD1     H13999   2.219   0.985  16.929 -1.6727  1.3562  0.7958
    2MPD1    H114000   2.145   0.710  17.248 -0.4637  1.0045  2.0653
    2MPD1    H214001   2.476   0.967  17.278  0.5668 -0.6304 -0.5859
    2MPD1    H314002   2.335   0.788  17.355 -0.2906 -3.2900 -1.2006
    2MPD1     N14003   2.042   0.815  17.012  0.1440  0.1044 -0.3773
    2MPD1    H514004   2.031   0.867  16.926 -1.3067 -1.2919 -1.0206
    2MPD1    N114005   2.442   1.082  17.024  0.0538  0.5617 -0.2276
    2MPD1    H614006   2.436   1.094  16.923  0.2311  0.2375 -0.2764
    2MPD1    H714007   2.538   1.080  17.055 -0.5642 -1.5470  1.4862
    3TMC3    C114008   1.852   0.693  16.956 -0.1822  1.0421 -0.2700
    3TMC3    C214009   1.863   0.728  16.820  0.3915 -0.4135 -0.3833
    3TMC3    C314010   1.780   0.664  16.731 -0.2890  0.6696 -0.9740
    3TMC3    C414011   1.747   0.614  17.001  0.0395 -0.3908 -0.1504
    3TMC3    C514012   1.653   0.574  16.909 -0.0718 -0.0283  0.3303
    3TMC3    C614013   1.677   0.594  16.775  0.5661  0.5603 -0.0308
    3TMC3     C14014   1.952   0.717  17.053  0.3274 -0.1722 -0.3583
    3TMC3     O14015   1.942   0.649  17.153  0.2807  0.2279 -0.0956
    3TMC3     H14016   1.952   0.773  16.777  0.2129 -0.3464 -0.6814
    3TMC3    H114017   1.748   0.562  17.096  3.3779 -2.8868 -1.5421
    3TMC3    H214018   1.611   0.549  16.702 -1.2244 -0.1089  2.0007
    3TMC3    C714019   1.540   0.487  16.936  0.3073  1.0402  0.2229
    3TMC3    C814020   1.805   0.672  16.582  0.9885  0.1314  0.4333
    3TMC3    O114021   1.465   0.454  16.846 -0.0898 -0.5722 -0.9427
    3TMC3    O214022   1.705   0.657  16.516  0.4448  0.2043 -0.3223
    4MPD1     C14023   2.110   0.613  16.177 -0.0672  0.0564  0.3708
    4MPD1    C114024   2.187   0.587  16.288 -0.1937 -0.1171  0.5824
    4MPD1    C214025   2.125   0.594  16.414  0.4370 -0.0406 -0.1337
    4MPD1    C314026   1.990   0.618  16.428 -0.8634  0.2619  0.3853
    4MPD1    C414027   1.914   0.635  16.310  0.6670 -0.5183 -0.2241
    4MPD1    C514028   1.980   0.634  16.191 -0.1611  0.7894  0.1511
    4MPD1     H14029   2.181   0.591  16.507 -1.4531 -1.6637  0.9509
    4MPD1    H114030   1.810   0.664  16.308  0.5723 -0.8686 -0.2835
    4MPD1    H214031   2.158   0.622  16.080  0.6095 -0.3859  0.6702
    4MPD1    H314032   1.921   0.636  16.100  0.0077 -2.1689 -0.0312
    4MPD1     N14033   1.933   0.635  16.559 -0.5798  0.5044 -0.2205
    4MPD1    H514034   1.989   0.620  16.642 -1.7871  0.2103  0.5376
    4MPD1    N114035   2.324   0.598  16.275 -0.0768  0.6400 -0.1102
    4MPD1    H614036   2.350   0.561  16.183 -0.3195 -1.0084  0.4999
    4MPD1    H714037   2.380   0.546  16.343 -0.6216  1.1468  0.7224
    1TCq1    O114038   3.778   0.115  11.169 -0.1067 -0.2107 -0.4896
    1TCq1    C114039   3.752   0.129  11.303 -0.7035  0.4544  0.5731
    1TCq1    O214040   3.810   0.067  11.391  0.2400 -0.2145 -0.2732
    1TCq1    C214041   3.648   0.229  11.334 -0.4396 -0.2053  0.2332
    1TCq1    C314042   3.632   0.330  11.236  0.6780 -0.1559 -0.0882
    1TCq1    C414043   3.565   0.441  11.282 -0.6893  0.1405 -0.1796
    1TCq1    C514044   3.496   0.441  11.399  1.0719  0.5055  0.2288
    1TCq1    C614045   3.513   0.331  11.489 -0.2881  0.0351  0.3989
    1TCq1    C714046   3.597   0.230  11.457  0.0479  0.1622  0.5866
    1TCq1    C814047   3.484   0.342  11.626  0.2706  0.0228  0.8077
    1TCq1    O414048   3.508   0.240  11.689  0.0258  0.4168 -0.1547
    1TCq1    C914049   3.521   0.534  11.178 -1.2383 -0.1979  0.0096
    1TCq1    O514050   3.555   0.525  11.055 -0.2545 -0.6063  0.5088
    1TCq1    O614051   3.442   0.629  11.222  0.6895 -0.4781  0.5338
    1TCq1    H114052   3.725   0.156  11.097  0.0699  1.0912  0.1357
    1TCq1    H214053   3.676   0.327  11.136  0.5186 -0.1017 -0.1597
    1TCq1    H314054   3.429   0.519  11.435 -1.2494 -1.7823  0.8348
    1TCq1    H414055   3.616   0.145  11.522  0.2651 -0.9280 -0.8786
    2MPD1     C14056   3.360   0.551  12.062 -0.3232 -0.4461  0.0741
    2MPD1    C114057   3.399   0.656  11.981  0.4174  0.5022  0.1758
    2MPD1    C214058   3.424   0.624  11.850 -0.1581  0.4213  0.2985
    2MPD1    C314059   3.419   0.494  11.808  0.1051  1.3378  1.4254
    2MPD1    C414060   3.366   0.392  11.884  0.6040  0.4876 -0.4452
    2MPD1    C514061   3.330   0.428  12.011 -0.6452 -0.3301 -0.0492
    2MPD1     H14062   3.451   0.695  11.774 -1.3131 -0.4348 -0.9041
    2MPD1    H114063   3.357   0.290  11.850  0.4490  0.8556 -1.5201
    2MPD1    H214064   3.335   0.571  12.166  1.2803  0.4606  0.2808
    2MPD1    H314065   3.298   0.352  12.082  2.4564 -0.3990  1.2955
    2MPD1     N14066   3.448   0.470  11.676  0.0284  0.7528  0.1025
    2MPD1    H514067   3.472   0.543  11.610  1.0907 -0.4148 -0.8071
    2MPD1    N114068   3.441   0.775  12.039 -0.3177  0.2888  0.5659
    2MPD1    H614069   3.380   0.803  12.116 -1.0857 -1.6683  0.6638
    2MPD1    H714070   3.443   0.845  11.965  2.6557  0.6300  0.9492
    1TCq1    O114071   1.995   4.614   8.761 -0.5840  0.5435 -0.5761
    1TCq1    C114072   2.068   4.518   8.811 -0.0680 -0.3021  0.7238
    1TCq1    O214073   2.063   4.398   8.799  0.6794 -0.8062 -0.4303
    1TCq1    C214074   2.148   4.587   8.911 -0.1516  0.7215 -0.3246
    1TCq1    C314075   2.205   4.708   8.888  0.1153 -1.0603  0.2881
    1TCq1    C414076   2.320   0.025   8.955 -0.7304  0.3548  1.1346
    1TCq1    C514077   2.340   4.680   9.071  0.4132  0.4833  0.1232
    1TCq1    C614078   2.277   4.564   9.094  0.3313 -0.5389 -0.0411
    1TCq1    C714079   2.187   4.502   9.010  0.0669  0.1514  0.7877
    1TCq1    C814080   2.339   4.480   9.193  0.2796 -0.0782  0.7743
    1TCq1    O414081   2.276   4.379   9.221  0.0212  0.0002 -0.2647
    1TCq1    C914082   2.369   0.159   8.946 -0.2370 -0.1107  0.9219
    1TCq1    O514083   2.450   0.199   9.035  0.1459  0.1634  0.4770
    1TCq1    O614084   2.329   0.241   8.860  0.2992 -0.3194 -1.0156
    1TCq1    H114085   1.988   4.691   8.821 -1.9403 -0.9228  1.1628
    1TCq1    H214086   2.173   0.036   8.797  1.2180  2.6045  1.8872
    1TCq1    H314087   2.406   0.007   9.142  2.1262 -1.3374 -0.2269
    1TCq1    H414088   2.160   4.398   9.002  0.6086 -0.1421  2.6682
    2MPD1     C14089   2.770   4.289   9.389 -0.2419  0.0104  0.1658
    2MPD1    C114090   2.791   4.412   9.333  0.2986 -0.2719 -0.0552
    2MPD1    C214091   2.692   4.467   9.263 -0.3012  0.4590  0.5328
    2MPD1    C314092   2.563   4.428   9.272 -1.3567 -0.2741  0.6669
    2MPD1    C414093   2.533   4.326   9.355  0.0599 -0.1517  0.1311
    2MPD1    C514094   2.639   4.249   9.402 -0.4757  0.2795  0.2821
    2MPD1     H14095   2.709   4.555   9.201 -0.9665  0.9824  1.0913
    2MPD1    H114096   2.431   4.293   9.366 -0.1129  0.2744 -0.1783
    2MPD1    H214097   2.850   4.225   9.424 -0.4968 -0.4722 -0.1255
    2MPD1    H314098   2.615   4.155   9.451  0.8035  0.7754  1.8861
    2MPD1     N14099   2.469   4.510   9.203  0.3948  0.3627  0.3708
    2MPD1    H514100   2.505   4.590   9.152  1.6709 -0.7909 -0.5446
    2MPD1    N114101   2.922   4.444   9.293 -0.4437 -0.0744 -0.2799
    2MPD1    H614102   2.912   4.545   9.281 -1.1411 -0.1076  0.0085
    2MPD1    H714103   2.992   4.430   9.365 -1.5977  1.1113  1.0890
    1MPD1     C14104   0.215   4.270  12.184 -0.4987  0.6290 -0.0324
    1MPD1    C114105   0.347   4.245  12.171  0.4999 -0.6614 -0.5350
    1MPD1    C214106   0.440   4.345  12.146 -0.1818  0.0659 -0.4407
    1MPD1    C314107   0.395   4.474  12.149 -0.0279 -0.4569  0.0764
    1MPD1    C414108   0.258   4.495  12.174  0.0763 -1.1112 -0.2545
    1MPD1    C514109   0.165   4.398  12.195  1.1567  0.6218 -0.4885
    1MPD1     H14110   0.546   4.323  12.137 -0.2940 -1.0692  1.1236
    1MPD1    H114111   0.220   4.596  12.187 -0.7404 -1.7547  2.2795
    1MPD1    H214112   0.145   4.189  12.204  1.5622 -0.9787  0.6466
    1MPD1    H314113   0.061   4.417  12.219  1.8171  1.6709  1.4992
    1MPD1     N14114   0.492   4.576  12.126 -0.4504  0.7188  0.1907
    1MPD1    H514115   0.585   4.541  12.107 -0.9765  0.8887 -2.7471
    1MPD1    N114116   0.396   4.113  12.166 -0.0139 -0.5186  0.6624
    1MPD1    H614117   0.347   4.062  12.240 -3.6342  1.2176 -0.5631
    1MPD1    H714118   0.496   4.106  12.183 -0.0315 -0.3639  0.8334
    2MPD1     C14119   4.505   0.343  11.971  0.4762  0.0680  0.1279
    2MPD1    C114120   4.408   0.379  11.878  0.3281 -0.4120  0.0491
    2MPD1    C214121   4.432   0.405  11.746 -0.0489 -0.0658  0.4276
    2MPD1    C314122   4.561   0.418  11.706 -0.6913  0.3426  0.8581
    2MPD1    C414123   4.668   0.398  11.795 -0.2904  0.3868 -0.1513
    2MPD1    C514124   4.638   0.353  11.922 -0.5350  0.0539  0.7812
    2MPD1     H14125   4.349   0.411  11.677  0.4607 -0.1908 -0.1946
    2MPD1    H114126   0.049   0.385  11.765 -0.5584  1.0060 -1.3273
    2MPD1    H214127   4.472   0.296  12.063  1.4814 -1.0398 -0.0693
    2MPD1    H314128   0.002   0.313  11.977  0.9695  3.2639  0.7519
    2MPD1     N14129   4.599   0.439  11.569  0.2870 -0.1894 -0.1541
    2MPD1    H514130   4.697   0.421  11.555 -0.1572 -2.8627  0.1604
    2MPD1    N114131   4.278   0.364  11.916  0.1372  0.0661 -0.5439
    2MPD1    H614132   4.266   0.374  12.017  1.6033 -0.1681 -0.3383
    2MPD1    H714133   4.219   0.429  11.864  0.7157 -0.8014 -2.2586
    3MPD1     C14134   4.587   1.257  11.045  0.0460 -0.0831 -0.0639
    3MPD1    C114135   4.461   1.204  11.068  0.1837 -0.0330  1.1512
    3MPD1    C214136   4.460   1.072  11.104 -0.4402  0.2269  0.4971
    3MPD1    C314137   4.567   0.990  11.090  0.7618  0.5249 -0.0148
    3MPD1    C414138   4.682   1.043  11.040 -0.2270  0.2320  0.4565
    3MPD1    C514139   4.695   1.174  11.035 -0.4231  0.2091  0.4040
    3MPD1     H14140   4.368   1.020  11.127  0.1354 -0.7023  0.6831
    3MPD1    H114141   0.056   0.993  11.025 -1.2436 -0.9202 -2.1576
    3MPD1    H214142   4.598   1.363  11.024  1.1887 -0.0975  0.4673
    3MPD1    H314143   0.072   1.208  11.005  0.4437 -0.8004  2.1648
    3MPD1     N14144   4.559   0.846  11.115  0.7411  0.0940  0.3274
    3MPD1    H514145   4.472   0.818  11.159  1.4437  1.6821  2.7007
    3MPD1    N114146   4.348   1.283  11.085 -0.1424 -0.2505  0.1678
    3MPD1    H614147   4.357   1.370  11.032 -1.8580  0.6519  1.3605
    3MPD1    H714148   4.264   1.233  11.060  2.6343 -3.4267 -2.8643
    4MPD2     C14149   0.695   0.633  11.907 -0.0643 -0.2663  0.1109
    4MPD2    C114150   0.766   0.514  11.894 -0.1023  0.1586  0.1897
    4MPD2    C214151   0.846   0.500  11.778  0.1081 -0.2691  0.0662
    4MPD2    C314152   0.849   0.604  11.677 -0.4887  0.0265  0.1856
    4MPD2    C414153   0.767   0.711  11.697  0.3356 -0.4754 -0.1755
    4MPD2    C514154   0.684   0.722  11.802 -1.0965 -0.5040  0.2303
    4MPD2     H14155   0.897   0.405  11.775 -0.9008 -0.7692 -1.2561
    4MPD2    H114156   0.755   0.777  11.612  0.9827  0.9906  0.8799
    4MPD2    H214157   0.634   0.656  11.994  1.9838  1.6291  1.0522
    4MPD2    H314158   0.622   0.809  11.816 -0.8072 -0.1237 -0.8088
    4MPD2     N14159   0.907   0.590  11.548 -0.5920 -0.1763 -0.4009
    4MPD2    H514160   0.880   0.651  11.471  1.5996  0.1584 -0.8899
    4MPD2    N114161   0.768   0.413  11.994 -0.2323 -0.1515 -0.2881
    4MPD2    H714162   0.833   0.338  11.975  0.3367  0.1814  0.3503
    5TMC3    C114163   0.707   0.274  12.156  0.4174 -0.6679 -1.0894
    5TMC3    C214164   0.593   0.199  12.148  0.4745  0.8902  0.3708
    5TMC3    C314165   0.594   0.074  12.099  0.0523 -0.5410 -0.6302
    5TMC3    C414166   0.826   0.223  12.130 -0.7018 -0.1424 -0.7096
    5TMC3    C514167   0.830   0.091  12.077 -0.3214  0.2463  0.7318
    5TMC3    C614168   0.711   0.011  12.065  0.7635  0.7483 -0.0488
    5TMC3     C14169   0.681   0.401  12.093 -0.6960 -0.2259  0.1970
    5TMC3     O14170   0.597   0.479  12.136  0.2969  0.3756  0.1838
    5TMC3     H14171   0.502   0.249  12.180 -0.5034 -1.2145  0.8304
    5TMC3    H114172   0.913   0.288  12.137 -0.8276  0.0163 -0.6423
    5TMC3    H214173   0.710   4.638  12.012  0.6576  0.0890  1.1187
    5TMC3    C714174   0.915   0.083  11.959 -0.0086  0.2044 -0.1076
    5TMC3    C814175   0.475   4.711  12.119  0.2883  0.3026  0.9404
    5TMC3    O114176   0.959   0.195  11.932 -0.5873 -0.5856 -0.0441
    5TMC3    O214177   0.373   0.052  12.126  0.2099 -0.0277 -0.0226
    6TMC3    C114178   4.579   0.494  11.334 -0.4009  0.7702 -0.6234
    6TMC3    C214179   4.557   0.604  11.257 -0.1819  0.5231  0.3232
    6TMC3    C314180   4.629   0.620  11.141  0.2551  0.1259 -0.0188
    6TMC3    C414181   4.678   0.409  11.304  0.6646 -0.6908  0.1868
    6TMC3    C514182   0.034   0.435  11.194 -0.2736  0.6971  0.2213
    6TMC3    C614183   0.001   0.528  11.105 -0.6020  0.4532  1.0804
    6TMC3     C14184   4.515   0.487  11.467 -0.3307 -1.1778 -0.4405
    6TMC3     O14185   4.395   0.520  11.474  0.0626  0.1750  0.5564
    6TMC3     H14186   4.485   0.669  11.307  0.9502  1.7669  0.3207
    6TMC3    H114187   4.711   0.326  11.366 -1.3223 -0.0721  2.0862
    6TMC3    H214188   0.073   0.541  11.025 -2.7340 -0.2058 -0.9228
    6TMC3    C714189   0.158   0.362  11.165 -0.2029  0.5985 -0.6596
    6TMC3    C814190   4.653   0.751  11.075  1.4360 -0.5700 -0.0790
    6TMC3    O114191   0.243   0.405  11.088 -0.4655  0.8884  0.0863
    6TMC3    O214192   0.032   0.765  11.010  0.9054  0.1661  0.1303
    7MPD2     C14193   1.074   4.592  11.528  1.2510 -0.0187  0.7034
    7MPD2    C114194   1.049   0.007  11.557 -0.4800 -1.0306  0.2697
    7MPD2    C214195   1.001   0.034  11.678 -0.4090 -0.2019  0.6411
    7MPD2    C314196   0.977   4.655  11.770 -0.5836  0.1976 -0.1108
    7MPD2    C414197   0.995   4.528  11.744  0.0944  0.2927  0.1213
    7MPD2    C514198   1.051   4.497  11.625 -0.1411  0.6869  0.3622
    7MPD2     H14199   0.974   0.135  11.708  1.7582  0.6330 -0.1972
    7MPD2    H114200   0.989   4.446  11.814 -1.5367  0.4804  0.2102
    7MPD2    H214201   1.111   4.572  11.428  0.3130 -1.4754  0.6443
    7MPD2    H314202   1.087   4.395  11.615 -3.4488 -0.4246 -0.0016
    7MPD2     N14203   0.923   4.684  11.895  0.7669 -0.0719 -0.5556
    7MPD2    H514204   0.893   4.605  11.951 -0.1139  0.5332 -0.1804
    7MPD2    N114205   1.062   0.115  11.466  0.4185  0.0575  0.2283
    7MPD2    H714206   1.054   0.207  11.507  2.1050 -0.2778  1.3418
    8TMC3    C114207   1.032   0.237  11.268  0.0667 -0.6642 -0.1555
    8TMC3    C214208   0.912   0.241  11.197 -0.2410  0.1899 -0.6850
    8TMC3    C314209   0.820   0.331  11.240  0.0427  0.3497 -0.2888
    8TMC3    C414210   1.068   0.343  11.348 -0.8304 -0.3869  0.2792
    8TMC3    C514211   0.986   0.449  11.368 -0.2927 -0.4952 -0.6391
    8TMC3    C614212   0.857   0.445  11.316  0.8467 -0.2317  0.6081
    8TMC3     C14213   1.056   0.106  11.327 -0.1166 -0.6730 -0.6136
    8TMC3     O14214   1.035   0.016  11.253  0.7438  0.4102  0.1763
    8TMC3     H14215   0.879   0.158  11.135  0.0370 -0.1767 -0.3427
    8TMC3    H114216   1.169   0.338  11.387 -0.2149  1.5970 -1.0823
    8TMC3    H214217   0.786   0.524  11.339  1.0964  0.1063  0.2150
    8TMC3    C714218   0.979   0.477  11.512  0.2081 -0.3168 -0.1317
    8TMC3    C814219   0.682   0.310  11.215  0.3983 -0.5375 -0.7569
    8TMC3    O114220   1.039   0.400  11.587  0.4799  0.0722 -0.4786
    8TMC3    O214221   0.608   0.407  11.237  0.2322 -0.1210 -0.3443
    9MPD2     C14222   0.507   0.014  11.302  0.2619 -0.8955 -0.0081
    9MPD2    C114223   0.527   0.128  11.235  0.3444 -0.1821  0.4974
    9MPD2    C214224   0.414   0.204  11.200 -0.6029  0.3327  0.5413
    9MPD2    C314225   0.285   0.166  11.243 -0.2251 -0.1312  0.0339
    9MPD2    C414226   0.271   0.049  11.306  0.1196 -1.2028  0.1474
    9MPD2    C514227   0.377   4.692  11.318 -0.2842  0.6632  0.5470
    9MPD2     H14228   0.431   0.301  11.155  2.0373 -1.2462 -1.8549
    9MPD2    H114229   0.176   0.018  11.349  0.5834 -0.7001  1.5186
    9MPD2    H214230   0.591   4.675  11.333  0.1885  0.4887  2.8706
    9MPD2    H314231   0.365   4.600  11.375 -1.1232 -0.5117 -1.5416
    9MPD2     N14232   0.166   0.242  11.235  0.3177  0.5013  0.2558
    9MPD2    H514233   0.096   0.216  11.304  2.1384 -1.4250  1.3592
    9MPD2    N114234   0.656   0.178  11.209 -0.5083 -0.0512  0.6652
    9MPD2    H714235   0.727   0.107  11.225  0.2192  0.5572  0.1353
    1MPD1     C14236   3.828   0.086   1.146 -0.2954 -0.1515 -0.0561
    1MPD1    C114237   3.794   0.096   1.276 -0.5417 -0.0572 -0.3062
    1MPD1    C214238   3.666   0.145   1.295  0.2700 -0.6488 -0.0546
    1MPD1    C314239   3.590   0.186   1.189 -0.5135  0.3765 -0.5335
    1MPD1    C414240   3.639   0.180   1.064 -0.4611 -0.1578 -0.2633
    1MPD1    C514241   3.764   0.135   1.038  0.6237  0.3285 -0.1061
    1MPD1     H14242   3.638   0.135   1.399  1.2840  1.6277  0.4368
    1MPD1    H114243   3.576   0.204   0.979 -0.3074 -0.6778 -0.5197
    1MPD1    H214244   3.920   0.033   1.125  0.5236 -0.4007  4.1766
    1MPD1    H314245   3.810   0.113   0.942 -0.3909 -1.5844 -0.1536
    1MPD1     N14246   3.455   0.232   1.214  0.1924  0.0875  0.2997
    1MPD1    H514247   3.401   0.259   1.133 -1.4899  0.3878  1.5385
    1MPD1    N114248   3.867   0.031   1.375 -0.0117  0.5931  0.2548
    1MPD1    H614249   3.855   0.078   1.465 -0.5789 -0.9992  1.0265
    1MPD1    H714250   3.967   0.028   1.359 -0.0400  2.8932 -0.3191
    2MPD1     C14251   2.781   0.908   0.947  1.3090 -0.7133  0.0235
    2MPD1    C114252   2.730   0.847   1.063 -0.2600 -0.7549 -0.5050
    2MPD1    C214253   2.786   0.731   1.108  0.2650 -0.6560 -0.1011
    2MPD1    C314254   2.896   0.667   1.054  0.8189 -0.2009 -0.4571
    2MPD1    C414255   2.956   0.737   0.948  0.5012  0.4083  0.3319
    2MPD1    C514256   2.897   0.850   0.898 -0.0925 -0.1704 -0.5124
    2MPD1     H14257   2.741   0.681   1.193  0.3301 -0.4412  0.0619
    2MPD1    H114258   3.039   0.700   0.890 -0.1327  1.9343 -1.5367
    2MPD1    H214259   2.743   1.002   0.909 -0.9510 -1.3191  0.8040
    2MPD1    H314260   2.948   0.893   0.813 -1.2363 -2.2331 -2.2519
    2MPD1     N14261   2.944   0.550   1.122  0.5803  0.2408  0.7595
    2MPD1    H514262   2.884   0.519   1.198  0.2896 -0.4910  0.2325
    2MPD1    N114263   2.610   0.884   1.123  0.1568  0.6917 -0.5468
    2MPD1    H614264   2.596   0.985   1.131 -2.4471  0.4645 -2.0546
    2MPD1    H714265   2.593   0.845   1.215  1.4287 -1.6420 -1.3125
    3TCq2    C114266   3.073   0.502   1.115 -0.1336 -0.6788  0.0439
    3TCq2    O214267   3.164   0.543   1.041  0.0069 -0.2219 -0.3984
    3TCq2    C214268   3.098   0.412   1.224  0.4108 -0.1240 -0.0083
    3TCq2    C314269   3.002   0.359   1.306  0.4363 -0.1004 -0.4984
    3TCq2    C414270   3.024   0.244   1.379  0.9125 -0.1603  0.5802
    3TCq2    C514271   3.155   0.207   1.403  0.6220  0.3683 -0.0231
    3TCq2    C614272   3.252   0.263   1.325 -0.0845 -0.5512  0.5244
    3TCq2    C714273   3.227   0.371   1.241  0.2225  0.4034 -0.1004
    3TCq2    C814274   3.383   0.207   1.326 -0.3844  0.4848 -0.4372
    3TCq2    O414275   3.413   0.137   1.423  0.6144 -0.5680  0.1927
    3TCq2    C914276   2.930   0.181   1.460  0.3837  0.3324 -0.7345
    3TCq2    O514277   2.825   0.242   1.491  0.6133  0.3694  0.3780
    3TCq2    O614278   2.941   0.057   1.462 -0.7113 -0.2336  0.1392
    3TCq2    H214279   2.897   0.384   1.294  0.4229 -0.8136 -1.8230
    3TCq2    H314280   3.175   0.119   1.463  1.7754 -0.4912 -1.6647
    3TCq2    H414281   3.309   0.413   1.183  0.6365 -1.3515 -0.7962
    1TCq1    O114282   2.063   2.940  12.775 -0.1894 -0.4671 -0.2031
    1TCq1    C114283   2.186   2.888  12.795 -0.7326 -0.4185 -0.3168
    1TCq1    O214284   2.279   2.955  12.836  0.1393 -0.0725 -0.1180
    1TCq1    C214285   2.188   2.795  12.687  0.5775 -0.8091 -0.0202
    1TCq1    C314286   2.105   2.684  12.685  0.5061  0.4990 -0.4366
    1TCq1    C414287   2.139   2.582  12.603 -0.2932 -0.2162 -0.7938
    1TCq1    C514288   2.250   2.589  12.521  0.9369  0.4326 -0.1236
    1TCq1    C614289   2.338   2.698  12.533 -0.3476  0.4396  0.6725
    1TCq1    C714290   2.302   2.802  12.613 -0.4855  0.8820 -0.1241
    1TCq1    C814291   2.437   2.711  12.428 -1.2504  0.3102  0.3633
    1TCq1    O414292   2.439   2.617  12.349  0.3611  0.1588  0.0590
    1TCq1    C914293   2.061   2.465  12.591 -0.0494  0.5952  1.1365
    1TCq1    O514294   1.947   2.468  12.636 -0.3983 -0.2936 -0.1258
    1TCq1    O614295   2.115   2.365  12.538 -0.0078 -0.2870 -0.9602
    1TCq1    H114296   1.989   2.888  12.737 -0.8699 -0.4225  1.0612
    1TCq1    H214297   2.009   2.680  12.736  1.0864  0.8876  0.6921
    1TCq1    H314298   2.273   2.508  12.452  1.8199 -0.7212  1.5470
    1TCq1    H414299   2.365   2.887  12.636  0.1396 -0.1790  2.1406
    2MPD2     C14300   2.659   2.763  12.259 -0.1085 -0.3218  0.0314
    2MPD2    C114301   2.647   2.819  12.384  0.9915 -0.5031  0.1637
    2MPD2    C214302   2.736   2.918  12.419 -0.1893  0.2389 -0.2373
    2MPD2    C314303   2.839   2.963  12.334  0.4874 -0.3777 -0.4005
    2MPD2    C414304   2.856   2.896  12.212 -0.4674  0.0389 -0.4901
    2MPD2    C514305   2.765   2.800  12.179 -0.2592 -0.9188  0.1721
    2MPD2     H14306   2.715   2.979  12.506  1.0337  2.5911 -1.5821
    2MPD2    H114307   2.937   2.921  12.145  0.5797 -0.3669  0.6134
    2MPD2    H214308   2.581   2.708  12.208 -1.1886 -0.7941  2.1690
    2MPD2    H314309   2.769   2.746  12.085 -1.8363 -0.0465 -0.3978
    2MPD2     N14310   2.920   3.058  12.389  0.6471  0.1991  0.2427
    2MPD2    H514311   2.915   3.087  12.486  2.2671  0.2604  0.3092
    2MPD2    N114312   2.533   2.797  12.466  0.3632  0.0496 -0.2512
    2MPD2    H714313   2.514   2.852  12.549  0.7741 -0.5020  0.2081
    3TCq1    O114314   3.156   3.563  12.261 -0.6460  0.6028 -0.6735
    3TCq1    C114315   3.250   3.546  12.357 -0.1834 -0.3579 -0.1696
    3TCq1    O214316   3.322   3.636  12.396 -0.1233  0.2819 -0.7424
    3TCq1    C214317   3.228   3.412  12.418  0.6240  0.4410 -0.0147
    3TCq1    C314318   3.243   3.388  12.551 -0.3382  0.4316 -0.1388
    3TCq1    C414319   3.192   3.271  12.606 -0.0470 -0.3713  0.0840
    3TCq1    C514320   3.116   3.183  12.536 -0.2524  0.6359  0.2882
    3TCq1    C614321   3.100   3.210  12.403  0.1533  0.5631 -0.6068
    3TCq1    C714322   3.156   3.320  12.346 -0.6972  0.0602  0.5522
    3TCq1    C814323   3.010   3.130  12.319  0.0350  0.2099 -0.5316
    3TCq1    O414324   3.028   3.140  12.198 -0.3400 -0.3013 -0.0922
    3TCq1    C914325   3.221   3.241  12.743 -1.1649  0.5420  0.2792
    3TCq1    O514326   3.307   3.313  12.801  0.1494  0.3073 -0.7489
    3TCq1    O614327   3.146   3.165  12.807  0.1845  0.4993  0.5654
    3TCq1    H114328   3.106   3.483  12.237  2.3510 -1.3692 -0.3916
    3TCq1    H214329   3.311   3.450  12.609  1.4813 -0.3462 -1.4377
    3TCq1    H314330   3.108   3.085  12.581 -1.3210  0.2336 -0.8003
    3TCq1    H414331   3.153   3.331  12.238  2.1906  0.7596  0.5368
    1MPD2     C14332   1.930   4.370  14.958 -0.2715  0.1680 -0.1794
    1MPD2    C114333   1.830   4.283  14.919  0.3346  0.6495 -0.6778
    1MPD2    C214334   1.852   4.202  14.807 -0.5473 -0.9691  0.3004
    1MPD2    C314335   1.972   4.205  14.732 -0.4366 -0.5330 -0.6859
    1MPD2    C414336   2.059   4.301  14.770  0.4859 -0.3075  0.2197
    1MPD2    C514337   2.045   4.373  14.884  0.5296 -0.1637  0.0769
    1MPD2     H14338   1.774   4.137  14.769 -0.6474 -0.6597 -0.0213
    1MPD2    H114339   2.156   4.314  14.723  0.7051 -0.1117  0.7250
    1MPD2    H214340   1.914   4.438  15.041  0.8446  0.2325 -0.0180
    1MPD2    H314341   2.117   4.450  14.911  0.1186 -0.7731  2.9136
    1MPD2     N14342   1.985   4.123  14.617 -0.3046 -0.7401  0.2582
    1MPD2    H514343   1.914   4.053  14.599 -1.2137  0.3270 -0.3612
    1MPD2    N114344   1.706   4.299  14.984 -0.5419  0.2143 -0.2332
    1MPD2    H714345   1.694   4.367  15.058 -1.5915  0.6265 -0.7835
    2TMC3    C114346   1.470   4.305  14.980  0.3752  0.1677 -0.2737
    2TMC3    C214347   1.351   4.246  14.942 -0.2265 -0.7654 -0.3507
    2TMC3    C314348   1.247   4.310  14.888  0.1720 -0.0271 -0.2650
    2TMC3    C414349   1.471   4.443  14.990 -0.2659 -0.0302 -1.0352
    2TMC3    C514350   1.357   4.507  14.946 -0.5477 -0.4632 -0.3094
    2TMC3    C614351   1.249   4.445  14.894  0.2287  0.1487 -0.1094
    2TMC3     C14352   1.590   4.241  14.943  0.4619 -0.0956 -0.1252
    2TMC3     O14353   1.583   4.147  14.864 -0.1056 -0.3939 -0.4300
    2TMC3     H14354   1.352   4.137  14.945 -3.1194 -0.8024 -0.7163
    2TMC3    H114355   1.566   4.493  15.006 -0.5836 -0.0285  0.8330
    2TMC3    H214356   1.173   4.507  14.847 -0.1428 -0.9414 -0.9370
    2TMC3    C714357   1.359   4.653  14.953  0.3223 -0.2218 -0.7893
    2TMC3    C814358   1.215   4.258  14.754  0.0059 -0.4125  0.6062
    2TMC3    O114359   1.252   4.709  14.962  0.1348  0.0886 -0.2783
    2TMC3    O214360   1.106   4.282  14.703  0.3151 -0.5449 -0.1571
    3TCq1    O114361   2.144   0.584  14.528  0.5488 -0.4457  0.0473
    3TCq1    C114362   2.200   0.458  14.551  0.1723  0.5562  0.0452
    3TCq1    O214363   2.203   0.363  14.470 -0.0266  0.5491 -0.4893
    3TCq1    C214364   2.192   0.423  14.691  0.5254 -0.5261 -0.6567
    3TCq1    C314365   2.246   0.303  14.708 -0.2391  0.3076  0.4584
    3TCq1    C414366   2.215   0.230  14.817 -0.5521 -0.3133 -0.4584
    3TCq1    C514367   2.118   0.277  14.904  0.1964  0.4999 -0.1593
    3TCq1    C614368   2.056   0.399  14.877 -0.1648  0.7326  0.5688
    3TCq1    C714369   2.097   0.479  14.774 -0.0993  0.4323  0.3728
    3TCq1    C814370   1.917   0.414  14.918  0.3791 -0.4799 -0.3505
    3TCq1    O414371   1.871   0.525  14.934  0.1259 -0.1031  0.3487
    3TCq1    C914372   2.272   0.100  14.843 -0.3566 -0.0059  0.3113
    3TCq1    O514373   2.263   0.056  14.958 -0.3042 -0.5774 -0.2598
    3TCq1    O614374   2.323   0.038  14.750 -0.5952  0.0850  0.0236
    3TCq1    H114375   2.153   0.648  14.602  2.2404 -0.3585 -0.2492
    3TCq1    H214376   2.326   0.265  14.646 -0.6392  1.4772 -0.7834
    3TCq1    H314377   2.088   0.215  14.988  1.6410  0.6030  0.4343
    3TCq1    H414378   2.028   0.559  14.750  1.7194  2.1318  0.8271
    4MPD2     C14379   1.616   0.382  14.959  0.7450  0.0192 -0.7119
    4MPD2    C114380   1.705   0.280  14.933 -0.4119  0.0469  0.3432
    4MPD2    C214381   1.661   0.152  14.925 -0.0709  0.0315  0.2747
    4MPD2    C314382   1.525   0.123  14.936 -0.5464 -0.3173  0.3415
    4MPD2    C414383   1.435   0.223  14.969  0.0289  0.5859  0.1677
    4MPD2    C514384   1.482   0.352  14.975  0.8027  0.9369 -0.1737
    4MPD2     H14385   1.734   0.073  14.912 -1.5533 -0.9988 -1.8947
    4MPD2    H114386   1.332   0.196  14.990 -0.2861  0.6142 -1.2971
    4MPD2    H214387   1.652   0.483  14.977 -0.1776  0.2332 -0.0761
    4MPD2    H314388   1.418   0.436  14.999 -0.5480 -0.1780  0.1265
    4MPD2     N14389   1.485   4.701  14.931 -0.5418  0.1558  0.1303
    4MPD2    H514390   1.554   4.629  14.912 -1.1343 -1.2405  3.2388
    4MPD2    N114391   1.846   0.292  14.921 -0.2364  0.3123 -0.0153
    4MPD2    H714392   1.899   0.207  14.905  0.4238  0.9309 -1.1031
    5TMC2    C114393   1.842   4.027  14.266  0.9212 -0.8557  0.4391
    5TMC2    C214394   1.919   3.953  14.177  0.0112  0.5145  0.0439
    5TMC2    C314395   2.054   3.947  14.206  0.0418  0.0276  0.2803
    5TMC2    C414396   1.891   4.085  14.383  0.3981 -0.1028  0.0304
    5TMC2    C514397   2.024   4.060  14.413 -0.0856 -0.8656  0.4393
    5TMC2    C614398   2.109   3.995  14.325  0.0410 -0.6306 -0.0328
    5TMC2     C14399   1.694   4.031  14.246  0.4887  0.0387  0.0297
    5TMC2     O14400   1.646   4.009  14.139 -0.3571 -0.2870  0.7160
    5TMC2     H14401   1.881   3.911  14.084  0.6093 -1.6545  0.7748
    5TMC2    H114402   1.838   4.156  14.446  2.9058  0.1625  1.8299
    5TMC2    H214403   2.215   3.985  14.347  0.9737  2.4441 -2.9648
    5TMC2    C714404   2.086   4.111  14.526 -0.3524  0.8894 -0.5733
    5TMC2    C814405   2.150   3.881  14.120 -0.0399 -0.1216 -0.7117
    5TMC2    O114406   2.196   4.168  14.523 -0.5583  0.5239 -0.0005
    5TMC2    O214407   2.271   3.895  14.133 -0.3751  0.1100  0.1054
    5TMC2    O514408   2.084   3.780  14.057  0.3230 -0.3234 -0.0158
    5TMC2    H514409   1.987   3.774  14.073  0.6457 -0.8607  1.7616
    6MPD2     C14410   1.234   4.119  14.480 -0.3293  0.2513  0.3152
    6MPD2    C114411   1.339   4.143  14.567 -0.2087  0.5805 -0.3108
    6MPD2    C214412   1.468   4.111  14.534  0.5374  0.1778 -0.0487
    6MPD2    C314413   1.500   4.069  14.403  0.1107  0.1030 -0.0638
    6MPD2    C414414   1.399   4.047  14.314  0.1192 -0.2271 -0.3468
    6MPD2    C514415   1.267   4.071  14.354 -0.2184 -0.5203  1.0493
    6MPD2     H14416   1.558   4.127  14.592 -1.8125 -1.6548  4.0936
    6MPD2    H114417   1.419   4.016  14.213  2.4353 -2.7452  0.8800
    6MPD2    H214418   1.129   4.136  14.496  0.0620  3.3556 -0.5185
    6MPD2    H314419   1.187   4.072  14.281 -0.2770  0.5468  1.1397
    6MPD2     N14420   1.633   4.055  14.369 -0.3821  0.1375 -0.4548
    6MPD2    H514421   1.703   4.064  14.442 -1.1057  0.5843  0.1696
    6MPD2    N114422   1.326   4.192  14.700 -0.1525  0.2285  0.0999
    6MPD2    H714423   1.414   4.213  14.745  0.3028 -1.5668  0.0304
  945NH3     N114424   4.504   2.448  13.166 -0.4275  0.0514 -0.6520
  945NH3     H214425   4.453   2.478  13.084 -0.3828 -0.5379 -0.8960
  945NH3     H314426   4.584   2.431  13.105  0.2399 -0.6634  0.4145
  945NH3     H414427   4.458   2.358  13.174 -0.5556  0.1418 -0.3536
  946SOD     NA14428   1.653   2.083  13.454 -0.3272  0.3211  0.1316
  947SOD     NA14429   4.287   3.989  15.277 -0.7488  0.4832  0.2313
  948SOD     NA14430   1.288   0.095  16.669 -0.0719  0.3037 -0.1733
  949SOD     NA14431   4.654   3.461   7.835 -0.1508  0.7008 -0.2636
  950SOD     NA14432   3.047   0.857   9.080  0.0411  0.1942  0.2710
  951SOD     NA14433   0.007   3.050   1.449  0.1535  1.2483  0.2451
  952SOD     NA14434   4.078   3.373  11.010  0.0416 -0.1102  0.2287
  953SOD     NA14435   3.898   1.306   3.288  0.0557 -0.2451 -0.0143
  954SOD     NA14436   3.512   3.243  12.871 -0.3107 -0.0738  0.3935
  955SOD     NA14437   3.980   3.556  13.986  0.1539 -0.4892  0.1055
  956SOD     NA14438   4.626   1.784  15.101 -0.2498 -0.1580 -0.0352
  957SOD     NA14439   1.975   4.120   2.128 -0.5056  0.3380 -0.5724
  958SOD     NA14440   0.801   0.059   9.096  0.0236  0.3585  0.0020
  959SOD     NA14441   4.464   2.609  13.339 -0.0471 -0.2592  0.0816
  960SOD     NA14442   3.745   0.073  10.057  0.3256  0.1799  0.3654
  961SOD     NA14443   0.425   2.216   3.634 -0.0998 -0.2633 -0.0662
  962SOD     NA14444   2.709   4.088   2.775  0.1863 -0.5753 -0.1446
  963SOD     NA14445   2.611   1.882  11.209 -0.5635 -0.1763  0.5263
  964SOD     NA14446   3.253   3.074  11.781  0.1225  0.1838  0.0216
  965SOD     NA14447   3.286   0.494   0.833  0.2861 -0.1675 -0.1769
  966SOD     NA14448   0.045   4.706  16.106  0.3744 -0.3068 -0.0792
  967SOD     NA14449   2.948   2.783   6.471 -0.0292  0.1707  0.0830
  968SOD     NA14450   2.252   3.733  10.431 -0.3117 -0.1543 -0.4307
  969SOD     NA14451   2.673   3.688   0.633 -0.0574  0.3086 -0.0207
  970SOD     NA14452   1.448   2.244   9.143  0.5288 -0.0578 -0.1373
  971SOD     NA14453   2.221   2.106  11.362  0.1581 -0.2151  0.0724
  972SOD     NA14454   2.724   0.293  11.244 -0.0768  0.2912 -0.0515
  973SOD     NA14455   2.021   3.640  10.654  0.4523  0.1293 -0.2058
  974SOD     NA14456   0.001   0.348  12.980  0.2291 -0.5859  0.2831
  975SOD     NA14457   2.900   1.091  16.901  0.1807  0.1170 -0.0039
  976SOD     NA14458   0.538   2.403  12.804 -0.2610  0.4834 -0.0888
  977SOD     NA14459   3.267   3.305  11.475  0.2211 -0.2557 -0.2128
  978SOD     NA14460   1.951   2.643  10.086 -0.0719 -0.1082  0.2912
  979SOD     NA14461   3.419   3.359  11.857  0.2897  0.1569  0.3110
  980SOD     NA14462   0.188   2.290  13.653  0.1263  0.0565  0.6813
  981SOD     NA14463   3.138   4.210  10.634 -0.2449 -0.1584 -0.6151
  982SOD     NA14464   1.801   4.258   3.047 -0.2010 -0.3583 -0.6035
  983SOD     NA14465   4.678   0.696   1.363 -0.0990  0.1479  0.1025
  984SOD     NA14466   2.940   1.766   8.779  0.1106 -0.1807 -0.5029
  985SOD     NA14467   3.681   4.692   2.051  0.0973 -0.8234  0.4737
  986SOD     NA14468   2.311   2.779  10.199 -0.5117  0.6086 -0.3188
  987SOD     NA14469   0.502   1.560   0.704  0.0900  0.8247  0.3684
  988SOD     NA14470   2.883   3.724   9.304 -0.1871  0.2685  0.1547
  989SOD     NA14471   1.307   2.559  12.490  0.2873  0.2703  0.6399
  990SOD     NA14472   4.704   2.293   1.031 -0.0993 -0.3159  0.3104
  991SOD     NA14473   3.010   1.766  17.432 -0.0358 -0.0284  0.1745
  992SOD     NA14474   4.483   3.892  15.035 -0.4185 -0.0789 -0.4315
  993SOD     NA14475   3.152   2.576  10.883 -0.0970 -0.0930  0.1790
  994SOD     NA14476   3.966   1.422  14.475  0.3316  0.7378 -0.2409
  995SOD     NA14477   3.161   4.589  13.628 -0.1216 -0.9175  0.0202
  996SOD     NA14478   2.138   0.048   2.792 -0.1500 -0.5436  0.0374
  997SOD     NA14479   2.626   0.300   1.429  0.3696 -0.3677  0.3350
  998SOD     NA14480   0.153   2.688   9.704  0.4270  0.2205  0.0404
  999SOD     NA14481   0.599   0.252   0.535  0.1954  0.3994  0.3840
 1000SOD     NA14482   2.264   2.499  10.116  0.1035  0.1776 -0.5836
 1001SOD     NA14483   4.021   4.143  15.266  0.0639 -0.0999 -0.2757
 1002SOD     NA14484   2.802   4.556  14.093 -0.7024  0.9047 -0.3720
 1003SOD     NA14485   3.176   3.263  12.999 -0.2411  0.0222 -0.1932
 1004SOD     NA14486   0.175   0.039  13.204 -0.0766  0.7124 -0.1530
 1005SOD     NA14487   2.551   4.382  14.652 -0.1939  0.1558  0.4813
 1006SOD     NA14488   4.569   2.008   0.908 -0.5214 -0.1283  0.2164
 1007SOD     NA14489   2.526   1.801  10.914  0.4893 -0.2359 -0.0471
 1008SOD     NA14490   2.934   3.886  14.681 -0.4747 -0.1708  0.4730
 1009SOD     NA14491   3.838   1.645  11.857  0.3963  0.1213 -0.1922
 1010SOD     NA14492   3.953   2.635   2.333 -0.6085 -0.5078 -0.3359
 1011SOD     NA14493   1.332   2.916  11.154  0.1361  0.5270  0.5210
 1012SOL     OW14494   3.849   3.727  11.043 -0.6672  0.0097  0.1511
 1012SOL    HW114495   3.902   3.799  11.079 -0.0182  0.2035 -1.1520
 1012SOL    HW214496   3.777   3.756  11.099 -0.6142  1.8786 -0.7261
 1013SOL     OW14497   2.737   1.606   5.892  0.6052 -0.0383 -0.7144
 1013SOL    HW114498   2.657   1.658   5.900  0.1693 -0.8939  0.3517
 1013SOL    HW214499   2.797   1.677   5.867  1.8211 -1.1080 -0.8005
 1014SOL     OW14500   3.547   3.889   8.386 -0.3562 -0.1067 -0.0058
 1014SOL    HW114501   3.519   3.810   8.339 -0.9967  0.0150  0.1718
 1014SOL    HW214502   3.525   3.854   8.472  0.7743 -2.0608 -0.5034
 1015SOL     OW14503   2.164   2.945   1.768  0.0837 -0.4991  0.4155
 1015SOL    HW114504   2.167   2.959   1.863  0.2186 -0.5719  0.4216
 1015SOL    HW214505   2.248   2.904   1.750  1.2688  2.4748 -0.6753
 1016SOL     OW14506   2.240   2.710  15.407 -0.2214 -0.4798 -0.2277
 1016SOL    HW114507   2.290   2.629  15.400  0.5168  0.1529 -2.5514
 1016SOL    HW214508   2.223   2.708  15.501  2.5671  2.0521  0.3271
 1017SOL     OW14509   0.177   1.760   3.812 -0.4839 -0.9122 -0.1681
 1017SOL    HW114510   0.140   1.724   3.893  2.7012 -1.1500  1.1732
 1017SOL    HW214511   0.270   1.740   3.813 -0.0467  1.0410 -2.6514
 1018SOL     OW14512   2.873   2.253   6.916 -0.4289  0.6106  0.2994
 1018SOL    HW114513   2.844   2.324   6.859 -0.6326  1.5375  1.5672
 1018SOL    HW214514   2.864   2.289   7.004 -1.0461  0.7512  0.1818
 1019SOL     OW14515   1.981   2.775   3.725  0.3759  0.1872  0.1750
 1019SOL    HW114516   1.904   2.798   3.777 -1.3482 -2.0733 -1.3991
 1019SOL    HW214517   2.052   2.769   3.789  0.6548 -1.3972 -0.2847
 1020SOL     OW14518   1.990   0.438   3.341  0.7099  0.3967 -0.4816
 1020SOL    HW114519   2.038   0.482   3.271  1.2775  0.2542 -0.1801
 1020SOL    HW214520   1.996   0.499   3.414  1.4676 -0.8358  0.4835
 1021SOL     OW14521   2.416   3.957  10.689 -0.1473  0.1458  0.5645
 1021SOL    HW114522   2.440   4.043  10.655  0.8002 -0.2746  0.1737
 1021SOL    HW214523   2.429   3.974  10.783 -0.5773  0.2185  0.6093
 1022SOL     OW14524   3.305   2.225  12.822 -0.6681  0.0245 -0.2861
 1022SOL    HW114525   3.316   2.188  12.735  2.0471  0.0956  0.0431
 1022SOL    HW214526   3.311   2.317  12.797 -1.6067  0.4648  1.0905
 1023SOL     OW14527   2.317   0.993   6.169  0.0850 -0.0644  0.6457
 1023SOL    HW114528   2.273   0.939   6.105  2.2150 -2.2662  1.0315
 1023SOL    HW214529   2.335   1.082   6.137  3.8751 -1.5228 -1.3110
 1024SOL     OW14530   1.709   3.296   6.273 -0.2426 -0.4008  0.1036
 1024SOL    HW114531   1.663   3.301   6.189  1.8734  1.9269 -0.9414
 1024SOL    HW214532   1.665   3.216   6.302  0.3702 -0.6956  0.2049
 1025SOL     OW14533   3.193   1.699   1.776  0.1844 -0.2987 -0.6179
 1025SOL    HW114534   3.211   1.747   1.695  0.0842  2.0362  0.7433
 1025SOL    HW214535   3.281   1.665   1.788 -0.2503 -2.4899 -3.7033
 1026SOL     OW14536   3.704   1.388   4.310  0.0539  0.1479  0.0847
 1026SOL    HW114537   3.761   1.462   4.288  0.7786 -0.2801  0.5456
 1026SOL    HW214538   3.766   1.365   4.379 -0.6520 -0.5822  0.4700
 1027SOL     OW14539   3.189   3.685  10.704 -0.6079  0.4916 -0.2509
 1027SOL    HW114540   3.269   3.668  10.654 -1.3502  1.0523 -1.6028
 1027SOL    HW214541   3.209   3.647  10.790 -1.6146 -1.4836 -0.9052
 1028SOL     OW14542   2.327   3.376   0.581 -0.2495  0.0942 -0.0410
 1028SOL    HW114543   2.232   3.386   0.577  0.0489  2.8911 -0.1497
 1028SOL    HW214544   2.343   3.393   0.674  0.3905  0.8730 -0.2867
 1029SOL     OW14545   0.453   0.787   2.721  0.0873  0.2974 -0.0835
 1029SOL    HW114546   0.386   0.767   2.656  0.5575  0.8966 -0.7479
 1029SOL    HW214547   0.458   0.881   2.738  0.5340  0.3306 -0.4036
 1030SOL     OW14548   0.397   1.238   3.238 -0.1924  0.7670  0.7137
 1030SOL    HW114549   0.416   1.197   3.153  1.8966  2.2898  0.4630
 1030SOL    HW214550   0.319   1.186   3.259 -0.9059  0.9413 -1.4810
 1031SOL     OW14551   1.697   1.468   9.354 -0.5154  0.8126  0.0936
 1031SOL    HW114552   1.740   1.388   9.383  1.3965  1.8241  0.0875
 1031SOL    HW214553   1.633   1.491   9.421 -0.4642 -2.9277  1.4145
 1032SOL     OW14554   1.238   3.753   7.188 -0.4681 -0.5135 -0.4858
 1032SOL    HW114555   1.163   3.795   7.230 -0.3618 -1.3363  0.5018
 1032SOL    HW214556   1.211   3.738   7.097 -2.4197  2.6639 -0.4368
 1033SOL     OW14557   2.742   0.211  12.396 -0.1822 -0.4006 -0.0649
 1033SOL    HW114558   2.722   0.139  12.336 -0.6543  0.6402 -1.1533
 1033SOL    HW214559   2.835   0.229  12.386 -0.2252  0.2256  0.6213
 1034SOL     OW14560   3.771   4.542  11.522 -0.1525 -0.2559 -0.4684
 1034SOL    HW114561   3.793   4.626  11.483 -0.3729 -0.3189 -0.7236
 1034SOL    HW214562   3.784   4.558  11.616 -0.7897  0.1361 -0.4448
 1035SOL     OW14563   1.873   3.488  13.347  0.8203 -0.5215  0.1598
 1035SOL    HW114564   1.832   3.535  13.420 -0.6277 -0.1213 -0.9138
 1035SOL    HW214565   1.956   3.456  13.384  0.9034 -0.1426  0.3050
 1036SOL     OW14566   0.436   3.299  13.073  0.1787 -0.2738 -0.2603
 1036SOL    HW114567   0.344   3.315  13.051  0.8195  1.6135 -1.5965
 1036SOL    HW214568   0.450   3.232  13.006  1.5281  0.3642 -0.6093
 1037SOL     OW14569   3.537   4.298   2.798  0.4591  0.0360 -0.6985
 1037SOL    HW114570   3.462   4.279   2.742  0.0311  0.7789 -0.3882
 1037SOL    HW214571   3.571   4.378   2.757 -0.3728 -0.2136 -1.8754
 1038SOL     OW14572   3.772   0.347   3.037  0.2749  0.2302  0.2325
 1038SOL    HW114573   3.753   0.436   3.007  0.6687  0.3477  0.3341
 1038SOL    HW214574   3.734   0.347   3.125 -3.8696  0.3291 -1.5185
 1039SOL     OW14575   2.722   2.950   9.758  0.3567 -0.0107 -0.0109
 1039SOL    HW114576   2.675   2.963   9.840  1.5527  2.2087  0.3245
 1039SOL    HW214577   2.668   2.875   9.734 -1.2774  1.0986  0.2599
 1040SOL     OW14578   3.935   1.809  15.414 -0.2339  0.3713  0.1397
 1040SOL    HW114579   4.009   1.790  15.357  1.2020  3.0644  1.1081
 1040SOL    HW214580   3.874   1.856  15.358 -1.0537  0.8935  1.4556
 1041SOL     OW14581   2.867   0.795   4.669  0.1522  0.7083  0.1745
 1041SOL    HW114582   2.778   0.825   4.686  0.1379  0.1570  1.0879
 1041SOL    HW214583   2.858   0.756   4.582  0.2556  0.9005  0.0782
 1042SOL     OW14584   1.001   3.850   2.257 -0.4385  0.1391 -0.0491
 1042SOL    HW114585   0.970   3.892   2.177  0.8354  0.7018 -0.2616
 1042SOL    HW214586   0.927   3.794   2.281  0.6384 -0.6697  1.3750
 1043SOL     OW14587   4.115   1.920   6.736  0.3920 -0.0044  0.2052
 1043SOL    HW114588   4.178   1.990   6.754  1.2401 -1.0669  1.3766
 1043SOL    HW214589   4.046   1.958   6.681 -1.2989 -1.1334  1.5740
 1044SOL     OW14590   4.550   1.835   5.062 -0.7182 -0.3737  0.1633
 1044SOL    HW114591   4.508   1.850   4.978 -2.5886 -2.4593  0.7555
 1044SOL    HW214592   4.503   1.900   5.115  0.4307 -0.4223  1.2426
 1045SOL     OW14593   0.801   2.666  14.871  0.0259 -0.5939 -0.1374
 1045SOL    HW114594   0.850   2.593  14.908 -0.1140 -0.5502  0.1317
 1045SOL    HW214595   0.860   2.704  14.806  0.2774  0.3648  0.6673
 1046SOL     OW14596   0.351   3.952   2.190  0.5816  0.3112  0.3846
 1046SOL    HW114597   0.283   3.950   2.257  1.0110  2.9293  0.8768
 1046SOL    HW214598   0.357   3.859   2.166  0.7784  0.4270 -0.0149
 1047SOL     OW14599   4.333   2.675   7.039  0.3083 -0.0611 -0.3332
 1047SOL    HW114600   4.240   2.660   7.057  0.0503  1.3189 -0.5553
 1047SOL    HW214601   4.358   2.693   7.129 -0.7601 -0.8520  0.1172
 1048SOL     OW14602   3.085   3.167   7.865 -0.2632  0.2268  0.2325
 1048SOL    HW114603   3.122   3.205   7.944 -1.2037  0.3796  0.5919
 1048SOL    HW214604   3.086   3.073   7.883  1.4502  0.3394  0.7808
 1049SOL     OW14605   2.476   4.195   0.144  0.0811  0.5319 -0.4679
 1049SOL    HW114606   2.391   4.161   0.116  0.8260 -0.8382 -1.0787
 1049SOL    HW214607   2.543   4.178   0.078 -0.7163  0.3931 -1.2499
 1050SOL     OW14608   4.053   3.730  15.716 -0.2330 -0.1909 -0.3858
 1050SOL    HW114609   4.002   3.674  15.776  1.7413 -1.2833  0.2819
 1050SOL    HW214610   4.093   3.785  15.783  1.5015  0.5173 -2.0153
 1051SOL     OW14611   0.925   1.604   9.211  0.8079 -0.1790 -0.2468
 1051SOL    HW114612   0.831   1.592   9.221  0.6571  1.7070  0.5207
 1051SOL    HW214613   0.954   1.576   9.298 -2.1986 -0.2884  0.6936
 1052SOL     OW14614   2.440   1.937   6.143  0.4941 -0.1965 -0.4322
 1052SOL    HW114615   2.428   1.964   6.052 -2.2127  1.0453  0.2796
 1052SOL    HW214616   2.535   1.929   6.144  0.5051  0.3635  3.2540
 1053SOL     OW14617   0.359   1.396  17.558  0.0046 -0.0027  0.2838
 1053SOL    HW114618   0.291   1.414  17.623  0.2195  0.1364  0.4716
 1053SOL    HW214619   0.375   1.303  17.568  0.2534 -0.1425 -1.4863
 1054SOL     OW14620   3.919   3.623   7.415  0.2967 -1.0033  0.4893
 1054SOL    HW114621   3.992   3.631   7.355  0.2787 -0.0274  0.5839
 1054SOL    HW214622   3.966   3.575   7.483  0.1025 -0.3091  1.1201
 1055SOL     OW14623   1.839   2.184   3.240 -0.6514  0.1281 -0.3294
 1055SOL    HW114624   1.815   2.254   3.301  0.1985  1.9234 -2.0691
 1055SOL    HW214625   1.774   2.120   3.268 -0.3856 -0.8039 -1.8307
 1056SOL     OW14626   2.346   2.706   1.969 -0.0205  0.0261  0.1277
 1056SOL    HW114627   2.275   2.665   1.921  0.3054  0.8608 -1.0696
 1056SOL    HW214628   2.316   2.672   2.053 -1.8845  0.2448 -0.4616
 1057SOL     OW14629   1.622   4.127   3.139  0.2979  0.3109 -0.3473
 1057SOL    HW114630   1.618   4.085   3.053 -5.0575 -0.4229  0.2325
 1057SOL    HW214631   1.602   4.048   3.189  1.4678  1.6493  2.1941
 1058SOL     OW14632   2.997   0.821   3.084 -0.1008  0.4137  0.1151
 1058SOL    HW114633   2.909   0.783   3.079  0.1908 -0.4895  1.9575
 1058SOL    HW214634   2.967   0.907   3.055  0.3084  1.0250  1.5275
 1059SOL     OW14635   2.818   1.329   8.010 -0.5957  0.1532 -0.0079
 1059SOL    HW114636   2.842   1.380   7.933 -0.3397  2.2873  1.5056
 1059SOL    HW214637   2.834   1.245   7.968 -0.1946  0.2356 -0.0184
 1060SOL     OW14638   0.112   0.279   9.078  0.6694 -0.7287 -0.8990
 1060SOL    HW114639   0.134   0.215   9.010  1.9327 -1.6053  0.3387
 1060SOL    HW214640   0.020   0.256   9.093  1.0472  0.3425  3.1131
 1061SOL     OW14641   2.136   3.822   3.577 -0.1403 -0.0561 -0.4795
 1061SOL    HW114642   2.183   3.739   3.567  1.3174  0.7906 -0.6069
 1061SOL    HW214643   2.199   3.884   3.541  1.1876 -0.9533  0.3272
 1062SOL     OW14644   3.766   2.234  12.713 -0.6670  0.4473  0.2923
 1062SOL    HW114645   3.689   2.192  12.750  0.1714 -0.7832  0.6554
 1062SOL    HW214646   3.753   2.222  12.619  0.8494  0.0793  0.1341
 1063SOL     OW14647   0.078   1.815   2.255  0.8056  0.0494  0.2872
 1063SOL    HW114648   0.141   1.883   2.280  2.7355 -1.5586 -0.1705
 1063SOL    HW214649   0.016   1.821   2.327  1.5691 -1.0818  1.0409
 1064SOL     OW14650   0.873   0.068   6.796 -0.4375 -0.0829  0.5012
 1064SOL    HW114651   0.952   0.078   6.742 -0.1261 -0.6363  0.8624
 1064SOL    HW214652   0.897   0.111   6.878 -0.0742  1.8075 -0.5871
 1065SOL     OW14653   3.135   2.446   5.119  0.3880  0.2797  0.3479
 1065SOL    HW114654   3.141   2.358   5.082 -0.4617 -0.4166  1.8980
 1065SOL    HW214655   3.075   2.435   5.193 -0.5333 -0.6521 -0.5323
 1066SOL     OW14656   0.077   1.608  12.756 -0.3330  0.4585  0.0112
 1066SOL    HW114657   0.103   1.525  12.717 -2.2548  0.5065 -1.3723
 1066SOL    HW214658   0.141   1.670  12.720 -1.0384  0.8846 -0.5074
 1067SOL     OW14659   1.138   0.303   6.436  0.2229  0.7919 -0.2960
 1067SOL    HW114660   1.218   0.251   6.444 -0.3712 -0.0866 -0.0375
 1067SOL    HW214661   1.152   0.383   6.487 -0.8772  0.0297  1.1884
 1068SOL     OW14662   1.930   2.433   8.439 -0.2011  0.2473 -0.1788
 1068SOL    HW114663   1.991   2.477   8.499  1.2167 -1.9388  0.0019
 1068SOL    HW214664   1.958   2.342   8.453  2.5429  1.0150 -0.7134
 1069SOL     OW14665   1.116   3.067   9.182  0.6867 -0.5083  0.1775
 1069SOL    HW114666   1.058   3.083   9.256  0.9428 -2.9795  0.9346
 1069SOL    HW214667   1.202   3.102   9.204  0.8074  0.1310 -1.3000
 1070SOL     OW14668   2.345   4.165   7.464  0.1558  0.1966 -0.4739
 1070SOL    HW114669   2.281   4.190   7.397  0.3491  3.1647  0.4493
 1070SOL    HW214670   2.419   4.139   7.409  1.2336  1.0555  0.5791
 1071SOL     OW14671   3.337   3.103  13.865 -0.6975  0.3895 -0.2466
 1071SOL    HW114672   3.421   3.073  13.901 -2.0373 -0.9574  1.7241
 1071SOL    HW214673   3.291   3.129  13.944 -0.3770  1.6471 -0.4656
 1072SOL     OW14674   2.455   4.240   0.414 -0.1604  0.2736  0.3427
 1072SOL    HW114675   2.373   4.190   0.406 -0.9902  1.7002 -0.0715
 1072SOL    HW214676   2.487   4.224   0.325 -2.2325  2.3847 -0.7917
 1073SOL     OW14677   1.246   1.669   1.736  0.1504  0.4012 -0.1521
 1073SOL    HW114678   1.298   1.741   1.771 -0.2129  1.8513 -2.5555
 1073SOL    HW214679   1.284   1.658   1.649  0.5069 -0.0383  0.0615
 1074SOL     OW14680   1.885   0.047   9.007  0.9532  0.0717  0.1978
 1074SOL    HW114681   1.823   4.696   8.998 -1.1674  1.9087 -0.0037
 1074SOL    HW214682   1.879   0.054   9.102  1.1786 -2.7583  0.4025
 1075SOL     OW14683   1.553   0.984   3.638  0.2521  0.2596  0.1901
 1075SOL    HW114684   1.556   0.889   3.622  1.8359  0.5997 -1.5250
 1075SOL    HW214685   1.615   1.022   3.575  1.7604 -0.3126  1.3054
 1076SOL     OW14686   2.115   1.013   1.812 -0.4834  0.3036  0.0979
 1076SOL    HW114687   2.161   0.961   1.746  0.8830 -0.2972  1.5219
 1076SOL    HW214688   2.135   1.099   1.776 -0.6801 -0.2657 -1.3419
 1077SOL     OW14689   3.818   2.754   4.444  0.4283 -0.2011  0.2583
 1077SOL    HW114690   3.902   2.800   4.445 -0.2000  0.9668 -0.5056
 1077SOL    HW214691   3.800   2.762   4.537 -2.5569 -0.9819 -0.2598
 1078SOL     OW14692   0.053   1.364   2.594 -0.2911 -0.0742  0.3899
 1078SOL    HW114693   4.720   1.287   2.574 -0.5052  0.6711 -1.9043
 1078SOL    HW214694   0.120   1.340   2.530  0.9762 -0.3192  1.7946
 1079SOL     OW14695   2.897   0.173   5.988  0.1767 -0.4315 -0.5056
 1079SOL    HW114696   2.940   0.113   6.048  2.0649  1.1196 -0.3186
 1079SOL    HW214697   2.939   0.143   5.907 -0.5082 -0.0340 -1.0201
 1080SOL     OW14698   2.569   0.891   3.729  0.2763  0.0557  0.2126
 1080SOL    HW114699   2.624   0.954   3.683 -1.2436  2.0352  1.1492
 1080SOL    HW214700   2.595   0.910   3.819  0.8510  0.1475  0.0294
 1081SOL     OW14701   4.591   1.841  12.140 -0.0008 -0.1111 -0.0586
 1081SOL    HW114702   4.573   1.906  12.207 -4.0906 -0.5804 -0.6959
 1081SOL    HW214703   4.621   1.765  12.190  0.6872  1.0603  1.2912
 1082SOL     OW14704   3.457   0.266   2.800 -0.0775  0.3113 -0.9709
 1082SOL    HW114705   3.423   0.258   2.889  0.1804  1.1388 -0.7950
 1082SOL    HW214706   3.541   0.224   2.815 -1.0428 -0.2281  2.8090
 1083SOL     OW14707   3.343   3.705   7.809  0.5528 -0.0192  0.4926
 1083SOL    HW114708   3.434   3.711   7.781  1.2140 -2.9290  2.0372
 1083SOL    HW214709   3.322   3.795   7.836 -1.2386 -0.0016 -0.9335
 1084SOL     OW14710   3.720   4.377  12.256  0.0947 -0.1275  0.3850
 1084SOL    HW114711   3.762   4.457  12.288 -0.5379  0.4996 -0.3510
 1084SOL    HW214712   3.739   4.316  12.327  1.5353 -1.5492 -1.2301
 1085SOL     OW14713   2.055   4.575   7.118  0.2368  0.1002  0.4986
 1085SOL    HW114714   1.969   4.605   7.148  0.5198 -0.1698  1.5710
 1085SOL    HW214715   2.037   4.508   7.052  0.6020 -1.4778  2.0193
 1086SOL     OW14716   3.240   0.423   5.324 -0.1903 -0.1536 -0.1651
 1086SOL    HW114717   3.204   0.418   5.413 -1.5840 -0.3193 -0.7366
 1086SOL    HW214718   3.203   0.349   5.276  2.5584 -1.0896 -0.8228
 1087SOL     OW14719   0.109   1.372  14.932  0.2208 -0.4453 -0.2397
 1087SOL    HW114720   0.057   1.307  14.978 -0.9466 -0.6497 -1.8274
 1087SOL    HW214721   0.189   1.322  14.913  0.0919 -0.3875 -0.9207
 1088SOL     OW14722   4.386   0.574   3.006 -0.2832 -0.4267  0.1031
 1088SOL    HW114723   4.407   0.481   3.004  1.1607 -0.1136  0.2377
 1088SOL    HW214724   4.291   0.582   3.001 -0.4350 -1.3470  1.6524
 1089SOL     OW14725   4.292   3.295   5.542  0.3841  0.1770  0.0579
 1089SOL    HW114726   4.387   3.308   5.549  0.6428 -0.6845 -1.9430
 1089SOL    HW214727   4.291   3.216   5.489 -1.0334 -1.2402  2.2188
 1090SOL     OW14728   2.667   1.089   1.885  0.2410  0.2816  0.0033
 1090SOL    HW114729   2.594   1.072   1.825  0.0613  0.3000  0.2150
 1090SOL    HW214730   2.738   1.091   1.822 -0.0286  2.6867 -0.2223
 1091SOL     OW14731   0.870   0.825   0.417 -0.3846 -0.3095 -0.3152
 1091SOL    HW114732   0.949   0.795   0.373  0.9560 -0.1146  1.9699
 1091SOL    HW214733   0.845   0.896   0.359 -0.0562  1.0096  1.1561
 1092SOL     OW14734   2.220   0.901   0.631 -0.4785 -0.1529 -0.2759
 1092SOL    HW114735   2.199   0.942   0.548 -1.5478 -1.0362 -0.4518
 1092SOL    HW214736   2.295   0.952   0.662 -0.6266  1.6554 -2.9462
 1093SOL     OW14737   2.137   4.176   8.694  0.0643  0.0975  0.1598
 1093SOL    HW114738   2.106   4.256   8.736  0.6811  0.1013  0.6071
 1093SOL    HW214739   2.071   4.166   8.626 -0.5457 -0.7252  0.8695
 1094SOL     OW14740   4.371   0.573   5.280  0.6944  0.1119 -0.2312
 1094SOL    HW114741   4.344   0.535   5.363 -0.2716  0.2794 -0.4733
 1094SOL    HW214742   4.282   0.576   5.245  0.0532 -2.3013  1.2105
 1095SOL     OW14743   0.049   1.032   5.315  0.5044 -0.1320 -0.5397
 1095SOL    HW114744   0.099   1.092   5.261  1.6883  0.4901  1.2559
 1095SOL    HW214745   4.690   1.041   5.263  1.2076  0.4412 -1.5338
 1096SOL     OW14746   0.391   2.770  10.392  0.7077 -0.0222 -0.3970
 1096SOL    HW114747   0.448   2.778  10.469  0.1129 -0.7568  0.1254
 1096SOL    HW214748   0.317   2.718  10.424 -0.2241  0.1795 -2.2391
 1097SOL     OW14749   1.819   4.388   5.310 -0.0038  0.8270  0.3702
 1097SOL    HW114750   1.757   4.409   5.380 -0.5783 -0.2349  0.1837
 1097SOL    HW214751   1.760   4.339   5.252 -0.0557  0.9283  0.3370
 1098SOL     OW14752   2.844   1.205   7.551 -0.3905 -0.0765 -0.5617
 1098SOL    HW114753   2.921   1.233   7.501 -0.5084 -0.6544 -1.0648
 1098SOL    HW214754   2.861   1.112   7.541 -1.7625 -0.3651 -0.1501
 1099SOL     OW14755   4.615   0.698   3.568  0.5362 -0.6291  0.2542
 1099SOL    HW114756   4.524   0.727   3.574  0.6192 -0.5758  1.2693
 1099SOL    HW214757   4.668   0.777   3.576 -1.2278  0.4921  0.8462
 1100SOL     OW14758   2.128   0.875   9.767  0.1941  0.4117  0.4374
 1100SOL    HW114759   2.168   0.959   9.747  0.1253  0.3993  0.2434
 1100SOL    HW214760   2.112   0.889   9.860 -2.7236  1.1164 -0.1509
 1101SOL     OW14761   3.735   2.377   7.860  0.3196  0.1631  0.5270
 1101SOL    HW114762   3.815   2.349   7.814  1.4662  1.1595  1.9049
 1101SOL    HW214763   3.770   2.443   7.919  1.9403 -0.8876  0.7421
 1102SOL     OW14764   2.666   4.599  13.418 -0.4163  0.0055  0.5848
 1102SOL    HW114765   2.716   4.537  13.366 -1.7749 -0.5491 -0.0555
 1102SOL    HW214766   2.731   4.668  13.433 -0.9681  0.6593 -0.0399
 1103SOL     OW14767   0.377   0.487   8.044  0.1402 -0.5040 -0.4587
 1103SOL    HW114768   0.388   0.580   8.064  0.3405 -1.0643  2.0516
 1103SOL    HW214769   0.283   0.474   8.034  0.1346 -1.1936  0.4113
 1104SOL     OW14770   4.683   1.195   7.226 -0.2783  0.6390  0.9040
 1104SOL    HW114771   4.606   1.171   7.278 -1.4086  1.3643 -0.4278
 1104SOL    HW214772   4.649   1.158   7.144 -2.1627  1.2436  1.3987
 1105SOL     OW14773   2.469   0.840   6.735  0.5301 -0.1935  0.1745
 1105SOL    HW114774   2.442   0.930   6.721 -0.9561 -0.7014 -0.2978
 1105SOL    HW214775   2.384   0.795   6.732 -0.2107  1.3708 -2.0198
 1106SOL     OW14776   1.152   1.970  10.058 -0.4820  0.2769  0.2273
 1106SOL    HW114777   1.231   1.934  10.017 -1.1355  0.4211 -1.1549
 1106SOL    HW214778   1.176   1.993  10.147 -2.3088  1.1776  0.4833
 1107SOL     OW14779   2.696   3.023   9.245 -0.2059 -0.0990  0.4324
 1107SOL    HW114780   2.744   3.031   9.163 -1.2271 -2.8523 -0.4204
 1107SOL    HW214781   2.764   2.994   9.306 -0.4625  1.1342  1.3170
 1108SOL     OW14782   3.803   0.746   8.175 -0.0149 -0.3201 -0.4397
 1108SOL    HW114783   3.808   0.814   8.242 -1.6545 -1.4687  0.8635
 1108SOL    HW214784   3.896   0.733   8.155  0.0448 -1.1992  0.3747
 1109SOL     OW14785   2.313   0.612   1.286  0.6231 -0.0625 -0.3596
 1109SOL    HW114786   2.326   0.603   1.381 -0.5586 -1.1444 -0.3070
 1109SOL    HW214787   2.270   0.528   1.269 -2.2044  1.4681 -0.7552
 1110SOL     OW14788   2.175   2.311   8.760  0.0583 -0.2662  0.2053
 1110SOL    HW114789   2.166   2.405   8.774 -1.3097  0.0384 -2.7524
 1110SOL    HW214790   2.260   2.308   8.716  0.3202  1.4725  0.6036
 1111SOL     OW14791   0.817   0.201  17.357 -0.0571  0.1765 -0.2172
 1111SOL    HW114792   0.848   0.114  17.332  1.4497  0.3089  1.2237
 1111SOL    HW214793   0.820   0.211  17.452 -0.4340 -2.8576  0.1159
 1112SOL     OW14794   0.228   4.563   2.633  0.1419 -0.4602  0.5141
 1112SOL    HW114795   0.248   4.540   2.724  3.8665  0.4263 -0.1006
 1112SOL    HW214796   0.203   4.474   2.607 -2.0748  0.1721  0.4975
 1113SOL     OW14797   2.220   0.500  13.493  0.0501  0.5498  0.1781
 1113SOL    HW114798   2.262   0.417  13.471 -1.0731  0.3376 -1.1560
 1113SOL    HW214799   2.249   0.552  13.418 -2.6174  0.6078 -0.8090
 1114SOL     OW14800   2.338   4.691   0.138 -0.2860  0.1917  0.1609
 1114SOL    HW114801   2.407   4.625   0.127 -1.2224 -0.3769 -2.3099
 1114SOL    HW214802   2.378   0.056   0.144  1.5068 -0.6428  0.3746
 1115SOL     OW14803   1.208   4.397   7.323  0.1940  0.1746  0.1071
 1115SOL    HW114804   1.211   4.430   7.413 -0.2644 -0.2528  0.2772
 1115SOL    HW214805   1.147   4.465   7.295 -0.3654 -0.0415  0.7905
 1116SOL     OW14806   0.536   0.803   6.893  0.1428 -0.3285  0.3440
 1116SOL    HW114807   0.600   0.746   6.935  0.6976  0.1528  0.1567
 1116SOL    HW214808   0.592   0.875   6.862 -0.4468 -0.8548 -1.9270
 1117SOL     OW14809   2.366   1.621  10.499 -0.2222 -0.3257  0.0698
 1117SOL    HW114810   2.353   1.528  10.515  0.7522 -0.5756 -0.5922
 1117SOL    HW214811   2.459   1.630  10.480 -0.4637 -2.8457 -2.3168
 1118SOL     OW14812   0.127   4.271   7.960  0.4391 -0.2503  0.0450
 1118SOL    HW114813   0.203   4.311   8.001  0.1397  1.1728 -0.7827
 1118SOL    HW214814   0.147   4.181   7.986  1.9354  0.1854  0.3809
 1119SOL     OW14815   3.139   3.893   6.228 -0.5341 -0.5552 -0.5620
 1119SOL    HW114816   3.196   3.851   6.164 -1.1316  1.1113 -2.1777
 1119SOL    HW214817   3.109   3.815   6.275  0.4756 -0.7553 -0.2538
 1120SOL     OW14818   2.717   2.754   5.093  0.0890  0.0444  0.1964
 1120SOL    HW114819   2.778   2.713   5.032  1.0366  0.4769  0.8496
 1120SOL    HW214820   2.704   2.845   5.064 -0.5550 -0.6507 -1.6680
 1121SOL     OW14821   2.694   0.053   0.877  0.2557  0.5497  0.3233
 1121SOL    HW114822   2.787   0.059   0.900  0.6047 -0.2216 -0.9064
 1121SOL    HW214823   2.671   0.145   0.891 -1.3960  0.2378 -0.3482
 1122SOL     OW14824   4.062   3.885   6.822 -0.3051 -0.3906 -0.2640
 1122SOL    HW114825   4.117   3.807   6.821  0.8934  0.4541 -0.0631
 1122SOL    HW214826   3.975   3.852   6.846 -0.2939  0.1459  0.5243
 1123SOL     OW14827   0.986   4.635   8.213  0.8697  0.3190  0.5426
 1123SOL    HW114828   1.052   4.661   8.278  0.9241  2.6332 -0.4180
 1123SOL    HW214829   1.048   4.597   8.151 -0.8632 -1.5633 -0.0098
 1124SOL     OW14830   1.788   3.384   7.489  0.0411  0.0875 -0.0309
 1124SOL    HW114831   1.821   3.329   7.418 -0.3890  1.0462 -0.9791
 1124SOL    HW214832   1.770   3.460   7.433  0.4606  1.9262  2.2846
 1125SOL     OW14833   2.857   2.007   5.303  0.0746  0.0444 -0.2378
 1125SOL    HW114834   2.877   2.087   5.253  1.7467 -1.2759 -1.6718
 1125SOL    HW214835   2.771   2.032   5.336  0.6653  2.3332 -0.4296
 1126SOL     OW14836   4.217   0.542   3.357  0.3731  0.3625 -0.2859
 1126SOL    HW114837   4.232   0.636   3.361 -0.4639  0.6062 -2.9760
 1126SOL    HW214838   4.188   0.525   3.447 -2.7293 -2.9175 -1.8915
 1127SOL     OW14839   0.791   3.430   3.989 -0.0623  0.3177  0.4889
 1127SOL    HW114840   0.747   3.380   3.920 -1.3056  1.8594  0.1508
 1127SOL    HW214841   0.722   3.494   4.009  1.2817  1.0131  2.8812
 1128SOL     OW14842   4.366   2.061   6.887 -0.6549  0.1437 -0.3574
 1128SOL    HW114843   4.407   2.048   6.801 -0.1862 -1.2099  0.0634
 1128SOL    HW214844   4.332   2.151   6.887 -0.4260  0.2348 -1.1331
 1129SOL     OW14845   3.330   1.908  12.608 -0.2269  0.5811  0.1581
 1129SOL    HW114846   3.375   1.824  12.595  0.6556  1.0814  0.0251
 1129SOL    HW214847   3.404   1.966  12.626 -0.5548  1.4252 -1.2719
 1130SOL     OW14848   3.366   2.635   3.270 -0.0937 -0.5487  0.1745
 1130SOL    HW114849   3.371   2.651   3.364 -4.0207  2.2247 -0.1072
 1130SOL    HW214850   3.409   2.712   3.234  1.1396 -1.1676  0.3302
 1131SOL     OW14851   0.149   2.923  16.838 -0.1486  0.1482 -0.0294
 1131SOL    HW114852   0.121   2.877  16.917 -0.4236  0.0706 -0.1709
 1131SOL    HW214853   0.086   2.888  16.774  0.8765 -0.5120 -0.6772
 1132SOL     OW14854   3.231   2.455   6.832 -0.4323  0.0938 -0.4740
 1132SOL    HW114855   3.160   2.406   6.873 -0.2179 -0.3734 -0.6571
 1132SOL    HW214856   3.300   2.389   6.838  0.2826  0.5995 -2.8920
 1133SOL     OW14857   1.584   0.791   6.256  0.4721 -0.1277 -0.0610
 1133SOL    HW114858   1.627   0.840   6.326  0.1991  0.0328 -0.0065
 1133SOL    HW214859   1.623   0.705   6.269 -0.5046 -0.3060  1.6080
 1134SOL     OW14860   1.050   1.400   3.249  0.0554  0.2331 -0.1436
 1134SOL    HW114861   1.108   1.401   3.173 -1.7183  0.4340 -1.4940
 1134SOL    HW214862   1.118   1.383   3.314 -1.1668  3.4288  1.9418
 1135SOL     OW14863   2.708   4.126   2.425  0.0195 -0.5817 -0.1699
 1135SOL    HW114864   2.748   4.044   2.398  1.1828 -0.1591  0.2590
 1135SOL    HW214865   2.789   4.173   2.408 -0.2781 -0.2095 -0.5711
 1136SOL     OW14866   3.693   3.797   1.433  0.2483  0.3771  0.4883
 1136SOL    HW114867   3.670   3.763   1.347  0.5966  0.9331  0.1733
 1136SOL    HW214868   3.638   3.735   1.481  1.5573 -2.1090 -1.2486
 1137SOL     OW14869   2.316   3.737   8.732  0.2705 -0.2799 -0.1802
 1137SOL    HW114870   2.409   3.731   8.713  0.0293 -0.1316 -1.4176
 1137SOL    HW214871   2.302   3.673   8.802 -0.0171  0.6257  0.5925
 1138SOL     OW14872   0.460   0.793   3.838 -0.0913 -0.7617 -0.5242
 1138SOL    HW114873   0.488   0.720   3.893  0.4725 -0.5572 -0.5370
 1138SOL    HW214874   0.492   0.869   3.888 -1.4032  1.2687 -2.8118
 1139SOL     OW14875   2.096   3.807   8.608  0.0892 -0.0177  0.3681
 1139SOL    HW114876   2.169   3.761   8.651  1.5448  1.4105 -0.6082
 1139SOL    HW214877   2.031   3.816   8.678 -0.4479 -2.8556  0.2701
 1140SOL     OW14878   2.954   1.426   3.193  0.4503  0.6185  0.2313
 1140SOL    HW114879   2.887   1.494   3.188 -0.3301 -0.0890  1.1672
 1140SOL    HW214880   2.956   1.433   3.289 -0.6109 -1.3008  0.3990
 1141SOL     OW14881   1.437   0.113   4.279 -0.3513 -0.0844  0.4690
 1141SOL    HW114882   1.433   0.208   4.283  0.0434 -0.0060 -0.9635
 1141SOL    HW214883   1.452   0.098   4.186 -0.2218  2.1950  0.1195
 1142SOL     OW14884   4.442   1.950   4.807 -0.4206 -0.1600  0.6122
 1142SOL    HW114885   4.488   1.914   4.731  2.1184 -0.2718  2.1729
 1142SOL    HW214886   4.371   1.887   4.817  0.0551 -0.5699  1.4583
 1143SOL     OW14887   2.034   4.196   7.912  0.1663 -0.3837 -0.1636
 1143SOL    HW114888   2.009   4.105   7.923 -1.0463 -0.0781 -0.3511
 1143SOL    HW214889   2.078   4.193   7.828 -1.4706  0.3820 -1.0441
 1144SOL     OW14890   1.804   2.767  16.801 -0.6309  0.4066  0.3946
 1144SOL    HW114891   1.822   2.676  16.827  0.6092  0.8756  1.1883
 1144SOL    HW214892   1.721   2.763  16.754  0.3330 -0.2565 -1.2841
 1145SOL     OW14893   4.608   4.401  17.452 -0.3211  0.0202 -0.1967
 1145SOL    HW114894   4.581   4.382  17.362 -0.7038  1.2040 -0.3320
 1145SOL    HW214895   4.541   4.468  17.470  0.9492  0.3902  3.0898
 1146SOL     OW14896   0.575   4.113   4.397 -0.0230 -0.0985 -0.1596
 1146SOL    HW114897   0.519   4.165   4.454 -1.2044 -2.4115  0.7768
 1146SOL    HW214898   0.513   4.062   4.345  0.2996 -0.2752 -0.3691
 1147SOL     OW14899   2.264   3.210   7.575  0.1054  0.2788 -0.2920
 1147SOL    HW114900   2.300   3.136   7.622  1.3487 -0.3241 -2.2023
 1147SOL    HW214901   2.336   3.273   7.577 -1.2967  2.0294 -3.3751
 1148SOL     OW14902   3.728   0.613   5.885  0.1386 -0.0839  0.5073
 1148SOL    HW114903   3.641   0.612   5.845 -0.4485 -0.6860  1.7764
 1148SOL    HW214904   3.790   0.632   5.815 -1.2069  0.4146 -0.5547
 1149SOL     OW14905   0.348   1.615   5.256  0.1521 -0.0876 -0.3442
 1149SOL    HW114906   0.442   1.607   5.238  0.4821  1.8878  0.4972
 1149SOL    HW214907   0.316   1.647   5.172 -0.1154  1.0641  0.1955
 1150SOL     OW14908   3.981   3.278   0.053  0.0780 -0.1376 -0.7256
 1150SOL    HW114909   3.903   3.294   0.000 -0.7445 -0.9141  0.2756
 1150SOL    HW214910   4.014   3.214  17.677 -1.3907 -2.2115  0.6496
 1151SOL     OW14911   1.186   1.141   3.479  0.1366  0.1140  0.1009
 1151SOL    HW114912   1.150   1.058   3.448 -2.4172  1.5302 -0.7751
 1151SOL    HW214913   1.105   1.178   3.514  1.5655  3.6662 -0.3380
 1152SOL     OW14914   0.220   0.780   0.069  0.1174 -0.0147  0.4816
 1152SOL    HW114915   0.174   0.697   0.083 -0.8176  0.2657 -1.0060
 1152SOL    HW214916   0.295   0.776   0.129  0.1809  0.3401  0.4265
 1153SOL     OW14917   2.797   0.872   5.812  0.3207  0.3707 -0.0624
 1153SOL    HW114918   2.843   0.932   5.872 -1.4076  1.8050 -0.1853
 1153SOL    HW214919   2.860   0.805   5.786  1.2044  0.4580  1.8041
 1154SOL     OW14920   0.276   0.616  10.765  0.6819  0.0931 -0.1804
 1154SOL    HW114921   0.231   0.701  10.764  2.0877  0.8128 -1.4023
 1154SOL    HW214922   0.208   0.556  10.734  1.0717 -0.5368  0.1986
 1155SOL     OW14923   0.001   0.125  16.805  0.4595 -0.7484 -0.2876
 1155SOL    HW114924   4.659   0.161  16.742 -0.1040  0.3008  0.8863
 1155SOL    HW214925   0.076   0.115  16.745 -0.7351 -1.9438 -1.5823
 1156SOL     OW14926   3.166   4.088   2.706 -0.1774 -0.3375  0.0612
 1156SOL    HW114927   3.204   4.005   2.732  2.3695  0.7369 -0.2243
 1156SOL    HW214928   3.243   4.140   2.683 -1.0273  0.9529  0.0662
 1157SOL     OW14929   2.783   3.422   8.875  0.0352 -0.0121 -0.2378
 1157SOL    HW114930   2.862   3.369   8.867 -0.4002 -0.5592 -0.9215
 1157SOL    HW214931   2.735   3.385   8.949 -0.0677  0.6810  0.0454
 1158SOL     OW14932   3.315   4.213  10.163 -0.1308  0.0634  0.0463
 1158SOL    HW114933   3.372   4.183  10.091 -1.0737  2.2599 -1.6176
 1158SOL    HW214934   3.280   4.293  10.122 -0.4515 -0.0377  0.1276
 1159SOL     OW14935   2.494   2.283   2.499 -0.2318 -0.1283  0.5378
 1159SOL    HW114936   2.429   2.242   2.443  0.1627 -0.7794  0.5525
 1159SOL    HW214937   2.567   2.277   2.437 -1.2185 -1.3456 -0.4820
 1160SOL     OW14938   3.770   4.475  16.497 -0.3835 -0.8575  0.0220
 1160SOL    HW114939   3.781   4.534  16.423  2.7250 -1.9081 -0.3290
 1160SOL    HW214940   3.727   4.531  16.562  0.5202 -0.6442  0.4361
 1161SOL     OW14941   4.596   3.852   0.358 -0.4956  0.1101  0.5054
 1161SOL    HW114942   4.571   3.905   0.434 -1.4534  0.3017  0.0613
 1161SOL    HW214943   4.691   3.859   0.365 -0.5372  0.6538  0.5061
 1162SOL     OW14944   4.535   2.250   9.338 -0.1128 -0.0440 -0.4426
 1162SOL    HW114945   4.512   2.170   9.290 -1.6230  0.9431 -1.3718
 1162SOL    HW214946   4.503   2.309   9.269  2.1658 -0.5116 -1.8844
 1163SOL     OW14947   1.622   2.247   8.967 -0.3972 -0.1631  0.4674
 1163SOL    HW114948   1.696   2.204   8.925  0.1676  1.0068  0.2546
 1163SOL    HW214949   1.637   2.341   8.957  0.6802 -0.4323 -0.2992
 1164SOL     OW14950   2.898   4.638  16.266 -0.1166 -0.0365  0.5839
 1164SOL    HW114951   2.892   4.564  16.205  0.1563  0.2208  0.2438
 1164SOL    HW214952   2.890   4.711  16.204 -1.8447 -1.1461 -0.4987
 1165SOL     OW14953   4.286   1.684  14.498 -0.1247 -0.3621 -0.3796
 1165SOL    HW114954   4.197   1.705  14.473  0.4301  1.4019 -0.8331
 1165SOL    HW214955   4.314   1.618  14.435 -0.9394 -0.9452 -0.1236
 1166SOL     OW14956   3.822   2.572   4.982  0.0129  0.1440 -0.0244
 1166SOL    HW114957   3.762   2.504   5.015  0.2504 -1.0859 -2.1728
 1166SOL    HW214958   3.858   2.615   5.060 -1.4870 -0.5581  1.0670
 1167SOL     OW14959   3.409   0.191   3.800 -0.3981  0.4575 -0.4076
 1167SOL    HW114960   3.459   0.226   3.873 -0.2354 -2.9214  1.1110
 1167SOL    HW214961   3.321   0.227   3.815 -0.4951  0.0090  0.1071
 1168SOL     OW14962   0.377   4.117   9.691 -0.2619 -0.3526  0.6052
 1168SOL    HW114963   0.327   4.077   9.763 -1.0131 -1.0325 -0.2980
 1168SOL    HW214964   0.397   4.035   9.646  0.4082  0.7913 -1.1589
 1169SOL     OW14965   0.120   3.590  16.429  0.1650  0.3242  0.0762
 1169SOL    HW114966   0.183   3.531  16.387  1.5840  0.4229  2.0538
 1169SOL    HW214967   0.060   3.613  16.359  2.1786 -0.5522 -1.9584
 1170SOL     OW14968   1.192   1.403   2.743  0.1193  0.6821 -0.1270
 1170SOL    HW114969   1.100   1.425   2.733 -0.1612 -0.6374 -0.3909
 1170SOL    HW214970   1.193   1.333   2.678 -0.4971 -1.0914  1.7697
 1171SOL     OW14971   4.288   2.265   6.001 -0.4957 -1.3354 -0.3838
 1171SOL    HW114972   4.355   2.334   6.001 -0.2156 -1.6052  1.8679
 1171SOL    HW214973   4.204   2.309   6.000 -0.8179 -1.9177  0.4808
 1172SOL     OW14974   1.547   1.499   3.398  0.1600 -0.4544  0.5159
 1172SOL    HW114975   1.452   1.498   3.387  0.2028  0.0141  0.1107
 1172SOL    HW214976   1.563   1.455   3.481 -0.0832  0.2036  0.9056
 1173SOL     OW14977   4.551   3.030   5.779 -0.3842 -0.4835 -0.2080
 1173SOL    HW114978   4.564   2.950   5.830 -2.2648 -0.9451 -0.4278
 1173SOL    HW214979   4.600   3.017   5.698  0.4078 -1.7476  0.4763
 1174SOL     OW14980   0.045   1.969   5.592 -0.3402  0.6499  0.1346
 1174SOL    HW114981   4.675   1.995   5.578 -0.0876  0.8775 -1.0389
 1174SOL    HW214982   0.046   1.883   5.550  2.1998  0.7730 -0.0370
 1175SOL     OW14983   3.179   1.193  11.047 -0.5342 -0.2934  0.1371
 1175SOL    HW114984   3.124   1.147  10.984 -0.3660 -0.7188  0.3049
 1175SOL    HW214985   3.213   1.260  10.987 -0.8038 -3.3039 -3.3196
 1176SOL     OW14986   3.302   0.765   7.541 -0.1565 -0.2136  0.0890
 1176SOL    HW114987   3.233   0.701   7.559 -0.1182 -0.4595 -0.6482
 1176SOL    HW214988   3.289   0.782   7.447  0.6392 -0.0368  0.0166
 1177SOL     OW14989   3.281   0.065   4.396 -0.3265  0.3811  0.3093
 1177SOL    HW114990   3.304   0.059   4.303  1.9116 -2.2013  1.0288
 1177SOL    HW214991   3.226   0.142   4.403 -1.8020 -0.5018 -1.5637
 1178SOL     OW14992   3.024   0.705  16.646 -0.0106 -0.0166 -0.4644
 1178SOL    HW114993   3.116   0.686  16.665 -0.3016  0.7259  1.7303
 1178SOL    HW214994   3.005   0.623  16.601 -0.3026 -0.5893  0.6938
 1179SOL     OW14995   3.428   2.175   6.373  0.6773 -0.4559 -0.5329
 1179SOL    HW114996   3.457   2.084   6.375 -1.3789 -1.0614  2.1056
 1179SOL    HW214997   3.430   2.193   6.467  3.6044  0.4693 -0.7726
 1180SOL     OW14998   4.586   1.347   3.433  0.6116  0.3971  0.2002
 1180SOL    HW114999   4.621   1.296   3.506  0.6644  0.1424 -0.0015
 1180SOL    HW215000   4.610   1.436   3.460 -1.8058  1.0904  0.0381
 1181SOL     OW15001   2.528   4.250   7.976 -0.0506 -0.2369 -0.2615
 1181SOL    HW115002   2.540   4.284   8.064 -0.8865 -0.0736 -0.2110
 1181SOL    HW215003   2.453   4.195   7.998  0.1135 -0.9042 -1.3432
 1182SOL     OW15004   0.938   4.361   6.675  0.3782  0.0517 -0.3387
 1182SOL    HW115005   0.999   4.302   6.629 -0.4244  0.0300 -1.3819
 1182SOL    HW215006   0.878   4.368   6.601 -2.5697 -1.0180  1.9541
 1183SOL     OW15007   3.091   0.918   5.110  0.8350 -0.1969  0.0247
 1183SOL    HW115008   3.124   0.834   5.143 -0.2162 -0.3094  0.7611
 1183SOL    HW215009   3.165   0.976   5.129 -1.5128  2.8683 -0.3701
 1184SOL     OW15010   2.482   0.215   7.775  0.2847  0.4405 -0.1666
 1184SOL    HW115011   2.460   0.130   7.737  2.2904 -0.5056  0.8058
 1184SOL    HW215012   2.402   0.258   7.744 -1.1158 -1.4247  0.8917
 1185SOL     OW15013   1.706   4.599  14.347 -1.1860  0.0469 -0.5075
 1185SOL    HW115014   1.631   4.640  14.304 -1.1000 -0.3932 -1.0887
 1185SOL    HW215015   1.709   4.509  14.313  2.6352  0.2693 -0.7415
 1186SOL     OW15016   4.116   1.808   3.351 -0.5002  0.3630  0.7328
 1186SOL    HW115017   4.189   1.747   3.352 -0.0245  0.8807 -2.1295
 1186SOL    HW215018   4.149   1.870   3.286 -2.3712  1.5271  0.8874
 1187SOL     OW15019   0.545   4.121   2.074 -0.5063  0.2049  0.2972
 1187SOL    HW115020   0.502   4.051   2.123  0.7462 -0.1538  0.8875
 1187SOL    HW215021   0.469   4.178   2.056  0.3591  1.5569  0.9457
 1188SOL     OW15022   2.129   4.095  17.505  0.2791  0.0189 -0.3489
 1188SOL    HW115023   2.046   4.141  17.497 -0.9345 -2.0389  0.5450
 1188SOL    HW215024   2.185   4.152  17.453 -0.4391  1.5638  0.5730
 1189SOL     OW15025   2.129   2.368   7.207  0.6315 -0.6737 -0.4908
 1189SOL    HW115026   2.053   2.315   7.185  0.6852 -0.4796 -1.1524
 1189SOL    HW215027   2.197   2.302   7.196  0.7262 -0.4736 -1.1022
 1190SOL     OW15028   0.763   2.687   5.447 -0.6817  0.3808 -0.1856
 1190SOL    HW115029   0.837   2.652   5.397 -0.6580 -0.0877  0.1735
 1190SOL    HW215030   0.738   2.624   5.515  0.1342 -2.0819 -2.1405
 1191SOL     OW15031   1.507   4.601   7.259 -0.1696  0.3498  0.0665
 1191SOL    HW115032   1.483   4.559   7.341  0.6606 -0.3021 -0.0312
 1191SOL    HW215033   1.448   4.567   7.191  0.3072  1.8641 -1.1217
 1192SOL     OW15034   0.363   2.933   8.752  0.1232 -0.2681 -0.3178
 1192SOL    HW115035   0.409   3.003   8.799 -0.9479  0.8274 -0.8775
 1192SOL    HW215036   0.423   2.910   8.682 -0.0045  1.4043 -0.9726
 1193SOL     OW15037   2.542   2.744   2.332  0.2823  0.2528 -0.0685
 1193SOL    HW115038   2.550   2.665   2.385 -3.0175  0.8820  1.3798
 1193SOL    HW215039   2.506   2.800   2.402  1.2494  0.5826  0.1704
 1194SOL     OW15040   1.138   3.545   6.549  0.3802  0.0957 -0.2573
 1194SOL    HW115041   1.116   3.462   6.506 -0.2539  0.2827 -0.3028
 1194SOL    HW215042   1.094   3.533   6.632  1.3298 -1.9284 -0.0623
 1195SOL     OW15043   4.514   4.230   5.311  0.5939  0.3399  0.7704
 1195SOL    HW115044   4.521   4.137   5.289  0.4048  0.1325  1.5887
 1195SOL    HW215045   4.508   4.259   5.220 -0.5226 -1.8649  0.1488
 1196SOL     OW15046   1.984   1.918   2.463  0.6506 -0.2661  0.2034
 1196SOL    HW115047   1.924   1.973   2.514  0.4058 -0.5181  0.1888
 1196SOL    HW215048   1.949   1.891   2.378 -1.9452 -0.4022  1.3046
 1197SOL     OW15049   1.359   1.967   8.144  0.2583  0.0610 -0.1708
 1197SOL    HW115050   1.374   1.901   8.076  1.7174  0.5514 -0.3262
 1197SOL    HW215051   1.295   1.922   8.200  1.2862  0.7846  1.5858
 1198SOL     OW15052   0.143   1.217   3.978  0.3222 -0.0999  0.0100
 1198SOL    HW115053   0.121   1.247   4.066 -0.3901 -2.1152  0.5221
 1198SOL    HW215054   0.225   1.171   3.996 -0.2335 -1.4394 -0.8010
 1199SOL     OW15055   4.103   4.014   9.777 -0.1544  0.6706  0.3138
 1199SOL    HW115056   4.096   4.060   9.860 -1.7516  0.0591  0.5360
 1199SOL    HW215057   4.136   4.081   9.718 -0.0317  1.5015  1.3339
 1200SOL     OW15058   2.749   0.921  16.763  0.3062 -0.0833 -0.1615
 1200SOL    HW115059   2.696   0.843  16.747 -1.2258  1.0253 -0.5206
 1200SOL    HW215060   2.737   0.923  16.857 -2.4304  2.0752 -0.5568
 1201SOL     OW15061   3.427   1.578   1.806 -0.0744  0.1530 -0.1892
 1201SOL    HW115062   3.502   1.519   1.807 -0.5583 -0.4557  0.7985
 1201SOL    HW215063   3.473   1.660   1.826  2.0303 -1.1567  0.2848
 1202SOL     OW15064   1.355   3.553   8.451  0.4951  0.1675  0.5441
 1202SOL    HW115065   1.346   3.483   8.516 -1.6126  0.0323  0.0905
 1202SOL    HW215066   1.327   3.625   8.506 -0.4378 -0.6987  1.2083
 1203SOL     OW15067   0.923   2.525   7.998  0.1925 -0.2502 -0.1218
 1203SOL    HW115068   1.004   2.576   7.999  1.2556 -1.9284 -1.2442
 1203SOL    HW215069   0.879   2.557   8.077 -1.6620  1.3197 -1.7721
 1204SOL     OW15070   3.008   2.715  17.443  0.5280  0.7243  0.3672
 1204SOL    HW115071   3.083   2.776  17.445 -0.3180  1.6339  3.1679
 1204SOL    HW215072   3.042   2.634  17.404 -0.6463 -0.2053  1.3052
 1205SOL     OW15073   1.646   1.402   9.743  0.0700  0.5636  0.0433
 1205SOL    HW115074   1.600   1.375   9.822 -0.0995  0.5452 -0.0612
 1205SOL    HW215075   1.730   1.358   9.746 -0.4224 -0.4559 -1.0249
 1206SOL     OW15076   0.101   4.436   1.165  0.2016  0.4105 -0.5706
 1206SOL    HW115077   0.094   4.460   1.257  1.6453  3.0835 -1.1724
 1206SOL    HW215078   0.009   4.418   1.144  0.4428  0.2417 -1.5204
 1207SOL     OW15079   2.821   0.586  14.747  0.2685  0.1266 -0.0319
 1207SOL    HW115080   2.787   0.665  14.704  1.7816 -0.0520 -1.5329
 1207SOL    HW215081   2.754   0.518  14.740 -1.5954  2.0498 -0.8048
 1208SOL     OW15082   3.750   1.355   8.470 -0.3122  0.0954  0.0992
 1208SOL    HW115083   3.752   1.285   8.404 -0.5909  1.5399 -1.4524
 1208SOL    HW215084   3.720   1.307   8.547  0.6315  0.0130  0.4161
 1209SOL     OW15085   3.130   0.109   4.831  0.3708  0.6529 -0.0776
 1209SOL    HW115086   3.095   0.188   4.790  1.3177  1.4874  0.7202
 1209SOL    HW215087   3.048   0.067   4.857  1.2801 -1.5309 -0.7379
 1210SOL     OW15088   1.105   3.276   8.798  0.8817 -0.8758  0.4763
 1210SOL    HW115089   1.097   3.320   8.882  2.1455 -2.3522  1.3768
 1210SOL    HW215090   1.182   3.323   8.766 -1.2672  1.4527 -1.2284
 1211SOL     OW15091   0.390   3.495  12.797  0.2000 -0.2537 -0.1843
 1211SOL    HW115092   0.472   3.452  12.773  1.7281  1.5963  1.7752
 1211SOL    HW215093   0.416   3.553  12.869 -0.0684  0.1484 -0.4157
 1212SOL     OW15094   2.956   1.266   6.249  0.0828  0.2216 -0.1444
 1212SOL    HW115095   2.946   1.288   6.157 -3.7689 -2.2833 -0.3066
 1212SOL    HW215096   3.042   1.224   6.245  0.3665  0.9335 -1.4969
 1213SOL     OW15097   1.348   4.676   5.660 -0.0801 -0.5455  0.2362
 1213SOL    HW115098   1.310   4.703   5.743 -0.2882 -0.1938  0.0266
 1213SOL    HW215099   1.437   4.706   5.678 -0.7203  0.8218  1.1787
 1214SOL     OW15100   0.883   3.053  15.858  0.8720  0.4048  0.2089
 1214SOL    HW115101   0.943   3.125  15.841  0.7830  0.8120  1.6244
 1214SOL    HW215102   0.900   3.032  15.950 -0.0506 -1.2926 -0.0019
 1215SOL     OW15103   1.450   2.410   8.228 -0.0922 -0.4450  0.3546
 1215SOL    HW115104   1.509   2.417   8.303  0.9317  0.8263 -0.5691
 1215SOL    HW215105   1.440   2.504   8.210 -1.9258 -0.2339  2.4117
 1216SOL     OW15106   1.552   1.561  17.114  0.1177 -0.9218 -0.2092
 1216SOL    HW115107   1.537   1.503  17.188  0.2378 -0.0657  0.4891
 1216SOL    HW215108   1.630   1.512  17.088 -0.5296 -1.5657 -0.9406
 1217SOL     OW15109   4.275   1.668   4.198 -0.0520  0.1292  0.2980
 1217SOL    HW115110   4.221   1.613   4.255 -1.3654  2.9413  1.7421
 1217SOL    HW215111   4.352   1.694   4.247  0.2533  1.2825 -0.8117
 1218SOL     OW15112   4.167   1.434   7.477 -0.0339 -0.1448  0.1272
 1218SOL    HW115113   4.214   1.437   7.560 -0.1935  1.1127  0.1691
 1218SOL    HW215114   4.144   1.342   7.467 -0.2300 -0.2294  1.4444
 1219SOL     OW15115   3.677   2.996  14.554 -0.1582 -0.3439 -0.1716
 1219SOL    HW115116   3.593   3.041  14.545  0.3103  0.1679 -1.8511
 1219SOL    HW215117   3.736   3.041  14.494  0.6785 -0.2178  0.7499
 1220SOL     OW15118   1.441   1.579   5.999 -0.0270 -0.0254  0.4452
 1220SOL    HW115119   1.367   1.521   6.017  0.1823  0.0741  1.6499
 1220SOL    HW215120   1.436   1.642   6.070 -0.7825 -1.4959  1.6974
 1221SOL     OW15121   2.271   2.104  13.600 -0.2204 -0.6970 -0.0255
 1221SOL    HW115122   2.276   2.197  13.622  0.9752 -1.3700  2.6924
 1221SOL    HW215123   2.221   2.070  13.675 -4.6207  1.3120 -2.0559
 1222SOL     OW15124   3.357   2.574   0.364  0.0736  0.4030  0.0675
 1222SOL    HW115125   3.269   2.586   0.327 -0.9032 -0.8354  2.0023
 1222SOL    HW215126   3.350   2.493   0.415 -0.7603  0.1506 -0.4362
 1223SOL     OW15127   2.885   2.688   6.709  0.5239 -0.3294 -0.8088
 1223SOL    HW115128   2.844   2.613   6.752  0.4565 -0.9347 -1.9039
 1223SOL    HW215129   2.975   2.660   6.692  0.3939 -2.2934  1.6950
 1224SOL     OW15130   4.069   0.698  16.065 -0.7495 -0.6136  0.3598
 1224SOL    HW115131   3.983   0.716  16.105 -1.3700  0.1364 -1.3143
 1224SOL    HW215132   4.099   0.659  16.147 -0.4362  1.1871  1.0991
 1225SOL     OW15133   1.212   0.886  14.019 -0.3495 -0.4272  0.2088
 1225SOL    HW115134   1.283   0.948  14.036 -1.6218  1.1865 -0.2549
 1225SOL    HW215135   1.186   0.909  13.930  0.9264 -3.0615 -0.8026
 1226SOL     OW15136   3.675   1.354   7.522 -0.3296  0.2624  0.2560
 1226SOL    HW115137   3.602   1.299   7.553 -1.7241  0.8684 -1.9632
 1226SOL    HW215138   3.722   1.302   7.457  0.1081  1.4928 -0.3950
 1227SOL     OW15139   0.906   4.248  14.867  0.1940  0.0488  0.2315
 1227SOL    HW115140   0.885   4.332  14.907  1.6572 -0.7102  2.6631
 1227SOL    HW215141   0.986   4.265  14.817 -0.7674  0.9079 -1.0176
 1228SOL     OW15142   3.488   1.099   2.734  0.6496 -0.1893 -0.5018
 1228SOL    HW115143   3.566   1.135   2.776  1.4678 -0.0477 -2.1201
 1228SOL    HW215144   3.423   1.128   2.798  1.0274  0.0742 -0.2347
 1229SOL     OW15145   1.655   2.599  10.671  0.0278 -0.2689 -0.2728
 1229SOL    HW115146   1.645   2.505  10.655  0.7723 -1.0480  3.8709
 1229SOL    HW215147   1.652   2.611  10.766  1.2625 -1.2905 -0.1032
 1230SOL     OW15148   3.085   3.099  10.640  0.4298  0.3514 -0.2627
 1230SOL    HW115149   2.990   3.094  10.654  0.6788 -0.0558  1.2949
 1230SOL    HW215150   3.091   3.018  10.590  0.1659 -0.0011  0.2917
 1231SOL     OW15151   1.893   3.976   4.828  0.3119 -0.5642  0.3561
 1231SOL    HW115152   1.825   3.975   4.896 -1.3073  2.5819 -1.2241
 1231SOL    HW215153   1.950   4.046   4.860 -0.1022  0.6044 -1.4721
 1232SOL     OW15154   3.217   0.658   4.291 -0.2321  0.8405 -0.1117
 1232SOL    HW115155   3.132   0.615   4.284 -0.9442  2.7545 -3.0730
 1232SOL    HW215156   3.271   0.588   4.326 -1.8680 -0.0324  0.6532
 1233SOL     OW15157   1.118   1.004   6.829  0.1734  0.3964  0.0882
 1233SOL    HW115158   1.209   1.006   6.858  0.0003  0.7937  0.6156
 1233SOL    HW215159   1.127   1.020   6.735 -0.1283 -0.7651 -0.1382
 1234SOL     OW15160   0.374   1.419   2.553 -0.4552 -1.0692 -0.2141
 1234SOL    HW115161   0.402   1.340   2.505 -1.5311 -0.6804 -1.4961
 1234SOL    HW215162   0.343   1.473   2.480  1.2474  1.4192  0.9226
 1235SOL     OW15163   0.585   3.801   5.974 -0.0669 -0.4078 -0.1488
 1235SOL    HW115164   0.629   3.885   5.965 -0.9989  0.0973  0.0830
 1235SOL    HW215165   0.650   3.731   5.964  0.9218  0.4508  0.3309
 1236SOL     OW15166   3.446   0.348   3.538 -0.3531 -0.6825 -0.0436
 1236SOL    HW115167   3.404   0.334   3.623  0.6968  0.2494  0.6286
 1236SOL    HW215168   3.476   0.261   3.514  0.7496 -0.0141 -1.0983
 1237SOL     OW15169   0.805   2.641   8.241 -0.0847 -0.4058  0.7219
 1237SOL    HW115170   0.712   2.629   8.260 -0.3402 -0.4995 -0.6226
 1237SOL    HW215171   0.845   2.573   8.296 -0.4113 -0.3880  0.9805
 1238SOL     OW15172   3.851   4.544   3.015  0.3565  0.3930  0.6727
 1238SOL    HW115173   3.867   4.561   3.108 -2.1495 -1.6401  1.4827
 1238SOL    HW215174   3.895   4.617   2.972  0.2356  0.3653  0.5004
 1239SOL     OW15175   1.156   1.666   4.694 -0.6670  0.3059 -0.1037
 1239SOL    HW115176   1.062   1.664   4.715 -0.1687  0.5821  2.1498
 1239SOL    HW215177   1.187   1.598   4.753 -0.8411  0.1655 -0.1759
 1240SOL     OW15178   1.300   2.547  15.509 -0.6456 -0.2767 -0.5418
 1240SOL    HW115179   1.390   2.520  15.491 -0.9184 -1.2191 -0.4710
 1240SOL    HW215180   1.275   2.595  15.430 -0.4088  0.7408 -0.0025
 1241SOL     OW15181   0.082   3.543   2.166 -0.4517  0.0865 -0.1143
 1241SOL    HW115182   0.121   3.522   2.081  2.8398  1.2389  1.1051
 1241SOL    HW215183   0.111   3.472   2.224 -2.1601  0.5365  1.2925
 1242SOL     OW15184   2.920   4.223   0.186  0.3291 -0.3635  0.0166
 1242SOL    HW115185   2.879   4.234   0.272 -0.0177 -2.3193  0.1023
 1242SOL    HW215186   2.957   4.308   0.164 -0.8606  0.4020  1.0087
 1243SOL     OW15187   2.273   3.524  17.390  0.3484  0.2006  0.0802
 1243SOL    HW115188   2.209   3.469  17.435  0.8027 -0.7910 -0.4893
 1243SOL    HW215189   2.254   3.615  17.416  0.0800  0.0986  0.2401
 1244SOL     OW15190   1.923   3.347   3.631  0.4284  0.2154  0.6616
 1244SOL    HW115191   1.939   3.303   3.715 -0.0434  0.4716  0.8825
 1244SOL    HW215192   2.012   3.355   3.596  0.5371  0.1959  0.9305
 1245SOL     OW15193   1.270   0.308   1.815  0.2552  0.2575 -0.3187
 1245SOL    HW115194   1.310   0.291   1.730  2.0974 -1.0643  0.8199
 1245SOL    HW215195   1.344   0.338   1.868 -0.8964  0.1742  1.3311
 1246SOL     OW15196   3.177   1.358   6.752 -0.3250 -0.3701 -0.0810
 1246SOL    HW115197   3.164   1.315   6.667  0.5184 -0.9322  0.0765
 1246SOL    HW215198   3.260   1.399   6.731 -0.8589 -0.6682 -2.7872
 1247SOL     OW15199   2.610   3.337   2.890 -0.6303  0.6049  0.0365
 1247SOL    HW115200   2.630   3.256   2.843 -0.9514  1.1893 -1.1230
 1247SOL    HW215201   2.515   3.336   2.880 -0.7991 -0.9573  1.9821
 1248SOL     OW15202   0.948   2.543  17.068 -0.4269  0.0509 -0.2247
 1248SOL    HW115203   0.949   2.615  17.131 -2.1702  1.2730 -1.5959
 1248SOL    HW215204   0.893   2.586  17.003 -1.0055  0.0283  0.2444
 1249SOL     OW15205   0.118   2.250  16.185 -0.1958  0.5445  0.4559
 1249SOL    HW115206   0.047   2.232  16.248  0.3879 -0.3028  0.8645
 1249SOL    HW215207   0.088   2.226  16.098 -2.2639  0.1775  1.2595
 1250SOL     OW15208   1.808   1.818   4.153  0.0171  0.1607  0.1524
 1250SOL    HW115209   1.880   1.803   4.091 -0.4194  0.9198 -0.5370
 1250SOL    HW215210   1.829   1.910   4.169  0.9850 -0.1414  0.6101
 1251SOL     OW15211   0.965   2.976   3.017  0.5158 -0.1768 -0.5233
 1251SOL    HW115212   1.060   2.984   3.012  0.2708  2.0881 -1.2731
 1251SOL    HW215213   0.947   2.881   3.017  1.9313 -0.4513  1.4919
 1252SOL     OW15214   3.851   3.262   7.094 -0.4843  0.5416  0.1650
 1252SOL    HW115215   3.789   3.229   7.030 -1.3159  3.2801 -0.4279
 1252SOL    HW215216   3.905   3.184   7.110  0.1525  1.0852  0.6862
 1253SOL     OW15217   1.262   0.141  15.366 -0.3530  0.1856 -0.0630
 1253SOL    HW115218   1.320   0.218  15.366  1.9200 -1.5204 -1.3755
 1253SOL    HW215219   1.322   0.091  15.311  0.7465 -1.2572  2.4496
 1254SOL     OW15220   0.589   1.933   5.065 -0.3048 -0.0959  0.0068
 1254SOL    HW115221   0.652   1.869   5.031  1.1916 -0.1531  2.8273
 1254SOL    HW215222   0.560   1.891   5.146 -3.0569  1.7837 -0.0100
 1255SOL     OW15223   2.804   2.105  17.531  0.3055 -0.4370  0.0454
 1255SOL    HW115224   2.733   2.042  17.537  1.1431 -1.3772  0.1069
 1255SOL    HW215225   2.827   2.110  17.438  3.5693 -1.2517  0.7971
 1256SOL     OW15226   1.821   1.959  12.330 -0.0845  0.4347  0.3625
 1256SOL    HW115227   1.916   1.958  12.342 -0.1779  1.0948  1.1574
 1256SOL    HW215228   1.796   1.976  12.421  0.1327  1.4405  0.2379
 1257SOL     OW15229   0.228   0.286   0.074 -0.1601 -0.0757  0.5909
 1257SOL    HW115230   0.313   0.272   0.033  0.4019  0.8254  1.4532
 1257SOL    HW215231   0.261   0.300   0.163  1.0069 -1.0394  0.3089
 1258SOL     OW15232   0.852   4.237   3.729  0.4374 -0.3255  0.2407
 1258SOL    HW115233   0.941   4.261   3.756  0.0173  0.1746  1.1991
 1258SOL    HW215234   0.867   4.242   3.635  1.3768 -1.2599  0.3352
 1259SOL     OW15235   2.490   2.328  10.428 -0.3179  0.2295  0.0353
 1259SOL    HW115236   2.408   2.282  10.407  1.3428 -2.7111 -0.0203
 1259SOL    HW215237   2.550   2.298  10.360 -0.8419 -0.3167 -0.1874
 1260SOL     OW15238   4.029   3.268  17.258 -0.1448 -0.4031  0.3124
 1260SOL    HW115239   3.937   3.245  17.271  0.0008 -0.8732  0.4931
 1260SOL    HW215240   4.080   3.208  17.312 -0.8529 -0.9698  0.3534
 1261SOL     OW15241   1.240   1.477   4.341 -0.9255  0.4638  0.5543
 1261SOL    HW115242   1.220   1.393   4.382  0.1897 -0.3099 -0.4995
 1261SOL    HW215243   1.254   1.535   4.416  0.1621  0.8367  0.0740
 1262SOL     OW15244   2.800   2.782   4.498  0.1035 -0.0140  0.2526
 1262SOL    HW115245   2.739   2.801   4.569  1.0030 -0.6624  1.2002
 1262SOL    HW215246   2.887   2.794   4.536 -0.0262 -1.0783  0.8920
 1263SOL     OW15247   4.278   3.835  12.173  0.5501 -0.7097  0.4321
 1263SOL    HW115248   4.327   3.901  12.125 -1.4478  0.6620  0.2942
 1263SOL    HW215249   4.259   3.777  12.099 -1.7052  1.8343 -0.9488
 1264SOL     OW15250   0.955   3.447   1.765 -0.6990  0.0397  0.1855
 1264SOL    HW115251   0.929   3.439   1.673 -2.5981  1.5833  0.5889
 1264SOL    HW215252   0.948   3.540   1.784  3.1159  0.6116 -1.1368
 1265SOL     OW15253   1.951   4.310   2.284 -0.4058  0.4890  0.2017
 1265SOL    HW115254   1.997   4.359   2.216 -0.5740 -1.3720 -1.2505
 1265SOL    HW215255   1.867   4.355   2.293 -0.0720  1.2302 -0.4085
 1266SOL     OW15256   2.056   1.700  10.122  0.5447 -0.5273  0.1678
 1266SOL    HW115257   2.115   1.703  10.197  0.5107 -1.2630  0.2183
 1266SOL    HW215258   2.105   1.758  10.063 -4.3690  1.7521 -1.6773
 1267SOL     OW15259   4.233   0.282   5.286 -0.4119  0.4745 -0.3388
 1267SOL    HW115260   4.273   0.290   5.373 -0.3590 -0.4096 -0.2721
 1267SOL    HW215261   4.223   0.374   5.265 -0.4774  0.4560 -0.3881
 1268SOL     OW15262   2.111   0.275   8.701 -0.3352  0.4685  0.0553
 1268SOL    HW115263   2.090   0.368   8.711 -1.0354  0.4126 -0.8780
 1268SOL    HW215264   2.186   0.264   8.760  1.1558  1.2900 -1.6708
 1269SOL     OW15265   0.180   1.003  15.225  0.0062 -0.5527  0.1584
 1269SOL    HW115266   0.186   0.999  15.130  0.4957 -1.4469  0.2284
 1269SOL    HW215267   0.154   1.095  15.227  0.4922 -0.4342  1.7815
 1270SOL     OW15268   2.451   3.105   9.958  0.1058  0.2574  0.7335
 1270SOL    HW115269   2.512   3.036   9.986 -3.0182 -1.9406  2.0867
 1270SOL    HW215270   2.379   3.089  10.019  1.3359 -1.7394  1.6564
 1271SOL     OW15271   4.452   2.075   7.152 -0.0667 -0.7750  0.2141
 1271SOL    HW115272   4.426   2.059   7.062 -1.0584 -0.2617  0.4082
 1271SOL    HW215273   4.372   2.122   7.177 -0.3187 -0.1052 -1.8431
 1272SOL     OW15274   0.618   1.745  16.549 -0.0225 -0.2244  0.2675
 1272SOL    HW115275   0.621   1.717  16.641 -1.5901  2.4575  1.1544
 1272SOL    HW215276   0.691   1.808  16.543  0.0579 -0.7219 -3.9154
 1273SOL     OW15277   1.452   0.636   8.734 -0.3672 -0.4698  0.2716
 1273SOL    HW115278   1.359   0.619   8.719 -0.0485 -0.4525 -1.7061
 1273SOL    HW215279   1.458   0.713   8.678 -1.4834 -1.0212 -0.6306
 1274SOL     OW15280   1.834   1.303   2.566  0.1758  0.2014 -0.2918
 1274SOL    HW115281   1.893   1.275   2.496  0.5249 -1.1502  0.5429
 1274SOL    HW215282   1.756   1.326   2.516  0.0520 -0.5165 -0.4256
 1275SOL     OW15283   3.040   1.869   4.732 -0.3047  0.6229  0.4619
 1275SOL    HW115284   3.103   1.939   4.713  1.8514 -1.5001 -0.1266
 1275SOL    HW215285   3.090   1.806   4.784 -4.0582 -2.1862  0.6527
 1276SOL     OW15286   3.607   2.579  16.686  0.4531 -0.1680  0.8450
 1276SOL    HW115287   3.651   2.512  16.635  0.5827  1.2822 -0.9334
 1276SOL    HW215288   3.656   2.594  16.767  0.5382 -0.0060  0.7626
 1277SOL     OW15289   0.718   2.326  16.583 -0.5896  0.3904 -0.3920
 1277SOL    HW115290   0.697   2.413  16.617 -1.3639 -1.8934  4.9487
 1277SOL    HW215291   0.635   2.313  16.536 -0.6822  1.2664 -0.4776
 1278SOL     OW15292   0.163   0.254   7.008  0.4244 -0.2062 -0.5581
 1278SOL    HW115293   0.128   0.322   7.066 -2.4715 -0.4179 -2.0963
 1278SOL    HW215294   0.253   0.288   7.005  0.1368  0.7114  0.6920
 1279SOL     OW15295   2.396   3.321   6.579  0.8482  0.2939 -0.5847
 1279SOL    HW115296   2.327   3.385   6.563 -0.3799 -0.3545  2.0756
 1279SOL    HW215297   2.409   3.289   6.489  2.8800 -1.5875  0.3949
 1280SOL     OW15298   1.697   1.170   5.154  0.6601  0.1844  0.2208
 1280SOL    HW115299   1.737   1.201   5.235  1.1362  1.9989 -0.7230
 1280SOL    HW215300   1.604   1.168   5.178  1.3105 -0.1223  2.7328
 1281SOL     OW15301   3.447   3.432   7.376  0.3643 -0.4399  0.4055
 1281SOL    HW115302   3.498   3.506   7.409 -0.0439  0.4600 -0.9512
 1281SOL    HW215303   3.422   3.387   7.456 -1.8744 -1.3933 -0.8067
 1282SOL     OW15304   3.512   2.056  12.132 -0.2112  0.6164 -0.2108
 1282SOL    HW115305   3.471   2.064  12.218  0.5037 -0.9684  0.2903
 1282SOL    HW215306   3.483   2.134  12.086 -1.3295  0.9671  1.0832
 1283SOL     OW15307   2.302   2.810  11.041 -0.3563  0.8391  0.6597
 1283SOL    HW115308   2.272   2.835  10.954 -1.3687  0.5637  0.9280
 1283SOL    HW215309   2.266   2.880  11.095 -0.1990 -0.0357  1.9013
 1284SOL     OW15310   0.736   2.396   3.767 -0.0020 -0.5932  0.0826
 1284SOL    HW115311   0.813   2.452   3.774 -0.5748  0.3175 -0.8951
 1284SOL    HW215312   0.660   2.454   3.762  0.1654 -0.1977  2.1599
 1285SOL     OW15313   4.458   3.437   2.575  0.3499  0.3208 -0.7975
 1285SOL    HW115314   4.466   3.435   2.480 -1.1121  1.8162 -0.9599
 1285SOL    HW215315   4.416   3.352   2.587  2.4433 -0.5889  0.2692
 1286SOL     OW15316   0.969   3.832   3.467 -0.1834 -0.2948 -0.1075
 1286SOL    HW115317   0.917   3.753   3.449 -1.5366  0.6336 -0.2359
 1286SOL    HW215318   0.903   3.890   3.505  1.7886  2.7032 -1.2606
 1287SOL     OW15319   2.291   1.829   3.915  0.1229 -0.2286  0.4879
 1287SOL    HW115320   2.345   1.755   3.944  1.2421 -0.5054 -2.2571
 1287SOL    HW215321   2.323   1.836   3.825 -0.2466 -1.9892  0.2269
 1288SOL     OW15322   4.160   4.638   1.028  0.0394  0.2643  0.2681
 1288SOL    HW115323   4.218   4.712   1.008 -1.1160  1.2256  0.4958
 1288SOL    HW215324   4.089   4.649   0.964 -0.7443 -1.1202  0.9214
 1289SOL     OW15325   0.527   1.468   3.262 -0.0685  0.5378 -0.0463
 1289SOL    HW115326   0.475   1.389   3.254  1.3037 -0.2504 -1.1807
 1289SOL    HW215327   0.609   1.440   3.221 -0.4411 -2.4854  1.2736
 1290SOL     OW15328   0.647   3.572  12.927  0.1989  0.4428 -0.1738
 1290SOL    HW115329   0.720   3.529  12.971  2.9201  3.2637 -1.9663
 1290SOL    HW215330   0.667   3.559  12.834  1.9272  1.2450  0.1020
 1291SOL     OW15331   3.506   3.445   1.745 -0.6922 -0.0950 -0.1664
 1291SOL    HW115332   3.546   3.480   1.825  0.6026  0.7174 -1.1666
 1291SOL    HW215333   3.540   3.355   1.751 -1.6040 -0.3198  1.3973
 1292SOL     OW15334   2.045   0.610   5.580  0.3371  0.5947  0.6535
 1292SOL    HW115335   2.125   0.655   5.607  1.1405 -1.6262  2.0098
 1292SOL    HW215336   2.073   0.518   5.577  0.6687  0.6157  3.0337
 1293SOL     OW15337   4.309   3.703   0.741  0.0227  0.9928 -0.2572
 1293SOL    HW115338   4.263   3.627   0.776  3.1035 -0.4131  0.7477
 1293SOL    HW215339   4.346   3.758   0.810 -0.2867 -0.5415  1.1312
 1294SOL     OW15340   3.838   3.388   4.818  0.3770 -0.1029 -0.3407
 1294SOL    HW115341   3.868   3.387   4.909  1.6490  0.2943 -0.7545
 1294SOL    HW215342   3.832   3.294   4.800  1.2841 -0.2741  0.2500
 1295SOL     OW15343   2.858   4.600   7.041  0.4781  0.1877  0.2335
 1295SOL    HW115344   2.812   4.681   7.019 -0.5354 -0.5897 -0.4866
 1295SOL    HW215345   2.800   4.561   7.107  0.4395  0.8483  0.5959
 1296SOL     OW15346   2.388   1.524   7.471  0.0171  0.6457 -0.2905
 1296SOL    HW115347   2.473   1.552   7.505  1.1844 -0.7290 -2.0575
 1296SOL    HW215348   2.352   1.491   7.554  0.1228  0.1694 -0.4303
 1297SOL     OW15349   1.159   0.455   9.611 -0.4691  0.3137 -0.0619
 1297SOL    HW115350   1.111   0.515   9.668 -0.3137  2.8517 -2.6209
 1297SOL    HW215351   1.113   0.479   9.531 -2.5846  3.2291  2.0322
 1298SOL     OW15352   2.619   0.395  16.208 -0.2056  0.1799 -0.9331
 1298SOL    HW115353   2.605   0.303  16.183 -0.1958  0.0729 -0.5376
 1298SOL    HW215354   2.572   0.431  16.133 -1.0677  1.5331  0.2780
 1299SOL     OW15355   1.672   2.669   2.968 -0.6003  0.1450  0.3812
 1299SOL    HW115356   1.747   2.713   2.927 -0.8996 -0.6376 -1.0183
 1299SOL    HW215357   1.711   2.646   3.052 -2.3339 -1.5349  0.7177
 1300SOL     OW15358   2.588   0.198   5.985 -0.6120  0.2360  0.1070
 1300SOL    HW115359   2.670   0.186   6.033  1.1357 -1.9259 -3.3994
 1300SOL    HW215360   2.529   0.178   6.057 -0.7624 -2.4914 -0.7389
 1301SOL     OW15361   2.028   4.573  12.459  0.3593  1.0118  0.0118
 1301SOL    HW115362   2.110   4.563  12.410 -0.6876 -0.5481 -1.4128
 1301SOL    HW215363   1.957   4.554  12.397 -2.0746 -2.2007  3.7954
 1302SOL     OW15364   1.318   2.306   9.327  0.1232 -0.2672 -0.7395
 1302SOL    HW115365   1.251   2.349   9.274  0.1227  1.1506  0.4028
 1302SOL    HW215366   1.267   2.243   9.377  0.3302 -0.0150 -0.2089
 1303SOL     OW15367   3.252   2.576   8.684  0.1139  0.1598  0.1949
 1303SOL    HW115368   3.282   2.667   8.675 -2.1990  0.9315  0.0951
 1303SOL    HW215369   3.169   2.591   8.729 -0.7741 -0.0098 -1.3989
 1304SOL     OW15370   4.618   2.838   8.819 -0.3175 -0.5536 -0.1855
 1304SOL    HW115371   4.522   2.841   8.822 -0.2733 -1.1886  1.5755
 1304SOL    HW215372   4.640   2.891   8.742  2.0475  1.7227  2.0820
 1305SOL     OW15373   4.123   0.538   3.612 -0.1406  0.0486  0.3806
 1305SOL    HW115374   4.057   0.583   3.664 -3.1102 -1.8628 -1.7763
 1305SOL    HW215375   4.102   0.446   3.626 -0.3130  0.1948  1.0841
 1306SOL     OW15376   0.107   2.848  16.002  0.1244 -0.1793 -0.0929
 1306SOL    HW115377   0.173   2.801  16.053  1.7228  1.2151 -0.8843
 1306SOL    HW215378   0.151   2.930  15.981  0.7794 -0.3224  0.7395
 1307SOL     OW15379   0.482   2.148   7.816  0.2424 -0.2297 -0.7297
 1307SOL    HW115380   0.447   2.211   7.880  0.5032 -1.8903  1.0335
 1307SOL    HW215381   0.398   2.107   7.798 -0.1839 -0.4372  1.7289
 1308SOL     OW15382   1.706   0.530  10.172  0.0621  0.0941  0.1661
 1308SOL    HW115383   1.634   0.591  10.191 -0.0973 -1.0951  3.3979
 1308SOL    HW215384   1.684   0.500  10.084 -0.5931 -1.3626  0.8216
 1309SOL     OW15385   1.390   1.885   9.535 -0.0092 -0.0991 -0.0046
 1309SOL    HW115386   1.321   1.904   9.599 -0.2735 -1.0775 -0.0043
 1309SOL    HW215387   1.472   1.912   9.578  0.2418  1.0219 -1.1793
 1310SOL     OW15388   2.102   1.275  10.021  0.1466 -0.1185  0.5630
 1310SOL    HW115389   2.191   1.292   9.991 -0.3136 -0.3208 -0.9220
 1310SOL    HW215390   2.104   1.311  10.110  1.4989 -2.8221  1.6293
 1311SOL     OW15391   0.183   2.687   2.179  0.5029  0.7548  0.0079
 1311SOL    HW115392   0.213   2.733   2.257 -1.1836  0.0776  1.0590
 1311SOL    HW215393   0.201   2.598   2.210 -1.6275 -0.3200 -1.8114
 1312SOL     OW15394   2.807   2.967   6.460 -0.2197  0.1074  0.0663
 1312SOL    HW115395   2.749   3.025   6.410 -1.4246 -0.2228  1.0687
 1312SOL    HW215396   2.765   2.948   6.544  2.1963 -0.2719  1.1598
 1313SOL     OW15397   2.721   2.316  15.580 -0.5148 -0.3072  0.7362
 1313SOL    HW115398   2.729   2.282  15.669  1.3785  3.3451  1.9826
 1313SOL    HW215399   2.686   2.241  15.533  1.0386  0.3531 -1.4948
 1314SOL     OW15400   2.140   4.180   6.336 -0.4583 -0.0331 -0.0015
 1314SOL    HW115401   2.165   4.156   6.425 -2.2384 -0.9390  0.2504
 1314SOL    HW215402   2.119   4.273   6.335  0.2764  0.1313 -0.7164
 1315SOL     OW15403   0.834   0.648   4.211 -0.2422 -0.0739  0.4551
 1315SOL    HW115404   0.857   0.599   4.290  1.6291 -2.3679 -1.5100
 1315SOL    HW215405   0.850   0.738   4.239  0.6523 -0.2897  0.6480
 1316SOL     OW15406   3.337   0.674   3.192 -0.4927  0.1955  0.8611
 1316SOL    HW115407   3.269   0.740   3.207  0.0855  0.8036  0.8010
 1316SOL    HW215408   3.378   0.716   3.116 -0.0814  0.4043  1.1987
 1317SOL     OW15409   1.386   4.434   5.592  0.6631 -0.6636  0.0907
 1317SOL    HW115410   1.356   4.522   5.611 -0.8038 -1.4134  1.2915
 1317SOL    HW215411   1.391   4.399   5.681  0.3588  1.2470  0.8493
 1318SOL     OW15412   2.576   2.482   3.268 -0.3150  0.1360  0.4087
 1318SOL    HW115413   2.663   2.513   3.241 -0.8715  0.2622 -1.2525
 1318SOL    HW215414   2.513   2.538   3.223 -0.2907  0.2696  0.5398
 1319SOL     OW15415   1.553   1.974   6.705  0.1073 -0.7295  0.3923
 1319SOL    HW115416   1.610   2.029   6.652  2.3439  0.2829  3.8072
 1319SOL    HW215417   1.574   2.009   6.792 -1.7167 -0.0135  0.5395
 1320SOL     OW15418   3.411   3.854   1.965  0.1268  0.1200 -0.1739
 1320SOL    HW115419   3.382   3.870   2.055  0.8916  1.0170 -0.0929
 1320SOL    HW215420   3.379   3.939   1.935 -0.4825 -0.0546 -0.0306
 1321SOL     OW15421   2.661   0.101   9.141 -0.4915 -0.3141  0.5016
 1321SOL    HW115422   2.576   0.110   9.098 -1.2514 -1.5166  1.7546
 1321SOL    HW215423   2.710   0.177   9.109  1.9064 -1.3616  1.6129
 1322SOL     OW15424   2.993   2.067   1.862  0.2485  0.5406 -0.0873
 1322SOL    HW115425   3.026   2.128   1.796  1.1705 -0.9023 -0.9349
 1322SOL    HW215426   3.079   2.054   1.901  0.0587  0.8625  0.4411
 1323SOL     OW15427   2.007   2.442   6.911 -0.4962  0.4683 -0.0655
 1323SOL    HW115428   2.067   2.414   6.980  0.7479  2.4830 -0.3213
 1323SOL    HW215429   1.948   2.501   6.958 -0.2275 -0.4929  1.4457
 1324SOL     OW15430   0.621   1.128  15.765 -0.3195  0.0704  0.0884
 1324SOL    HW115431   0.700   1.083  15.792 -0.3229  0.3030  0.4784
 1324SOL    HW215432   0.598   1.099  15.677 -0.8420  2.0094 -0.4173
 1325SOL     OW15433   4.496   4.706   3.570  0.8512 -0.1252  0.5012
 1325SOL    HW115434   4.541   4.680   3.650  1.2278 -3.0437 -0.6490
 1325SOL    HW215435   4.563   0.044   3.535  0.6737  0.0774  0.5053
 1326SOL     OW15436   3.435   4.521   5.000 -0.3469 -0.2830 -0.1801
 1326SOL    HW115437   3.412   4.431   5.023 -3.2103  0.0868 -1.6248
 1326SOL    HW215438   3.502   4.529   5.067  0.7609 -2.1886 -1.0498
 1327SOL     OW15439   1.388   2.101  14.586  0.1215  0.3518 -0.3746
 1327SOL    HW115440   1.441   2.181  14.592  0.3561  0.0339  1.8153
 1327SOL    HW215441   1.397   2.055  14.503  0.3491  1.8292 -1.1620
 1328SOL     OW15442   0.741   0.799   2.710 -0.7742  0.1389 -0.0432
 1328SOL    HW115443   0.648   0.777   2.720 -0.5494 -0.2619  1.1568
 1328SOL    HW215444   0.790   0.718   2.726 -0.3301 -0.3033 -3.5916
 1329SOL     OW15445   4.179   0.317   7.572 -0.3619 -0.2898  0.2441
 1329SOL    HW115446   4.263   0.296   7.531  0.1060 -0.2740  1.1931
 1329SOL    HW215447   4.116   0.308   7.501  0.5648 -0.6829 -0.5256
 1330SOL     OW15448   0.373   3.791  14.999  0.2407 -0.0312 -0.3649
 1330SOL    HW115449   0.377   3.697  14.983  1.7620 -0.0204  0.0390
 1330SOL    HW215450   0.279   3.813  14.995  0.3419  0.5316  0.2725
 1331SOL     OW15451   3.857   2.514  12.175 -0.0248 -0.1592  0.0687
 1331SOL    HW115452   3.927   2.449  12.174  0.2856  0.2018 -1.0500
 1331SOL    HW215453   3.780   2.464  12.202  1.2888 -0.7616  2.7004
 1332SOL     OW15454   0.615   1.733   8.736  0.1923 -0.0007  0.1519
 1332SOL    HW115455   0.547   1.687   8.785  0.5022 -1.1922 -0.5521
 1332SOL    HW215456   0.610   1.821   8.775  0.3727 -0.3838  1.0462
 1333SOL     OW15457   0.355   4.327   8.088 -0.7079 -0.3231 -0.2872
 1333SOL    HW115458   0.367   4.333   8.183  0.7479 -0.0191 -0.4923
 1333SOL    HW215459   0.380   4.235   8.077 -0.1589 -0.4516  2.0273
 1334SOL     OW15460   4.315   3.795   6.174 -0.3379  0.3582  0.0507
 1334SOL    HW115461   4.277   3.855   6.238 -0.1484  0.4454  0.0801
 1334SOL    HW215462   4.286   3.708   6.200 -2.6789  1.2238  0.3800
 1335SOL     OW15463   0.422   3.320  11.998  0.6083 -0.1174 -0.2200
 1335SOL    HW115464   0.397   3.270  12.075 -0.7520  1.9505  0.6721
 1335SOL    HW215465   0.386   3.407  12.014  0.4393 -0.1347 -0.5102
 1336SOL     OW15466   2.844   0.481   4.050 -0.1049 -0.4768  0.8309
 1336SOL    HW115467   2.764   0.472   4.102 -1.1841  2.9144 -0.2461
 1336SOL    HW215468   2.878   0.391   4.052 -0.8440 -0.7504  0.9483
 1337SOL     OW15469   1.233   2.432   7.761  0.2644  0.2325  0.1035
 1337SOL    HW115470   1.165   2.375   7.797  0.4051  1.6489  2.5708
 1337SOL    HW215471   1.186   2.506   7.722  0.3733  0.7543  0.9676
 1338SOL     OW15472   1.792   4.551   6.651 -0.1741  0.0282  0.1824
 1338SOL    HW115473   1.807   4.457   6.642  0.0158  0.1270 -0.5167
 1338SOL    HW215474   1.881   4.585   6.653 -0.4344  0.7415 -0.1684
 1339SOL     OW15475   3.501   4.667   6.629 -0.1689 -0.0764 -0.0143
 1339SOL    HW115476   3.418   4.631   6.660  1.0239 -2.4222  0.4616
 1339SOL    HW215477   3.562   4.596   6.649 -0.2475 -0.4689 -1.1521
 1340SOL     OW15478   1.506   3.600   2.285 -0.9181  0.4916  0.6893
 1340SOL    HW115479   1.441   3.583   2.217 -0.1267  2.0689 -0.4646
 1340SOL    HW215480   1.454   3.566   2.357  0.0842 -2.5586 -0.0272
 1341SOL     OW15481   0.713   4.430  11.899 -0.5441  0.1025  0.6861
 1341SOL    HW115482   0.645   4.382  11.851  0.8124  0.0578 -1.1773
 1341SOL    HW215483   0.752   4.485  11.831 -1.1782 -0.3366 -0.0310
 1342SOL     OW15484   3.928   0.162   7.074  0.3294 -0.1430  0.3144
 1342SOL    HW115485   3.970   0.191   6.993  1.1367 -2.0235  0.0615
 1342SOL    HW215486   3.954   0.070   7.078  0.2822 -0.1109  1.5399
 1343SOL     OW15487   2.634   4.260   2.638  0.3958  0.3693 -0.3614
 1343SOL    HW115488   2.659   4.210   2.560 -1.0502 -0.8121 -0.0645
 1343SOL    HW215489   2.697   4.331   2.630  1.1729 -0.2122  0.5098
 1344SOL     OW15490   0.959   1.548   7.838 -0.1620  0.3332  0.1507
 1344SOL    HW115491   0.953   1.459   7.803 -1.5101  0.2735  0.5587
 1344SOL    HW215492   0.867   1.567   7.852  0.2130  2.9918 -1.0096
 1345SOL     OW15493   3.308   1.564   6.412  0.1501 -0.2616 -0.1392
 1345SOL    HW115494   3.227   1.605   6.382  1.0573  1.7606  0.1853
 1345SOL    HW215495   3.355   1.549   6.330  0.4629  1.5690 -0.2930
 1346SOL     OW15496   1.954   2.704  14.852  0.2463  0.1265 -0.0736
 1346SOL    HW115497   1.884   2.713  14.787 -0.7208 -2.0121  0.6503
 1346SOL    HW215498   1.954   2.612  14.877 -0.0074 -0.6620 -2.9180
 1347SOL     OW15499   0.886   0.355   3.146 -0.4064  0.5146  0.4014
 1347SOL    HW115500   0.809   0.396   3.106 -0.6908  0.2809  0.7067
 1347SOL    HW215501   0.957   0.409   3.113  0.1282 -0.4496 -0.0369
 1348SOL     OW15502   2.431   2.527   8.632  0.4431 -0.8362  0.5271
 1348SOL    HW115503   2.421   2.611   8.587  1.0769 -0.2161  1.5092
 1348SOL    HW215504   2.469   2.550   8.717 -0.2299  4.3610 -0.5758
 1349SOL     OW15505   1.112   4.280  10.144 -0.3791  0.2678  0.0708
 1349SOL    HW115506   1.055   4.280  10.221 -0.8575  2.6994 -0.2573
 1349SOL    HW215507   1.135   4.373  10.146 -0.1856  0.2465 -1.2854
 1350SOL     OW15508   2.827   4.235   7.564 -0.2171  0.2307 -0.5843
 1350SOL    HW115509   2.801   4.151   7.602  0.0097  0.4558  0.0564
 1350SOL    HW215510   2.848   4.215   7.473  1.3810  1.5843 -0.5052
 1351SOL     OW15511   2.459   2.381   6.319  0.5797  0.4392  0.4117
 1351SOL    HW115512   2.514   2.302   6.320 -0.4142 -0.2348  1.1079
 1351SOL    HW215513   2.462   2.410   6.410  1.5756  0.0290  0.5141
 1352SOL     OW15514   3.197   0.551   6.724  0.1366  0.3396 -0.0882
 1352SOL    HW115515   3.135   0.486   6.692  1.2140 -0.2881 -0.9164
 1352SOL    HW215516   3.276   0.498   6.734  0.2562  0.8439  1.7035
 1353SOL     OW15517   1.955   4.559  15.332 -0.2488 -0.0491 -0.4082
 1353SOL    HW115518   2.024   4.611  15.372 -0.1807 -1.4222  1.2646
 1353SOL    HW215519   1.942   4.500  15.407 -0.4911  1.1727  0.5106
 1354SOL     OW15520   0.031   2.713   4.939  0.2694 -0.0737 -0.5865
 1354SOL    HW115521   0.109   2.705   4.995 -0.1123 -0.8147 -0.1615
 1354SOL    HW215522   0.053   2.659   4.863  0.8844 -0.4262 -0.1590
 1355SOL     OW15523   2.865   1.128   7.811  0.2516 -0.2681  0.0734
 1355SOL    HW115524   2.875   1.174   7.727  0.8778 -1.3799 -0.4612
 1355SOL    HW215525   2.796   1.067   7.784  1.7720 -0.7044 -2.8350
 1356SOL     OW15526   0.091   1.294   4.628  0.6265  0.0841  0.3695
 1356SOL    HW115527   0.178   1.278   4.663  0.7407 -0.1735 -0.0299
 1356SOL    HW215528   0.119   1.324   4.541 -0.1727  1.1989  0.4913
 1357SOL     OW15529   3.399   4.361  14.769 -0.3818 -0.5457 -0.4178
 1357SOL    HW115530   3.491   4.380  14.752 -0.3464 -0.1523  0.2040
 1357SOL    HW215531   3.382   4.388  14.860 -0.3688  1.3771 -0.9978
 1358SOL     OW15532   1.269   1.328   8.660  0.0229  0.1690  0.0916
 1358SOL    HW115533   1.322   1.347   8.583  2.0153 -0.9358  1.1915
 1358SOL    HW215534   1.294   1.405   8.712  1.6765 -0.7669  0.6965
 1359SOL     OW15535   0.024   3.306   5.851 -0.1492  0.8701  0.3053
 1359SOL    HW115536   0.052   3.214   5.849  0.3131  1.0382 -0.6899
 1359SOL    HW215537   0.088   3.345   5.911  0.4608  1.4342 -0.7097
 1360SOL     OW15538   3.296   3.372  17.461  0.1496  0.3563 -0.0532
 1360SOL    HW115539   3.344   3.435  17.514  0.7011 -0.0873 -0.0247
 1360SOL    HW215540   3.224   3.428  17.431 -0.3542  0.3527  1.1788
 1361SOL     OW15541   3.954   3.972   2.560 -0.4469 -0.0629  0.0438
 1361SOL    HW115542   4.016   3.928   2.618 -0.4143  0.5169  0.4480
 1361SOL    HW215543   3.881   3.982   2.621  0.1728 -1.5272  1.0183
 1362SOL     OW15544   0.592   3.035   5.757 -0.0144  0.0736 -0.7023
 1362SOL    HW115545   0.543   3.104   5.713 -0.2540 -0.4377 -1.2247
 1362SOL    HW215546   0.657   3.014   5.690  0.2070 -1.0640 -0.1382
 1363SOL     OW15547   1.685   1.841   8.617 -0.5391  0.0278  0.3850
 1363SOL    HW115548   1.670   1.810   8.706 -0.0191  0.2173  0.5416
 1363SOL    HW215549   1.596   1.857   8.585 -0.1610  1.8059  0.2407
 1364SOL     OW15550   1.720   4.262   6.782 -0.4750 -0.5472  0.2215
 1364SOL    HW115551   1.721   4.192   6.847 -0.0768 -1.1317 -0.4154
 1364SOL    HW215552   1.657   4.317   6.828  2.0300  2.1961  0.4456
 1365SOL     OW15553   1.867   0.133   7.482  0.4510  0.0480  0.5839
 1365SOL    HW115554   1.792   0.182   7.517 -1.3658 -0.7745 -2.2333
 1365SOL    HW215555   1.848   0.050   7.526 -2.6493  1.5155  1.9907
 1366SOL     OW15556   2.960   0.162   8.190 -0.1595  0.3295 -0.2773
 1366SOL    HW115557   2.896   0.152   8.262  0.7703 -1.3661  0.3154
 1366SOL    HW215558   2.979   0.255   8.197  2.1025 -0.1767  0.2797
 1367SOL     OW15559   4.607   2.180  17.666  0.1192 -0.0617  0.5084
 1367SOL    HW115560   4.617   2.186  17.571 -1.6966 -2.2726  0.1664
 1367SOL    HW215561   4.666   2.105  17.672 -0.1439 -0.4586 -1.7696
 1368SOL     OW15562   3.044   4.001   4.496 -0.3636 -0.2839 -0.4142
 1368SOL    HW115563   2.962   4.028   4.538  0.0221  1.1947 -0.5826
 1368SOL    HW215564   3.064   4.088   4.461  1.7731 -1.7209 -2.7531
 1369SOL     OW15565   3.333   0.507  17.083 -0.1520 -0.1974 -0.0016
 1369SOL    HW115566   3.379   0.589  17.099 -2.7886  0.7790  2.6257
 1369SOL    HW215567   3.379   0.435  17.128  1.2105 -0.0481 -1.1536
 1370SOL     OW15568   4.483   3.907   4.091 -0.0288 -0.1612  0.0347
 1370SOL    HW115569   4.540   3.848   4.139 -0.5690  0.2624  1.1908
 1370SOL    HW215570   4.402   3.904   4.142  0.9288 -1.7672  1.4269
 1371SOL     OW15571   3.810   3.436  14.947 -0.1941  0.8109 -0.1500
 1371SOL    HW115572   3.864   3.507  14.914  1.2612 -0.4932 -0.5499
 1371SOL    HW215573   3.862   3.360  14.920  1.6063  1.5291  1.3474
 1372SOL     OW15574   0.227   0.628   6.396  0.7226 -0.2758  0.0610
 1372SOL    HW115575   0.176   0.685   6.454 -1.0192 -0.8983 -0.8682
 1372SOL    HW215576   0.316   0.630   6.430  1.2754 -2.8327 -1.3114
 1373SOL     OW15577   2.238   3.809   6.176  0.3888  0.4852  0.6546
 1373SOL    HW115578   2.152   3.778   6.206  1.0063 -1.0534  0.8673
 1373SOL    HW215579   2.207   3.860   6.102 -1.0908  0.3511  1.1695
 1374SOL     OW15580   0.918   1.243   8.450 -0.2856  0.5934  0.2477
 1374SOL    HW115581   1.007   1.277   8.444  0.2615 -0.1640  4.2033
 1374SOL    HW215582   0.914   1.202   8.536 -0.1501 -2.7354 -1.3347
 1375SOL     OW15583   0.660   4.639  15.743  0.3643  0.7654 -0.7633
 1375SOL    HW115584   0.715   4.662  15.668  0.9069 -1.1920 -0.9617
 1375SOL    HW215585   0.716   4.669  15.815  0.6182  0.6683 -0.9208
 1376SOL     OW15586   0.459   0.598  14.950 -0.1901 -0.4977  0.0897
 1376SOL    HW115587   0.508   0.591  15.032  1.5905  1.0299 -0.8647
 1376SOL    HW215588   0.406   0.518  14.945  0.0987 -0.5993 -1.3034
 1377SOL     OW15589   2.896   1.287   8.290 -0.2299  0.9274  0.4698
 1377SOL    HW115590   2.895   1.268   8.196 -0.3403 -2.8362  1.2385
 1377SOL    HW215591   2.875   1.205   8.335  1.6709  1.1657  1.7567
 1378SOL     OW15592   4.441   4.429   0.110  0.2845 -0.0202  0.3612
 1378SOL    HW115593   4.349   4.421   0.133  0.2832 -2.2944 -0.4638
 1378SOL    HW215594   4.441   4.374   0.031  1.9816 -1.0693  1.1026
 1379SOL     OW15595   1.704   3.284  14.237  0.4432  0.0975  0.1468
 1379SOL    HW115596   1.669   3.285  14.148  1.4218 -1.5698 -0.2652
 1379SOL    HW215597   1.795   3.262  14.215 -0.1848 -1.1481 -1.1708
 1380SOL     OW15598   3.875   1.522   5.641 -0.2994 -0.2295  0.0933
 1380SOL    HW115599   3.812   1.594   5.642  0.5116  0.4338  3.1189
 1380SOL    HW215600   3.926   1.544   5.719 -1.1933 -1.5757  1.0710
 1381SOL     OW15601   0.258   1.354  16.578  0.2309  0.2769  0.2083
 1381SOL    HW115602   0.187   1.306  16.621  1.5017 -2.8612 -1.2086
 1381SOL    HW215603   0.313   1.281  16.550 -0.4078 -0.8342  1.7964
 1382SOL     OW15604   3.074   3.963  15.126  0.2652 -0.0972 -0.1956
 1382SOL    HW115605   3.079   3.868  15.130  0.2701 -0.0210  1.5788
 1382SOL    HW215606   3.070   3.984  15.219 -0.3530  0.4601 -0.3509
 1383SOL     OW15607   1.353   3.900   6.100 -0.0559 -0.2669 -0.3987
 1383SOL    HW115608   1.366   3.871   6.190  3.1245 -0.4183 -0.9106
 1383SOL    HW215609   1.443   3.912   6.070  0.9098 -1.6990  1.8746
 1384SOL     OW15610   3.417   4.265   5.347  0.3325  0.2358  0.2862
 1384SOL    HW115611   3.474   4.193   5.319 -1.3328 -0.0120 -2.4280
 1384SOL    HW215612   3.472   4.310   5.411  2.4213 -1.8321 -0.0578
 1385SOL     OW15613   3.440   1.097   1.002 -0.1212  0.0269 -0.1145
 1385SOL    HW115614   3.420   1.139   1.086  0.8882  2.9040 -1.3319
 1385SOL    HW215615   3.485   1.172   0.964  2.2592  0.1865  2.9979
 1386SOL     OW15616   4.695   1.402   3.853  0.6319 -0.0868 -0.8070
 1386SOL    HW115617   4.615   1.354   3.832  0.3446  0.4285 -0.8978
 1386SOL    HW215618   0.043   1.336   3.862  0.2408 -0.5829 -1.4109
 1387SOL     OW15619   3.197   2.090   4.684  0.3041 -1.3634 -0.0430
 1387SOL    HW115620   3.172   2.163   4.741  1.2969 -1.2776  0.2840
 1387SOL    HW215621   3.271   2.132   4.640 -0.6255 -0.4833 -0.7417
 1388SOL     OW15622   1.660   3.812   4.231 -0.7543  0.7007 -0.2774
 1388SOL    HW115623   1.609   3.774   4.302 -0.7243 -0.1176 -0.6999
 1388SOL    HW215624   1.612   3.895   4.222 -0.4767  0.7812 -1.0204
 1389SOL     OW15625   3.065   4.234  13.916  0.0930 -0.0145  0.1081
 1389SOL    HW115626   3.068   4.143  13.945 -1.8753  0.2673  1.2320
 1389SOL    HW215627   3.082   4.286  13.996  1.0279 -0.6444  0.3186
 1390SOL     OW15628   4.298   2.538   6.222  0.6625  0.1654  0.1302
 1390SOL    HW115629   4.307   2.539   6.127  1.0649 -1.5465  0.1388
 1390SOL    HW215630   4.377   2.584   6.252  0.7310  1.7008 -2.4460
 1391SOL     OW15631   2.217   1.463   9.100 -0.0384  0.1951  0.0786
 1391SOL    HW115632   2.199   1.492   9.011 -0.0026  0.6774  0.2276
 1391SOL    HW215633   2.182   1.375   9.090  0.0058  0.2699 -0.7274
 1392SOL     OW15634   3.097   1.082  17.286  0.0432  0.0051 -0.0198
 1392SOL    HW115635   3.046   1.061  17.365 -0.9033 -1.7759 -1.0933
 1392SOL    HW215636   3.166   1.138  17.320 -0.0734  1.1033 -1.6046
 1393SOL     OW15637   0.179   0.132   5.032  0.1112 -0.1352  0.0426
 1393SOL    HW115638   0.189   0.208   5.090 -1.9706 -0.0012  0.2131
 1393SOL    HW215639   0.259   0.092   5.066  0.2739  1.5836  1.7095
 1394SOL     OW15640   2.510   3.159   7.347 -0.0918  0.6989  0.1751
 1394SOL    HW115641   2.574   3.229   7.330  0.1062  0.7650  1.2019
 1394SOL    HW215642   2.575   3.089   7.350 -1.1141 -0.2908 -0.9450
 1395SOL     OW15643   2.909   0.242   0.384  0.0185  0.1005  0.1554
 1395SOL    HW115644   2.903   0.291   0.466 -0.7715 -1.0956  0.8075
 1395SOL    HW215645   2.869   0.158   0.405 -1.9642  0.5302 -1.8786
 1396SOL     OW15646   2.681   1.937   9.056 -0.5889 -0.0385 -0.0356
 1396SOL    HW115647   2.719   2.023   9.072 -1.1768 -0.2191  2.3957
 1396SOL    HW215648   2.591   1.953   9.085 -1.2691 -1.7372 -1.2193
 1397SOL     OW15649   2.318   4.544   2.315  0.9483  0.3367 -0.2078
 1397SOL    HW115650   2.319   4.557   2.220  2.1738  0.2021 -0.2160
 1397SOL    HW215651   2.242   4.594   2.346 -0.5048 -1.0065 -1.5744
 1398SOL     OW15652   0.497   3.356   4.443 -0.2376  0.9188 -0.3011
 1398SOL    HW115653   0.446   3.359   4.362 -1.2674 -1.1430  0.2858
 1398SOL    HW215654   0.451   3.286   4.488  0.1275  0.3608 -0.7980
 1399SOL     OW15655   0.594   4.349   4.569 -0.5829  0.1547  0.4927
 1399SOL    HW115656   0.552   4.387   4.645 -1.7750 -1.8731  0.8505
 1399SOL    HW215657   0.602   4.257   4.597 -2.6153 -0.4412 -0.8280
 1400SOL     OW15658   3.396   4.117   0.217 -0.1996  0.3739  0.0112
 1400SOL    HW115659   3.356   4.055   0.278 -2.4048  2.1772  0.4316
 1400SOL    HW215660   3.422   4.052   0.152  0.2787 -0.6385  1.2200
 1401SOL     OW15661   0.845   1.989   3.488  0.3294  0.0657  0.6114
 1401SOL    HW115662   0.838   1.900   3.455 -2.5074  0.6942 -0.4372
 1401SOL    HW215663   0.758   2.020   3.464  0.9557  0.4800 -1.1347
 1402SOL     OW15664   2.271   1.107   2.513 -0.0650  0.3323  0.2787
 1402SOL    HW115665   2.325   1.154   2.577 -0.6419 -0.6311  1.4750
 1402SOL    HW215666   2.233   1.030   2.554  0.5762  0.5284  1.2304
 1403SOL     OW15667   1.523   4.143  11.007  0.1899 -0.4516 -0.1490
 1403SOL    HW115668   1.529   4.185  11.093  0.2548 -1.8036  0.5017
 1403SOL    HW215669   1.445   4.184  10.969 -1.6172 -2.9576  0.8506
 1404SOL     OW15670   4.450   4.664   4.648 -0.3499 -0.1781  0.2252
 1404SOL    HW115671   4.386   4.688   4.715  1.1859  1.7532  0.9940
 1404SOL    HW215672   4.481   0.028   4.617 -0.6329  0.1738  0.9046
 1405SOL     OW15673   2.078   2.846   9.196  0.0141 -0.4383  0.9596
 1405SOL    HW115674   2.086   2.755   9.227 -2.8818 -0.8218  0.6296
 1405SOL    HW215675   2.034   2.891   9.268  1.7262  3.8811 -0.7266
 1406SOL     OW15676   4.490   3.656  16.894  0.1572  0.4743 -0.0398
 1406SOL    HW115677   4.480   3.561  16.890  3.8825  0.1660 -2.0454
 1406SOL    HW215678   4.493   3.679  16.801 -2.0150  1.5799  0.1590
 1407SOL     OW15679   2.564   4.480   0.072 -0.5435  0.1976  0.4028
 1407SOL    HW115680   2.572   4.389   0.103 -4.8021 -0.4066 -0.2552
 1407SOL    HW215681   2.632   4.487   0.005 -1.2248  1.3979 -0.1653
 1408SOL     OW15682   3.424   1.306   3.267  0.1992  0.2103  0.5403
 1408SOL    HW115683   3.352   1.256   3.307  0.0443  0.4181  0.5202
 1408SOL    HW215684   3.384   1.373   3.212  0.4520  1.1950  1.5559
 1409SOL     OW15685   2.925   1.169  15.092  0.5231 -0.0438  0.5249
 1409SOL    HW115686   2.941   1.227  15.017 -1.2395 -0.9386 -0.5450
 1409SOL    HW215687   2.860   1.226  15.131 -0.0645  0.1394 -0.7011
 1410SOL     OW15688   1.528   3.164   3.131 -0.8480 -0.3396  0.9684
 1410SOL    HW115689   1.529   3.070   3.115 -3.1174 -0.1461 -0.3962
 1410SOL    HW215690   1.570   3.184   3.047 -0.9195 -0.1653  0.9722
 1411SOL     OW15691   0.761   0.534   1.589 -0.1183  0.6558 -0.1152
 1411SOL    HW115692   0.812   0.573   1.517 -1.8183 -0.5497 -1.9926
 1411SOL    HW215693   0.823   0.476   1.633 -1.2151  0.4549  1.1581
 1412SOL     OW15694   4.195   2.321   2.602  0.2636 -0.6046  0.6024
 1412SOL    HW115695   4.262   2.256   2.623 -0.0672 -0.8804  0.7865
 1412SOL    HW215696   4.209   2.385   2.672  1.1500 -0.6380  0.4540
 1413SOL     OW15697   3.015   4.446   3.679 -0.0328  0.5214 -1.0578
 1413SOL    HW115698   2.986   4.494   3.756 -0.2993 -3.1917  1.1820
 1413SOL    HW215699   2.949   4.475   3.616 -1.5976  0.0258  0.3612
 1414SOL     OW15700   1.389   1.130   5.708 -0.4417 -0.0918  0.8155
 1414SOL    HW115701   1.409   1.223   5.697  2.5380 -0.8061  0.2241
 1414SOL    HW215702   1.357   1.123   5.798 -0.1206 -0.2261  0.9183
 1415SOL     OW15703   2.931   3.852  17.156 -0.3400 -0.6256  0.0880
 1415SOL    HW115704   2.967   3.926  17.205 -1.5990  0.6736 -0.9151
 1415SOL    HW215705   2.882   3.813  17.227  0.0322 -1.3564 -0.0589
 1416SOL     OW15706   4.359   4.291   6.323 -0.9304  0.1351 -0.6611
 1416SOL    HW115707   4.360   4.199   6.299 -2.4528 -0.5881  2.0284
 1416SOL    HW215708   4.446   4.303   6.362 -1.2042 -0.1796  0.0546
 1417SOL     OW15709   4.086   0.751   8.192 -0.2228  0.3282 -0.1691
 1417SOL    HW115710   4.154   0.729   8.255  1.1309  1.6488 -1.1729
 1417SOL    HW215711   4.109   0.839   8.162  0.2208 -0.6152 -2.5834
 1418SOL     OW15712   3.964   1.319   7.131 -0.0018  0.2877  0.1682
 1418SOL    HW115713   3.980   1.413   7.138 -2.6185  0.8406 -1.3539
 1418SOL    HW215714   3.869   1.306   7.132 -0.2038  1.6679 -2.5655
 1419SOL     OW15715   1.999   0.125   4.782  0.1683  0.5517 -0.9622
 1419SOL    HW115716   1.950   0.060   4.832 -0.9879  0.7134 -1.8736
 1419SOL    HW215717   1.922   0.162   4.738  0.2111  2.1667  0.3089
 1420SOL     OW15718   1.817   4.690   5.228 -0.5894  0.7014  0.4452
 1420SOL    HW115719   1.836   4.637   5.305 -0.3567  1.4993  0.9419
 1420SOL    HW215720   1.741   4.636   5.203  0.2544 -0.0114 -0.5736
 1421SOL     OW15721   2.296   2.371  14.760 -0.1703  0.1130  0.0797
 1421SOL    HW115722   2.266   2.439  14.821 -0.5574  0.0146 -0.0015
 1421SOL    HW215723   2.275   2.406  14.673 -0.4333  1.3967  0.6510
 1422SOL     OW15724   3.166   2.725   5.031  0.2069  0.2058 -0.1630
 1422SOL    HW115725   3.208   2.788   5.091  0.2294  0.0906 -0.0587
 1422SOL    HW215726   3.191   2.640   5.068  0.0122  0.6852  1.0914
 1423SOL     OW15727   1.919   0.619   1.352  0.3471 -0.5198  0.1169
 1423SOL    HW115728   1.960   0.561   1.416 -1.7464 -1.7926  0.2944
 1423SOL    HW215729   1.827   0.608   1.372 -0.3538  1.5216 -1.9757
 1424SOL     OW15730   2.669   2.999   6.019 -0.6767 -0.5586 -0.0525
 1424SOL    HW115731   2.635   3.034   6.102 -1.2014  1.3766 -1.0944
 1424SOL    HW215732   2.701   2.910   6.036 -1.8986 -0.7098  1.4524
 1425SOL     OW15733   1.551   4.064  17.248 -0.0880 -0.1948  0.1223
 1425SOL    HW115734   1.497   4.097  17.175  0.3475  2.0935  0.8394
 1425SOL    HW215735   1.614   4.011  17.199 -0.2847  0.9784 -1.3907
 1426SOL     OW15736   1.818   0.671   5.722 -0.0950 -0.4278  0.5131
 1426SOL    HW115737   1.824   0.742   5.787  2.5819  0.5986 -0.8509
 1426SOL    HW215738   1.904   0.681   5.682  0.3301 -0.7265  1.3462
 1427SOL     OW15739   3.628   3.217   5.228  0.2747 -0.2149  0.2812
 1427SOL    HW115740   3.592   3.250   5.146 -1.1385 -1.2929  0.4710
 1427SOL    HW215741   3.688   3.146   5.206  1.0491 -0.1635  2.1929
 1428SOL     OW15742   3.680   1.137  13.046 -0.0580  0.3463 -0.1471
 1428SOL    HW115743   3.695   1.145  13.140  1.5240  2.5616 -0.6050
 1428SOL    HW215744   3.707   1.045  13.047 -1.5764 -0.0833  1.3224
 1429SOL     OW15745   2.223   1.389  15.404 -0.5650 -0.5837  0.3278
 1429SOL    HW115746   2.306   1.347  15.425  0.6566  1.7717  0.1059
 1429SOL    HW215747   2.191   1.394  15.494 -1.6955  0.4243 -0.1218
 1430SOL     OW15748   3.127   2.638  11.349 -0.2367  0.5685  0.1847
 1430SOL    HW115749   3.131   2.640  11.445  2.9489  1.5881  0.0399
 1430SOL    HW215750   3.197   2.573  11.338  0.9143  2.4300 -3.6876
 1431SOL     OW15751   4.623   0.386  14.163 -0.5838 -0.2108 -0.1455
 1431SOL    HW115752   4.610   0.421  14.251 -0.3808 -1.4613  0.3855
 1431SOL    HW215753   4.662   0.299  14.179 -0.1442 -0.1954 -1.1077
 1432SOL     OW15754   4.162   4.637   2.913 -0.3347  0.0142 -0.4026
 1432SOL    HW115755   4.228   4.633   2.982 -1.2935  2.1332  0.6295
 1432SOL    HW215756   4.114   4.717   2.935  1.6903  1.0527  0.2460
 1433SOL     OW15757   0.805   4.709  15.550 -0.4465  0.8062 -0.6237
 1433SOL    HW115758   0.799   4.708  15.455  0.1796  0.1623 -0.6615
 1433SOL    HW215759   0.864   0.061  15.569 -0.0451  0.1783  0.5623
 1434SOL     OW15760   0.205   3.992   7.469 -0.2896 -0.5188 -0.4290
 1434SOL    HW115761   0.176   4.076   7.504 -0.5214 -1.0081  0.5365
 1434SOL    HW215762   0.249   4.018   7.388 -0.5630 -0.1856 -0.4727
 1435SOL     OW15763   4.259   1.773   1.005 -0.0976  0.1411  0.1029
 1435SOL    HW115764   4.352   1.798   1.004  0.6011 -2.5309 -1.0019
 1435SOL    HW215765   4.256   1.677   1.008  2.2099  0.0296 -1.3084
 1436SOL     OW15766   0.054   2.953   6.126  0.2287 -0.3849  0.4152
 1436SOL    HW115767   4.708   3.009   6.087 -0.2149 -2.2108 -1.4079
 1436SOL    HW215768   0.137   2.982   6.087 -0.4801 -0.3533 -1.0535
 1437SOL     OW15769   0.828   4.194  17.112  0.2728 -0.7898 -0.2059
 1437SOL    HW115770   0.808   4.128  17.179  1.3940 -0.8312  0.0949
 1437SOL    HW215771   0.790   4.154  17.034  0.0199 -1.0562  0.0552
 1438SOL     OW15772   3.573   0.342   5.779  0.1059  0.0779  0.1938
 1438SOL    HW115773   3.584   0.432   5.811 -1.3773  0.2341  0.2455
 1438SOL    HW215774   3.485   0.328   5.813 -1.4393  3.6464 -2.2896
 1439SOL     OW15775   1.851   2.941  15.233  0.4258 -0.3260  0.0393
 1439SOL    HW115776   1.889   2.863  15.193 -2.8789 -1.4499 -0.9548
 1439SOL    HW215777   1.927   2.999  15.237  0.6719 -0.4327 -3.5594
 1440SOL     OW15778   3.795   0.036   1.861  0.0239 -0.2156 -0.1110
 1440SOL    HW115779   3.742   0.011   1.785 -2.2026  1.5185  0.8894
 1440SOL    HW215780   3.840   0.111   1.820 -1.5876  0.6036 -0.3669
 1441SOL     OW15781   0.624   1.581   5.225  0.0346  0.3139  0.2768
 1441SOL    HW115782   0.709   1.584   5.181  1.1133 -0.4757  2.3246
 1441SOL    HW215783   0.638   1.566   5.319  0.0609  1.8573  0.5083
 1442SOL     OW15784   1.699   2.637   7.562 -0.0709  0.8395  0.0163
 1442SOL    HW115785   1.645   2.712   7.538 -1.0818  0.2226  0.3325
 1442SOL    HW215786   1.654   2.612   7.642  0.9294 -2.6014 -0.4639
 1443SOL     OW15787   1.991   4.248   4.371 -0.6512 -0.2372  0.5025
 1443SOL    HW115788   1.985   4.339   4.401 -0.0621  0.6599 -2.1260
 1443SOL    HW215789   2.071   4.268   4.323 -1.1525 -1.3370 -0.7715
 1444SOL     OW15790   0.333   3.655   5.223 -0.3968 -0.0599 -0.8409
 1444SOL    HW115791   0.276   3.710   5.277  2.7606  0.4295  2.0203
 1444SOL    HW215792   0.404   3.718   5.210  0.5827 -0.8694  0.6172
 1445SOL     OW15793   0.780   4.026  17.339  0.1369  0.0817  0.3278
 1445SOL    HW115794   0.796   3.971  17.415 -0.4633 -2.4652 -1.4035
 1445SOL    HW215795   0.780   3.954  17.276 -0.7681  1.3398 -1.1234
 1446SOL     OW15796   3.757   0.997   2.916  0.2783 -0.1507  0.0972
 1446SOL    HW115797   3.796   0.923   2.870 -2.0412  0.1775 -2.3468
 1446SOL    HW215798   3.763   0.971   3.008  2.7271  0.0174 -0.0082
 1447SOL     OW15799   2.950   0.947   7.508 -0.0157  0.0051  0.2265
 1447SOL    HW115800   2.942   0.860   7.547  0.7405 -0.5490 -0.8423
 1447SOL    HW215801   2.932   0.925   7.416  0.9364  0.0548  0.0250
 1448SOL     OW15802   0.738   3.115   3.123 -0.0939  0.0437 -0.2683
 1448SOL    HW115803   0.706   3.027   3.140  0.8047 -0.5171 -1.5262
 1448SOL    HW215804   0.820   3.087   3.082 -0.8173 -2.0491 -0.2697
 1449SOL     OW15805   0.691   0.911   0.846  0.4796  0.1919 -0.0384
 1449SOL    HW115806   0.771   0.955   0.875  0.1061  0.9220 -0.0977
 1449SOL    HW215807   0.664   0.942   0.760 -0.2679  0.5627  0.3264
 1450SOL     OW15808   0.974   1.343   2.370 -0.2207  0.3396 -0.4822
 1450SOL    HW115809   0.893   1.379   2.406  0.4555  1.9161 -0.5697
 1450SOL    HW215810   0.950   1.295   2.291 -0.5819  1.3383 -0.9735
 1451SOL     OW15811   2.826   1.173  11.740 -0.1747 -0.1407  0.2847
 1451SOL    HW115812   2.861   1.196  11.654 -1.7433  0.8589 -0.0794
 1451SOL    HW215813   2.787   1.257  11.764  1.0920 -0.0854  2.1436
 1452SOL     OW15814   2.349   0.067   4.400  0.5486  0.2605  0.1392
 1452SOL    HW115815   2.290   0.092   4.472  0.2740 -0.1037  0.0347
 1452SOL    HW215816   2.398   0.148   4.382 -0.6521  1.1509  0.8264
 1453SOL     OW15817   0.556   0.332   2.392  0.0083 -0.0072  0.0160
 1453SOL    HW115818   0.557   0.241   2.360 -0.3412 -0.0048 -0.0042
 1453SOL    HW215819   0.552   0.373   2.305 -1.0552 -1.1628 -0.4807
 1454SOL     OW15820   1.194   3.093  15.948 -0.4897 -0.0764 -0.5370
 1454SOL    HW115821   1.148   3.131  15.874 -0.7278 -0.4086 -0.5616
 1454SOL    HW215822   1.216   3.009  15.907  1.0035 -0.2921  0.7195
 1455SOL     OW15823   3.471   2.290   0.226  0.1998 -0.0313 -0.6058
 1455SOL    HW115824   3.462   2.282   0.131  0.4636 -3.7574 -0.3272
 1455SOL    HW215825   3.425   2.372   0.243  0.2740 -0.0952 -0.1192
 1456SOL     OW15826   4.196   3.779   5.928  0.0212  0.2886  0.6592
 1456SOL    HW115827   4.252   3.799   6.003  3.2662 -0.5280 -1.5099
 1456SOL    HW215828   4.253   3.824   5.866 -1.4231 -0.9673 -1.5921
 1457SOL     OW15829   2.889   3.585   5.892 -0.2624  0.1381 -0.5046
 1457SOL    HW115830   2.928   3.586   5.805 -2.7642 -1.9232 -1.6335
 1457SOL    HW215831   2.805   3.622   5.867 -0.3639 -0.5963 -1.2450
 1458SOL     OW15832   2.618   1.955   6.383  0.8062 -0.3206 -0.0173
 1458SOL    HW115833   2.540   1.938   6.436  1.3532 -1.2995  0.4691
 1458SOL    HW215834   2.648   1.866   6.363  0.1811 -0.2134 -1.4074
 1459SOL     OW15835   4.309   0.180   5.634 -0.0983  0.6692  0.4553
 1459SOL    HW115836   4.342   0.142   5.716  1.5299  0.9397 -0.0611
 1459SOL    HW215837   4.378   0.152   5.574 -0.5713  2.5707 -0.9834
 1460SOL     OW15838   0.674   2.678   4.044  0.0126 -0.9450  0.6109
 1460SOL    HW115839   0.757   2.632   4.053  0.6799  0.4737  1.7169
 1460SOL    HW215840   0.697   2.756   3.995 -1.3619  0.6483  2.4812
 1461SOL     OW15841   0.788   0.206   7.119  0.1358 -0.4077 -0.5728
 1461SOL    HW115842   0.866   0.188   7.067  0.3805  1.4034 -0.8507
 1461SOL    HW215843   0.813   0.254   7.198 -3.2068 -0.3498  0.4455
 1462SOL     OW15844   0.944   3.325  13.881 -0.0212 -0.0221  0.2048
 1462SOL    HW115845   0.897   3.261  13.828  1.7138  0.1479 -1.5676
 1462SOL    HW215846   1.005   3.272  13.932  0.9845  0.0926 -0.8692
 1463SOL     OW15847   4.189   4.184   7.767  0.0915  0.1830 -0.1492
 1463SOL    HW115848   4.129   4.183   7.692  1.1221  1.8264 -0.9896
 1463SOL    HW215849   4.143   4.224   7.841 -0.5952  1.7907 -1.4509
 1464SOL     OW15850   4.423   0.806  12.188 -1.1429  0.1143 -0.0708
 1464SOL    HW115851   4.327   0.808  12.188 -1.1701 -0.8865  1.1868
 1464SOL    HW215852   4.449   0.826  12.278  0.2880  1.6000 -0.8116
 1465SOL     OW15853   0.927   3.901   8.150  0.2893  0.0318 -0.6658
 1465SOL    HW115854   1.014   3.888   8.112  0.3650 -1.3150 -0.0428
 1465SOL    HW215855   0.912   3.995   8.143 -1.1534 -0.2138 -0.8831
 1466SOL     OW15856   4.129   3.322   8.553  0.2624  0.6348 -0.2050
 1466SOL    HW115857   4.183   3.399   8.537  0.8930  0.5290  1.3465
 1466SOL    HW215858   4.181   3.247   8.523 -1.5326 -0.4656 -0.5684
 1467SOL     OW15859   3.435   1.078   3.922  0.2033 -0.2182 -0.3478
 1467SOL    HW115860   3.449   1.134   3.845 -0.4923 -2.0006 -1.7949
 1467SOL    HW215861   3.505   1.013   3.911 -0.2544 -0.9344  1.0998
 1468SOL     OW15862   2.661   0.419  11.051 -0.3902 -0.6675 -0.3673
 1468SOL    HW115863   2.619   0.359  10.989 -0.6326 -0.4955 -0.3677
 1468SOL    HW215864   2.733   0.449  10.996 -3.4728  1.1749 -3.4431
 1469SOL     OW15865   3.702   0.896   5.531 -0.0722 -0.7315 -0.0535
 1469SOL    HW115866   3.699   0.812   5.576  2.5329 -0.4210  0.7079
 1469SOL    HW215867   3.664   0.951   5.600  1.5908 -1.9609  1.8278
 1470SOL     OW15868   2.874   4.155   3.374 -0.1449  0.5886  0.5245
 1470SOL    HW115869   2.846   4.163   3.466  0.1912  2.6718  0.4498
 1470SOL    HW215870   2.946   4.092   3.385  0.2244  1.1931  1.6013
 1471SOL     OW15871   2.774   2.799  17.261 -0.0988 -0.0944 -0.1068
 1471SOL    HW115872   2.813   2.736  17.321  3.0509  1.5775 -0.4362
 1471SOL    HW215873   2.835   2.873  17.260 -1.9505  1.4628  0.4841
 1472SOL     OW15874   3.776   4.334   2.543 -0.3709  0.0752  0.4071
 1472SOL    HW115875   3.751   4.256   2.494 -0.3962  1.2156 -1.4275
 1472SOL    HW215876   3.768   4.307   2.634 -2.1437 -0.0207  0.2310
 1473SOL     OW15877   0.020   2.291   2.876 -0.4698  0.1607  0.0036
 1473SOL    HW115878   0.018   2.205   2.833 -0.8566  0.8362 -1.3123
 1473SOL    HW215879   0.009   2.265   2.968  0.5616  1.6187  0.5413
 1474SOL     OW15880   4.383   4.231   1.303 -0.1285 -0.3278 -0.4266
 1474SOL    HW115881   4.361   4.190   1.387 -0.8085  0.6813 -0.1123
 1474SOL    HW215882   4.302   4.258   1.260 -0.8943  0.3260  1.4119
 1475SOL     OW15883   3.457   0.618   7.836  0.1579 -0.0175  0.5807
 1475SOL    HW115884   3.454   0.694   7.895 -0.0360  0.0221  0.5182
 1475SOL    HW215885   3.456   0.544   7.897  1.1282  0.3690  1.0704
 1476SOL     OW15886   0.609   4.531   9.558 -0.0874 -0.3396  0.9291
 1476SOL    HW115887   0.618   4.623   9.584  0.0170  0.7162 -2.8047
 1476SOL    HW215888   0.543   4.556   9.494  0.2201  0.8195  1.0646
 1477SOL     OW15889   0.889   2.870  11.016  0.2297  0.1515  0.6212
 1477SOL    HW115890   0.846   2.840  11.096  0.6227  0.3797  0.9160
 1477SOL    HW215891   0.819   2.869  10.950  0.8820 -0.2159 -0.0650
 1478SOL     OW15892   0.378   3.317   7.487  0.3853  0.4896 -0.0977
 1478SOL    HW115893   0.468   3.287   7.495  0.7508  0.6178 -3.7818
 1478SOL    HW215894   0.368   3.379   7.559 -2.1755 -2.3439  1.9902
 1479SOL     OW15895   1.413   0.929   4.792  0.0139  0.5101 -0.0162
 1479SOL    HW115896   1.339   0.976   4.829 -0.4132 -0.0875 -0.1154
 1479SOL    HW215897   1.377   0.888   4.713  1.4695 -0.4930 -0.1614
 1480SOL     OW15898   2.115   0.007  12.988 -0.6690 -0.4248 -0.4888
 1480SOL    HW115899   2.093   4.644  13.028  0.7886 -0.1232  0.9408
 1480SOL    HW215900   2.208   0.001  12.967 -0.8028  0.5600 -1.3835
 1481SOL     OW15901   2.061   4.542   6.046 -0.2474 -0.3016 -0.5934
 1481SOL    HW115902   2.123   4.614   6.037  0.0312 -0.5315 -0.5157
 1481SOL    HW215903   2.066   4.533   6.141 -0.7966 -0.8939 -0.6197
 1482SOL     OW15904   3.209   0.218   7.329 -0.0652 -0.0728 -0.2762
 1482SOL    HW115905   3.297   0.246   7.307  0.2358  1.1357  2.4547
 1482SOL    HW215906   3.181   0.282   7.394 -1.4910 -0.3863 -0.5792
 1483SOL     OW15907   0.368   0.609   9.081 -0.2104  0.0795  0.1623
 1483SOL    HW115908   0.383   0.559   9.161  0.1834  0.9869  0.6523
 1483SOL    HW215909   0.419   0.687   9.102  0.7420 -0.3484 -0.5433
 1484SOL     OW15910   3.122   2.354   2.092 -0.4666 -0.4614 -0.4054
 1484SOL    HW115911   3.079   2.282   2.139 -0.3146 -0.7701 -0.7448
 1484SOL    HW215912   3.173   2.290   2.043  0.1709  0.3845 -0.8254
 1485SOL     OW15913   4.090   0.796   2.915  0.1830 -0.6170 -0.3198
 1485SOL    HW115914   4.108   0.847   2.994 -1.6976  1.1886 -1.0375
 1485SOL    HW215915   4.140   0.849   2.853 -0.5376  0.5279  0.0831
 1486SOL     OW15916   0.323   4.471  10.316  0.2874  0.3036 -0.3145
 1486SOL    HW115917   0.274   4.552  10.307 -2.8227 -1.5187  0.1247
 1486SOL    HW215918   0.264   4.415  10.266 -0.4446 -0.8525  1.8530
 1487SOL     OW15919   3.720   2.242  12.440 -0.0997 -0.2708  0.2821
 1487SOL    HW115920   3.754   2.327  12.469 -0.3178 -0.6413  1.6234
 1487SOL    HW215921   3.662   2.267  12.368  0.7955  0.2994 -0.2409
 1488SOL     OW15922   1.829   1.183  13.681  0.3853  0.7946 -0.0822
 1488SOL    HW115923   1.847   1.106  13.627 -0.7807 -0.0075  0.6619
 1488SOL    HW215924   1.734   1.200  13.678 -0.2054 -2.4843 -0.0491
 1489SOL     OW15925   1.786   4.525   2.549  0.0327 -0.9213  0.4515
 1489SOL    HW115926   1.715   4.460   2.555 -1.2266  0.5513  1.5122
 1489SOL    HW215927   1.821   4.523   2.460  2.8116 -0.2121  1.5301
 1490SOL     OW15928   1.152   4.488   2.868  0.2911 -0.2223  0.1633
 1490SOL    HW115929   1.184   4.502   2.779 -1.6413  1.3659 -0.2709
 1490SOL    HW215930   1.108   4.569   2.893 -0.4192 -0.9348  1.2139
 1491SOL     OW15931   1.277   3.983   5.256  0.3997  0.3207  0.0515
 1491SOL    HW115932   1.252   3.991   5.349  1.5464  0.2976  0.3568
 1491SOL    HW215933   1.243   4.067   5.226  0.3804  0.8095  1.4199
 1492SOL     OW15934   1.504   3.619  14.383 -0.0238 -0.6422 -0.2470
 1492SOL    HW115935   1.429   3.673  14.407  0.8990  0.3910  0.3257
 1492SOL    HW215936   1.520   3.640  14.291  2.0741  0.5353  0.3904
 1493SOL     OW15937   4.066   3.948   3.105  0.4394  0.0445 -0.2845
 1493SOL    HW115938   4.026   3.969   3.020  0.2350  1.3271  0.1411
 1493SOL    HW215939   4.156   3.941   3.075  0.7796  3.2063  0.0384
 1494SOL     OW15940   0.115   1.720   3.455  0.1891 -0.3199 -0.2609
 1494SOL    HW115941   0.178   1.725   3.384 -0.9506 -1.9871 -1.3960
 1494SOL    HW215942   0.170   1.665   3.510 -1.1677  0.2128  1.6607
 1495SOL     OW15943   0.805   1.513   7.548  0.1301 -0.0403 -0.1251
 1495SOL    HW115944   0.731   1.505   7.488  0.2375 -0.9370 -0.1330
 1495SOL    HW215945   0.768   1.495   7.634  1.9124 -0.1689  0.6178
 1496SOL     OW15946   3.368   0.515  10.650  0.3340 -0.0480 -0.3906
 1496SOL    HW115947   3.350   0.553  10.736  0.0581  2.1667 -1.4434
 1496SOL    HW215948   3.287   0.468  10.631  0.3753 -0.5351  0.6211
 1497SOL     OW15949   2.053   3.929  14.998  0.6668 -0.0198  0.8258
 1497SOL    HW115950   2.112   3.892  15.064  0.5589  0.1682  1.0310
 1497SOL    HW215951   1.969   3.940  15.044 -0.5087 -1.5852 -0.9493
 1498SOL     OW15952   2.925   3.113   3.239 -0.0855  0.4186 -0.2527
 1498SOL    HW115953   2.880   3.063   3.170 -1.4463  1.1104  0.1411
 1498SOL    HW215954   2.978   3.171   3.185  0.0538 -0.7595 -1.3897
 1499SOL     OW15955   1.347   2.619   5.885 -0.1128 -0.0991 -0.7624
 1499SOL    HW115956   1.276   2.590   5.942  0.5699  0.1697  0.2368
 1499SOL    HW215957   1.347   2.712   5.909  1.7490 -0.4182  0.5019
 1500SOL     OW15958   3.772   0.622   3.320  0.3370  0.3704 -0.2258
 1500SOL    HW115959   3.745   0.536   3.287  0.3645  0.2092  0.1754
 1500SOL    HW215960   3.816   0.598   3.401  1.1239 -0.7749 -0.9924
 1501SOL     OW15961   3.993   2.230   2.220  0.1461  0.4720  0.2160
 1501SOL    HW115962   3.971   2.138   2.232  1.1554 -0.0502 -1.8585
 1501SOL    HW215963   4.088   2.218   2.218  0.1916  0.6895  1.1253
 1502SOL     OW15964   3.257   1.681  16.530 -0.3292  0.5597  0.0804
 1502SOL    HW115965   3.176   1.711  16.490  0.1958  1.0426 -0.6198
 1502SOL    HW215966   3.295   1.621  16.466 -0.3117 -0.4341  1.0243
 1503SOL     OW15967   0.673   4.063   5.937  0.5953  0.0128  0.4291
 1503SOL    HW115968   0.740   4.117   5.980 -0.7155  1.0143  1.2402
 1503SOL    HW215969   0.668   4.117   5.859  1.5406 -0.6238 -0.0708
 1504SOL     OW15970   2.621   3.898   4.367  0.6174 -0.5176 -0.0333
 1504SOL    HW115971   2.578   3.961   4.310  0.3921 -0.5882  0.0582
 1504SOL    HW215972   2.711   3.904   4.334  0.5716 -0.3669 -0.1299
 1505SOL     OW15973   4.262   2.239   7.250  0.1216 -0.4885 -0.1183
 1505SOL    HW115974   4.257   2.313   7.310  1.8673 -0.3287 -0.1906
 1505SOL    HW215975   4.187   2.188   7.280 -0.3228 -0.0924 -0.5466
 1506SOL     OW15976   3.369   4.159   3.123 -0.0098 -0.2802 -0.6877
 1506SOL    HW115977   3.404   4.072   3.103 -0.9206 -0.7472 -0.2511
 1506SOL    HW215978   3.327   4.140   3.207 -1.2324 -1.3097 -1.5449
 1507SOL     OW15979   4.066   3.960  10.888  0.2386  0.1409 -0.7874
 1507SOL    HW115980   4.032   4.038  10.845 -0.6522  0.9633  1.4259
 1507SOL    HW215981   4.084   3.892  10.823  0.2669  0.6245 -1.2805
 1508SOL     OW15982   2.306   2.504  16.763  0.7809 -0.4472  0.0423
 1508SOL    HW115983   2.364   2.428  16.757  0.1909 -0.7793 -1.5630
 1508SOL    HW215984   2.368   2.554  16.815 -2.4405  0.7510  2.6875
 1509SOL     OW15985   0.760   1.546   9.702 -0.0729  0.2703 -0.3651
 1509SOL    HW115986   0.692   1.608   9.731  0.6225  1.2425 -0.7950
 1509SOL    HW215987   0.826   1.558   9.770 -1.9846 -1.8053  1.8425
 1510SOL     OW15988   2.245   1.637   4.302 -0.5312 -0.4161  0.0165
 1510SOL    HW115989   2.303   1.615   4.229 -1.2110 -1.2384 -0.2704
 1510SOL    HW215990   2.307   1.667   4.369 -0.5694  1.5203 -0.8055
 1511SOL     OW15991   4.478   0.424   1.880 -0.1979 -0.4156 -0.0105
 1511SOL    HW115992   4.502   0.347   1.828  1.2164 -0.0093  0.0480
 1511SOL    HW215993   4.386   0.435   1.857  0.6134  1.9548 -2.0561
 1512SOL     OW15994   2.725   1.050  16.524 -0.2389  0.0155  0.2058
 1512SOL    HW115995   2.650   1.003  16.488 -2.3507  1.4934  2.6703
 1512SOL    HW215996   2.736   1.001  16.606 -1.6684  2.1621  1.6592
 1513SOL     OW15997   3.849   2.101   1.048 -0.5534  0.1241 -0.2634
 1513SOL    HW115998   3.894   2.017   1.036  1.3778  1.3645 -1.7642
 1513SOL    HW215999   3.760   2.069   1.037 -0.1569 -0.0086 -2.9652
 1514SOL     OW16000   1.806   2.845  17.520 -0.6204  0.2831  0.8124
 1514SOL    HW116001   1.807   2.850  17.425 -1.4794 -2.1226  0.6726
 1514SOL    HW216002   1.753   2.768  17.540 -0.0576 -0.1893  0.4622
 1515SOL     OW16003   3.032   2.417   3.777  0.3488  0.0654 -0.1115
 1515SOL    HW116004   2.985   2.347   3.821 -1.9809  0.8052 -1.4097
 1515SOL    HW216005   2.988   2.495   3.812 -1.4538 -0.3141 -1.5474
 1516SOL     OW16006   2.822   4.556   1.833 -0.1862 -0.2920 -0.2041
 1516SOL    HW116007   2.798   4.468   1.804  0.5137  0.4990 -3.0970
 1516SOL    HW216008   2.840   4.602   1.752  2.8766  0.5064  0.9440
 1517SOL     OW16009   3.571   3.818   6.429 -0.0289  0.0963  0.2476
 1517SOL    HW116010   3.574   3.743   6.369 -0.5457  1.4316 -1.4398
 1517SOL    HW216011   3.633   3.791   6.497  0.5009 -0.1183 -0.3205
 1518SOL     OW16012   4.351   1.685  16.385 -0.5349  0.6965 -0.3720
 1518SOL    HW116013   4.295   1.742  16.438 -0.0038 -0.4121  1.3567
 1518SOL    HW216014   4.431   1.680  16.437 -0.9745  0.1406  0.2397
 1519SOL     OW16015   0.007   1.725   4.727  0.0328  0.1428 -0.6465
 1519SOL    HW116016   0.086   1.704   4.676  0.6031 -0.0669  0.3245
 1519SOL    HW216017   4.715   1.653   4.788  0.7316 -0.1930 -0.8889
 1520SOL     OW16018   4.379   3.618   0.489  0.2582  0.4284  0.3127
 1520SOL    HW116019   4.380   3.654   0.578  0.4473  0.0256  0.4701
 1520SOL    HW216020   4.464   3.575   0.483 -0.0610  0.0253 -1.3376
 1521SOL     OW16021   0.427   0.739  17.071 -0.3133 -0.1532  0.3691
 1521SOL    HW116022   0.379   0.687  17.006  0.4558 -0.2316 -0.1450
 1521SOL    HW216023   0.503   0.680  17.075 -0.9305 -0.9743  0.1229
 1522SOL     OW16024   2.157   2.452   2.374  0.4706  0.2617  0.5375
 1522SOL    HW116025   2.170   2.539   2.337  1.1640  0.3570  1.0018
 1522SOL    HW216026   2.224   2.397   2.333 -1.2825 -1.4664 -0.0208
 1523SOL     OW16027   2.638   4.513   2.873  0.1585  0.2483 -0.1077
 1523SOL    HW116028   2.698   4.552   2.809  2.1253 -0.1574  1.5260
 1523SOL    HW216029   2.683   4.437   2.909  0.8806 -0.0500 -1.6085
 1524SOL     OW16030   3.495   3.418   1.112 -0.7004 -0.1714 -1.1352
 1524SOL    HW116031   3.565   3.379   1.060  0.0404 -0.7830  0.3089
 1524SOL    HW216032   3.414   3.397   1.066 -0.8650 -1.7185 -0.1587
 1525SOL     OW16033   2.489   2.543   7.559  0.3948  0.2848  0.0480
 1525SOL    HW116034   2.422   2.480   7.531  0.1431 -0.1255  1.5849
 1525SOL    HW216035   2.441   2.626   7.556  0.1273  0.1135 -0.5664
 1526SOL     OW16036   0.963   2.050  14.744  0.5366 -0.4598  0.5476
 1526SOL    HW116037   1.052   2.064  14.776 -0.1757 -0.2102  2.4356
 1526SOL    HW216038   0.914   2.104  14.806  0.7642  0.6395 -0.2435
 1527SOL     OW16039   1.105   2.325  15.416 -0.3733 -0.6415 -0.1911
 1527SOL    HW116040   1.016   2.341  15.384  0.3044  1.6861 -0.9185
 1527SOL    HW216041   1.144   2.411  15.398  0.7360 -1.3549 -1.2283
 1528SOL     OW16042   2.105   3.215   2.316  0.3152  0.1295 -0.0011
 1528SOL    HW116043   2.084   3.307   2.332  0.8463  0.1282  0.6947
 1528SOL    HW216044   2.015   3.185   2.301  1.4301 -2.6565 -0.9745
 1529SOL     OW16045   0.614   4.566   2.831  0.0500  0.2450  0.1610
 1529SOL    HW116046   0.523   4.576   2.859 -0.1064  1.9393 -0.9259
 1529SOL    HW216047   0.609   4.571   2.736 -1.2664  1.9892  0.3331
 1530SOL     OW16048   4.497   1.054   3.756 -0.0854  0.4552  0.3079
 1530SOL    HW116049   4.503   1.148   3.777  2.7767  0.1846  0.6704
 1530SOL    HW216050   4.434   1.027   3.824 -1.5059 -0.5430 -1.3986
 1531SOL     OW16051   2.704   1.824   0.053  0.5163  0.1035  0.2016
 1531SOL    HW116052   2.612   1.817   0.025  0.5416 -1.1577  0.4321
 1531SOL    HW216053   2.753   1.765  17.682  1.4825 -0.3447  1.4868
 1532SOL     OW16054   2.737   0.800   6.685  0.9734 -0.2418  0.1477
 1532SOL    HW116055   2.663   0.846   6.723 -0.4245 -1.4576 -1.1304
 1532SOL    HW216056   2.702   0.770   6.601  0.8595  1.4297 -0.4115
 1533SOL     OW16057   0.794   0.466  13.519 -0.2689 -0.5691 -0.1154
 1533SOL    HW116058   0.809   0.546  13.467  0.4878 -0.6027  0.0463
 1533SOL    HW216059   0.828   0.397  13.462  2.0547  1.6100 -1.3861
 1534SOL     OW16060   2.549   0.137   5.718  0.1947 -0.2488  0.2815
 1534SOL    HW116061   2.546   0.162   5.811  3.0923  0.8767  0.0920
 1534SOL    HW216062   2.641   0.111   5.717  0.3820  0.5439 -1.8402
 1535SOL     OW16063   4.368   3.405   8.019 -0.4373  0.4758 -0.6520
 1535SOL    HW116064   4.301   3.461   8.059  1.9095  1.4159  2.0424
 1535SOL    HW216065   4.408   3.357   8.092 -1.7927 -1.4969 -1.2302
 1536SOL     OW16066   3.162   2.333   0.174  0.1210  0.3510 -0.0023
 1536SOL    HW116067   3.210   2.331   0.257 -0.2606 -3.3366  0.1074
 1536SOL    HW216068   3.080   2.315   0.219  0.0870  0.7829  0.1149
 1537SOL     OW16069   0.453   1.396   4.164  0.1647  0.6154  0.4439
 1537SOL    HW116070   0.407   1.356   4.238 -2.1388 -2.4885 -2.6894
 1537SOL    HW216071   0.433   1.489   4.172  0.1210  0.6149  0.3439
 1538SOL     OW16072   4.171   3.491  14.549  0.4382 -0.4326 -0.5325
 1538SOL    HW116073   4.169   3.400  14.577 -1.0505  0.2000  1.3530
 1538SOL    HW216074   4.125   3.489  14.465 -1.2988  0.5711  0.3966
 1539SOL     OW16075   1.969   3.180   7.634 -0.0586  0.4137  0.2249
 1539SOL    HW116076   2.058   3.213   7.629 -0.3521  0.8536 -2.2331
 1539SOL    HW216077   1.919   3.262   7.638  1.2155  1.2701 -1.4135
 1540SOL     OW16078   0.550   4.130   5.135 -0.0677  0.2592 -0.2436
 1540SOL    HW116079   0.588   4.195   5.193 -0.1656 -0.1262  0.2540
 1540SOL    HW216080   0.457   4.155   5.142  0.2589  0.7745  2.3368
 1541SOL     OW16081   1.696   3.220   8.229 -0.5713 -0.1268 -0.2840
 1541SOL    HW116082   1.649   3.190   8.151 -2.7139 -0.7685  1.2208
 1541SOL    HW216083   1.692   3.138   8.279 -0.8579  0.4162  0.5728
 1542SOL     OW16084   1.884   1.392   3.331 -0.1370  0.6647  0.5533
 1542SOL    HW116085   1.799   1.427   3.304 -0.4185 -0.5329 -0.0780
 1542SOL    HW216086   1.918   1.374   3.243 -0.1312  2.1494  0.2517
 1543SOL     OW16087   2.057   1.303   8.719 -0.0157  0.2007  0.0986
 1543SOL    HW116088   2.062   1.208   8.728  0.6946  0.2987  0.7227
 1543SOL    HW216089   1.965   1.318   8.742  0.2035  0.9349  0.5181
 1544SOL     OW16090   1.350   3.606   4.345 -0.1252 -0.2444 -0.5420
 1544SOL    HW116091   1.300   3.665   4.288 -1.5327 -0.9839 -0.0724
 1544SOL    HW216092   1.429   3.654   4.370  1.3176 -1.7805 -2.2445
 1545SOL     OW16093   3.537   4.090  13.345  0.4191 -0.1230 -0.0533
 1545SOL    HW116094   3.561   4.141  13.422  1.7754 -1.0207  0.1369
 1545SOL    HW216095   3.577   4.156  13.288 -0.4693  2.1378  1.9486
 1546SOL     OW16096   3.181   0.050  15.284  0.3691  0.1772  0.4110
 1546SOL    HW116097   3.155   0.062  15.193  2.6151 -1.9802 -0.4966
 1546SOL    HW216098   3.224   0.133  15.306  0.4885 -0.5204  2.7775
 1547SOL     OW16099   2.122   1.815   9.411  0.2149  0.4374  0.2580
 1547SOL    HW116100   2.139   1.727   9.375  2.2766  0.1510  1.9113
 1547SOL    HW216101   2.092   1.855   9.329 -0.1933 -0.9858 -0.2936
 1548SOL     OW16102   4.692   4.072   5.924 -0.0763 -0.0658  0.1618
 1548SOL    HW116103   4.608   4.113   5.946  0.1244  0.6832 -0.4650
 1548SOL    HW216104   0.007   4.150   5.882  1.3547 -0.5822  0.4671
 1549SOL     OW16105   4.102   3.897   6.361 -0.3513 -0.0524 -0.4673
 1549SOL    HW116106   4.041   3.852   6.302  0.1193 -0.6643 -0.4848
 1549SOL    HW216107   4.068   3.987   6.358  0.6205  0.3268  0.0976
 1550SOL     OW16108   0.885   0.391  14.394 -0.2655 -0.3925  0.4185
 1550SOL    HW116109   0.946   0.387  14.320 -3.0298 -0.0620 -1.8707
 1550SOL    HW216110   0.945   0.393  14.468 -0.7366  0.6283  0.7665
 1551SOL     OW16111   1.930   2.258  16.995 -0.2522 -0.6811  0.1664
 1551SOL    HW116112   1.964   2.305  17.071  2.2832  0.9845 -1.9704
 1551SOL    HW216113   1.848   2.220  17.025 -0.5548  0.0882  0.3081
 1552SOL     OW16114   3.096   4.571   4.329 -0.4519 -0.5250  0.1342
 1552SOL    HW116115   3.145   4.642   4.370  2.0200 -2.4253  0.4469
 1552SOL    HW216116   3.004   4.578   4.355 -0.0653  0.9286  1.1235
 1553SOL     OW16117   4.576   0.330   8.176 -0.2007 -0.2378 -0.6526
 1553SOL    HW116118   4.525   0.282   8.112 -0.2668  1.2153 -1.6988
 1553SOL    HW216119   4.660   0.292   8.151  0.6425  1.3544 -0.2635
 1554SOL     OW16120   2.819   1.032   6.383  0.0068  0.2420  0.4642
 1554SOL    HW116121   2.731   1.069   6.376 -0.5884 -1.4945 -1.0872
 1554SOL    HW216122   2.870   1.091   6.327  0.3887  1.0005  1.6025
 1555SOL     OW16123   3.786   2.022   5.528 -0.1471 -0.9929 -0.1408
 1555SOL    HW116124   3.811   2.106   5.565 -0.3891 -0.9798 -0.0101
 1555SOL    HW216125   3.722   1.987   5.590 -0.0709 -2.6592 -0.9865
 1556SOL     OW16126   0.936   4.000   2.021  0.0449 -0.0429  0.3443
 1556SOL    HW116127   1.001   4.070   2.008  0.6792 -1.3748 -3.6998
 1556SOL    HW216128   0.958   3.939   1.950 -1.3510 -1.8825  1.5081
 1557SOL     OW16129   3.800   4.291  16.678  0.2848  0.1197  0.5473
 1557SOL    HW116130   3.712   4.295  16.716  0.9231 -1.9473  2.2914
 1557SOL    HW216131   3.794   4.360  16.612  0.7725  0.6780  1.0857
 1558SOL     OW16132   1.580   0.865   7.180  0.1911  0.4723 -0.5149
 1558SOL    HW116133   1.522   0.896   7.250 -0.5534 -2.4239  0.1372
 1558SOL    HW216134   1.624   0.792   7.223  1.2436 -0.7198 -3.6809
 1559SOL     OW16135   0.879   0.783   7.601  0.4292 -0.0199  0.2295
 1559SOL    HW116136   0.793   0.779   7.558  0.9410 -2.4625 -0.5812
 1559SOL    HW216137   0.843   0.829   7.677  0.3172  0.1169  0.0944
 1560SOL     OW16138   2.138   1.608  10.734  0.5058 -0.0780 -0.1198
 1560SOL    HW116139   2.206   1.673  10.716  0.2892  0.0770 -0.3668
 1560SOL    HW216140   2.055   1.656  10.732  0.5800  0.0575  0.0234
 1561SOL     OW16141   3.117   1.832   3.466  0.1430 -0.2895 -0.0656
 1561SOL    HW116142   3.048   1.895   3.488 -0.7136 -1.4826  0.6643
 1561SOL    HW216143   3.179   1.893   3.426 -2.0677  1.1343 -1.3223
 1562SOL     OW16144   2.376   2.787   3.204  0.1245 -0.1179  0.1451
 1562SOL    HW116145   2.471   2.803   3.200  0.1245 -0.1782 -0.1108
 1562SOL    HW216146   2.371   2.780   3.299  0.5031  0.5770  0.2238
 1563SOL     OW16147   0.784   3.540  16.456  0.2550  0.1307 -0.1345
 1563SOL    HW116148   0.700   3.513  16.495  0.4557 -1.1632 -0.6022
 1563SOL    HW216149   0.828   3.458  16.435 -1.2540  0.2039 -3.6629
 1564SOL     OW16150   3.878   0.543  10.654 -0.3686  0.8608 -0.3636
 1564SOL    HW116151   3.858   0.475  10.718  1.0716  1.8995  1.2080
 1564SOL    HW216152   3.885   0.615  10.717 -1.3569  2.1363 -1.7425
 1565SOL     OW16153   1.534   3.222  12.296 -0.3819 -0.3242 -0.2804
 1565SOL    HW116154   1.465   3.247  12.357 -1.1169  0.4023 -1.4121
 1565SOL    HW216155   1.508   3.275  12.221 -0.8850  0.2600  0.3178
 1566SOL     OW16156   3.746   0.271   4.536  0.1198 -0.3093  0.4802
 1566SOL    HW116157   3.653   0.257   4.514  0.6987  0.5944 -2.6475
 1566SOL    HW216158   3.739   0.296   4.628  1.4448  1.0648  0.2068
 1567SOL     OW16159   0.965   2.780   8.943  0.1378  0.2596  0.3301
 1567SOL    HW116160   0.976   2.874   8.929 -0.0445  0.1118 -0.8216
 1567SOL    HW216161   0.998   2.766   9.031 -1.3961  0.5677  0.9541
 1568SOL     OW16162   0.685   0.341   3.584  0.0468  0.0367 -0.1407
 1568SOL    HW116163   0.698   0.422   3.535  2.0703 -0.3276 -0.1815
 1568SOL    HW216164   0.630   0.292   3.523  1.4791 -1.0548 -0.5387
 1569SOL     OW16165   4.453   1.289   3.895  0.1572 -0.6800 -0.1694
 1569SOL    HW116166   4.377   1.347   3.897  0.3015 -0.4947 -0.0736
 1569SOL    HW216167   4.494   1.304   3.981  1.7395 -1.3111 -0.8176
 1570SOL     OW16168   2.375   3.195   2.215  0.3969 -0.2106  0.5781
 1570SOL    HW116169   2.288   3.166   2.240  0.7493 -1.1034  0.7779
 1570SOL    HW216170   2.357   3.222   2.125  1.3447 -2.1230 -0.1655
 1571SOL     OW16171   4.413   2.060   6.316  0.1869 -0.2783 -0.3452
 1571SOL    HW116172   4.394   2.014   6.398  1.5972 -0.5845 -0.1916
 1571SOL    HW216173   4.382   2.150   6.327 -1.2814 -1.0904  2.2927
 1572SOL     OW16174   2.892   1.303   3.808 -0.4502 -0.0840  0.0567
 1572SOL    HW116175   2.968   1.261   3.767 -0.6510 -1.2010  0.8227
 1572SOL    HW216176   2.911   1.293   3.901  0.1931  0.1058 -0.0520
 1573SOL     OW16177   0.812   0.019  14.162  0.3250 -0.3201  0.4790
 1573SOL    HW116178   0.730   0.062  14.187  0.0515 -0.3496 -0.3588
 1573SOL    HW216179   0.815   0.041  14.069 -1.2941  3.0015  1.2010
 1574SOL     OW16180   1.483   1.900   7.516 -0.4884  0.0405 -0.3455
 1574SOL    HW116181   1.464   1.849   7.595  0.3077  0.4327  0.1024
 1574SOL    HW216182   1.397   1.933   7.489 -0.4584  0.7732  0.4686
 1575SOL     OW16183   3.333   0.092  17.029 -0.6522 -0.5287  0.1857
 1575SOL    HW116184   3.293   0.107  16.944 -0.6861  2.6256  0.7501
 1575SOL    HW216185   3.265   0.129  17.086  0.4765 -1.2135  1.9772
 1576SOL     OW16186   0.169   4.243   7.553  0.2203  0.2236 -0.3824
 1576SOL    HW116187   0.114   4.274   7.625  2.3825 -3.4477  2.9072
 1576SOL    HW216188   0.248   4.295   7.567  1.4501 -2.1147  1.4441
 1577SOL     OW16189   0.522   4.672   2.502 -0.5919  0.2921 -0.0783
 1577SOL    HW116190   0.446   4.673   2.444  0.4564  2.6962 -1.4040
 1577SOL    HW216191   0.505   0.025   2.561  2.5378  0.0795  1.1325
 1578SOL     OW16192   2.135   4.452  13.044  0.1512  0.1628 -0.6313
 1578SOL    HW116193   2.145   4.364  13.010 -0.3186  0.2540 -1.0018
 1578SOL    HW216194   2.041   4.454  13.063  0.2620  3.2758 -0.3700
 1579SOL     OW16195   4.133   3.139   4.025  0.3927  0.0986  0.1094
 1579SOL    HW116196   4.081   3.182   3.957  0.9177 -0.7652 -0.8533
 1579SOL    HW216197   4.210   3.196   4.019 -1.0682  2.0852  0.2814
 1580SOL     OW16198   0.101   1.265   4.248  0.2153 -0.3500 -0.0655
 1580SOL    HW116199   0.151   1.289   4.326  1.5646  1.6043 -1.5487
 1580SOL    HW216200   0.135   1.176   4.241 -0.4403 -0.5268 -1.1136
 1581SOL     OW16201   3.662   1.759   4.004  0.7423 -0.4057  0.4626
 1581SOL    HW116202   3.570   1.772   4.023  0.9820 -1.7434  2.5123
 1581SOL    HW216203   3.706   1.843   4.016 -0.1146  0.3879 -1.9184
 1582SOL     OW16204   0.175   3.559  15.303  0.0645  0.0969 -0.3006
 1582SOL    HW116205   0.135   3.473  15.298  2.3696 -0.9093 -1.8234
 1582SOL    HW216206   0.266   3.535  15.285 -0.5424 -2.3853 -0.0373
 1583SOL     OW16207   0.613   4.543   6.491 -0.3392 -1.1482 -0.1531
 1583SOL    HW116208   0.543   4.501   6.542 -0.1716 -0.6911  0.4569
 1583SOL    HW216209   0.621   4.626   6.539 -2.7782  0.4042 -2.3740
 1584SOL     OW16210   3.368   1.208   2.532 -0.1276  0.8085  0.4533
 1584SOL    HW116211   3.406   1.163   2.608 -2.0192 -0.0227  0.8906
 1584SOL    HW216212   3.339   1.132   2.483  0.5067  1.9795 -1.7367
 1585SOL     OW16213   0.799   3.678   2.528 -0.2888  0.3607  0.1057
 1585SOL    HW116214   0.880   3.650   2.486 -1.5848  1.3755 -3.0857
 1585SOL    HW216215   0.827   3.758   2.572  1.1715  0.5065 -1.1128
 1586SOL     OW16216   3.218   2.929  14.203 -0.0102  0.3296  0.1750
 1586SOL    HW116217   3.293   2.966  14.248 -0.9215  1.3395  0.8629
 1586SOL    HW216218   3.162   3.000  14.172 -1.0685  0.4763  2.4267
 1587SOL     OW16219   0.716   4.603   1.885 -0.4747 -0.0198  0.2435
 1587SOL    HW116220   0.762   4.580   1.966 -1.5971 -1.3799  0.5092
 1587SOL    HW216221   0.670   4.521   1.866 -0.3099 -0.0410 -0.0788
 1588SOL     OW16222   1.683   3.355  11.447  0.8409  0.2362  0.4704
 1588SOL    HW116223   1.643   3.283  11.496 -0.2302  0.6066  0.1328
 1588SOL    HW216224   1.700   3.416  11.519  0.0707  0.5880  0.3601
 1589SOL     OW16225   0.476   3.370   2.400  0.4618  0.3379  0.5328
 1589SOL    HW116226   0.517   3.339   2.481  1.5793  0.4630  0.0152
 1589SOL    HW216227   0.520   3.322   2.330  1.9932  2.5301 -0.0167
 1590SOL     OW16228   2.716   1.315   4.330 -0.4835  0.0625 -0.0614
 1590SOL    HW116229   2.794   1.350   4.372  1.0721 -3.1071 -0.3915
 1590SOL    HW216230   2.692   1.238   4.381 -0.0165  0.7122  1.1181
 1591SOL     OW16231   0.038   3.578   7.275 -0.9292  0.2527 -0.2077
 1591SOL    HW116232   0.086   3.652   7.311 -0.8023  0.4684 -0.8225
 1591SOL    HW216233   0.067   3.590   7.184  1.4654 -0.0856  0.5030
 1592SOL     OW16234   3.191   2.626   4.042 -0.4164 -0.1104 -0.1853
 1592SOL    HW116235   3.106   2.612   4.000 -0.7949 -0.4465  0.6966
 1592SOL    HW216236   3.197   2.559   4.111 -3.0156 -0.0773  0.0668
 1593SOL     OW16237   0.709   4.311   8.308 -0.8893 -0.2311 -0.4301
 1593SOL    HW116238   0.762   4.382   8.344 -1.3900  0.1943 -0.5328
 1593SOL    HW216239   0.722   4.318   8.213  3.1339  2.7053  0.3199
 1594SOL     OW16240   4.554   2.696   6.374  0.2536 -0.2114 -0.0047
 1594SOL    HW116241   4.621   2.736   6.429 -0.0212 -4.9357  3.7436
 1594SOL    HW216242   4.478   2.692   6.432 -0.6396  0.1307 -1.1312
 1595SOL     OW16243   0.295   0.031  17.555  0.3757  0.0950 -0.7454
 1595SOL    HW116244   0.386   0.053  17.571 -0.0125  3.0312 -2.5751
 1595SOL    HW216245   0.268   4.701  17.631 -0.3061  1.1409 -0.2787
 1596SOL     OW16246   4.536   1.139  16.841  0.5580 -0.1231  0.1282
 1596SOL    HW116247   4.533   1.234  16.830  0.3989 -0.0242  1.0582
 1596SOL    HW216248   4.595   1.118  16.768 -1.7118 -0.3127 -1.6688
 1597SOL     OW16249   1.669   1.858  12.122 -0.1483  0.2275  0.3446
 1597SOL    HW116250   1.734   1.881  12.188  0.4669  0.2150 -0.2532
 1597SOL    HW216251   1.628   1.944  12.111  1.4562  0.9651  0.0732
 1598SOL     OW16252   3.939   1.436   6.284  0.1252 -0.1135  0.7018
 1598SOL    HW116253   4.003   1.477   6.343  2.0729 -1.7454 -0.2591
 1598SOL    HW216254   3.954   1.344   6.303 -1.7550 -0.3329  1.0907
 1599SOL     OW16255   4.161   1.025  13.189  0.1416 -0.0744 -0.1923
 1599SOL    HW116256   4.238   1.048  13.241 -0.2879 -1.0887  0.9021
 1599SOL    HW216257   4.090   1.070  13.234  0.5970  0.7855 -0.3386
 1600SOL     OW16258   3.933   4.434  14.446  0.0634 -0.1585  0.5510
 1600SOL    HW116259   3.943   4.466  14.356 -1.1918 -1.0757  0.0777
 1600SOL    HW216260   3.843   4.460  14.465 -0.0669 -0.2858  0.1111
 1601SOL     OW16261   4.017   3.750  17.539 -0.3550  0.0022 -0.2053
 1601SOL    HW116262   4.046   3.681  17.598  0.0643  0.1073 -0.2909
 1601SOL    HW216263   3.996   3.694  17.464 -0.1578 -0.7485  0.3096
 1602SOL     OW16264   2.016   2.959  14.159 -0.7841  0.3021 -0.3339
 1602SOL    HW116265   2.017   3.047  14.198  0.2221  0.4942 -0.8160
 1602SOL    HW216266   1.987   2.909  14.235  0.3196  0.2543  0.0511
 1603SOL     OW16267   0.957   1.793   0.809 -0.0212 -0.6260  0.3710
 1603SOL    HW116268   1.027   1.798   0.874 -0.1151  0.2070  0.4142
 1603SOL    HW216269   0.897   1.727   0.844 -1.7134  0.5937 -0.2447
 1604SOL     OW16270   4.284   4.710  10.211 -0.1059 -0.1158  0.5445
 1604SOL    HW116271   4.234   0.065  10.180 -1.9319 -0.9858  1.3767
 1604SOL    HW216272   4.363   0.038  10.233 -1.8740  3.6504 -1.3864
 1605SOL     OW16273   3.834   4.320   1.887 -0.1174  0.3088  0.0993
 1605SOL    HW116274   3.764   4.357   1.941  0.4239  2.5370 -0.7165
 1605SOL    HW216275   3.810   4.228   1.876  1.8592 -0.5142  2.8558
 1606SOL     OW16276   3.013   4.047  17.350  0.8953  0.0975  0.1184
 1606SOL    HW116277   2.951   4.111  17.384  1.0391  0.4443 -0.2681
 1606SOL    HW216278   3.021   3.985  17.422  0.5737 -1.6639 -1.3457
 1607SOL     OW16279   1.416   1.755   6.249 -0.3090 -0.2045 -0.2880
 1607SOL    HW116280   1.435   1.672   6.292  0.6988  0.8080  1.2466
 1607SOL    HW216281   1.474   1.813   6.299 -1.2512  0.0021  0.5628
 1608SOL     OW16282   3.142   3.356   6.764 -0.4365  0.4359 -0.3916
 1608SOL    HW116283   3.085   3.310   6.702 -0.2607 -0.4972  0.1545
 1608SOL    HW216284   3.196   3.413   6.709 -0.3679  0.0589 -0.7117
 1609SOL     OW16285   3.182   0.909   4.161 -0.0276 -0.1194  0.4912
 1609SOL    HW116286   3.221   0.839   4.213  0.6407  0.4081  0.6953
 1609SOL    HW216287   3.246   0.971   4.194 -0.1541  0.0743  0.3699
 1610SOL     OW16288   3.166   4.466  11.586  0.0193  0.1706  0.3318
 1610SOL    HW116289   3.173   4.370  11.585  2.2657  0.3533  0.1661
 1610SOL    HW216290   3.150   4.479  11.493 -0.5736 -1.8076  0.1431
 1611SOL     OW16291   1.398   1.567  10.933  0.4873 -0.2491  0.2131
 1611SOL    HW116292   1.445   1.622  10.997 -1.4041 -0.2013  1.5599
 1611SOL    HW216293   1.343   1.505  10.980  1.6766 -0.8010  0.8862
 1612SOL     OW16294   0.571   0.648   5.496  0.2056 -0.4077  0.3114
 1612SOL    HW116295   0.643   0.707   5.473 -1.0762  1.5040  1.1936
 1612SOL    HW216296   0.584   0.569   5.443 -0.6992 -1.2615  1.3503
 1613SOL     OW16297   3.472   0.695   1.166 -0.1711  0.0186 -0.2395
 1613SOL    HW116298   3.516   0.649   1.095  0.9801  1.2409 -0.3248
 1613SOL    HW216299   3.516   0.779   1.153 -0.5711 -0.1111 -2.3458
 1614SOL     OW16300   1.551   1.530  16.529  0.6834  0.1347  0.4325
 1614SOL    HW116301   1.478   1.591  16.518  0.1438 -0.9287 -1.8432
 1614SOL    HW216302   1.559   1.531  16.624 -1.0631  2.7166  0.5458
 1615SOL     OW16303   0.019   3.413   6.811  0.1987 -0.5026 -0.3631
 1615SOL    HW116304   4.713   3.407   6.719 -1.2940  0.4604  0.0126
 1615SOL    HW216305   0.113   3.399   6.799  0.0370 -2.1461  0.3839
 1616SOL     OW16306   1.603   1.403   2.473  0.1005  0.6489  0.9804
 1616SOL    HW116307   1.520   1.356   2.481  0.7276 -0.6533 -0.2140
 1616SOL    HW216308   1.605   1.445   2.387 -1.4525 -1.7968 -0.2299
 1617SOL     OW16309   0.624   3.119   8.485 -0.2241 -0.4780  0.0528
 1617SOL    HW116310   0.546   3.172   8.502 -0.4604 -0.6646 -0.4683
 1617SOL    HW216311   0.696   3.179   8.503  2.0714 -3.3313  0.5578
 1618SOL     OW16312   4.617   2.984  13.174 -0.0768 -0.0434  0.2208
 1618SOL    HW116313   4.705   3.022  13.172 -1.4014  3.0854  0.0807
 1618SOL    HW216314   4.621   2.958  13.082 -1.2611 -1.5034  0.5869
 1619SOL     OW16315   3.148   2.036   5.881 -0.6116 -0.8306  0.0866
 1619SOL    HW116316   3.207   1.980   5.930  1.4811  0.9904 -0.3753
 1619SOL    HW216317   3.169   2.012   5.790 -0.5822 -1.0218  0.1443
 1620SOL     OW16318   2.902   1.586   8.111  0.0333 -0.3434 -0.5287
 1620SOL    HW116319   2.962   1.629   8.049  0.4082  1.1269  0.8594
 1620SOL    HW216320   2.899   1.499   8.071 -2.0487 -0.4342 -0.1702
 1621SOL     OW16321   4.223   0.564   7.032  0.0426  0.4381 -0.3508
 1621SOL    HW116322   4.184   0.641   7.074  0.3253 -0.7450  2.0855
 1621SOL    HW216323   4.186   0.487   7.076 -0.1042  0.3107 -0.6940
 1622SOL     OW16324   3.241   1.626   5.500  0.1897 -0.2627  0.2758
 1622SOL    HW116325   3.164   1.570   5.499  1.2372 -1.6653 -0.7888
 1622SOL    HW216326   3.311   1.575   5.458  0.0420  0.1833 -0.5234
 1623SOL     OW16327   3.412   2.443   8.850  0.0275  0.0688 -0.5098
 1623SOL    HW116328   3.432   2.367   8.795 -0.6214 -1.4460  1.3386
 1623SOL    HW216329   3.371   2.491   8.778  1.8192  0.5331 -1.2079
 1624SOL     OW16330   1.707   1.302   4.610  0.1931 -0.1130 -0.2209
 1624SOL    HW116331   1.783   1.247   4.594 -0.1534 -1.2193  1.9809
 1624SOL    HW216332   1.726   1.347   4.692  1.6070 -0.1362 -0.5449
 1625SOL     OW16333   2.662   1.766   4.757 -0.2560  0.0217 -0.7402
 1625SOL    HW116334   2.674   1.696   4.693 -1.4794 -1.1156  0.2806
 1625SOL    HW216335   2.642   1.849   4.713  0.4866  0.4045 -0.3651
 1626SOL     OW16336   3.855   1.066   2.510  0.0816  0.0696  0.3461
 1626SOL    HW116337   3.811   1.095   2.430 -1.6038 -0.5867  1.0381
 1626SOL    HW216338   3.925   1.009   2.477  0.7945  1.0967  0.0552
 1627SOL     OW16339   4.323   1.486   2.359  0.5762 -0.0181 -0.1111
 1627SOL    HW116340   4.396   1.431   2.330 -0.1697 -0.2259 -1.5542
 1627SOL    HW216341   4.318   1.564   2.304  1.3079 -0.3140 -0.5992
 1628SOL     OW16342   0.495   2.631   4.820  0.0372 -0.3267 -0.3129
 1628SOL    HW116343   0.444   2.561   4.780  0.4235 -0.8485  0.1041
 1628SOL    HW216344   0.446   2.713   4.806 -1.4056 -0.8165  1.8521
 1629SOL     OW16345   3.904   3.879  16.402  0.0270 -0.7056  0.5364
 1629SOL    HW116346   3.923   3.960  16.354  2.3570 -0.6995  1.4697
 1629SOL    HW216347   3.902   3.910  16.493  2.2090 -0.1125  0.3974
 1630SOL     OW16348   1.357   4.256   2.911  0.7145 -0.0617  0.1331
 1630SOL    HW116349   1.402   4.333   2.877  0.3662 -0.9659 -2.3145
 1630SOL    HW216350   1.346   4.203   2.832 -3.4809  0.3623  0.4474
 1631SOL     OW16351   4.039   1.572   3.894 -0.7560 -0.0399 -0.2590
 1631SOL    HW116352   3.946   1.570   3.871 -0.2622 -1.7840 -2.0695
 1631SOL    HW216353   4.028   1.654   3.942  0.0183 -0.3917  0.5135
 1632SOL     OW16354   1.494   2.968   8.125 -0.3993  0.1745  0.3890
 1632SOL    HW116355   1.562   3.015   8.077 -0.4849  1.2591  1.3080
 1632SOL    HW216356   1.413   2.999   8.083  0.4752  0.4902 -1.0340
 1633SOL     OW16357   0.676   2.293   4.106 -0.1604  0.9591 -0.0219
 1633SOL    HW116358   0.728   2.337   4.038  1.1691  1.2320  1.1553
 1633SOL    HW216359   0.622   2.363   4.143 -0.9160 -0.1346  0.9282
 1634SOL     OW16360   1.072   2.427   6.428  0.2015 -0.5087  0.2776
 1634SOL    HW116361   1.072   2.337   6.394  2.2031 -1.2738  2.3363
 1634SOL    HW216362   1.146   2.422   6.489  1.4869 -0.5133 -1.2890
 1635SOL     OW16363   0.463   1.609  16.388 -0.4923 -0.1886  0.2594
 1635SOL    HW116364   0.458   1.519  16.421 -0.1435 -0.7286 -1.1596
 1635SOL    HW216365   0.506   1.649  16.464 -0.4075  1.6003 -0.7454
 1636SOL     OW16366   2.583   3.740   8.682 -1.0407  0.0225 -0.0632
 1636SOL    HW116367   2.620   3.810   8.737 -0.0595  0.4137 -1.1940
 1636SOL    HW216368   2.579   3.791   8.601  1.0757 -0.2807 -0.3708
 1637SOL     OW16369   1.317   3.319   8.295  0.4869  0.4456  0.0323
 1637SOL    HW116370   1.365   3.268   8.361 -1.5708  0.1738  1.3058
 1637SOL    HW216371   1.385   3.334   8.229  0.4232 -0.4344 -0.2368
 1638SOL     OW16372   2.638   3.287   4.273 -0.3570  0.3269  0.1709
 1638SOL    HW116373   2.727   3.321   4.278  0.3100 -1.1225 -1.6691
 1638SOL    HW216374   2.597   3.332   4.347  1.9860  1.0490  1.0296
 1639SOL     OW16375   4.182   4.367   1.141 -0.1332  0.2774  0.1537
 1639SOL    HW116376   4.185   4.445   1.086  1.7410  1.9710  2.6606
 1639SOL    HW216377   4.149   4.307   1.074  1.3531  1.8930 -2.0124
 1640SOL     OW16378   1.033   2.805   9.198  0.0028  0.1932  0.5507
 1640SOL    HW116379   1.090   2.881   9.185  1.9751 -1.4543 -0.3618
 1640SOL    HW216380   1.094   2.757   9.253 -0.5212 -1.4461 -0.2918
 1641SOL     OW16381   2.858   3.939  10.985  0.4464  0.2957  0.1060
 1641SOL    HW116382   2.795   3.956  11.055 -1.1519  1.5119 -1.6261
 1641SOL    HW216383   2.936   3.980  11.021  0.1954  1.8798 -1.1581
 1642SOL     OW16384   2.011   4.361  11.573  0.3275  0.4893  0.1822
 1642SOL    HW116385   1.931   4.318  11.542  1.8415 -0.5567 -2.2151
 1642SOL    HW216386   1.968   4.443  11.598  0.0067  0.2914  0.2760
 1643SOL     OW16387   3.269   4.110  14.740 -0.6666  0.1100  0.0712
 1643SOL    HW116388   3.190   4.151  14.776 -0.3421  1.1829 -0.4673
 1643SOL    HW216389   3.322   4.190  14.742 -2.3658  1.2211  0.6016
 1644SOL     OW16390   1.644   4.517   5.515 -0.5650  0.1677 -0.0205
 1644SOL    HW116391   1.575   4.451   5.514 -1.2907  0.9126  0.7474
 1644SOL    HW216392   1.662   4.539   5.606 -1.0702 -2.8247  0.7913
 1645SOL     OW16393   0.014   1.490   4.866 -0.6025  0.2140  0.1376
 1645SOL    HW116394   4.641   1.473   4.855 -0.7366  1.9007 -1.3034
 1645SOL    HW216395   0.051   1.402   4.865 -0.7980  0.1424 -0.8086
 1646SOL     OW16396   4.058   4.163   0.319 -0.2965 -0.4818 -0.2886
 1646SOL    HW116397   4.143   4.159   0.276 -0.3258 -1.8803 -0.2207
 1646SOL    HW216398   4.061   4.078   0.362  1.4326  0.1005  0.7306
 1647SOL     OW16399   0.584   3.002  16.037  0.2104  0.3400 -0.0971
 1647SOL    HW116400   0.590   2.964  16.124  2.0362 -1.3335 -0.9456
 1647SOL    HW216401   0.491   2.998  16.018 -0.0128  1.1823  0.8269
 1648SOL     OW16402   4.335   3.168   7.904 -0.5894  0.0864  0.1345
 1648SOL    HW116403   4.359   3.204   7.989  2.4262 -1.7733  0.0730
 1648SOL    HW216404   4.414   3.136   7.862 -0.6140  0.1029  0.0753
 1649SOL     OW16405   2.629   3.707   6.304 -0.0122  0.0695  0.0557
 1649SOL    HW116406   2.696   3.656   6.258  0.8338 -1.4676  3.0048
 1649SOL    HW216407   2.679   3.712   6.386  0.2818  2.7029 -0.2578
 1650SOL     OW16408   3.773   4.071  11.515  0.4836 -0.1566 -0.2400
 1650SOL    HW116409   3.737   4.073  11.426  0.9639 -0.5168 -0.4424
 1650SOL    HW216410   3.806   4.161  11.519  2.0463 -0.6808 -1.1081
 1651SOL     OW16411   3.908   3.610   5.237  0.0296 -0.2241 -0.3726
 1651SOL    HW116412   3.953   3.684   5.277  0.0150 -1.5828  2.1362
 1651SOL    HW216413   3.828   3.602   5.289 -0.4079  0.0781 -0.9943
 1652SOL     OW16414   2.239   0.479  12.895  0.4834 -0.0126 -0.4068
 1652SOL    HW116415   2.198   0.417  12.836 -1.7040 -1.3874  2.5702
 1652SOL    HW216416   2.229   0.440  12.981  0.7252 -2.9703 -1.7415
 1653SOL     OW16417   1.392   4.584   6.961 -0.1274  0.0901 -0.2029
 1653SOL    HW116418   1.367   4.675   6.942 -0.1955  0.2358  0.5601
 1653SOL    HW216419   1.430   4.559   6.877  0.5484 -1.4912  0.5727
 1654SOL     OW16420   0.568   4.712   8.389 -0.0818 -0.1326 -0.5337
 1654SOL    HW116421   0.501   4.663   8.434  1.5299 -0.3617  1.6230
 1654SOL    HW216422   0.553   4.720   8.294 -3.7506 -1.4859 -0.0617
 1655SOL     OW16423   2.247   3.167   1.456  0.4191 -0.7954  0.2541
 1655SOL    HW116424   2.153   3.154   1.463  0.2813 -1.0032 -1.7505
 1655SOL    HW216425   2.245   3.230   1.384  3.1966  0.8092  1.5902
 1656SOL     OW16426   3.126   2.033  12.059 -0.1132  0.0521  0.1659
 1656SOL    HW116427   3.114   2.023  11.965 -1.6318 -1.5790  0.5075
 1656SOL    HW216428   3.191   1.965  12.075  0.4541  0.1811 -1.6162
 1657SOL     OW16429   4.501   2.993  13.430 -0.4723 -0.2968  0.2212
 1657SOL    HW116430   4.552   2.990  13.349  0.3033 -0.4234  0.7082
 1657SOL    HW216431   4.514   3.084  13.457 -0.2470  0.2192 -1.6092
 1658SOL     OW16432   0.085   2.684   5.835  0.4198  0.9739  0.0772
 1658SOL    HW116433   0.104   2.591   5.839  0.9320  1.0507 -0.7336
 1658SOL    HW216434   0.021   2.695   5.906 -0.9594 -0.8329 -0.8829
 1659SOL     OW16435   4.709   2.254   5.197 -0.0677 -0.5490  0.2577
 1659SOL    HW116436   4.652   2.323   5.232 -0.4158 -0.3566 -0.7068
 1659SOL    HW216437   4.693   2.268   5.104  1.8884 -0.1561 -0.0265
 1660SOL     OW16438   3.864   3.598   8.325 -0.2300  0.0351 -0.4189
 1660SOL    HW116439   3.893   3.642   8.405 -0.9573 -2.5635  1.2929
 1660SOL    HW216440   3.869   3.504   8.345 -2.3629 -0.1765 -0.9264
 1661SOL     OW16441   0.034   0.089   2.533  0.2256 -0.1236 -0.0731
 1661SOL    HW116442   4.663   0.067   2.544 -0.5380  1.7537 -2.6896
 1661SOL    HW216443   0.090   0.012   2.544 -1.5046 -1.1208  1.6491
 1662SOL     OW16444   2.754   3.547   3.392  0.2403 -0.4728  0.1370
 1662SOL    HW116445   2.742   3.503   3.308 -0.5012  1.0619 -0.5744
 1662SOL    HW216446   2.710   3.628   3.365 -1.0915 -0.6590  1.6757
 1663SOL     OW16447   1.948   4.539  15.870  0.3045 -0.3422 -0.0616
 1663SOL    HW116448   1.989   4.500  15.792  0.2768  0.5544 -0.5279
 1663SOL    HW216449   1.884   4.598  15.829  2.6972  1.5622 -1.0834
 1664SOL     OW16450   0.881   0.142   7.865 -0.5158  0.0091 -0.5317
 1664SOL    HW116451   0.850   0.082   7.933 -0.1262  0.0960 -0.2791
 1664SOL    HW216452   0.796   0.166   7.828  0.0767 -1.5531 -2.8942
 1665SOL     OW16453   3.457   2.221  11.722  0.1066  0.1093  0.1556
 1665SOL    HW116454   3.493   2.297  11.768 -0.5377  1.7632 -2.0515
 1665SOL    HW216455   3.381   2.264  11.683  0.8800  0.8809 -0.5075
 1666SOL     OW16456   2.270   4.662   1.630  0.5117 -0.1275  0.1083
 1666SOL    HW116457   2.236   4.588   1.681  1.9255  0.5365  2.0249
 1666SOL    HW216458   2.360   4.647   1.658 -0.2748 -1.9997  1.7231
 1667SOL     OW16459   2.209   1.559   0.860  0.0815 -0.3258  0.0495
 1667SOL    HW116460   2.221   1.476   0.904  0.1750 -0.2204  0.2207
 1667SOL    HW216461   2.154   1.541   0.783 -0.3949 -1.4717  0.6722
 1668SOL     OW16462   3.907   3.187  14.861  0.1438 -0.0558  0.1570
 1668SOL    HW116463   3.949   3.139  14.933  0.3320 -1.2583 -0.7497
 1668SOL    HW216464   3.967   3.195  14.787  0.7641 -0.7290  0.5867
 1669SOL     OW16465   3.018   2.539   8.897  0.5348  0.3846 -0.2342
 1669SOL    HW116466   3.016   2.451   8.860  0.4237  0.4898 -0.4753
 1669SOL    HW216467   2.923   2.550   8.898  0.4040 -0.7619  0.0553
 1670SOL     OW16468   2.775   3.328   9.872 -0.1144  0.4377  0.4079
 1670SOL    HW116469   2.740   3.288   9.951 -0.6732  0.6093  0.2422
 1670SOL    HW216470   2.863   3.327   9.910 -0.5091  0.5733  1.3120
 1671SOL     OW16471   1.071   1.627   7.586  0.5221  0.9921 -0.4792
 1671SOL    HW116472   0.976   1.611   7.583  0.6191  0.3253 -0.2133
 1671SOL    HW216473   1.079   1.652   7.678  1.9596 -0.9101 -0.0778
 1672SOL     OW16474   4.521   3.736   5.813  0.9534  0.6727  0.0632
 1672SOL    HW116475   4.498   3.804   5.749 -2.7881 -0.0462  0.6401
 1672SOL    HW216476   4.537   3.660   5.757 -0.6962 -0.2443  0.8343
 1673SOL     OW16477   4.083   4.649   1.604  0.3812  0.5801 -0.2480
 1673SOL    HW116478   4.035   0.010   1.615  1.7153  1.5033 -1.2557
 1673SOL    HW216479   4.020   4.592   1.648  1.5432 -0.0651  0.5883
 1674SOL     OW16480   2.021   2.273   1.774  0.2263 -0.4106 -0.6961
 1674SOL    HW116481   2.099   2.319   1.805 -0.9731  1.6034 -0.6390
 1674SOL    HW216482   2.047   2.265   1.683 -1.4068 -0.8768 -1.1300
 1675SOL     OW16483   4.425   0.417   7.866  0.2176  0.2854 -0.2357
 1675SOL    HW116484   4.436   0.335   7.915  1.2556  0.4394 -0.2181
 1675SOL    HW216485   4.334   0.444   7.883  0.4167  0.0848  1.1894
 1676SOL     OW16486   3.725   1.443  11.024  0.2677 -0.2728 -0.5901
 1676SOL    HW116487   3.733   1.353  11.057  0.6837  0.6819  1.8814
 1676SOL    HW216488   3.817   1.469  11.029  0.0457  0.2208  0.7754
 1677SOL     OW16489   4.025   4.450   4.188  0.1128  0.0783  0.1867
 1677SOL    HW116490   4.030   4.436   4.093 -2.7842 -2.8703  0.4540
 1677SOL    HW216491   4.102   4.506   4.199  0.0765  0.3099 -0.7266
 1678SOL     OW16492   2.204   2.744   3.887 -0.0054 -0.0582  0.4433
 1678SOL    HW116493   2.199   2.805   3.960  2.7113 -0.7478  1.1755
 1678SOL    HW216494   2.297   2.722   3.893 -0.6833 -2.3620  2.0999
 1679SOL     OW16495   2.338   0.040   7.329  0.2651  0.3322  0.1966
 1679SOL    HW116496   2.255   0.052   7.374  0.3070 -1.7019  0.8333
 1679SOL    HW216497   2.380   0.123   7.353 -1.4823  0.9084  1.2649
 1680SOL     OW16498   0.061   2.283   7.405 -0.1279  0.1012  0.3633
 1680SOL    HW116499   0.155   2.263   7.405 -0.5039 -1.7062 -2.0878
 1680SOL    HW216500   0.042   2.287   7.311  0.9672 -1.5694  0.0646
 1681SOL     OW16501   2.029   3.985   1.374  0.2335 -0.1300  0.3195
 1681SOL    HW116502   2.037   3.891   1.387 -0.3136 -0.1244  0.7058
 1681SOL    HW216503   2.120   4.012   1.382 -1.0185  4.6833 -1.4388
 1682SOL     OW16504   3.942   2.211   8.162 -0.1427 -0.3995 -0.1715
 1682SOL    HW116505   4.011   2.264   8.122 -0.0969 -0.0784  0.3312
 1682SOL    HW216506   3.903   2.263   8.232 -0.6258 -2.3825  1.0201
 1683SOL     OW16507   2.351   4.373   5.607 -0.0321 -0.0722 -0.3567
 1683SOL    HW116508   2.280   4.399   5.666  1.2791 -0.0495  1.2024
 1683SOL    HW216509   2.390   4.310   5.667  0.7118  1.2676  0.5791
 1684SOL     OW16510   1.104   2.531   5.997  0.2352 -0.4721  0.2752
 1684SOL    HW116511   1.060   2.515   5.914 -0.5563 -2.1206  1.0138
 1684SOL    HW216512   1.032   2.549   6.058 -0.1692  0.6980 -0.5411
 1685SOL     OW16513   1.476   0.844   6.613 -0.6152 -0.1752 -0.2318
 1685SOL    HW116514   1.462   0.920   6.670 -1.3581 -0.2982 -0.2482
 1685SOL    HW216515   1.400   0.790   6.636  0.1177 -0.8005  0.7388
 1686SOL     OW16516   1.642   2.213   3.711 -0.1846 -0.0738 -0.2486
 1686SOL    HW116517   1.579   2.211   3.638  0.5016  1.0197 -0.8748
 1686SOL    HW216518   1.613   2.137   3.761 -2.9280  1.5136  0.5498
 1687SOL     OW16519   2.523   2.765   5.397 -0.1836  0.2241 -0.3686
 1687SOL    HW116520   2.572   2.843   5.370 -1.3682  0.4718 -1.7734
 1687SOL    HW216521   2.563   2.735   5.479 -1.4773  1.9071  0.8989
 1688SOL     OW16522   2.319   2.676  15.681  0.4409  0.7699 -0.5409
 1688SOL    HW116523   2.286   2.686  15.771 -0.4612 -0.8869 -0.6821
 1688SOL    HW216524   2.411   2.678  15.706  0.2842 -1.2790  0.2113
 1689SOL     OW16525   3.264   2.520   7.714 -0.2701 -0.6572  0.3992
 1689SOL    HW116526   3.349   2.477   7.726 -1.2965 -1.8460  3.5322
 1689SOL    HW216527   3.211   2.441   7.708 -1.4092  0.2793 -2.0187
 1690SOL     OW16528   4.595   2.955  17.352  0.0617  0.1842  0.2157
 1690SOL    HW116529   4.566   2.998  17.271  2.8677  1.5834 -0.0430
 1690SOL    HW216530   4.634   2.876  17.315 -1.5772  0.5611 -2.3148
 1691SOL     OW16531   1.673   4.011  13.035  0.1313 -0.1996 -0.1995
 1691SOL    HW116532   1.692   3.953  13.108  1.3241  1.8942  1.1556
 1691SOL    HW216533   1.580   4.020  13.054  0.6068  0.1592  1.9172
 1692SOL     OW16534   3.015   3.443  12.952 -0.2823  0.0857 -0.1792
 1692SOL    HW116535   2.960   3.518  12.978 -1.1766 -0.1293 -1.4525
 1692SOL    HW216536   2.949   3.375  12.966 -0.4143  0.0434 -0.9909
 1693SOL     OW16537   3.036   4.450  17.472 -0.1839  0.0343 -0.3360
 1693SOL    HW116538   3.109   4.511  17.486  0.5140 -0.6871 -0.8633
 1693SOL    HW216539   2.995   4.487  17.394 -1.7637 -1.6544 -0.2897
 1694SOL     OW16540   2.845   3.487  16.104 -0.6615  0.0938  0.0611
 1694SOL    HW116541   2.895   3.564  16.076 -1.5517  0.0965 -1.4761
 1694SOL    HW216542   2.799   3.476  16.021  3.3413  1.7845 -2.4152
 1695SOL     OW16543   2.180   2.792  10.009  0.2223 -0.3439  0.3797
 1695SOL    HW116544   2.206   2.813   9.920  0.0782  0.1815  0.4614
 1695SOL    HW216545   2.135   2.866  10.051 -0.1594  0.3233 -1.2295
 1696SOL     OW16546   2.053   0.909   2.314  0.3352 -0.0727  0.1234
 1696SOL    HW116547   2.088   0.893   2.227 -1.7371  1.8615 -1.0673
 1696SOL    HW216548   1.963   0.881   2.297 -0.0287  1.5933 -0.6918
 1697SOL     OW16549   1.037   2.610   4.872 -0.0443  0.0643 -0.2686
 1697SOL    HW116550   0.945   2.637   4.878  0.6272  2.1264  0.6877
 1697SOL    HW216551   1.071   2.635   4.786 -1.6587 -1.7896 -1.4361
 1698SOL     OW16552   3.193   1.908   1.971  0.1094  0.2941 -0.1040
 1698SOL    HW116553   3.186   1.826   1.922 -2.8060  0.7088 -0.4076
 1698SOL    HW216554   3.284   1.905   2.001  0.3663  0.6110 -0.8555
 1699SOL     OW16555   3.832   2.330   4.829 -0.1524 -0.8303  0.3643
 1699SOL    HW116556   3.811   2.423   4.836  0.9965 -0.4839 -0.5776
 1699SOL    HW216557   3.883   2.310   4.908 -0.6200 -1.5966  0.4650
 1700SOL     OW16558   0.076   4.330   1.812 -0.0694  0.1491 -0.3687
 1700SOL    HW116559   0.063   4.421   1.785  1.5648  0.8867  1.2957
 1700SOL    HW216560   0.138   4.323   1.885 -0.5599  2.0178  0.2448
 1701SOL     OW16561   2.211   1.045   4.814 -0.3624 -0.0771 -0.5967
 1701SOL    HW116562   2.226   1.130   4.772 -0.1593 -0.2039 -0.7782
 1701SOL    HW216563   2.132   1.060   4.865 -0.6935 -1.3651 -0.7474
 1702SOL     OW16564   3.402   3.403   9.389 -0.8702  0.2762 -0.8988
 1702SOL    HW116565   3.410   3.489   9.429  1.4738 -0.8448  1.0104
 1702SOL    HW216566   3.469   3.405   9.320  0.7909 -0.7946  0.6902
 1703SOL     OW16567   1.960   1.584   2.216 -0.7364 -0.2433  0.0752
 1703SOL    HW116568   1.903   1.508   2.204 -1.4255  0.3548 -0.4743
 1703SOL    HW216569   1.951   1.623   2.129  1.3304  2.2560  0.9695
 1704SOL     OW16570   4.667   3.209  14.743  0.2771  0.5407  0.0128
 1704SOL    HW116571   4.675   3.265  14.820  0.0753 -0.0187  0.4440
 1704SOL    HW216572   4.717   3.251  14.673  0.4787  1.3174  0.6307
 1705SOL     OW16573   2.785   4.492   4.107 -0.2124 -0.1244 -0.4943
 1705SOL    HW116574   2.813   4.400   4.105  1.1073  0.2750 -0.2286
 1705SOL    HW216575   2.692   4.470   4.113 -0.3161  0.8663  1.5148
 1706SOL     OW16576   0.381   2.517   6.430  0.2162 -0.3976 -0.9705
 1706SOL    HW116577   0.323   2.524   6.354 -1.2563  1.7355  0.3406
 1706SOL    HW216578   0.379   2.602   6.474  0.5975 -0.8794 -0.0201
 1707SOL     OW16579   2.396   1.230  14.929  0.0171 -0.2138  0.2612
 1707SOL    HW116580   2.390   1.243  15.023 -0.1092  0.0887  0.2125
 1707SOL    HW216581   2.491   1.219  14.925 -0.0947 -1.0466 -0.0104
 1708SOL     OW16582   1.658   2.732   8.700  0.1954  0.0125  0.2003
 1708SOL    HW116583   1.586   2.776   8.655 -0.1626  0.1217  0.8794
 1708SOL    HW216584   1.717   2.716   8.626 -2.0209  1.7974 -1.9538
 1709SOL     OW16585   2.794   4.215   6.405 -0.2284 -0.2109  0.1128
 1709SOL    HW116586   2.741   4.145   6.367  1.0080 -0.5053 -1.0678
 1709SOL    HW216587   2.886   4.193   6.392 -0.1263  0.4304 -0.2718
 1710SOL     OW16588   3.644   2.829   9.579  0.4887 -0.3513  0.3662
 1710SOL    HW116589   3.674   2.751   9.532 -0.0830 -1.8214  2.4186
 1710SOL    HW216590   3.729   2.872   9.582  0.5185 -0.3658 -0.2988
 1711SOL     OW16591   1.999   4.075   7.532 -0.0337  0.0392 -0.0224
 1711SOL    HW116592   2.033   4.016   7.465  0.6007  0.7801 -0.3571
 1711SOL    HW216593   1.927   4.014   7.550  1.3231 -1.5227  0.0920
 1712SOL     OW16594   2.422   1.865   6.536  0.5878  0.4848  0.2246
 1712SOL    HW116595   2.473   1.833   6.610  0.4286  0.6849  0.4178
 1712SOL    HW216596   2.345   1.898   6.581  0.6898 -0.0125  0.7618
 1713SOL     OW16597   3.250   4.212  17.405 -0.0566 -0.3024  0.0486
 1713SOL    HW116598   3.167   4.208  17.453  0.7611  2.1610  1.6360
 1713SOL    HW216599   3.219   4.270  17.335  0.9890  0.3397  0.1227
 1714SOL     OW16600   1.004   2.343   1.030  0.0413 -0.1477 -0.5773
 1714SOL    HW116601   1.000   2.287   0.952  4.0672 -0.4744 -0.5294
 1714SOL    HW216602   0.952   2.421   1.008  2.8188  1.7663 -0.3291
 1715SOL     OW16603   1.570   4.035  12.392 -0.9594 -0.1973  0.6062
 1715SOL    HW116604   1.580   4.127  12.367  0.0933 -0.0638  1.5090
 1715SOL    HW216605   1.584   3.992  12.308  0.5885  0.8721  0.3190
 1716SOL     OW16606   2.080   1.091  15.394  0.0569 -0.0207 -0.3365
 1716SOL    HW116607   2.029   1.041  15.458 -1.3945  1.2483 -0.5161
 1716SOL    HW216608   2.024   1.165  15.368 -0.2466  0.3284  1.3305
 1717SOL     OW16609   3.885   0.533   5.104  0.1460  0.0934  0.0310
 1717SOL    HW116610   3.795   0.558   5.084 -0.0660 -1.6030 -1.1161
 1717SOL    HW216611   3.881   0.454   5.051  0.2517 -1.0189  1.6742
 1718SOL     OW16612   0.264   2.691   7.886 -0.1114 -0.4679 -0.8968
 1718SOL    HW116613   0.254   2.630   7.959 -0.5518  0.0943 -0.4870
 1718SOL    HW216614   0.196   2.755   7.908  2.1399  1.4530  0.3867
 1719SOL     OW16615   1.510   0.015  14.198  0.0928 -0.1755 -0.0091
 1719SOL    HW116616   1.519   4.715  14.105 -0.0786 -1.8020  0.3562
 1719SOL    HW216617   1.416   0.010  14.215  0.1914 -0.4734  0.4510
 1720SOL     OW16618   3.467   3.969  11.446  0.7050 -0.3642  0.4520
 1720SOL    HW116619   3.520   3.994  11.371  0.7530  0.3729  0.7361
 1720SOL    HW216620   3.479   4.038  11.511  1.2944  0.6084 -0.7060
 1721SOL     OW16621   1.846   1.982  12.805 -0.3680  0.4178  0.0630
 1721SOL    HW116622   1.922   1.926  12.790 -1.5769 -1.1458 -0.2749
 1721SOL    HW216623   1.880   2.071  12.797  2.2507 -0.4960  1.0974
 1722SOL     OW16624   0.543   4.340  11.240  0.2649  0.6283  0.5162
 1722SOL    HW116625   0.474   4.352  11.306 -0.1170 -1.3278  0.4749
 1722SOL    HW216626   0.521   4.403  11.171  1.5146  0.3149 -0.1640
 1723SOL     OW16627   1.961   2.755   4.264  0.0292 -0.2161 -0.6253
 1723SOL    HW116628   2.008   2.691   4.210 -1.3262 -0.6007 -1.3563
 1723SOL    HW216629   2.026   2.824   4.274  0.6245 -0.4151 -3.0003
 1724SOL     OW16630   1.498   2.191  10.279  0.2877  0.2927 -0.2019
 1724SOL    HW116631   1.581   2.236  10.294  1.5905 -1.6052 -1.6847
 1724SOL    HW216632   1.450   2.266  10.244 -0.4139 -0.3861 -0.6937
 1725SOL     OW16633   2.451   3.760   6.945 -1.0774 -0.5960 -0.1455
 1725SOL    HW116634   2.356   3.767   6.939 -0.9758  0.2877 -0.8485
 1725SOL    HW216635   2.460   3.668   6.969  0.3091 -0.5724 -0.5679
 1726SOL     OW16636   1.854   3.929   5.769  0.1198 -0.5764 -0.3153
 1726SOL    HW116637   1.816   3.841   5.768 -2.2831  0.4334  0.8747
 1726SOL    HW216638   1.889   3.927   5.680 -1.8616 -1.0882 -1.0657
 1727SOL     OW16639   0.852   4.506   8.422  0.2445 -0.2067 -0.0523
 1727SOL    HW116640   0.923   4.442   8.414  0.5389  0.2488 -1.0139
 1727SOL    HW216641   0.869   4.540   8.334  0.6272 -0.5166 -0.0995
 1728SOL     OW16642   2.157   0.093   7.820 -0.8743  0.2415 -0.7314
 1728SOL    HW116643   2.084   0.066   7.875  0.8424 -1.1260  0.8854
 1728SOL    HW216644   2.217   0.020   7.836 -0.8840  0.2482 -0.6665
 1729SOL     OW16645   1.019   2.128   7.464  0.1812 -0.0162 -0.1648
 1729SOL    HW116646   1.070   2.150   7.386  0.0562  0.2575 -0.1686
 1729SOL    HW216647   1.085   2.081   7.516  1.1875 -2.4049 -3.6033
 1730SOL     OW16648   0.502   2.908  16.528  0.2431 -0.1892  0.2189
 1730SOL    HW116649   0.414   2.902  16.490 -0.5657 -1.2207  2.2255
 1730SOL    HW216650   0.486   2.882  16.619 -1.3556 -1.3308 -0.3805
 1731SOL     OW16651   1.868   4.343  12.710 -0.3975 -0.6812 -0.2413
 1731SOL    HW116652   1.944   4.401  12.703 -1.3109  0.6617  1.0611
 1731SOL    HW216653   1.887   4.298  12.792 -1.5153  1.1815  1.0124
 1732SOL     OW16654   3.405   3.158   6.795  0.1727  0.6873 -0.0638
 1732SOL    HW116655   3.405   3.072   6.752 -1.9960  0.2467  0.8030
 1732SOL    HW216656   3.396   3.136   6.888 -2.7913  0.0711 -0.5097
 1733SOL     OW16657   3.168   3.833   4.967  0.3818 -0.2914 -0.2850
 1733SOL    HW116658   3.133   3.860   5.052 -0.3206  1.3056 -1.0860
 1733SOL    HW216659   3.172   3.738   4.977  0.9000 -0.1860  0.5064
 1734SOL     OW16660   0.525   1.602   8.481 -0.1901 -0.3142  0.4951
 1734SOL    HW116661   0.599   1.628   8.536  0.8469 -0.7502 -0.6869
 1734SOL    HW216662   0.541   1.664   8.409 -1.0402 -1.5956 -0.7953
 1735SOL     OW16663   3.345   0.318  15.310 -0.5906 -0.0650  0.1507
 1735SOL    HW116664   3.426   0.349  15.270 -0.3802 -0.3007  0.3954
 1735SOL    HW216665   3.335   0.371  15.388  1.1155  0.1280  0.2245
 1736SOL     OW16666   0.443   1.991   6.630  0.0655  0.2430 -0.0095
 1736SOL    HW116667   0.381   2.049   6.674  0.8288  1.5106 -0.6075
 1736SOL    HW216668   0.391   1.976   6.551  0.9127 -0.9382 -0.3463
 1737SOL     OW16669   1.928   0.575   1.857  0.3612  0.1181  1.0152
 1737SOL    HW116670   1.863   0.520   1.812  1.9115  0.3006 -1.4378
 1737SOL    HW216671   1.902   0.664   1.834  0.9350 -0.1412 -0.6138
 1738SOL     OW16672   1.856   2.515   7.214  0.1752 -0.0988 -0.0266
 1738SOL    HW116673   1.784   2.458   7.188  0.2603 -0.0436 -0.3828
 1738SOL    HW216674   1.855   2.491   7.307 -0.7256 -0.0665 -0.0274
 1739SOL     OW16675   0.018   1.754   7.019 -0.1286  0.2577 -0.3389
 1739SOL    HW116676   4.647   1.732   7.031 -0.2458  0.4058 -0.9603
 1739SOL    HW216677   0.026   1.840   7.063  0.1396  0.3581 -0.5836
 1740SOL     OW16678   1.563   3.706   4.456 -0.8027 -0.3568  0.3061
 1740SOL    HW116679   1.642   3.653   4.455 -0.8640 -0.4149 -0.7770
 1740SOL    HW216680   1.593   3.754   4.533 -0.4591  0.4884 -0.3559
 1741SOL     OW16681   0.797   3.092   3.557 -0.0839  1.3341 -0.5761
 1741SOL    HW116682   0.846   3.094   3.639 -1.3366 -0.3578  0.2150
 1741SOL    HW216683   0.840   3.021   3.510 -1.0772  1.6579 -1.9905
 1742SOL     OW16684   1.096   0.099   2.901  0.3369 -0.2868  0.2066
 1742SOL    HW116685   1.089   0.194   2.889 -2.3597 -0.0697  3.4070
 1742SOL    HW216686   1.007   0.066   2.890  1.3867 -3.1163  0.1447
 1743SOL     OW16687   1.033   1.725   2.922  0.4266 -0.3462 -0.1559
 1743SOL    HW116688   0.970   1.744   2.852 -0.2582 -1.1470  0.2384
 1743SOL    HW216689   1.104   1.693   2.868  0.6199  0.7161 -0.5271
 1744SOL     OW16690   0.943   1.224   3.578  0.3625 -0.4106 -0.2635
 1744SOL    HW116691   0.849   1.233   3.567  0.2250  1.7274  2.6159
 1744SOL    HW216692   0.949   1.163   3.651 -0.1025  0.7930  0.7942
 1745SOL     OW16693   3.577   3.081   0.785  0.4329  0.2547  0.5351
 1745SOL    HW116694   3.498   3.069   0.837  0.3398 -1.6614 -0.0420
 1745SOL    HW216695   3.604   2.992   0.764 -2.4214 -0.8126  1.3810
 1746SOL     OW16696   1.695   0.476   3.058 -0.0487  0.2201  0.1315
 1746SOL    HW116697   1.766   0.538   3.039 -1.1736  0.7282 -2.3375
 1746SOL    HW216698   1.620   0.526   3.027  0.4869  1.6849  1.2256
 1747SOL     OW16699   4.581   2.000  11.419 -0.7483  0.6557  0.1846
 1747SOL    HW116700   4.521   2.006  11.493  0.4095 -1.0021  1.2450
 1747SOL    HW216701   4.584   2.091  11.388  1.1124 -0.3344 -2.5239
 1748SOL     OW16702   2.427   3.565   4.400  0.2475 -0.0907  0.0892
 1748SOL    HW116703   2.381   3.637   4.442 -0.6101 -0.1329 -0.7885
 1748SOL    HW216704   2.438   3.499   4.468  2.0798  0.2822  0.1768
 1749SOL     OW16705   1.518   2.830  14.684 -0.3790  0.2921 -0.1790
 1749SOL    HW116706   1.528   2.823  14.589 -1.1717 -0.9018 -0.1738
 1749SOL    HW216707   1.580   2.765  14.718 -0.7678  0.5485  1.0198
 1750SOL     OW16708   0.086   0.003  17.205 -0.2993  0.2325 -0.6479
 1750SOL    HW116709   0.144   0.079  17.205 -0.9221  0.7189 -2.6683
 1750SOL    HW216710   0.044   0.020  17.289  0.6889  2.0260 -0.5061
 1751SOL     OW16711   1.141   1.230   2.549  0.2466 -0.3961 -0.3837
 1751SOL    HW116712   1.095   1.149   2.525 -3.2417  1.0631  1.4678
 1751SOL    HW216713   1.082   1.289   2.501  1.0336 -0.5925 -1.6052
 1752SOL     OW16714   1.257   1.934  13.744 -0.2635  0.1384 -0.4708
 1752SOL    HW116715   1.331   1.936  13.803  0.3159 -0.1021 -1.1898
 1752SOL    HW216716   1.199   1.883  13.801  0.9251 -0.6967 -0.0328
 1753SOL     OW16717   4.043   4.445   2.634  0.2527 -0.4269  0.7447
 1753SOL    HW116718   4.034   4.380   2.564  0.5745  0.0606  0.2518
 1753SOL    HW216719   4.138   4.440   2.641  0.3109 -1.5034 -0.8514
 1754SOL     OW16720   1.830   2.675   3.217 -0.6212 -0.1825 -0.0096
 1754SOL    HW116721   1.883   2.751   3.193 -0.7432 -0.7343 -2.0708
 1754SOL    HW216722   1.852   2.657   3.308  2.2049  0.2009 -0.5998
 1755SOL     OW16723   2.286   0.378   0.522  0.0432 -0.6226  0.4117
 1755SOL    HW116724   2.322   0.457   0.564  0.3326 -0.1291 -0.7522
 1755SOL    HW216725   2.247   0.409   0.440 -0.2745 -0.3997  0.6432
 1756SOL     OW16726   0.458   3.128   3.706  0.1158  0.3705  0.0419
 1756SOL    HW116727   0.428   3.095   3.791 -0.1844  0.6301  0.0371
 1756SOL    HW216728   0.416   3.213   3.718 -1.0732 -0.3773  1.1753
 1757SOL     OW16729   3.080   4.396   5.977  1.0346  0.2875 -0.6019
 1757SOL    HW116730   3.055   4.406   6.069 -1.4831 -0.7000 -1.1719
 1757SOL    HW216731   2.989   4.394   5.949  0.3575  0.0926  1.6357
 1758SOL     OW16732   2.421   4.365   5.245 -0.5273 -0.7133 -0.0418
 1758SOL    HW116733   2.452   4.403   5.328  1.0664  2.0976 -1.9553
 1758SOL    HW216734   2.333   4.400   5.234 -0.6757 -1.6820 -1.9013
 1759SOL     OW16735   0.309   0.334   9.935  0.1239  0.0435  0.5128
 1759SOL    HW116736   0.316   0.429   9.928  0.6470 -0.1208 -1.1338
 1759SOL    HW216737   0.228   0.328   9.885  0.6079 -1.2710 -0.0885
 1760SOL     OW16738   0.803   0.239   8.941 -0.1563 -0.6618 -0.4009
 1760SOL    HW116739   0.722   0.290   8.933  1.8349  2.4410 -0.9505
 1760SOL    HW216740   0.841   0.226   8.855 -2.0112  1.5412 -1.5603
 1761SOL     OW16741   2.933   3.747  10.786  0.1695 -0.1453  0.0535
 1761SOL    HW116742   2.945   3.820  10.846 -2.2771  0.6584 -0.4300
 1761SOL    HW216743   3.019   3.724  10.751  0.4770  0.0198  0.7169
 1762SOL     OW16744   1.615   2.458  13.697  0.0089 -0.1901  0.2287
 1762SOL    HW116745   1.669   2.419  13.766  0.0317 -3.5372 -1.6637
 1762SOL    HW216746   1.674   2.526  13.663 -0.6869 -0.0431 -0.7039
 1763SOL     OW16747   2.873   0.652   9.231 -0.0202 -0.1344  0.2269
 1763SOL    HW116748   2.814   0.638   9.157 -1.0900 -0.7051  1.1871
 1763SOL    HW216749   2.828   0.602   9.300 -0.4724  1.7798  1.3218
 1764SOL     OW16750   2.277   0.029   6.051 -0.3207  0.1429  0.0571
 1764SOL    HW116751   2.314   0.023   5.964  0.7455 -1.4958  0.6334
 1764SOL    HW216752   2.359   0.033   6.100 -1.4229  0.0751  1.9344
 1765SOL     OW16753   0.572   4.061   3.961 -0.0215 -0.1396 -0.0002
 1765SOL    HW116754   0.615   4.030   4.040 -1.2553  0.0578  0.7455
 1765SOL    HW216755   0.624   4.034   3.884  2.5796  0.7000  1.4491
 1766SOL     OW16756   1.771   4.500   8.974 -0.3763 -0.3307 -0.5103
 1766SOL    HW116757   1.756   4.517   8.881 -1.6540  1.8226  0.1048
 1766SOL    HW216758   1.818   4.416   8.969 -1.6626 -1.0050 -1.2284
 1767SOL     OW16759   1.466   0.790  11.794 -0.0801  0.1625 -0.6998
 1767SOL    HW116760   1.451   0.698  11.813 -0.6273  0.7871  2.0148
 1767SOL    HW216761   1.540   0.771  11.737  0.5454  0.9798 -0.1665
 1768SOL     OW16762   3.659   3.581   4.780  0.1652 -0.3567 -0.8143
 1768SOL    HW116763   3.680   3.660   4.831  0.9003 -0.8813 -0.3089
 1768SOL    HW216764   3.740   3.532   4.795  2.6629  3.6129 -1.2354
 1769SOL     OW16765   1.273   4.508   2.230 -0.1281 -0.2536 -0.5716
 1769SOL    HW116766   1.276   4.429   2.176 -1.3840  0.3201 -1.4833
 1769SOL    HW216767   1.236   4.569   2.166 -1.2440  0.8371  1.1080
 1770SOL     OW16768   4.106   2.891  13.426  0.5043  0.6148 -0.1753
 1770SOL    HW116769   4.114   2.983  13.449 -0.3412  0.2293  1.6473
 1770SOL    HW216770   4.045   2.887  13.353  0.4506  1.2781 -0.1655
 1771SOL     OW16771   2.155   4.567  15.529  0.0219  0.4052 -0.1885
 1771SOL    HW116772   2.242   4.534  15.504 -0.6589 -0.1381 -1.8289
 1771SOL    HW216773   2.185   4.651  15.565  0.2542  0.5753 -0.7832
 1772SOL     OW16774   0.663   2.608  12.807  0.3392 -0.0226 -0.6805
 1772SOL    HW116775   0.739   2.640  12.759 -0.1230  1.2109 -0.6066
 1772SOL    HW216776   0.652   2.680  12.869 -0.4065 -0.4173 -0.3448
 1773SOL     OW16777   1.823   1.491   3.737 -0.0889  0.1544 -0.1552
 1773SOL    HW116778   1.859   1.512   3.651 -2.5268 -0.8720 -1.4545
 1773SOL    HW216779   1.743   1.440   3.721  1.2186 -2.2211  0.8912
 1774SOL     OW16780   4.308   0.998   2.200 -0.6961  0.0561  0.6101
 1774SOL    HW116781   4.400   1.016   2.186 -0.2667 -1.6832  1.2097
 1774SOL    HW216782   4.292   0.926   2.140  1.6653  0.7540 -0.8218
 1775SOL     OW16783   3.330   2.927   7.240  0.2904 -0.4199 -0.2415
 1775SOL    HW116784   3.238   2.941   7.216  0.9289  2.1937 -1.1862
 1775SOL    HW216785   3.323   2.961   7.329 -0.7468  0.3209 -0.6059
 1776SOL     OW16786   3.140   0.023   0.068 -0.2599  0.4420  0.2746
 1776SOL    HW116787   3.179   4.689   0.000 -0.7532  1.7461 -1.0504
 1776SOL    HW216788   3.168   4.697   0.147 -0.4213 -0.5108 -0.2392
 1777SOL     OW16789   2.988   4.492   6.207 -0.2072 -0.7137  0.0309
 1777SOL    HW116790   3.048   4.491   6.281 -0.7197 -0.9454  0.4511
 1777SOL    HW216791   2.902   4.488   6.250  0.6626  0.0697  1.8191
 1778SOL     OW16792   0.152   1.460   5.994  0.4190  0.1553  0.3863
 1778SOL    HW116793   0.220   1.468   6.060  0.5222 -1.1551  0.4393
 1778SOL    HW216794   0.159   1.548   5.956  0.8041 -0.4624 -0.9757
 1779SOL     OW16795   2.985   2.593  13.878  0.6228 -0.3319  0.0060
 1779SOL    HW116796   3.044   2.643  13.822  0.0126  0.9195  0.4688
 1779SOL    HW216797   3.020   2.624  13.962 -0.6907  0.7118  0.1731
 1780SOL     OW16798   3.065   1.048   0.673  0.2425 -0.3311 -0.0124
 1780SOL    HW116799   3.099   1.130   0.637 -0.3959  0.3410  0.9027
 1780SOL    HW216800   3.127   1.042   0.746 -0.8730 -1.9433  0.8220
 1781SOL     OW16801   4.043   0.445   4.032  0.5027  0.4106  0.2496
 1781SOL    HW116802   4.021   0.401   3.950 -0.0544  1.7362 -0.3217
 1781SOL    HW216803   3.959   0.477   4.063  0.3367  1.2412 -1.0593
 1782SOL     OW16804   3.428   4.006   6.561  0.1303  0.3868  0.0502
 1782SOL    HW116805   3.455   3.923   6.523 -0.3260 -0.2311  1.0870
 1782SOL    HW216806   3.417   4.068   6.488 -3.1547 -0.1178  0.1360
 1783SOL     OW16807   3.785   1.838   9.807 -0.0619  0.3832  0.4523
 1783SOL    HW116808   3.778   1.846   9.712 -0.7880  0.5118  0.5203
 1783SOL    HW216809   3.694   1.829   9.835 -0.8399  0.6392 -2.0213
 1784SOL     OW16810   3.900   4.047   1.678 -0.6656 -0.6198  0.2096
 1784SOL    HW116811   3.842   4.037   1.753 -0.1511 -0.4452  0.6242
 1784SOL    HW216812   3.978   4.000   1.707 -0.3573  0.7274  1.5453
 1785SOL     OW16813   1.494   0.366   4.332  0.5702 -0.2344 -0.1075
 1785SOL    HW116814   1.515   0.429   4.402  0.0423  1.0379 -1.0924
 1785SOL    HW216815   1.565   0.304   4.349  1.8515  0.9272 -1.2228
 1786SOL     OW16816   0.855   0.408   7.315 -0.1808  0.0270 -0.3270
 1786SOL    HW116817   0.902   0.348   7.373 -1.1578  0.0879  0.5349
 1786SOL    HW216818   0.889   0.492   7.345 -0.8783  0.4634 -0.7715
 1787SOL     OW16819   2.704   3.986   8.223 -0.0849  0.0991  0.0013
 1787SOL    HW116820   2.763   4.046   8.179 -1.7826 -0.2039 -2.7009
 1787SOL    HW216821   2.681   3.927   8.151  0.6435 -0.8383  0.5387
 1788SOL     OW16822   3.607   0.213  12.890 -0.1381  0.1124 -0.6009
 1788SOL    HW116823   3.655   0.277  12.838  0.5991  0.2706  0.2712
 1788SOL    HW216824   3.596   0.136  12.835 -0.2768 -1.2607  1.3490
 1789SOL     OW16825   1.647   4.105   8.846  0.2585 -0.1221  0.0204
 1789SOL    HW116826   1.654   4.190   8.890 -0.8047 -0.8136  1.5038
 1789SOL    HW216827   1.630   4.049   8.921  0.1567  0.0857  0.1527
 1790SOL     OW16828   2.956   4.014   1.952  0.6014  0.7441 -0.3438
 1790SOL    HW116829   2.912   4.023   1.867 -2.2034 -0.3503  1.0064
 1790SOL    HW216830   2.941   4.098   1.995  1.9946  0.9357 -0.2151
 1791SOL     OW16831   3.880   3.865  15.551  0.9155  0.4369  0.1533
 1791SOL    HW116832   3.917   3.805  15.615  2.6379  1.5775  0.2108
 1791SOL    HW216833   3.815   3.807  15.510  2.9733 -1.4644 -0.4034
 1792SOL     OW16834   0.280   2.668   3.402 -0.6422 -0.1643  0.4219
 1792SOL    HW116835   0.298   2.722   3.325 -0.3928 -0.5174  0.2314
 1792SOL    HW216836   0.262   2.581   3.364  0.6256  0.3799 -1.4294
 1793SOL     OW16837   2.140   4.345  16.563 -0.7500 -0.2685 -0.0138
 1793SOL    HW116838   2.103   4.301  16.486 -1.8834 -1.1760  1.0637
 1793SOL    HW216839   2.229   4.368  16.536 -1.3252  0.2376 -1.4973
 1794SOL     OW16840   2.142   2.804   7.942  0.4941 -0.6404 -0.0097
 1794SOL    HW116841   2.104   2.843   7.864  1.2164 -0.5840 -0.3330
 1794SOL    HW216842   2.136   2.877   8.004  0.2346 -1.1678  0.5947
 1795SOL     OW16843   3.603   3.901   3.328 -0.5749 -0.0025  0.1407
 1795SOL    HW116844   3.695   3.910   3.306 -0.5565 -0.1469  0.1576
 1795SOL    HW216845   3.601   3.929   3.420 -0.6910  0.6956 -0.0778
 1796SOL     OW16846   2.583   1.361  10.324  0.4909  0.2494 -0.4374
 1796SOL    HW116847   2.491   1.367  10.349  0.1278 -1.3866 -1.3845
 1796SOL    HW216848   2.616   1.297  10.388  0.1754 -0.2928 -0.8120
 1797SOL     OW16849   1.632   0.295   0.743  0.2594  0.4551 -0.5528
 1797SOL    HW116850   1.629   0.214   0.795 -1.5023  0.3172 -0.8691
 1797SOL    HW216851   1.555   0.282   0.689 -1.1650 -0.5996  1.6990
 1798SOL     OW16852   2.458   0.157   8.542 -0.1328 -0.4042  0.4539
 1798SOL    HW116853   2.406   0.076   8.540  0.5392 -0.7089 -3.0373
 1798SOL    HW216854   2.531   0.147   8.481 -1.1068 -1.5093 -0.5296
 1799SOL     OW16855   2.168   4.224   7.673 -0.6411 -0.1492  0.0003
 1799SOL    HW116856   2.093   4.175   7.638 -0.2469  0.0331 -1.0874
 1799SOL    HW216857   2.236   4.199   7.611 -0.5622 -0.1964  0.1049
 1800SOL     OW16858   1.358   3.818   4.124 -0.0539 -0.1427  0.2112
 1800SOL    HW116859   1.449   3.814   4.095  0.2480 -1.4439  1.3317
 1800SOL    HW216860   1.312   3.841   4.044 -0.9193 -1.1002  0.4307
 1801SOL     OW16861   0.952   2.304   3.211  0.3427  0.3312  0.4192
 1801SOL    HW116862   0.949   2.333   3.302 -3.8195  0.2264  0.3333
 1801SOL    HW216863   0.860   2.313   3.186  0.3562 -1.4658 -0.2396
 1802SOL     OW16864   4.582   2.135  11.669 -0.2362 -0.0625  0.0546
 1802SOL    HW116865   4.499   2.132  11.623 -0.9562 -0.0309  1.3528
 1802SOL    HW216866   4.557   2.186  11.746  1.1409  1.5455 -0.5523
 1803SOL     OW16867   2.892   1.612   3.438  0.3730  0.6341 -0.2119
 1803SOL    HW116868   2.829   1.619   3.367  0.7043 -1.0019 -0.6536
 1803SOL    HW216869   2.941   1.695   3.436  2.1128 -0.3028  2.9254
 1804SOL     OW16870   4.368   0.951   9.800 -0.8817 -0.3399 -0.0151
 1804SOL    HW116871   4.402   0.914   9.718  1.3009  0.3366  0.5888
 1804SOL    HW216872   4.285   0.982   9.765 -0.7094  1.7218  1.3869
 1805SOL     OW16873   0.917   3.022   5.321 -0.1006 -0.7312 -0.1280
 1805SOL    HW116874   0.970   3.058   5.250 -2.1541  1.9009 -0.3633
 1805SOL    HW216875   0.984   2.978   5.372  0.2289  0.2685  0.3031
 1806SOL     OW16876   0.535   1.376   6.609  0.8977  0.1837  0.0632
 1806SOL    HW116877   0.536   1.389   6.515  1.9319  1.8440  0.3185
 1806SOL    HW216878   0.444   1.395   6.632  0.2049 -0.1434 -2.4310
 1807SOL     OW16879   0.104   3.676   4.860 -0.0685 -0.0731 -0.3524
 1807SOL    HW116880   0.122   3.589   4.895 -0.2152 -0.1514 -0.4698
 1807SOL    HW216881   0.108   3.719   4.946  0.8784 -0.4483 -0.2084
 1808SOL     OW16882   2.614   2.316   7.589  0.1145 -0.3489  0.2689
 1808SOL    HW116883   2.594   2.408   7.571  0.2979  0.2749  3.2325
 1808SOL    HW216884   2.565   2.306   7.670 -0.5994  3.1331  0.2848
 1809SOL     OW16885   3.368   3.388  16.213 -0.3880 -0.2728 -0.2701
 1809SOL    HW116886   3.325   3.423  16.135 -1.8601  1.1384  1.1507
 1809SOL    HW216887   3.296   3.413  16.272  0.4188 -0.1950  0.6722
 1810SOL     OW16888   3.577   1.551   5.813 -0.1921  0.3339  0.1324
 1810SOL    HW116889   3.636   1.487   5.853  0.3465 -0.3756 -1.7743
 1810SOL    HW216890   3.637   1.625   5.801 -0.7990  0.8024  0.0061
 1811SOL     OW16891   1.857   2.021   8.341 -0.2060  0.2317  0.1774
 1811SOL    HW116892   1.865   2.039   8.434  0.1245 -1.0055  0.3901
 1811SOL    HW216893   1.853   1.925   8.345  0.2619  0.2304  0.6008
 1812SOL     OW16894   1.655   4.411  12.522  0.0965  0.1059  0.0296
 1812SOL    HW116895   1.628   4.462  12.598 -0.4012  1.2193 -0.8820
 1812SOL    HW216896   1.712   4.349  12.566  0.0215  0.3978  0.5385
 1813SOL     OW16897   4.484   3.735   7.592  0.4559 -0.4505  0.3055
 1813SOL    HW116898   4.437   3.685   7.660  0.1029 -3.1115 -1.8860
 1813SOL    HW216899   4.468   3.672   7.521 -0.2539  0.6689 -0.5413
 1814SOL     OW16900   2.638   2.888  10.006  0.4096 -0.1428 -0.4615
 1814SOL    HW116901   2.641   2.795  10.031  2.6277 -0.0843 -0.4861
 1814SOL    HW216902   2.639   2.925  10.094  1.0138  0.5128 -0.7453
 1815SOL     OW16903   0.337   3.078  12.596  0.9802  0.2983  0.6806
 1815SOL    HW116904   0.281   3.051  12.669 -4.0132  3.3826 -1.9478
 1815SOL    HW216905   0.282   3.141  12.549  0.7739 -0.3647  0.0204
 1816SOL     OW16906   2.439   1.521   4.625  0.3513 -0.1110  0.3517
 1816SOL    HW116907   2.534   1.532   4.621  0.0043  3.1343  1.1411
 1816SOL    HW216908   2.429   1.433   4.589  2.3235 -0.2826  0.2569
 1817SOL     OW16909   2.448   1.951   1.983  0.1182 -0.0322 -0.2765
 1817SOL    HW116910   2.441   1.973   2.076  1.0580 -0.3119 -0.1403
 1817SOL    HW216911   2.508   1.877   1.996 -0.0175 -0.0175  0.4502
 1818SOL     OW16912   1.619   2.260   6.097 -0.0717  0.1099 -0.0035
 1818SOL    HW116913   1.673   2.232   6.023  0.7646  3.1317 -0.5321
 1818SOL    HW216914   1.561   2.322   6.052 -0.1074  1.3854  1.8331
 1819SOL     OW16915   0.392   3.048  11.551 -0.7882  0.3192 -0.1991
 1819SOL    HW116916   0.404   3.134  11.592  4.3109 -0.6125  0.3651
 1819SOL    HW216917   0.352   3.076  11.469 -0.9117 -1.5518 -0.7754
 1820SOL     OW16918   0.334   4.615   6.040  0.4314  0.1464 -0.0117
 1820SOL    HW116919   0.417   4.656   6.017  0.0021  1.0160  0.0180
 1820SOL    HW216920   0.321   4.662   6.122 -2.7776 -2.9833  1.2770
 1821SOL     OW16921   2.057   3.748   5.323  0.5672 -0.0172 -0.5971
 1821SOL    HW116922   2.141   3.743   5.276 -0.1074  3.3463 -2.1720
 1821SOL    HW216923   2.018   3.661   5.333  2.0676 -0.5668  0.4560
 1822SOL     OW16924   3.105   1.304   5.545 -0.1611 -0.3742  0.4912
 1822SOL    HW116925   3.091   1.365   5.618  2.3808 -0.0285  0.6885
 1822SOL    HW216926   3.024   1.302   5.494  0.4378 -0.5533 -0.4498
 1823SOL     OW16927   3.820   3.268  16.023 -0.4889  0.0235 -0.0923
 1823SOL    HW116928   3.899   3.254  16.076  0.9501 -0.5353 -2.3700
 1823SOL    HW216929   3.752   3.248  16.087 -1.7396 -1.9287 -2.0175
 1824SOL     OW16930   0.399   2.747  11.328  0.2781 -0.6299 -0.5184
 1824SOL    HW116931   0.464   2.816  11.314  0.0792  0.0084  1.7323
 1824SOL    HW216932   0.345   2.768  11.404  1.1953 -0.5707  0.1246
 1825SOL     OW16933   4.124   0.932   3.319 -0.2299 -0.2353 -0.0734
 1825SOL    HW116934   4.081   0.869   3.376 -1.5517  1.1221  0.4434
 1825SOL    HW216935   4.204   0.889   3.289  0.5318  2.2110 -1.5589
 1826SOL     OW16936   2.171   1.472  15.941 -0.8048 -0.3319 -0.3117
 1826SOL    HW116937   2.164   1.563  15.914 -0.9815 -0.2882 -0.1210
 1826SOL    HW216938   2.128   1.464  16.026  2.3555 -1.1643  1.2054
 1827SOL     OW16939   2.406   3.283  17.301  0.1843  0.0739  0.3990
 1827SOL    HW116940   2.364   3.369  17.295  1.0257  0.4518 -0.1901
 1827SOL    HW216941   2.330   3.244  17.344 -2.2896  1.2888 -2.7611
 1828SOL     OW16942   0.758   4.310   6.446 -0.1592 -0.2820 -0.4212
 1828SOL    HW116943   0.709   4.392   6.451 -0.5969 -0.5087 -1.0501
 1828SOL    HW216944   0.752   4.293   6.352 -1.0021 -1.5519 -0.1450
 1829SOL     OW16945   4.242   3.985   5.130 -0.1996  0.0699 -0.5369
 1829SOL    HW116946   4.229   4.027   5.215 -0.5218 -0.1810 -0.4658
 1829SOL    HW216947   4.176   4.032   5.079 -1.3627 -0.5366  0.4124
 1830SOL     OW16948   2.225   1.218   7.918 -0.1496  0.2719 -0.8901
 1830SOL    HW116949   2.194   1.268   7.994 -1.0220 -1.6803  0.0098
 1830SOL    HW216950   2.148   1.177   7.880 -0.1563  0.6021 -1.2339
 1831SOL     OW16951   1.581   1.125   6.611 -0.0368 -0.6262 -0.6007
 1831SOL    HW116952   1.577   1.043   6.563 -1.4361  0.2879 -2.0175
 1831SOL    HW216953   1.666   1.119   6.656 -0.2204  1.8371  0.0742
 1832SOL     OW16954   1.769   3.981   7.250 -0.5764 -0.2105 -0.4151
 1832SOL    HW116955   1.712   3.973   7.326 -0.6999 -0.8770 -0.5823
 1832SOL    HW216956   1.852   3.946   7.280 -0.5805 -0.2786 -0.4835
 1833SOL     OW16957   4.627   2.064   9.870 -0.6277 -0.3265  0.0815
 1833SOL    HW116958   4.690   2.117   9.821  0.2810  1.6932  3.4614
 1833SOL    HW216959   4.625   1.986   9.814 -1.0732  1.3430 -2.2648
 1834SOL     OW16960   1.479   1.975   5.185  0.6513  0.4892 -0.0136
 1834SOL    HW116961   1.428   1.929   5.252  0.2333 -0.4169 -0.9479
 1834SOL    HW216962   1.531   1.905   5.146  1.0254  1.0847 -0.5906
 1835SOL     OW16963   4.363   2.864   6.156 -0.0027  0.2787  0.2132
 1835SOL    HW116964   4.426   2.934   6.175  1.2597 -0.7952 -0.0813
 1835SOL    HW216965   4.312   2.872   6.237  0.2986 -0.8812  0.5161
 1836SOL     OW16966   1.124   0.337   6.122  0.7614  0.0890 -0.3338
 1836SOL    HW116967   1.064   0.288   6.179  2.6608 -1.9409 -0.0436
 1836SOL    HW216968   1.178   0.362   6.197  3.5676 -0.0690 -2.2793
 1837SOL     OW16969   0.656   3.040   7.581  0.0263  0.8235 -0.1698
 1837SOL    HW116970   0.727   3.059   7.642  0.0953 -3.4775  1.1432
 1837SOL    HW216971   0.694   3.071   7.499  2.3880  0.8770  0.9744
 1838SOL     OW16972   3.550   2.189   2.256  0.4544  0.4538  0.2445
 1838SOL    HW116973   3.457   2.193   2.235  0.6705 -1.3745 -1.1001
 1838SOL    HW216974   3.554   2.207   2.349  0.3381  0.9836  0.1426
 1839SOL     OW16975   1.844   3.194   2.348 -0.8331 -0.2196 -0.5261
 1839SOL    HW116976   1.848   3.208   2.443 -1.3463  2.4230 -0.8814
 1839SOL    HW216977   1.768   3.249   2.328  0.0898  2.1163  2.3744
 1840SOL     OW16978   4.501   1.630  10.114  0.2706 -0.1321 -0.3850
 1840SOL    HW116979   4.433   1.677  10.164  0.3741 -0.4469  0.0568
 1840SOL    HW216980   4.523   1.568  10.183  1.1189  1.0224  0.3832
 1841SOL     OW16981   0.830   3.504   6.473  0.1777 -0.2279  0.5358
 1841SOL    HW116982   0.856   3.594   6.492 -0.8518 -0.5544  3.4957
 1841SOL    HW216983   0.737   3.520   6.458  0.3443 -1.6890 -2.0580
 1842SOL     OW16984   1.894   4.138   5.478 -0.1304  0.5213  0.1378
 1842SOL    HW116985   1.843   4.162   5.400 -1.8825 -2.3367  0.3754
 1842SOL    HW216986   1.971   4.194   5.473 -0.1991  0.3133 -3.1779
 1843SOL     OW16987   0.435   1.924   0.948 -0.1314 -0.2238 -0.2961
 1843SOL    HW116988   0.449   1.836   0.912 -2.6485 -0.0410 -1.7350
 1843SOL    HW216989   0.366   1.960   0.892 -0.2902  0.3103  0.2509
 1844SOL     OW16990   3.997   2.708  14.795  0.1159  0.1579 -0.1796
 1844SOL    HW116991   3.908   2.742  14.788  0.1770  0.1514 -0.9974
 1844SOL    HW216992   4.027   2.762  14.868 -0.2551  1.1551 -0.7709
 1845SOL     OW16993   2.241   1.021   8.158 -0.7383 -0.5340 -0.2224
 1845SOL    HW116994   2.225   1.116   8.156 -0.7312 -0.4928  1.8438
 1845SOL    HW216995   2.335   1.026   8.146 -1.1683  1.3593 -2.7451
 1846SOL     OW16996   3.355   3.795  12.620 -0.1352 -0.2047  0.4747
 1846SOL    HW116997   3.430   3.819  12.565  1.0433  0.6577  2.4395
 1846SOL    HW216998   3.341   3.710  12.578 -0.0438  0.3465 -0.6654
 1847SOL     OW16999   2.849   0.289  14.097 -0.3494 -0.1442 -0.4638
 1847SOL    HW117000   2.812   0.289  14.009  0.6201 -1.6112 -0.8826
 1847SOL    HW217001   2.781   0.250  14.152 -0.1811 -0.8920 -0.7832
 1848SOL     OW17002   0.550   1.393   0.844 -0.5912  0.3432 -0.2300
 1848SOL    HW117003   0.577   1.425   0.930  1.6974  0.9901 -1.1857
 1848SOL    HW217004   0.626   1.343   0.814 -1.5263  0.3217 -2.6013
 1849SOL     OW17005   1.323   4.271   2.645  0.6502  0.1315  0.3183
 1849SOL    HW117006   1.291   4.357   2.619  3.4561 -0.0287 -3.7452
 1849SOL    HW217007   1.264   4.204   2.610 -0.2118  0.6733  0.7618
 1850SOL     OW17008   2.911   0.051   7.537 -0.3357  0.1619  0.4811
 1850SOL    HW117009   2.858   0.054   7.616 -2.2851  1.5952 -0.8970
 1850SOL    HW217010   2.927   4.677   7.533  1.2517  0.4618 -0.2599
 1851SOL     OW17011   4.184   2.861   6.404 -0.0525  0.1624  0.9130
 1851SOL    HW117012   4.137   2.883   6.484  0.4206 -2.9852  2.0618
 1851SOL    HW217013   4.237   2.786   6.432  0.7803  1.8896  3.9622
 1852SOL     OW17014   3.057   2.425   9.928  0.0716 -0.2140 -0.1578
 1852SOL    HW117015   3.140   2.457   9.892  0.1711 -1.3264 -0.9196
 1852SOL    HW217016   2.999   2.488   9.886 -0.8242 -1.3275 -0.5984
 1853SOL     OW17017   4.195   2.125   0.670 -0.7289  0.5086  0.5805
 1853SOL    HW117018   4.218   2.169   0.588 -1.4790  2.1811  1.2853
 1853SOL    HW217019   4.099   2.126   0.671 -0.7311 -0.6555  1.3124
 1854SOL     OW17020   4.532   2.786   0.519 -0.0229 -0.1815  0.3891
 1854SOL    HW117021   4.511   2.871   0.557  1.7333  0.1256  0.6939
 1854SOL    HW217022   4.578   2.815   0.441  2.0002 -1.4160  1.1152
 1855SOL     OW17023   4.558   2.360  10.756  0.4727 -0.3067  0.1163
 1855SOL    HW117024   4.573   2.455  10.759  1.5054 -0.5013  1.0695
 1855SOL    HW217025   4.574   2.344  10.849 -3.0747 -1.8420  0.4720
 1856SOL     OW17026   4.597   4.595   1.128 -0.7280 -0.2037 -0.2029
 1856SOL    HW117027   4.569   4.503   1.123  0.0567 -0.4321 -0.3738
 1856SOL    HW217028   4.607   4.622   1.037 -1.5402  1.9577  0.3590
 1857SOL     OW17029   1.089   4.627   3.808  0.1643  0.3349  0.1559
 1857SOL    HW117030   1.165   4.620   3.865  0.0198  1.1304  0.4345
 1857SOL    HW217031   1.069   4.533   3.797 -0.1063  0.1140  2.6287
 1858SOL     OW17032   3.372   2.070  12.378 -0.0833 -0.2258 -0.3584
 1858SOL    HW117033   3.349   2.003  12.443  0.2467 -0.1188 -0.1289
 1858SOL    HW217034   3.336   2.147  12.421  1.0713  0.6051 -0.8712
 1859SOL     OW17035   0.099   3.630  10.892 -0.0605 -0.2647  0.1271
 1859SOL    HW117036   0.078   3.588  10.809  0.7443 -2.9464  1.2408
 1859SOL    HW217037   0.096   3.725  10.882 -2.6421 -0.0520  2.8754
 1860SOL     OW17038   3.345   4.264   2.590  0.3331  0.4039  0.2290
 1860SOL    HW117039   3.260   4.305   2.573 -0.4537 -1.0498  0.5808
 1860SOL    HW217040   3.371   4.238   2.502 -0.5411 -0.0405  0.0963
 1861SOL     OW17041   3.007   0.766   7.854 -0.2369  0.1198 -0.1453
 1861SOL    HW117042   2.948   0.725   7.791 -1.7724 -0.0505  1.4075
 1861SOL    HW217043   2.988   0.860   7.845  0.1356  0.1331 -0.8509
 1862SOL     OW17044   3.859   3.995   4.782 -0.2481 -0.1424 -0.1574
 1862SOL    HW117045   3.778   4.040   4.810  1.3510  2.7903 -0.2374
 1862SOL    HW217046   3.845   3.996   4.687 -3.2963  0.1177  0.2914
 1863SOL     OW17047   1.147   3.329   5.767 -0.4805 -0.2510  0.2959
 1863SOL    HW117048   1.133   3.380   5.687 -0.3162  0.2520  0.5857
 1863SOL    HW217049   1.243   3.325   5.769 -0.4102  0.3038 -1.9636
 1864SOL     OW17050   2.373   3.210   5.070  0.5433  0.1305 -0.5053
 1864SOL    HW117051   2.279   3.206   5.051  0.3083  1.2130  0.4314
 1864SOL    HW217052   2.379   3.153   5.147  1.4655 -0.8962 -1.3471
 1865SOL     OW17053   2.861   4.185  12.035 -0.6046  0.4464  0.7800
 1865SOL    HW117054   2.892   4.124  12.102  0.5162  0.3549  0.1790
 1865SOL    HW217055   2.770   4.155  12.030 -0.1104 -0.6471 -1.5464
 1866SOL     OW17056   3.774   1.932  12.751  0.0827 -0.5808 -0.0559
 1866SOL    HW117057   3.726   2.013  12.732  2.3221  0.8010  0.0769
 1866SOL    HW217058   3.865   1.956  12.734  0.1078  0.4574  1.4833
 1867SOL     OW17059   2.577   3.920  16.656 -0.1116  0.5740 -0.0198
 1867SOL    HW117060   2.597   3.895  16.566  0.5819 -0.6497  0.4846
 1867SOL    HW217061   2.662   3.923  16.700 -0.5454  1.5367  0.7589
 1868SOL     OW17062   3.228   1.122   9.470 -0.2852  0.5208 -0.1915
 1868SOL    HW117063   3.278   1.055   9.516 -1.1034 -0.1713 -0.2935
 1868SOL    HW217064   3.307   1.168   9.442  0.8741 -1.8647 -0.8416
 1869SOL     OW17065   2.785   2.641  17.591 -0.2607  0.2460  0.3377
 1869SOL    HW117066   2.790   2.551  17.558 -1.1220  0.2385  0.2196
 1869SOL    HW217067   2.865   2.675  17.552  0.1935 -0.8428  0.3416
 1870SOL     OW17068   3.551   2.687   8.648 -0.2605  0.2147 -0.0245
 1870SOL    HW117069   3.598   2.659   8.569 -2.3434  0.2176 -1.2605
 1870SOL    HW217070   3.473   2.729   8.612 -0.4243  0.2519  0.3774
 1871SOL     OW17071   1.303   3.545   1.729 -0.3905  0.0379  0.3032
 1871SOL    HW117072   1.288   3.622   1.784  1.2355  0.2380  0.4786
 1871SOL    HW217073   1.379   3.505   1.771 -0.8567 -0.7715  0.3872
 1872SOL     OW17074   0.298   2.152   9.621  0.2876 -0.2612 -0.1560
 1872SOL    HW117075   0.382   2.178   9.659  1.0239 -1.9538 -0.6426
 1872SOL    HW217076   0.293   2.185   9.531  1.9142  1.5513  0.4089
 1873SOL     OW17077   0.664   2.681   2.625  0.4716 -0.5881  0.2573
 1873SOL    HW117078   0.682   2.650   2.713  0.4586 -2.4750 -0.4154
 1873SOL    HW217079   0.750   2.717   2.605 -0.1367  0.1919 -0.9896
 1874SOL     OW17080   1.023   3.578   6.201 -0.0832  0.8962  0.6509
 1874SOL    HW117081   1.027   3.651   6.263  0.7148  0.2718  1.3238
 1874SOL    HW217082   0.936   3.586   6.162  0.9206 -1.3959 -2.0216
 1875SOL     OW17083   4.281   0.769  11.190  0.3174 -0.2962  0.1282
 1875SOL    HW117084   4.270   0.675  11.174 -0.5326 -0.3233  0.8452
 1875SOL    HW217085   4.265   0.766  11.285 -0.5249 -2.4140 -0.0632
 1876SOL     OW17086   2.258   3.884   2.098  0.2034 -0.1895  0.4470
 1876SOL    HW117087   2.191   3.824   2.065  0.4371 -0.1667 -0.0705
 1876SOL    HW217088   2.206   3.963   2.110 -0.0801 -0.3546  0.3109
 1877SOL     OW17089   3.092   3.571   2.430  0.1021 -0.0230 -0.0033
 1877SOL    HW117090   3.116   3.655   2.470 -1.6921  0.1657  0.6930
 1877SOL    HW217091   3.081   3.603   2.340 -2.9054  0.0532  0.3974
 1878SOL     OW17092   2.564   3.323  11.910 -0.0012  0.4307 -0.1698
 1878SOL    HW117093   2.597   3.355  11.826  0.6974  0.0819 -0.0236
 1878SOL    HW217094   2.505   3.249  11.895  0.0672  0.2245  0.6007
 1879SOL     OW17095   0.711   2.096   6.530  0.6680 -0.6526 -0.2325
 1879SOL    HW117096   0.617   2.097   6.545  0.6375 -2.1030 -0.3268
 1879SOL    HW217097   0.714   2.089   6.434 -0.1315 -0.5129 -0.2650
 1880SOL     OW17098   3.963   1.990  10.554  0.2459 -0.0802  0.5553
 1880SOL    HW117099   3.917   2.059  10.601 -0.2859  1.9390 -2.9775
 1880SOL    HW217100   3.953   1.910  10.606  0.9314  0.3848  1.4008
 1881SOL     OW17101   2.620   3.721   1.135 -0.1542 -0.3376  0.6290
 1881SOL    HW117102   2.583   3.770   1.208  0.4100  1.0100  0.0172
 1881SOL    HW217103   2.680   3.666   1.186 -0.1933 -0.3487  0.6630
 1882SOL     OW17104   3.310   2.163   2.441 -0.7620 -0.2845  0.5640
 1882SOL    HW117105   3.363   2.155   2.520 -1.2968  2.8743  1.2414
 1882SOL    HW217106   3.285   2.077   2.408 -0.6626  0.2401 -0.8866
 1883SOL     OW17107   1.459   3.722  12.237 -0.0540 -0.4490 -0.1170
 1883SOL    HW117108   1.525   3.778  12.195  1.5253 -1.6531  0.7342
 1883SOL    HW217109   1.392   3.788  12.250  0.2857  0.0956 -1.1253
 1884SOL     OW17110   0.228   1.409   7.513 -0.7924 -0.0398  0.3248
 1884SOL    HW117111   0.149   1.402   7.460  1.0839 -1.4066 -2.2813
 1884SOL    HW217112   0.293   1.421   7.444  0.9242 -1.9179  1.6053
 1885SOL     OW17113   1.074   4.295   7.096  0.0364 -0.1416 -0.3411
 1885SOL    HW117114   1.140   4.326   7.158  2.2712 -0.7537 -2.3993
 1885SOL    HW217115   1.042   4.381   7.070 -0.8220 -0.7768 -1.3888
 1886SOL     OW17116   0.733   0.756  12.993 -0.1777 -0.1047  0.2390
 1886SOL    HW117117   0.706   0.846  12.980  2.0045  0.1190 -2.7447
 1886SOL    HW217118   0.812   0.765  12.940 -0.0424 -0.2290  0.4173
 1887SOL     OW17119   4.660   3.631  15.187  0.0534 -0.3259 -0.2690
 1887SOL    HW117120   0.032   3.612  15.174 -0.2034 -2.0673  0.4227
 1887SOL    HW217121   4.661   3.727  15.189  2.6268 -0.3341 -0.7456
 1888SOL     OW17122   4.429   0.871   5.681 -0.3729  0.0058  0.3087
 1888SOL    HW117123   4.447   0.937   5.614  0.3727  0.3918  0.9004
 1888SOL    HW217124   4.343   0.897   5.715  0.4075 -0.0877  2.3479
 1889SOL     OW17125   0.060   3.782   5.095  0.0184 -0.0321 -0.1292
 1889SOL    HW117126   0.031   3.862   5.050  0.9615  0.3678 -0.0229
 1889SOL    HW217127   0.116   3.811   5.166 -0.7244  1.8213 -0.3011
 1890SOL     OW17128   1.560   4.067   5.553  0.1911  0.4034  0.0277
 1890SOL    HW117129   1.592   4.057   5.463 -1.3615 -0.5407 -0.4166
 1890SOL    HW217130   1.467   4.082   5.535  0.3548  0.4221 -0.8025
 1891SOL     OW17131   1.951   1.992   1.891  0.4403 -0.2650  0.9714
 1891SOL    HW117132   2.031   1.950   1.861  0.7602  0.8495  0.2823
 1891SOL    HW217133   1.966   2.085   1.902 -0.4548  0.2058 -1.7243
 1892SOL     OW17134   2.741   2.087   2.611  0.3089  0.2829 -0.1489
 1892SOL    HW117135   2.774   2.080   2.521  1.4153 -0.4302  0.3165
 1892SOL    HW217136   2.672   2.020   2.610  0.9101 -0.3481  0.5223
 1893SOL     OW17137   4.056   4.280   6.565 -0.1799 -0.8246  0.2268
 1893SOL    HW117138   4.018   4.368   6.570  1.2847 -0.2321  0.9328
 1893SOL    HW217139   4.040   4.246   6.654  0.5300  0.8973  0.9980
 1894SOL     OW17140   3.506   1.585  14.184 -0.5667 -0.0827  0.3298
 1894SOL    HW117141   3.574   1.520  14.201 -0.2569  0.4121  0.9879
 1894SOL    HW217142   3.441   1.568  14.252  2.0736 -2.2339  2.2947
 1895SOL     OW17143   3.661   2.078   8.102  0.0520  0.2898  0.0030
 1895SOL    HW117144   3.615   2.045   8.178 -1.9150  0.1751 -1.2310
 1895SOL    HW217145   3.740   2.117   8.139  0.9804 -1.0452 -0.5786
 1896SOL     OW17146   3.951   4.041   5.260 -0.4620  0.5499  0.0236
 1896SOL    HW117147   3.980   4.128   5.286  1.3768  0.3059 -1.1815
 1896SOL    HW217148   3.963   4.052   5.166 -1.4682 -3.1683 -0.5679
 1897SOL     OW17149   0.132   2.229   8.513 -0.1745  0.0853 -0.2631
 1897SOL    HW117150   0.047   2.200   8.480 -0.3395  0.9379 -0.5749
 1897SOL    HW217151   0.118   2.248   8.605  1.2348  0.4508 -0.1230
 1898SOL     OW17152   0.489   2.273   5.206 -0.4320 -0.0984  0.4412
 1898SOL    HW117153   0.416   2.257   5.146 -0.2562 -0.3144  0.2823
 1898SOL    HW217154   0.499   2.366   5.190 -1.8926 -0.2214 -1.1492
 1899SOL     OW17155   0.401   4.126   5.587  0.3253 -0.2377 -0.4591
 1899SOL    HW117156   0.439   4.214   5.589  1.4698 -0.7152 -1.0750
 1899SOL    HW217157   0.471   4.080   5.540 -0.1184 -0.8422 -0.5307
 1900SOL     OW17158   1.012   4.648   4.392  0.2328 -0.1126 -0.3938
 1900SOL    HW117159   1.026   4.660   4.298  0.1376  0.6936 -0.3129
 1900SOL    HW217160   1.007   4.554   4.404  0.3132  0.0300  0.7558
 1901SOL     OW17161   3.415   2.311   6.656 -0.8892 -0.1234  0.0664
 1901SOL    HW117162   3.436   2.397   6.622 -2.0711  0.6627  1.3350
 1901SOL    HW217163   3.330   2.293   6.617 -1.1438 -0.2995  0.7049
 1902SOL     OW17164   1.146   2.780   7.871  0.3776  0.9247 -0.1460
 1902SOL    HW117165   1.181   2.726   7.942 -0.0102  1.5535  0.5268
 1902SOL    HW217166   1.169   2.729   7.793  0.3014 -0.4217  0.7184
 1903SOL     OW17167   2.560   2.482   1.653 -0.0732  0.2213  0.0850
 1903SOL    HW117168   2.527   2.439   1.732  1.9643  0.7678  1.2443
 1903SOL    HW217169   2.620   2.547   1.689 -0.8294  0.7273  0.4403
 1904SOL     OW17170   1.187   4.289   8.612 -0.0720  0.4513 -0.7706
 1904SOL    HW117171   1.164   4.356   8.677 -0.8784  0.1326 -0.7284
 1904SOL    HW217172   1.216   4.348   8.542 -0.5651 -0.8359 -2.0535
 1905SOL     OW17173   1.522   1.658   2.954 -0.3813  0.5491 -0.0174
 1905SOL    HW117174   1.451   1.649   2.890 -1.3190 -1.6520  1.3249
 1905SOL    HW217175   1.581   1.593   2.915 -0.0775  0.0361  1.3126
 1906SOL     OW17176   2.744   4.003  10.749 -0.2748 -0.1212 -0.4327
 1906SOL    HW117177   2.780   3.975  10.833  0.8728  0.5793 -0.6869
 1906SOL    HW217178   2.693   4.083  10.765 -2.1803 -1.1774 -1.2138
 1907SOL     OW17179   2.833   4.205  12.391 -1.2326  1.0365 -0.2800
 1907SOL    HW117180   2.778   4.152  12.448  0.4384 -2.0502 -1.5460
 1907SOL    HW217181   2.890   4.138  12.352  0.8126  2.5029  0.1936
 1908SOL     OW17182   0.217   4.192   6.777  0.0247  0.1652  0.2981
 1908SOL    HW117183   0.194   4.115   6.830 -1.2866  0.0217 -0.4805
 1908SOL    HW217184   0.309   4.208   6.798  0.5404 -2.2139 -0.1142
 1909SOL     OW17185   0.896   2.883   2.587 -0.1377  0.3650  0.1435
 1909SOL    HW117186   0.925   2.883   2.495 -0.0127  0.5624  0.1832
 1909SOL    HW217187   0.952   2.812   2.621  1.5852  1.2342 -0.8685
 1910SOL     OW17188   3.012   1.730  11.876 -0.3041 -0.2450 -0.0280
 1910SOL    HW117189   2.961   1.659  11.917  2.1555 -2.0167 -0.0302
 1910SOL    HW217190   3.076   1.736  11.946  0.0612  2.0981 -0.5872
 1911SOL     OW17191   1.210   4.092   7.388  0.1384 -0.4956  0.0338
 1911SOL    HW117192   1.301   4.088   7.360  0.0925 -0.4410 -0.1266
 1911SOL    HW217193   1.191   4.184   7.368 -1.0207 -0.6863  0.2705
 1912SOL     OW17194   3.680   1.227   7.070  0.6830 -0.2843  0.2022
 1912SOL    HW117195   3.637   1.158   7.020 -0.3384 -0.2556  1.0304
 1912SOL    HW217196   3.612   1.233   7.137 -1.4221 -1.4043 -1.8282
 1913SOL     OW17197   4.650   2.876   0.297 -0.2396  0.2472 -0.0011
 1913SOL    HW117198   4.624   2.803   0.242  2.1318 -0.4530 -0.2214
 1913SOL    HW217199   4.600   2.948   0.259 -1.9928 -1.8454 -1.6390
 1914SOL     OW17200   3.645   1.461   4.953  0.4606 -0.4176 -0.2031
 1914SOL    HW117201   3.683   1.454   5.040  0.8575 -1.4542 -0.4609
 1914SOL    HW217202   3.720   1.476   4.895  0.8778  0.0150  0.4561
 1915SOL     OW17203   2.520   2.099   6.786 -0.5498 -0.0793  0.2004
 1915SOL    HW117204   2.563   2.037   6.845  1.3493 -0.6444 -1.7664
 1915SOL    HW217205   2.522   2.176   6.842 -1.1459  0.7028 -0.8604
 1916SOL     OW17206   3.992   1.723   5.427  0.3192  0.1009 -0.0110
 1916SOL    HW117207   4.035   1.645   5.393  1.8481  0.7850  0.3226
 1916SOL    HW217208   3.901   1.696   5.423 -0.2687  1.8280  1.7043
 1917SOL     OW17209   1.918   2.340   4.761  0.1416  0.0699  0.1557
 1917SOL    HW117210   1.920   2.279   4.687  0.0018 -0.1616  0.3446
 1917SOL    HW217211   1.828   2.373   4.763 -0.4380 -1.4554 -0.9242
 1918SOL     OW17212   0.783   3.212  10.715 -0.3503 -0.0354  0.0382
 1918SOL    HW117213   0.806   3.147  10.649  0.2864  1.0244 -0.7850
 1918SOL    HW217214   0.721   3.159  10.764  0.6468 -0.4717  0.8369
 1919SOL     OW17215   2.341   4.313  11.076 -0.2731  0.4070 -0.1378
 1919SOL    HW117216   2.353   4.303  10.982 -3.3386 -1.1670 -0.3668
 1919SOL    HW217217   2.423   4.356  11.102  0.7785 -1.7819  0.1480
 1920SOL     OW17218   2.607   2.849  12.777  0.5213 -0.1901 -0.1650
 1920SOL    HW117219   2.602   2.847  12.873 -1.6940 -1.3447 -0.3150
 1920SOL    HW217220   2.576   2.760  12.759  0.9484 -0.3904  0.0741
 1921SOL     OW17221   3.621   0.634   2.711  0.5071  0.2115  0.1196
 1921SOL    HW117222   3.533   0.664   2.689 -0.1508 -0.0997  2.3665
 1921SOL    HW217223   3.669   0.685   2.645  0.6849 -0.8427 -0.5714
 1922SOL     OW17224   4.650   1.010   1.183  1.0653  0.2750 -0.7439
 1922SOL    HW117225   4.556   1.026   1.188  0.7391 -1.7760 -0.1790
 1922SOL    HW217226   4.675   1.102   1.190  0.2820  0.2811  2.1500
 1923SOL     OW17227   2.343   3.558   3.930 -0.0006  0.2863 -0.0583
 1923SOL    HW117228   2.369   3.473   3.895  3.6796  0.6950  1.6582
 1923SOL    HW217229   2.343   3.538   4.024 -0.8730  1.6331  0.2310
 1924SOL     OW17230   1.617   3.398   4.979 -0.5848  0.0454 -0.6670
 1924SOL    HW117231   1.614   3.375   5.071  2.5080 -2.4886 -1.2064
 1924SOL    HW217232   1.635   3.492   4.987  0.8608 -0.2804 -0.0475
 1925SOL     OW17233   1.155   2.300   2.285  0.0696  0.2149  0.0895
 1925SOL    HW117234   1.121   2.214   2.307  1.7005 -0.3806  0.3214
 1925SOL    HW217235   1.081   2.353   2.314  0.0851  0.8182 -0.9391
 1926SOL     OW17236   2.839   2.351  11.435 -0.0942 -0.0888 -0.0298
 1926SOL    HW117237   2.803   2.417  11.376  3.0366  1.4849 -0.2031
 1926SOL    HW217238   2.909   2.314  11.380  2.1102  2.2885  1.1960
 1927SOL     OW17239   0.508   3.626   4.515  0.0069 -0.0381  0.6191
 1927SOL    HW117240   0.494   3.532   4.506 -0.9812  0.5475 -3.5696
 1927SOL    HW217241   0.452   3.646   4.590 -0.6621 -0.3946  0.2101
 1928SOL     OW17242   3.137   1.670   7.403 -0.3339  0.1490 -0.5942
 1928SOL    HW117243   3.177   1.586   7.380 -0.6423 -0.2310  0.2713
 1928SOL    HW217244   3.219   1.710   7.433 -1.0726  1.4697 -0.3505
 1929SOL     OW17245   2.418   2.056   5.908 -0.4786 -0.8126 -0.0565
 1929SOL    HW117246   2.344   2.088   5.855 -0.3315 -0.7370 -0.2141
 1929SOL    HW217247   2.486   2.109   5.867 -1.6803  1.2573  0.6113
 1930SOL     OW17248   0.521   3.911   6.477 -0.2528 -0.5028  0.0655
 1930SOL    HW117249   0.542   3.981   6.415 -0.4109  0.2948  0.9071
 1930SOL    HW217250   0.430   3.895   6.453 -1.0717  1.5572  1.7027
 1931SOL     OW17251   2.251   2.959   2.308  0.5828  0.1702 -0.4742
 1931SOL    HW117252   2.326   2.947   2.368  0.5435 -0.9870 -0.6436
 1931SOL    HW217253   2.222   3.046   2.334 -0.0869  0.1175 -1.0727
 1932SOL     OW17254   1.832   2.655   8.915  0.2253  0.4532  0.0393
 1932SOL    HW117255   1.767   2.678   8.848  0.3378  0.5798 -0.0275
 1932SOL    HW217256   1.887   2.591   8.869 -1.1529 -1.6892  1.3934
 1933SOL     OW17257   4.655   1.644   1.535  0.1620  0.1306 -0.6338
 1933SOL    HW117258   4.627   1.732   1.510 -2.0356 -0.0616  1.1825
 1933SOL    HW217259   4.570   1.600   1.537  0.3353 -0.2451 -1.5940
 1934SOL     OW17260   3.675   2.024   1.780 -0.1362 -0.3352 -0.3128
 1934SOL    HW117261   3.636   2.088   1.839 -0.2046 -2.3001  1.7934
 1934SOL    HW217262   3.768   2.023   1.801 -0.0639  0.6950 -0.5667
 1935SOL     OW17263   2.443   2.119   1.761 -0.0009 -0.3046  0.1141
 1935SOL    HW117264   2.464   2.047   1.820  1.7231 -0.9956 -1.3549
 1935SOL    HW217265   2.504   2.098   1.690  0.4154 -0.5850  0.5517
 1936SOL     OW17266   1.978   3.421   7.762  0.0125 -0.0151 -0.2629
 1936SOL    HW117267   1.913   3.463   7.818 -0.0909 -0.1081 -0.3158
 1936SOL    HW217268   2.063   3.429   7.806 -0.8497 -0.0749  1.3842
 1937SOL     OW17269   3.935   1.423  13.164  0.2141  0.2857 -0.0994
 1937SOL    HW117270   3.979   1.357  13.218  1.2460  0.3500 -0.8675
 1937SOL    HW217271   3.843   1.427  13.190 -0.1469  0.4870 -1.4030
 1938SOL     OW17272   1.709   3.122  15.386 -0.6590  0.1586  0.5263
 1938SOL    HW117273   1.747   3.041  15.353 -0.5377 -0.1407  1.3908
 1938SOL    HW217274   1.783   3.173  15.354 -0.5122 -1.3935 -1.6274
 1939SOL     OW17275   3.197   1.942   3.981  0.3162  0.0610  0.1057
 1939SOL    HW117276   3.121   1.986   4.020 -0.1740 -2.6798  2.1934
 1939SOL    HW217277   3.167   1.934   3.891 -1.7205 -2.0168  0.9804
 1940SOL     OW17278   2.997   0.594  15.739 -0.1415 -0.3083  0.0714
 1940SOL    HW117279   2.928   0.530  15.721 -0.3291 -0.6146  1.8519
 1940SOL    HW217280   2.981   0.661  15.673  0.0498  1.4512  1.8344
 1941SOL     OW17281   1.049   2.375   2.956 -0.3252  0.4544 -0.5070
 1941SOL    HW117282   1.038   2.362   3.050  0.5734  2.4128 -0.1241
 1941SOL    HW217283   1.140   2.345   2.946 -0.4679  0.7206 -2.4997
 1942SOL     OW17284   1.541   4.291  12.303  1.5073 -0.5830  0.1139
 1942SOL    HW117285   1.446   4.278  12.302  0.9720  3.4131 -0.9158
 1942SOL    HW217286   1.561   4.350  12.375  2.6608 -2.6613  1.4863
 1943SOL     OW17287   2.211   0.397  17.548 -0.1589  0.1662 -0.1428
 1943SOL    HW117288   2.245   0.318  17.506  0.3840  0.9999 -1.2640
 1943SOL    HW217289   2.182   0.359  17.631  3.0869 -1.1672  0.4046
 1944SOL     OW17290   0.049   2.147  15.933 -0.3456 -0.3656 -0.6923
 1944SOL    HW117291   0.120   2.122  15.874  0.6655  2.1178 -0.5388
 1944SOL    HW217292   0.027   2.230  15.890  0.9647 -0.4794 -1.5653
 1945SOL     OW17293   2.946   4.495   7.552 -0.4020 -0.8442 -0.3983
 1945SOL    HW117294   2.910   4.406   7.547 -0.5465 -0.7474 -1.0216
 1945SOL    HW217295   2.992   4.488   7.636 -3.2569 -0.1673  1.2446
 1946SOL     OW17296   3.168   2.407   2.882 -0.1035  0.1639 -0.2072
 1946SOL    HW117297   3.163   2.491   2.927 -0.6524 -0.3307  0.6597
 1946SOL    HW217298   3.255   2.424   2.848 -0.3570 -1.2967 -1.5513
 1947SOL     OW17299   2.355   3.113  12.531  0.5178  0.3739  0.2305
 1947SOL    HW117300   2.419   3.150  12.592 -1.0635  0.6021  1.7170
 1947SOL    HW217301   2.285   3.169  12.561 -0.5800 -0.5113 -0.6792
 1948SOL     OW17302   1.622   0.102   6.845  0.0137  0.5435 -0.2246
 1948SOL    HW117303   1.583   0.166   6.905 -0.3007  0.9783 -0.8941
 1948SOL    HW217304   1.714   0.106   6.870  0.0413 -1.6212  0.0100
 1949SOL     OW17305   0.090   0.086   6.783  0.2599 -0.1132  0.5678
 1949SOL    HW117306   0.120   0.135   6.859 -0.4357  0.6713  0.3327
 1949SOL    HW217307   4.716   0.081   6.796 -0.0795 -0.2845 -2.0820
 1950SOL     OW17308   2.738   3.196   0.601  0.5140 -0.2830  0.0316
 1950SOL    HW117309   2.684   3.187   0.522 -0.9676  0.2571  0.9819
 1950SOL    HW217310   2.729   3.110   0.641  1.6520 -0.7556 -0.7395
 1951SOL     OW17311   0.731   0.165   3.331  0.4989  0.8848  0.0865
 1951SOL    HW117312   0.788   0.161   3.254 -0.8967  0.5607 -0.9309
 1951SOL    HW217313   0.801   0.170   3.396  0.3176 -0.6165  0.4028
 1952SOL     OW17314   1.464   1.809  12.656 -0.1453 -0.4338 -0.2812
 1952SOL    HW117315   1.403   1.751  12.702  0.9554 -1.1531  0.2780
 1952SOL    HW217316   1.484   1.755  12.580  1.1951 -0.7330  0.2869
 1953SOL     OW17317   3.305   4.605   0.263  0.5557 -0.0360 -0.5873
 1953SOL    HW117318   3.370   4.675   0.257 -0.0648  0.8326  3.0575
 1953SOL    HW217319   3.361   4.527   0.269  0.3386 -0.2284 -1.0751
 1954SOL     OW17320   3.100   0.585   7.285  0.2998  0.3643  0.1753
 1954SOL    HW117321   3.130   0.674   7.266  1.4488 -0.5064 -2.1417
 1954SOL    HW217322   3.112   0.547   7.198  0.2825  0.0573  0.3070
 1955SOL     OW17323   1.151   0.692   2.860  0.7256 -1.0335 -0.7200
 1955SOL    HW117324   1.070   0.649   2.833 -0.1216  2.4397 -3.7890
 1955SOL    HW217325   1.172   0.709   2.768 -1.1360  0.3003 -0.8929
 1956SOL     OW17326   4.586   2.378   3.705 -0.1210  0.2122  0.3193
 1956SOL    HW117327   4.622   2.370   3.617  0.2300  0.3748  0.4515
 1956SOL    HW217328   4.504   2.333   3.685  1.3378 -0.4795 -4.1299
 1957SOL     OW17329   3.568   2.552   3.042  0.3667 -0.3909 -0.0311
 1957SOL    HW117330   3.514   2.525   2.968 -0.3888 -0.4498  0.5284
 1957SOL    HW217331   3.541   2.640   3.068 -0.0970 -0.8123  0.9210
 1958SOL     OW17332   2.017   3.409   5.810  0.6377  0.3258 -1.1045
 1958SOL    HW117333   2.080   3.346   5.774  0.1903 -1.8171  1.8621
 1958SOL    HW217334   1.995   3.444   5.724 -1.2234  3.2627  0.5683
 1959SOL     OW17335   4.372   0.801   3.232  0.2634 -0.1348  0.1312
 1959SOL    HW117336   4.403   0.744   3.162 -3.5796  0.3860 -1.9737
 1959SOL    HW217337   4.402   0.887   3.204 -1.8546  1.0980  1.6004
 1960SOL     OW17338   0.207   3.234   3.010  0.0000 -0.3037  0.0114
 1960SOL    HW117339   0.127   3.270   2.972 -0.3256 -0.6430  0.3623
 1960SOL    HW217340   0.176   3.221   3.100 -0.4972 -2.2848 -0.4278
 1961SOL     OW17341   4.065   3.739   9.823 -0.2041 -0.2878  0.1387
 1961SOL    HW117342   4.093   3.828   9.801 -1.6721 -0.2817 -1.6522
 1961SOL    HW217343   4.143   3.715   9.872 -0.3107 -0.2276  0.3390
 1962SOL     OW17344   0.642   0.084   5.135  0.0712  0.0425  0.2453
 1962SOL    HW117345   0.716   0.119   5.085  1.1978 -1.1496  1.0658
 1962SOL    HW217346   0.691   0.007   5.165  0.4433  0.3764  0.4943
 1963SOL     OW17347   1.935   3.121  14.872  0.6792  0.2603  0.2464
 1963SOL    HW117348   1.905   3.190  14.813  3.5678  1.7705  0.5461
 1963SOL    HW217349   1.852   3.074  14.880 -0.1525  1.8146  0.7663
 1964SOL     OW17350   4.036   0.128  14.485  0.1369 -0.2560  0.6451
 1964SOL    HW117351   4.016   0.050  14.536  0.3287 -0.3080  0.6414
 1964SOL    HW217352   3.962   0.143  14.426  0.1496 -1.8363  0.2253
 1965SOL     OW17353   4.602   2.129   8.476 -0.9088 -0.9177 -0.2709
 1965SOL    HW117354   4.551   2.209   8.465  1.2611  0.5765  0.7242
 1965SOL    HW217355   4.533   2.064   8.493 -3.5026  1.1813 -2.6385
 1966SOL     OW17356   2.506   2.361   7.280  0.4771  0.3271  0.0155
 1966SOL    HW117357   2.451   2.431   7.315  0.7981  1.4242 -1.6987
 1966SOL    HW217358   2.478   2.283   7.329  0.5019  1.0013  1.1127
 1967SOL     OW17359   3.454   2.624   4.482  0.2414  0.0580  0.2777
 1967SOL    HW117360   3.480   2.639   4.391  0.1092  0.1352  0.2528
 1967SOL    HW217361   3.377   2.571   4.464  0.2419  0.2731 -0.3393
 1968SOL     OW17362   3.091   0.326  14.495  0.0467  0.2875 -0.3078
 1968SOL    HW117363   3.181   0.357  14.495  1.1390 -2.8201  1.6295
 1968SOL    HW217364   3.069   0.367  14.578  0.9148  1.0085 -0.4320
 1969SOL     OW17365   0.276   3.129   2.464 -0.1485  0.3936  0.3942
 1969SOL    HW117366   0.367   3.099   2.471 -0.9450 -2.2173 -0.3161
 1969SOL    HW217367   0.262   3.129   2.559 -1.9485  3.6853  0.1341
 1970SOL     OW17368   0.671   2.292  13.434  0.6396  0.1132 -0.2369
 1970SOL    HW117369   0.689   2.353  13.506  0.6613 -0.8250  0.5556
 1970SOL    HW217370   0.734   2.326  13.370  0.9122  1.1492  0.5729
 1971SOL     OW17371   0.793   0.879   4.333  0.1290 -0.2836 -0.0202
 1971SOL    HW117372   0.853   0.950   4.355 -0.7598  0.3882  0.2248
 1971SOL    HW217373   0.735   0.900   4.407 -1.4577 -0.1306 -1.2960
 1972SOL     OW17374   3.608   0.921   7.212  0.0891 -0.2435 -0.3197
 1972SOL    HW117375   3.635   0.918   7.120 -0.3964  2.2578 -0.5379
 1972SOL    HW217376   3.656   0.851   7.255  0.9214  0.2074 -0.5246
 1973SOL     OW17377   2.035   0.192   2.624 -0.5690 -0.2473 -0.1138
 1973SOL    HW117378   1.963   0.133   2.600  0.2745 -0.1032 -3.0435
 1973SOL    HW217379   1.998   0.279   2.637 -0.2913 -0.2889  0.9112
 1974SOL     OW17380   3.413   0.315   5.093 -0.0947 -0.0951  0.3324
 1974SOL    HW117381   3.334   0.360   5.122  0.4490  2.0907 -1.4856
 1974SOL    HW217382   3.369   0.231   5.081 -1.8913  0.9208 -0.1848
 1975SOL     OW17383   1.371   2.266   7.484  0.1391 -0.2443 -0.2041
 1975SOL    HW117384   1.456   2.308   7.469  0.0797  0.4068  1.2833
 1975SOL    HW217385   1.379   2.235   7.575 -0.4771  2.0040  0.6202
 1976SOL     OW17386   3.147   0.954   8.521 -0.2742  0.2606 -0.1567
 1976SOL    HW117387   3.143   0.919   8.610  0.2624 -2.2510 -1.0989
 1976SOL    HW217388   3.055   0.968   8.499  0.5470  1.8922 -2.4567
 1977SOL     OW17389   2.391   4.290   0.872 -0.4872 -0.3914  0.0258
 1977SOL    HW117390   2.320   4.284   0.807  0.2629  1.2072 -0.9326
 1977SOL    HW217391   2.357   4.359   0.929 -0.7375 -0.2514 -0.2921
 1978SOL     OW17392   1.767   3.665  17.584 -0.4657 -0.7869  0.4314
 1978SOL    HW117393   1.798   3.579  17.611  3.9223  0.9250  0.8935
 1978SOL    HW217394   1.737   3.639  17.497 -1.4358 -0.0587  0.5535
 1979SOL     OW17395   1.217   3.808   5.835 -0.5424  0.1625 -0.5604
 1979SOL    HW117396   1.272   3.790   5.759  0.3184 -0.6570  0.2582
 1979SOL    HW217397   1.283   3.809   5.904 -0.6365 -0.9327 -0.4608
 1980SOL     OW17398   0.160   3.040   6.701 -0.2700  0.2239  0.5401
 1980SOL    HW117399   0.166   3.020   6.794  0.6324  1.4294  0.7410
 1980SOL    HW217400   0.253   3.055   6.684  0.4676 -0.2615  4.2242
 1981SOL     OW17401   4.347   3.927   5.698  0.1992  0.0352  0.2005
 1981SOL    HW117402   4.334   3.910   5.605 -3.4766 -1.3439  0.9876
 1981SOL    HW217403   4.334   4.022   5.699  0.5205  0.0979 -1.2771
 1982SOL     OW17404   4.367   1.981   1.282 -0.1600  0.7682 -0.0112
 1982SOL    HW117405   4.335   2.023   1.203  0.9764  1.0158 -0.3430
 1982SOL    HW217406   4.444   1.931   1.257 -1.1802 -0.3869 -0.8299
 1983SOL     OW17407   1.964   2.219   2.253  0.0163  0.2474 -0.4266
 1983SOL    HW117408   1.902   2.158   2.291 -1.1241  3.1817  2.4290
 1983SOL    HW217409   1.903   2.290   2.230 -0.6220 -0.1303  0.0982
 1984SOL     OW17410   3.995   0.699   2.217 -0.4562 -0.1256 -0.2948
 1984SOL    HW117411   3.988   0.613   2.257 -0.6826  0.1764  0.3151
 1984SOL    HW217412   3.915   0.722   2.265 -1.1520  0.8854 -1.9547
 1985SOL     OW17413   3.247   2.802   2.661  0.0014 -0.3903  0.1004
 1985SOL    HW117414   3.301   2.881   2.652 -0.3198 -0.1173  0.5912
 1985SOL    HW217415   3.240   2.784   2.567 -0.8100 -1.2430  0.3342
 1986SOL     OW17416   3.950   4.362  12.687  0.3064 -0.3085  0.3076
 1986SOL    HW117417   3.936   4.336  12.596 -0.6909 -3.2967  1.3340
 1986SOL    HW217418   3.989   4.449  12.678  0.0262 -0.2698 -0.5800
 1987SOL     OW17419   3.570   2.595   3.809  0.3543 -0.4232  0.2698
 1987SOL    HW117420   3.487   2.553   3.789  1.6118 -2.6054 -0.4234
 1987SOL    HW217421   3.570   2.675   3.757 -2.1948 -1.6671 -1.6277
 1988SOL     OW17422   0.404   2.755   3.163 -0.3700 -0.2089 -0.2533
 1988SOL    HW117423   0.337   2.752   3.095 -0.4570  0.9252 -0.2245
 1988SOL    HW217424   0.398   2.849   3.184 -1.2273  0.2901 -2.7555
 1989SOL     OW17425   4.589   0.036   2.194  0.3146  0.2556  0.4650
 1989SOL    HW117426   4.514   0.093   2.179 -0.9612 -1.6692 -0.4762
 1989SOL    HW217427   4.650   0.093   2.242 -1.8811 -0.5564  4.2458
 1990SOL     OW17428   1.372   3.111   4.260  0.2643 -0.2634  0.4591
 1990SOL    HW117429   1.439   3.114   4.328  1.6234 -1.1207 -0.8207
 1990SOL    HW217430   1.331   3.198   4.259  0.0155 -0.3957 -0.7543
 1991SOL     OW17431   1.496   0.890   2.269 -0.2849  0.0396 -0.1577
 1991SOL    HW117432   1.560   0.961   2.273 -0.1683 -0.1934  2.5823
 1991SOL    HW217433   1.425   0.931   2.219  0.9919  1.7502 -0.5523
 1992SOL     OW17434   2.005   1.523   4.301  0.3170  0.7337 -0.1672
 1992SOL    HW117435   2.096   1.550   4.290  0.8828 -1.0831  0.0496
 1992SOL    HW217436   1.975   1.543   4.212 -0.5979  2.2259  0.4863
 1993SOL     OW17437   4.326   4.366   3.753 -0.6328  0.6737 -0.0725
 1993SOL    HW117438   4.332   4.270   3.752 -1.7639  0.5963  0.1734
 1993SOL    HW217439   4.340   4.381   3.660  1.1542 -0.6058 -0.0116
 1994SOL     OW17440   1.702   2.295   7.140 -1.2891  0.3505 -0.9367
 1994SOL    HW117441   1.653   2.339   7.071  1.2215  2.3786 -1.4220
 1994SOL    HW217442   1.631   2.247   7.183 -2.0312  0.3073 -2.2169
 1995SOL     OW17443   1.787   0.254   5.382 -0.5713 -0.0710  0.0848
 1995SOL    HW117444   1.725   0.239   5.311 -2.0459  1.7235  1.0202
 1995SOL    HW217445   1.825   0.340   5.364  0.0280 -0.9538 -2.7991
 1996SOL     OW17446   0.208   0.315   6.644 -0.2372  0.4138  0.3806
 1996SOL    HW117447   0.178   0.259   6.716  2.4521 -0.0943  1.1226
 1996SOL    HW217448   0.125   0.333   6.600 -1.5355 -1.9691  1.8543
 1997SOL     OW17449   3.289   2.480  13.578 -0.3782 -0.1754 -0.2944
 1997SOL    HW117450   3.363   2.450  13.526  0.1058  0.0571  0.2555
 1997SOL    HW217451   3.282   2.564  13.533 -1.5476 -0.3459 -0.4307
 1998SOL     OW17452   1.118   0.199   7.949 -0.3563  0.3071 -0.3385
 1998SOL    HW117453   1.159   0.242   7.874  1.1651 -3.0146 -1.4168
 1998SOL    HW217454   1.031   0.184   7.913 -0.5170 -0.6806  0.4391
 1999SOL     OW17455   1.875   3.044   6.259 -0.2370  0.0115  0.1406
 1999SOL    HW117456   1.907   3.134   6.248 -2.0245  0.2634 -3.0811
 1999SOL    HW217457   1.896   3.005   6.175 -0.8524 -0.3363  0.1474
 2000SOL     OW17458   1.616   2.282  10.656  0.8064 -0.0822 -0.6994
 2000SOL    HW117459   1.658   2.245  10.734 -0.0855  0.4306  0.0256
 2000SOL    HW217460   1.560   2.213  10.619 -0.0607 -0.5932  1.5372
 2001SOL     OW17461   2.505   3.315  11.430 -0.0846  0.6736  0.1217
 2001SOL    HW117462   2.460   3.256  11.370 -1.4448  0.9573  0.8716
 2001SOL    HW217463   2.467   3.397  11.398 -2.2379 -1.1687 -1.9205
 2002SOL     OW17464   0.316   4.676   7.455  0.1066  0.0449 -0.3931
 2002SOL    HW117465   0.263   0.035   7.452  1.9111  1.2578 -0.4480
 2002SOL    HW217466   0.277   4.647   7.538  4.1797 -0.4378  1.3442
 2003SOL     OW17467   4.079   4.392  13.114  0.2244  0.2593 -0.3385
 2003SOL    HW117468   4.101   4.336  13.188  0.3964 -1.1685 -1.4795
 2003SOL    HW217469   3.995   4.350  13.095  1.7231 -2.9253  0.2127
 2004SOL     OW17470   1.236   4.253   0.253 -0.0932  0.0263  0.2506
 2004SOL    HW117471   1.158   4.304   0.232 -0.6933 -1.0572 -0.0926
 2004SOL    HW217472   1.198   4.166   0.250 -1.2820  0.5421  0.3792
 2005SOL     OW17473   3.451   3.332   0.591  0.0906  0.4629  0.0506
 2005SOL    HW117474   3.399   3.393   0.539 -0.1085 -0.2302 -0.5727
 2005SOL    HW217475   3.420   3.258   0.539  0.1704 -0.7968  1.8289
 2006SOL     OW17476   2.949   4.264   2.357  0.4872  0.1158  0.7168
 2006SOL    HW117477   2.935   4.338   2.297 -2.7592 -0.3048  0.9499
 2006SOL    HW217478   3.025   4.292   2.408  1.1251 -1.0489  0.3784
 2007SOL     OW17479   0.208   3.572   7.040 -0.1417 -0.5022  0.1974
 2007SOL    HW117480   0.254   3.520   6.975  0.0128 -1.7207  1.2682
 2007SOL    HW217481   0.198   3.657   6.997 -0.6542 -1.9109 -2.4482
 2008SOL     OW17482   4.316   3.233   4.749  0.3274  0.5031  0.1985
 2008SOL    HW117483   4.410   3.252   4.745 -0.2289  3.2704  0.2562
 2008SOL    HW217484   4.306   3.146   4.788 -0.2593  0.4354 -0.1132
 2009SOL     OW17485   0.236   2.868   2.362  0.4308 -0.4283 -0.3836
 2009SOL    HW117486   0.310   2.833   2.411 -1.0519 -1.2124  1.2616
 2009SOL    HW217487   0.195   2.927   2.425 -1.8258 -1.5410 -0.8079
 2010SOL     OW17488   3.478   2.589   5.527  0.3536 -0.6594 -0.1866
 2010SOL    HW117489   3.499   2.665   5.581 -0.7010 -0.0384 -0.6398
 2010SOL    HW217490   3.524   2.519   5.573  1.4173  1.1317  1.4613
 2011SOL     OW17491   0.165   1.041   2.520  0.1124 -0.0980 -0.0970
 2011SOL    HW117492   0.074   1.070   2.516 -0.4237 -1.9513 -1.7800
 2011SOL    HW217493   0.219   1.082   2.452  0.2958  1.4974  1.0228
 2012SOL     OW17494   4.712   0.294   9.522 -0.3539 -0.2233 -0.1579
 2012SOL    HW117495   4.651   0.253   9.460 -0.6995  1.2433 -0.7891
 2012SOL    HW217496   0.023   0.371   9.476 -2.9437 -0.1253 -1.7788
 2013SOL     OW17497   0.841   4.597   3.573  0.1354 -0.2669 -1.0045
 2013SOL    HW117498   0.803   4.674   3.531  0.0471  0.1369 -0.1808
 2013SOL    HW217499   0.903   4.647   3.627  0.7291 -0.0100 -1.9196
 2014SOL     OW17500   4.222   4.263  15.319 -0.1884  0.3755 -0.1158
 2014SOL    HW117501   4.269   4.275  15.401  1.8177 -0.6350 -1.0996
 2014SOL    HW217502   4.276   4.290  15.245  0.1395  2.8709  1.0718
 2015SOL     OW17503   0.084   4.424   6.669  0.1440  0.2735  0.0646
 2015SOL    HW117504   0.122   4.342   6.700 -0.3478 -0.2998 -0.8382
 2015SOL    HW217505   0.032   4.394   6.594 -0.6134  0.1735  0.6402
 2016SOL     OW17506   2.657   4.152   0.603 -0.2226  0.0965  0.3942
 2016SOL    HW117507   2.582   4.173   0.547  0.0924  2.4993  0.8705
 2016SOL    HW217508   2.686   4.241   0.624 -1.8112  0.3430  1.5537
 2017SOL     OW17509   4.259   2.162  11.999  0.4999  0.1158 -0.0611
 2017SOL    HW117510   4.209   2.094  12.045  0.6082 -0.0148 -0.1389
 2017SOL    HW217511   4.255   2.236  12.061  1.4427 -1.2821  1.6562
 2018SOL     OW17512   3.383   3.195   6.202 -0.4386  0.2634  0.3357
 2018SOL    HW117513   3.466   3.241   6.189 -1.6872  1.7919 -2.1602
 2018SOL    HW217514   3.368   3.189   6.108  0.3664 -0.1026  0.2270
 2019SOL     OW17515   2.994   4.357  13.066 -0.0007  0.2297 -0.2315
 2019SOL    HW117516   3.076   4.404  13.083 -0.2011  0.3931  0.2995
 2019SOL    HW217517   3.019   4.278  13.115  0.0516 -0.6715 -1.7175
 2020SOL     OW17518   0.169   4.451   4.349  0.2474 -0.0302 -0.6788
 2020SOL    HW117519   0.112   4.373   4.347  1.1635 -0.7216 -0.1557
 2020SOL    HW217520   0.099   4.511   4.376  1.0755  1.4036 -1.7658
 2021SOL     OW17521   1.578   4.343   2.552  0.6236  0.0598 -0.0753
 2021SOL    HW117522   1.499   4.306   2.590  0.4807  1.1037  0.6461
 2021SOL    HW217523   1.591   4.280   2.481 -1.1436 -2.1354  1.5479
 2022SOL     OW17524   3.725   1.554   7.721  0.2713  0.9033  0.2421
 2022SOL    HW117525   3.706   1.498   7.645 -0.8922 -0.3556  1.4682
 2022SOL    HW217526   3.672   1.495   7.774 -0.2513 -0.1588 -1.4638
 2023SOL     OW17527   2.764   0.789   3.387 -0.2539 -0.2515 -0.1125
 2023SOL    HW117528   2.854   0.757   3.375 -0.0877  0.0994  0.2117
 2023SOL    HW217529   2.733   0.716   3.441  0.7453 -0.4433  0.2102
 2024SOL     OW17530   1.661   2.636  14.997 -0.1675  0.1388  0.1518
 2024SOL    HW117531   1.720   2.628  15.072 -1.3529  0.0417  1.0767
 2024SOL    HW217532   1.718   2.596  14.931 -0.2652  2.0032 -1.0549
 2025SOL     OW17533   3.207   0.522   4.709 -0.4354  0.0400  0.1899
 2025SOL    HW117534   3.245   0.531   4.622 -0.5464 -1.6523 -0.0347
 2025SOL    HW217535   3.255   0.580   4.769 -0.2835 -0.7733  0.8623
 2026SOL     OW17536   0.697   4.111   2.587 -0.5015 -0.0801  0.4337
 2026SOL    HW117537   0.781   4.129   2.544 -1.3796  2.0700 -0.3773
 2026SOL    HW217538   0.649   4.065   2.518 -0.0303  1.0958 -0.6751
 2027SOL     OW17539   4.002   2.259  12.855  0.0767 -0.5744  0.1255
 2027SOL    HW117540   3.921   2.246  12.807  0.2083  0.5135 -0.3838
 2027SOL    HW217541   4.045   2.175  12.837  0.5316 -0.1750 -0.6220
 2028SOL     OW17542   4.663   2.471  17.633 -0.9159 -0.0147  0.7807
 2028SOL    HW117543   4.627   2.386  17.656 -1.5618 -0.2156 -1.0311
 2028SOL    HW217544   4.677   2.456  17.540  1.2887  4.2247  0.3908
 2029SOL     OW17545   2.201   2.363   0.486 -0.0820  0.3186 -0.4350
 2029SOL    HW117546   2.274   2.301   0.492 -0.3533  0.1904  1.5000
 2029SOL    HW217547   2.250   2.446   0.483  0.0825  0.1680 -1.9154
 2030SOL     OW17548   2.105   2.181   8.283 -0.2456  0.2864 -0.2425
 2030SOL    HW117549   2.038   2.113   8.284 -1.8803  1.8902 -1.9442
 2030SOL    HW217550   2.128   2.173   8.375 -0.5059  3.3999  0.1021
 2031SOL     OW17551   1.640   3.115   9.928 -0.0718  0.0318 -0.4057
 2031SOL    HW117552   1.706   3.133   9.861  0.8466 -1.0989  0.1969
 2031SOL    HW217553   1.679   3.125  10.015  0.0478  3.0151 -0.7974
 2032SOL     OW17554   0.099   1.843   7.621  0.0876 -0.0557 -0.6926
 2032SOL    HW117555   0.052   1.850   7.538  0.3949 -0.0415 -0.8673
 2032SOL    HW217556   0.024   1.862   7.677  1.2929  2.1179  0.1908
 2033SOL     OW17557   1.357   3.825  11.905  0.6351 -0.5057 -0.1765
 2033SOL    HW117558   1.327   3.909  11.938  0.0436 -1.0786  0.7409
 2033SOL    HW217559   1.388   3.851  11.818  0.6178 -1.1442 -0.3775
 2034SOL     OW17560   4.422   2.698   8.105  0.5971  0.3299 -0.5795
 2034SOL    HW117561   4.491   2.632   8.093 -0.1573 -0.4627 -0.5869
 2034SOL    HW217562   4.460   2.741   8.182 -0.4278 -0.4024  0.3354
 2035SOL     OW17563   1.681   0.489   1.803  0.0468 -0.4943 -0.2782
 2035SOL    HW117564   1.658   0.460   1.715 -1.3511 -0.0736 -0.0551
 2035SOL    HW217565   1.637   0.571   1.826  1.1614  0.6686 -2.3117
 2036SOL     OW17566   4.468   2.388   7.571  0.3173 -0.1330 -0.1488
 2036SOL    HW117567   4.395   2.378   7.510 -0.1343 -1.2484  0.5800
 2036SOL    HW217568   4.481   2.483   7.573 -1.0592  0.0748 -1.3185
 2037SOL     OW17569   2.385   3.684   1.384 -0.2510 -0.3872 -0.3078
 2037SOL    HW117570   2.416   3.642   1.464  1.2633  1.5855  0.1381
 2037SOL    HW217571   2.461   3.740   1.369 -1.0700  0.9306  0.4665
 2038SOL     OW17572   1.194   0.038  16.466  0.1886 -0.2359  0.4428
 2038SOL    HW117573   1.172   0.079  16.383 -0.2999 -2.3421 -0.4636
 2038SOL    HW217574   1.107   0.045  16.505  1.0137  1.4628  1.9884
 2039SOL     OW17575   3.804   4.083  15.218  0.0557 -0.8451  0.3883
 2039SOL    HW117576   3.735   4.100  15.282  0.7956  0.6113  0.7923
 2039SOL    HW217577   3.740   4.043  15.159 -0.5640  0.6701  0.0357
 2040SOL     OW17578   2.598   2.475   7.074 -0.7949 -0.2437 -0.3048
 2040SOL    HW117579   2.574   2.418   7.147 -0.7949  0.4707  0.2607
 2040SOL    HW217580   2.550   2.557   7.089  0.8784  0.2551  2.3708
 2041SOL     OW17581   1.423   0.678   6.885 -0.2750 -0.2095 -0.7021
 2041SOL    HW117582   1.445   0.665   6.978  0.2062  1.4057 -0.5773
 2041SOL    HW217583   1.456   0.766   6.864 -0.7825 -0.2048 -1.4649
 2042SOL     OW17584   1.191   0.117   2.534  0.4113  1.0821  0.0100
 2042SOL    HW117585   1.100   0.133   2.561  0.3338 -2.7064  2.0310
 2042SOL    HW217586   1.235   0.107   2.618  1.3497  1.0621 -0.4863
 2043SOL     OW17587   4.673   2.741   7.111 -0.6765  0.1262 -0.5022
 2043SOL    HW117588   4.603   2.783   7.161  0.1101 -1.8926  2.2332
 2043SOL    HW217589   0.025   2.802   7.125  2.5351 -3.8274 -0.1484
 2044SOL     OW17590   3.620   3.164   4.096 -0.6327  0.3573  0.0777
 2044SOL    HW117591   3.547   3.211   4.137 -0.0019  1.5074 -0.1484
 2044SOL    HW217592   3.689   3.196   4.153  0.6821 -0.3736 -1.1102
 2045SOL     OW17593   2.905   0.105   4.991  0.5459 -0.0757 -0.7882
 2045SOL    HW117594   2.851   0.040   4.945 -0.9429  0.2310  0.5063
 2045SOL    HW217595   2.930   0.053   5.067 -0.2675 -2.4982 -2.1787
 2046SOL     OW17596   1.159   0.386   2.883  0.3749 -0.3927 -0.0847
 2046SOL    HW117597   1.146   0.467   2.931 -3.2341 -0.5765 -0.7804
 2046SOL    HW217598   1.160   0.409   2.790 -0.2201 -0.8401 -0.1998
 2047SOL     OW17599   0.413   0.439  13.078 -0.7269 -0.0074 -0.5394
 2047SOL    HW117600   0.432   0.499  13.006  3.9168 -0.5369  0.2485
 2047SOL    HW217601   0.473   0.456  13.151 -1.6457 -1.2866  0.5171
 2048SOL     OW17602   2.842   3.798   3.734  0.3406 -0.2144  0.0203
 2048SOL    HW117603   2.757   3.837   3.710 -0.8707 -1.3352  2.5043
 2048SOL    HW217604   2.847   3.808   3.829  2.9380  1.9058 -0.3513
 2049SOL     OW17605   1.060   2.672   6.365  0.5105 -0.7414  0.1935
 2049SOL    HW117606   1.045   2.733   6.437 -0.3355  1.0272 -1.4419
 2049SOL    HW217607   1.068   2.584   6.400 -0.8739 -1.1625 -0.5573
 2050SOL     OW17608   3.614   3.194   1.750 -0.3853  0.2866 -0.3098
 2050SOL    HW117609   3.602   3.163   1.660 -1.2147 -1.4248  0.4046
 2050SOL    HW217610   3.585   3.122   1.806  2.7181  0.5534  1.6364
 2051SOL     OW17611   1.216   0.592   4.233  0.6678 -0.6989  0.4982
 2051SOL    HW117612   1.285   0.615   4.171 -0.1580  2.2859  0.6778
 2051SOL    HW217613   1.180   0.513   4.192 -1.5553 -0.0009  1.1230
 2052SOL     OW17614   3.774   4.619   6.195 -0.3071 -0.7415  0.3495
 2052SOL    HW117615   3.702   4.617   6.131  0.3162  1.0865 -0.3955
 2052SOL    HW217616   3.737   4.679   6.259 -0.3602  0.8146 -1.1477
 2053SOL     OW17617   4.699   0.071  14.250 -0.6261  0.1031 -0.2684
 2053SOL    HW117618   0.035   0.136  14.291 -1.7802  1.0579 -0.1786
 2053SOL    HW217619   4.651   0.037  14.325  2.6037 -1.0424  1.2867
 2054SOL     OW17620   1.681   4.620  12.354 -0.7501  0.9232  0.0246
 2054SOL    HW117621   1.633   4.696  12.388  0.1536  0.7052  1.7624
 2054SOL    HW217622   1.669   4.555  12.423 -0.8354  0.6926 -0.2080
 2055SOL     OW17623   2.911   0.299   7.444 -0.6688  0.1276 -0.0473
 2055SOL    HW117624   2.998   0.311   7.484 -1.3491  1.9238  0.8832
 2055SOL    HW217625   2.892   0.207   7.459  0.3005 -0.0418  0.1872
 2056SOL     OW17626   2.296   3.993  14.833  0.1755  0.0540  0.5261
 2056SOL    HW117627   2.205   3.982  14.861  0.0512 -0.7537 -0.1860
 2056SOL    HW217628   2.287   3.937  14.755 -1.4587 -1.5797  1.8769
 2057SOL     OW17629   2.241   3.950   1.686 -0.5297 -0.0185  0.0160
 2057SOL    HW117630   2.260   3.982   1.597  0.9589  2.4289  1.2102
 2057SOL    HW217631   2.223   4.036   1.724 -0.6823  1.1037 -2.5441
 2058SOL     OW17632   2.953   1.806   7.902 -0.2323  0.2830  0.4519
 2058SOL    HW117633   2.991   1.770   7.822  1.0816  3.6927 -0.4909
 2058SOL    HW217634   2.870   1.844   7.875  1.0561  2.8152  0.0122
 2059SOL     OW17635   0.630   2.884  12.016 -0.0728 -0.1449 -0.4697
 2059SOL    HW117636   0.619   2.972  11.978 -3.1112 -0.3463 -0.0742
 2059SOL    HW217637   0.566   2.890  12.087  1.2177  3.1408  0.4199
 2060SOL     OW17638   0.866   1.959   9.320  0.2950  0.3885 -0.0556
 2060SOL    HW117639   0.870   1.906   9.240 -0.3110 -0.0706  0.2126
 2060SOL    HW217640   0.878   1.891   9.386 -2.5685  0.8726  0.9724
 2061SOL     OW17641   2.834   1.640   7.050  0.1029 -0.2120  0.0466
 2061SOL    HW117642   2.843   1.709   7.116 -1.3805  0.2622 -0.2375
 2061SOL    HW217643   2.916   1.628   7.003 -0.4481  0.1647 -1.0164
 2062SOL     OW17644   0.858   3.179   2.831 -0.3932  0.0045 -0.1290
 2062SOL    HW117645   0.900   3.260   2.857 -1.5997  0.4315  0.5144
 2062SOL    HW217646   0.910   3.119   2.884 -0.1122  0.6781  0.3511
 2063SOL     OW17647   0.681   0.917   6.394  0.2432  0.1123 -0.1469
 2063SOL    HW117648   0.730   0.906   6.313  1.5709  1.7172  0.4194
 2063SOL    HW217649   0.750   0.922   6.459  1.0478 -3.4578 -0.7666
 2064SOL     OW17650   1.290   4.373   8.001 -0.1549  0.1324 -0.0217
 2064SOL    HW117651   1.342   4.375   8.082 -1.2368 -0.9406  0.7025
 2064SOL    HW217652   1.300   4.466   7.980  1.5535 -0.4150 -1.6261
 2065SOL     OW17653   2.292   2.165   7.330 -0.3128 -0.3636 -0.2401
 2065SOL    HW117654   2.242   2.085   7.350 -1.1142 -0.3752 -2.2509
 2065SOL    HW217655   2.355   2.122   7.273  0.4207  0.1788  0.1640
 2066SOL     OW17656   0.628   3.811   4.776 -0.4215  0.0738  0.2811
 2066SOL    HW117657   0.613   3.770   4.861  1.0446  0.6644  0.8305
 2066SOL    HW217658   0.680   3.886   4.804 -0.0980 -0.3383  0.7972
 2067SOL     OW17659   2.122   1.002   2.787  0.7872 -0.2588 -0.2564
 2067SOL    HW117660   2.189   1.058   2.825 -1.6358  0.3559  3.1348
 2067SOL    HW217661   2.091   0.955   2.864  2.1720  0.1663  0.5626
 2068SOL     OW17662   4.507   4.436  12.246  0.4451  0.8443 -0.4248
 2068SOL    HW117663   4.412   4.446  12.250  0.4803  1.3253 -0.8188
 2068SOL    HW217664   4.535   4.445  12.338 -1.7744 -0.5788  0.3903
 2069SOL     OW17665   0.651   3.105   5.290  0.2293  0.4504  0.1118
 2069SOL    HW117666   0.741   3.072   5.296 -0.6304 -1.9137  0.2917
 2069SOL    HW217667   0.659   3.163   5.215 -2.6697  1.6034  0.6923
 2070SOL     OW17668   3.290   1.969  10.271 -0.1055 -0.2932 -0.1973
 2070SOL    HW117669   3.212   2.019  10.294 -0.3409 -0.7668  0.0270
 2070SOL    HW217670   3.329   1.960  10.358  0.7557 -0.5764 -0.6143
 2071SOL     OW17671   2.952   2.333   6.360  0.1143  0.2843  0.4077
 2071SOL    HW117672   2.917   2.413   6.322 -0.0845  0.3560  0.7436
 2071SOL    HW217673   2.872   2.297   6.397 -0.1483  2.2616  1.7659
 2072SOL     OW17674   4.188   3.330   3.533 -0.3123  0.4886  0.3813
 2072SOL    HW117675   4.216   3.415   3.497  2.0348 -0.3864  0.1629
 2072SOL    HW217676   4.106   3.352   3.578 -1.2301 -1.8896 -0.1209
 2073SOL     OW17677   2.240   3.728  11.782  0.2395  0.2510  0.2514
 2073SOL    HW117678   2.239   3.660  11.714 -0.0336  0.3884  0.1172
 2073SOL    HW217679   2.321   3.701  11.826  0.7745 -1.0676 -1.5116
 2074SOL     OW17680   3.108   2.214   1.672  0.0206  0.0720  0.2434
 2074SOL    HW117681   3.084   2.303   1.698 -0.6948 -0.5636  1.7731
 2074SOL    HW217682   3.168   2.231   1.600  1.1778 -2.5794  0.5795
 2075SOL     OW17683   4.295   1.077  14.092  0.7880 -0.2914  0.3193
 2075SOL    HW117684   4.270   1.014  14.160  1.3924 -0.4580  0.3829
 2075SOL    HW217685   4.236   1.148  14.118 -0.5920 -1.6252  0.8324
 2076SOL     OW17686   0.086   2.881   9.575  0.4651  0.1429 -0.3951
 2076SOL    HW117687   0.003   2.924   9.596  0.3654 -0.7421  1.0107
 2076SOL    HW217688   0.083   2.870   9.480 -2.2441  1.4324 -0.4503
 2077SOL     OW17689   3.495   2.933  14.051  0.2227 -0.0699  0.2257
 2077SOL    HW117690   3.589   2.923  14.040  0.7078  2.6953  1.8561
 2077SOL    HW217691   3.494   2.971  14.139  0.6996  0.2025  0.1089
 2078SOL     OW17692   4.488   0.508  14.412 -0.1235  0.1899 -0.2553
 2078SOL    HW117693   4.406   0.463  14.394  0.6004 -0.6837 -1.3221
 2078SOL    HW217694   4.446   0.588  14.444 -0.3086  0.3490 -0.8994
 2079SOL     OW17695   4.302   4.466  13.451  0.6349  0.0015  0.7777
 2079SOL    HW117696   4.223   4.492  13.499  1.6185  0.9332  1.8810
 2079SOL    HW217697   4.286   4.372  13.442  3.5674 -0.3246 -1.1112
 2080SOL     OW17698   4.524   1.000   4.436  1.1729 -0.0968 -0.4363
 2080SOL    HW117699   4.520   0.914   4.478  1.6084  0.7699  1.3968
 2080SOL    HW217700   4.559   1.053   4.508  1.0644 -3.0400  1.8123
 2081SOL     OW17701   3.871   4.700   2.212  0.1631 -0.2839  0.3952
 2081SOL    HW117702   3.857   4.644   2.288 -1.1928  0.7616  0.9216
 2081SOL    HW217703   3.964   4.685   2.194 -0.0128 -0.1931 -0.5639
 2082SOL     OW17704   1.157   0.587   4.502 -0.0156 -0.0940  0.4951
 2082SOL    HW117705   1.207   0.514   4.540  1.4428  1.1802  0.9974
 2082SOL    HW217706   1.198   0.602   4.418 -0.7951  2.0760  0.5185
 2083SOL     OW17707   0.366   2.430  13.708 -0.1278  0.5926  0.0759
 2083SOL    HW117708   0.319   2.464  13.784  2.1440 -1.2957  2.3563
 2083SOL    HW217709   0.408   2.509  13.675  2.1495 -1.6198 -2.3028
 2084SOL     OW17710   4.004   4.572  11.253 -0.3413  0.1256 -0.0687
 2084SOL    HW117711   4.089   4.606  11.281  0.5756 -0.5573 -1.9954
 2084SOL    HW217712   3.937   4.627  11.294  0.0495  0.8236 -0.3685
 2085SOL     OW17713   4.695   4.345   2.692  0.3663  0.3714  0.1511
 2085SOL    HW117714   4.605   4.319   2.677  0.6033 -1.9489  2.9679
 2085SOL    HW217715   0.019   4.273   2.648  2.2118  2.2397 -1.0585
 2086SOL     OW17716   1.805   2.549   5.778  0.1298 -0.3721  0.3792
 2086SOL    HW117717   1.881   2.497   5.751  0.3464 -0.2660  0.7719
 2086SOL    HW217718   1.846   2.616   5.834 -0.2225  1.4461 -1.5220
 2087SOL     OW17719   1.187   1.018   3.947 -0.2014 -0.2958  0.3059
 2087SOL    HW117720   1.194   1.113   3.938 -1.2263 -0.1413  1.2043
 2087SOL    HW217721   1.277   0.985   3.944 -0.0192  0.1632  0.8672
 2088SOL     OW17722   4.097   2.191   5.683  0.1317  0.3302  0.1444
 2088SOL    HW117723   4.187   2.219   5.701  0.8348 -1.3005 -0.8295
 2088SOL    HW217724   4.107   2.096   5.693 -0.4374 -0.1068 -3.2857
 2089SOL     OW17725   2.241   0.961  15.241 -0.3327 -0.0005  0.2252
 2089SOL    HW117726   2.181   1.012  15.296 -0.1178 -1.1253  1.5064
 2089SOL    HW217727   2.222   0.870  15.264 -0.4667 -0.1953 -0.6554
 2090SOL     OW17728   2.877   0.077  12.080  0.4728  0.7038 -0.0035
 2090SOL    HW117729   2.959   0.082  12.130  1.1425 -0.7637 -0.9624
 2090SOL    HW217730   2.915   0.093  11.994  0.1163 -0.3531 -0.3597
 2091SOL     OW17731   0.068   1.657  14.956  0.2175  0.0012  0.0311
 2091SOL    HW117732   0.067   1.561  14.963  0.0454 -0.0647 -0.9205
 2091SOL    HW217733   0.162   1.673  14.964  0.0386  1.6011 -1.1512
 2092SOL     OW17734   2.201   4.447  14.484 -0.0212 -0.3595  0.2487
 2092SOL    HW117735   2.228   4.358  14.509  2.6748  0.2688 -0.4109
 2092SOL    HW217736   2.245   4.471  14.403 -0.3181 -1.7158 -0.3102
 2093SOL     OW17737   1.394   1.612   4.558 -0.5095 -0.2887 -0.1323
 2093SOL    HW117738   1.461   1.671   4.593 -1.8923  1.2186 -0.0501
 2093SOL    HW217739   1.324   1.621   4.623  0.8691  1.0903  1.1611
 2094SOL     OW17740   0.346   2.336   7.382  0.4532 -0.5396  0.0629
 2094SOL    HW117741   0.437   2.306   7.373  0.5874  0.3143 -1.4093
 2094SOL    HW217742   0.354   2.371   7.470 -1.4468  3.0335 -1.1935
 2095SOL     OW17743   2.349   3.222   9.109  0.3559 -0.1207 -0.1595
 2095SOL    HW117744   2.353   3.277   9.187 -0.9728 -0.7075  0.3192
 2095SOL    HW217745   2.281   3.273   9.066 -1.2571  0.2926  2.9361
 2096SOL     OW17746   2.309   2.422   9.126  0.1640  0.2080 -0.5690
 2096SOL    HW117747   2.348   2.416   9.039 -0.6390  0.2791 -0.9404
 2096SOL    HW217748   2.345   2.504   9.161 -0.4563  0.3891 -0.3470
 2097SOL     OW17749   3.534   1.836   7.426 -0.5976 -0.1420 -0.5505
 2097SOL    HW117750   3.548   1.899   7.496 -2.1645  0.3529 -0.6885
 2097SOL    HW217751   3.623   1.812   7.398 -1.5930 -1.7569 -2.3291
 2098SOL     OW17752   0.575   0.098  17.532 -0.3228  0.0091 -0.1470
 2098SOL    HW117753   0.668   0.115  17.543 -0.7424  1.9917  0.3126
 2098SOL    HW217754   0.549   0.183  17.568  2.0626  0.3011  0.8756
 2099SOL     OW17755   3.872   0.279   5.000  0.2504 -0.6022  0.4304
 2099SOL    HW117756   3.938   0.213   5.022 -0.1866 -0.0476  3.5168
 2099SOL    HW217757   3.794   0.227   5.018  0.0429 -0.0619  1.0933
 2100SOL     OW17758   0.051   1.973  17.580  0.7057 -0.3738  0.3744
 2100SOL    HW117759   0.105   1.994  17.504  1.0480  1.6114  1.1850
 2100SOL    HW217760   0.023   1.888  17.546 -0.2486 -0.7854  2.2158
 2101SOL     OW17761   1.263   3.847   8.028  0.4090  0.0289 -0.8355
 2101SOL    HW117762   1.305   3.788   8.091  0.7925 -0.8015 -1.8648
 2101SOL    HW217763   1.221   3.787   7.966 -2.7155  1.3759 -0.0122
 2102SOL     OW17764   3.502   0.525   4.204 -0.1883 -0.0960  1.0073
 2102SOL    HW117765   3.501   0.585   4.279  0.8556  2.5754 -1.1392
 2102SOL    HW217766   3.452   0.569   4.136  0.8702  0.6749  0.7266
 2103SOL     OW17767   2.129   0.822   0.868 -0.5464 -0.3115 -0.3414
 2103SOL    HW117768   2.200   0.850   0.927 -1.8777 -0.8211  1.5216
 2103SOL    HW217769   2.161   0.840   0.780 -0.0243  0.2740 -0.0360
 2104SOL     OW17770   1.407   1.281  15.730  0.1609  0.3699 -0.6992
 2104SOL    HW117771   1.329   1.255  15.682 -0.8071 -1.0405  1.6528
 2104SOL    HW217772   1.473   1.278  15.661  0.9623 -0.7016  0.1175
 2105SOL     OW17773   4.274   1.830  13.341  0.2764 -0.6820 -0.3319
 2105SOL    HW117774   4.263   1.739  13.366  2.7384 -1.1785 -1.0493
 2105SOL    HW217775   4.183   1.852  13.321  0.6081  1.1462  0.1126
 2106SOL     OW17776   1.723   3.605   2.455  0.2464  0.3111 -0.2214
 2106SOL    HW117777   1.659   3.596   2.385  0.0162 -1.4639  0.2024
 2106SOL    HW217778   1.769   3.685   2.431  2.9174 -0.8495  1.0547
 2107SOL     OW17779   0.622   3.444   0.044 -0.0618 -0.2516 -0.3886
 2107SOL    HW117780   0.641   3.350   0.046  1.6956  0.1146  0.4428
 2107SOL    HW217781   0.566   3.452  17.654 -0.6947  2.3048  0.3758
 2108SOL     OW17782   1.769   3.061   5.251  0.1789  0.0876 -0.0459
 2108SOL    HW117783   1.758   2.966   5.253  2.0475 -0.1019  0.5055
 2108SOL    HW217784   1.827   3.070   5.176  0.8627  2.9643  0.8077
 2109SOL     OW17785   1.110   0.534   7.442 -0.6145  0.0653  0.0735
 2109SOL    HW117786   1.093   0.548   7.535  0.7000 -0.9608  0.4751
 2109SOL    HW217787   1.150   0.613   7.407  0.7096 -0.6981 -0.1444
 2110SOL     OW17788   3.952   2.949   3.880 -0.4143 -0.4006  0.0936
 2110SOL    HW117789   3.912   2.878   3.929  0.4947  0.3579  1.9233
 2110SOL    HW217790   4.002   2.999   3.945 -1.0976  0.5920 -0.1359
 2111SOL     OW17791   1.073   0.552   8.482  0.2198  0.3889 -0.1882
 2111SOL    HW117792   1.024   0.472   8.462 -0.5661  0.7393  0.3113
 2111SOL    HW217793   1.134   0.521   8.549 -1.1657 -1.2246  0.3547
 2112SOL     OW17794   2.024   2.191   8.565  0.0088 -0.0475 -0.1215
 2112SOL    HW117795   1.994   2.105   8.594  0.7464 -0.5492 -0.8491
 2112SOL    HW217796   2.080   2.221   8.637 -1.0920  1.6109  0.0505
 2113SOL     OW17797   1.930   1.673   3.085 -0.0327  0.4963  0.4722
 2113SOL    HW117798   1.868   1.640   3.150 -0.4092 -0.8776 -0.5883
 2113SOL    HW217799   1.919   1.607   3.016  0.7761  0.4210  0.4084
 2114SOL     OW17800   3.632   2.226   1.956  0.0321 -0.2951  0.0621
 2114SOL    HW117801   3.597   2.226   2.045  1.3142 -0.3718  0.5700
 2114SOL    HW217802   3.714   2.275   1.960  0.0204 -0.4550  2.0403
 2115SOL     OW17803   0.528   1.369   3.680  0.4717  0.5718  0.8576
 2115SOL    HW117804   0.540   1.342   3.771  0.9894  0.0806  0.6425
 2115SOL    HW217805   0.583   1.447   3.680  0.4361  0.5952 -1.3049
 2116SOL     OW17806   0.261   0.048   4.316  0.2401 -1.1274 -0.1234
 2116SOL    HW117807   0.291   0.012   4.233 -1.7093  1.1997 -1.8278
 2116SOL    HW217808   0.169   0.022   4.314  0.2980 -1.2793 -0.7436
 2117SOL     OW17809   3.999   2.372  15.746 -0.1117 -0.4453  0.4608
 2117SOL    HW117810   3.910   2.346  15.721  0.4824  0.2987 -2.4681
 2117SOL    HW217811   4.044   2.349  15.665 -0.2050  0.6643  0.0920
 2118SOL     OW17812   0.379   0.473  13.762 -0.0555 -0.0086  0.3520
 2118SOL    HW117813   0.321   0.406  13.798 -1.0091 -0.0728 -1.3061
 2118SOL    HW217814   0.454   0.461  13.820 -0.6098 -0.9710  0.8860
 2119SOL     OW17815   4.328   0.646  10.067  0.8746 -0.6311  0.0032
 2119SOL    HW117816   4.326   0.709  10.139  1.6415 -1.1066  0.4421
 2119SOL    HW217817   4.251   0.659  10.013  1.8470  0.1567 -1.1931
 2120SOL     OW17818   0.856   3.344  13.565 -0.1274  0.0499 -0.3251
 2120SOL    HW117819   0.811   3.312  13.644  0.8692 -2.4580 -0.7670
 2120SOL    HW217820   0.853   3.276  13.497 -2.0812  1.1016 -1.2916
 2121SOL     OW17821   1.758   1.594   8.564  0.3760  0.1425 -0.5205
 2121SOL    HW117822   1.737   1.686   8.583 -0.4841 -0.2518  0.4145
 2121SOL    HW217823   1.835   1.614   8.510  0.6982 -0.7059 -0.3763
 2122SOL     OW17824   3.183   1.811  17.277  0.3823 -0.1306  0.7246
 2122SOL    HW117825   3.238   1.862  17.217 -1.4700  1.2714  0.2015
 2122SOL    HW217826   3.242   1.741  17.305  2.0369  0.0742 -2.2660
 2123SOL     OW17827   4.117   3.677   2.266 -0.0661 -0.5187  0.0177
 2123SOL    HW117828   4.114   3.663   2.171 -0.0589  1.4955 -0.2888
 2123SOL    HW217829   4.193   3.734   2.276 -0.3578  0.0831 -1.1592
 2124SOL     OW17830   4.522   0.461   3.422  0.7709  0.0658 -0.1353
 2124SOL    HW117831   4.478   0.541   3.394 -0.5309 -0.5618  0.1028
 2124SOL    HW217832   4.513   0.462   3.518 -1.1995 -0.7876 -0.3038
 2125SOL     OW17833   0.017   1.932   3.670  0.4696 -0.5324  0.0239
 2125SOL    HW117834   0.021   1.842   3.636 -0.4108 -0.0259 -1.4320
 2125SOL    HW217835   0.057   1.912   3.754  1.5525  0.3821 -0.2800
 2126SOL     OW17836   2.788   3.295  12.960 -0.0769 -0.1793 -0.0742
 2126SOL    HW117837   2.764   3.249  13.040 -2.3571 -1.1741 -1.3210
 2126SOL    HW217838   2.812   3.221  12.904 -0.0603  0.9328 -1.5404
 2127SOL     OW17839   2.918   1.824   7.281 -0.6725 -0.4890  0.0766
 2127SOL    HW117840   2.896   1.854   7.370 -0.0686 -0.5295  0.2415
 2127SOL    HW217841   3.003   1.784   7.298 -1.0406 -1.1854  0.2679
 2128SOL     OW17842   3.169   0.847   3.687  0.4612  0.0734  0.0364
 2128SOL    HW117843   3.170   0.919   3.750 -1.4832 -0.2531  0.4554
 2128SOL    HW217844   3.083   0.812   3.712  0.5449 -0.8776 -1.0259
 2129SOL     OW17845   3.122   3.759   5.432  0.3966  0.1028  0.4290
 2129SOL    HW117846   3.089   3.725   5.349 -2.6619  1.2416  1.2110
 2129SOL    HW217847   3.210   3.719   5.429 -0.4930 -2.0081  2.2821
 2130SOL     OW17848   2.347   1.762   8.521 -0.3293  0.6930  0.0913
 2130SOL    HW117849   2.409   1.748   8.450  0.1382 -1.4634  0.9210
 2130SOL    HW217850   2.292   1.831   8.484 -1.0881 -0.4762 -0.9242
 2131SOL     OW17851   1.041   2.755  15.124  0.0956  0.1810 -0.2153
 2131SOL    HW117852   1.045   2.682  15.062 -0.2355  0.9252 -1.1004
 2131SOL    HW217853   1.111   2.812  15.093 -0.4924 -0.0834 -1.9976
 2132SOL     OW17854   3.506   1.920   6.122 -0.1624 -0.7011 -0.1551
 2132SOL    HW117855   3.588   1.898   6.166 -0.7043 -0.9503  0.7295
 2132SOL    HW217856   3.529   2.005   6.084  1.8061 -2.3965 -2.6949
 2133SOL     OW17857   0.813   0.425   5.039  0.0717 -0.0101  0.1301
 2133SOL    HW117858   0.794   0.426   4.945  0.2065  0.6682  0.1047
 2133SOL    HW217859   0.860   0.342   5.044 -0.3162 -0.2281  0.1196
 2134SOL     OW17860   0.284   1.075   3.735 -0.3214 -0.0730  0.4289
 2134SOL    HW117861   0.228   1.014   3.784  2.1323 -2.3330  0.4554
 2134SOL    HW217862   0.332   1.119   3.805  0.9419  1.7136 -1.5494
 2135SOL     OW17863   0.114   1.507   1.664  0.1102 -0.1415  0.1003
 2135SOL    HW117864   0.095   1.564   1.738 -0.6120  0.0946 -0.2655
 2135SOL    HW217865   0.062   1.544   1.593 -1.3974 -0.9330  0.7895
 2136SOL     OW17866   2.575   0.191   8.231 -0.7186 -0.0231  0.8207
 2136SOL    HW117867   2.497   0.149   8.195 -0.1051 -1.9920  1.7476
 2136SOL    HW217868   2.562   0.278   8.195 -0.6068 -0.7994 -1.0572
 2137SOL     OW17869   1.875   2.712   2.056  0.2339  0.3895  0.2155
 2137SOL    HW117870   1.845   2.768   2.128  1.0827  0.8818  0.1894
 2137SOL    HW217871   1.791   2.678   2.025 -0.9959  2.1256  1.6146
 2138SOL     OW17872   4.336   2.649   6.545  0.4657  0.3468  0.3542
 2138SOL    HW117873   4.264   2.667   6.606  2.8295  2.5149  2.4517
 2138SOL    HW217874   4.361   2.562   6.578 -3.0541 -0.7412  0.1656
 2139SOL     OW17875   2.101   4.696   3.575  0.5960  0.3304  0.1371
 2139SOL    HW117876   2.007   4.704   3.559  0.7813 -0.2481 -1.2194
 2139SOL    HW217877   2.119   0.063   3.609 -0.4404  1.0213 -1.1157
 2140SOL     OW17878   3.296   2.739  16.091  0.2255 -0.0138  0.4259
 2140SOL    HW117879   3.345   2.812  16.054 -1.2891  0.2883 -0.9919
 2140SOL    HW217880   3.319   2.737  16.184 -0.0560  0.9879  0.5206
 2141SOL     OW17881   1.004   2.282   0.758  0.1727 -0.7109 -0.0217
 2141SOL    HW117882   0.984   2.188   0.752  1.0811 -0.9598  0.7516
 2141SOL    HW217883   0.915   2.317   0.757  0.1189 -0.9233 -2.7290
 2142SOL     OW17884   2.872   2.488   4.777 -0.8057  0.1793 -0.2724
 2142SOL    HW117885   2.813   2.419   4.810  2.8426 -3.3210 -1.0213
 2142SOL    HW217886   2.825   2.560   4.818  1.7318  1.0932  0.9978
 2143SOL     OW17887   1.621   1.497  15.698 -0.7985  0.2790  0.0025
 2143SOL    HW117888   1.537   1.539  15.686  0.7897  3.2326 -0.7636
 2143SOL    HW217889   1.662   1.572  15.742  1.6388 -0.8396 -0.3721
 2144SOL     OW17890   0.869   1.065   8.998  0.1525 -0.0543 -0.0819
 2144SOL    HW117891   0.834   1.110   9.075 -2.2773 -2.1422  0.0636
 2144SOL    HW217892   0.963   1.082   9.001  0.2818 -0.7873  0.1361
 2145SOL     OW17893   0.821   0.266   5.427  0.4732  0.4210 -0.7166
 2145SOL    HW117894   0.755   0.197   5.435  0.5561  0.4682  0.2973
 2145SOL    HW217895   0.783   0.323   5.493  1.3667 -0.2967  0.4034
 2146SOL     OW17896   0.476   0.174   2.859  0.6633 -0.4693 -0.3713
 2146SOL    HW117897   0.454   0.184   2.767  0.8384  0.5844 -0.2953
 2146SOL    HW217898   0.450   0.083   2.875 -2.4956  0.4720 -0.3392
 2147SOL     OW17899   0.274   0.006   7.148  0.5965  0.4999  0.3328
 2147SOL    HW117900   0.239   0.095   7.137  0.1666  0.3422  0.4138
 2147SOL    HW217901   0.215   4.681   7.207  0.7889 -0.8998 -0.5699
 2148SOL     OW17902   1.543   2.501   8.806 -0.3409  0.0306  0.1398
 2148SOL    HW117903   1.532   2.417   8.763  0.0372  0.0221  0.0590
 2148SOL    HW217904   1.566   2.559   8.733 -1.9991  0.7806  0.2026
 2149SOL     OW17905   2.747   1.825  12.783 -0.3310  0.0314  0.2518
 2149SOL    HW117906   2.678   1.770  12.820  0.2523 -2.5732 -2.5568
 2149SOL    HW217907   2.775   1.875  12.859  0.5986  1.2253 -0.8638
 2150SOL     OW17908   1.665   4.003   3.684  0.2152  0.6052  0.7154
 2150SOL    HW117909   1.732   3.934   3.683 -1.4131 -0.9348 -1.0561
 2150SOL    HW217910   1.642   4.015   3.592  1.3984 -0.8468  0.2268
 2151SOL     OW17911   1.512   1.494   9.539  0.2525 -0.6277 -0.4972
 2151SOL    HW117912   1.443   1.552   9.571 -1.8000 -1.6436 -2.9893
 2151SOL    HW217913   1.558   1.462   9.616 -0.4069 -1.6500 -0.5194
 2152SOL     OW17914   1.540   3.233   6.065  0.1422  0.0338 -0.5090
 2152SOL    HW117915   1.470   3.169   6.074  1.2228 -0.7386  2.2821
 2152SOL    HW217916   1.590   3.199   5.990  0.3426 -2.7245  0.8869
 2153SOL     OW17917   2.313   1.956  11.506  0.2543 -0.0394 -0.2326
 2153SOL    HW117918   2.375   1.981  11.575 -1.8388 -0.2694  1.7056
 2153SOL    HW217919   2.361   1.886  11.461 -2.5679 -1.2841 -1.2977
 2154SOL     OW17920   4.233   0.296   4.880  0.0085  0.4711  0.8910
 2154SOL    HW117921   4.284   0.338   4.949 -1.6128  1.0812  1.7015
 2154SOL    HW217922   4.270   0.208   4.879  1.1890  0.9843 -0.6922
 2155SOL     OW17923   2.354   3.853  13.244  0.8000  0.4869 -0.3594
 2155SOL    HW117924   2.322   3.941  13.227 -3.4248 -1.0666 -0.2991
 2155SOL    HW217925   2.271   3.806  13.241  2.0767 -1.9503  1.7260
 2156SOL     OW17926   2.265   1.498  14.907 -0.3199  0.2148 -0.6603
 2156SOL    HW117927   2.264   1.427  14.971 -1.0078 -1.0219 -2.0531
 2156SOL    HW217928   2.280   1.448  14.827 -0.2714  2.3938 -2.0021
 2157SOL     OW17929   3.738   2.667   7.624  0.4916  0.5521 -0.2486
 2157SOL    HW117930   3.723   2.718   7.544  3.5303  0.2417 -1.0246
 2157SOL    HW217931   3.759   2.733   7.690 -2.1847 -0.3451  1.4753
 2158SOL     OW17932   2.630   0.463   1.959 -0.0997  0.0188  0.1937
 2158SOL    HW117933   2.685   0.406   2.013  0.1811 -0.2144 -0.3336
 2158SOL    HW217934   2.645   0.547   2.002 -0.5689  0.1962 -0.0012
 2159SOL     OW17935   4.082   2.028   7.146  0.0636  0.2302 -0.4228
 2159SOL    HW117936   4.044   2.005   7.231  0.1954  1.9106  0.0814
 2159SOL    HW217937   4.033   2.108   7.127 -0.7629 -0.1103  0.2384
 2160SOL     OW17938   3.732   3.142   8.388  0.3446  0.6691  0.2012
 2160SOL    HW117939   3.791   3.069   8.366 -1.7677 -0.8818 -0.2527
 2160SOL    HW217940   3.696   3.110   8.472  0.1709  1.0181  0.2564
 2161SOL     OW17941   2.976   3.659   3.518 -0.1373 -0.5862 -0.5660
 2161SOL    HW117942   2.892   3.626   3.487 -0.7375 -0.0532  0.4922
 2161SOL    HW217943   2.960   3.691   3.607  1.2862 -0.3240 -0.3927
 2162SOL     OW17944   4.662   2.735  12.040 -1.1398  0.6092 -0.0851
 2162SOL    HW117945   4.631   2.814  12.084 -2.0416  0.7092 -0.8976
 2162SOL    HW217946   4.631   2.675  12.108  2.4757  0.1174  1.1156
 2163SOL     OW17947   2.849   4.172  17.563  0.2299  0.2934  0.9505
 2163SOL    HW117948   2.758   4.145  17.560 -0.3578  2.3809 -0.3394
 2163SOL    HW217949   2.841   4.268  17.569 -1.0795  0.2334  0.1983
 2164SOL     OW17950   0.280   3.353   7.253 -0.4399 -0.0668  0.1293
 2164SOL    HW117951   0.308   3.343   7.345  2.1494 -0.0580 -0.6444
 2164SOL    HW217952   0.320   3.435   7.224 -0.5634  0.2025  0.7075
 2165SOL     OW17953   3.274   3.288   4.436  0.0900  0.0177  0.1289
 2165SOL    HW117954   3.222   3.227   4.383 -0.4351 -0.2463  0.9407
 2165SOL    HW217955   3.323   3.338   4.371  0.8966 -0.4940  0.3525
 2166SOL     OW17956   1.700   2.022   8.099  0.2260  0.2850  0.1359
 2166SOL    HW117957   1.618   2.037   8.146 -0.7959 -1.1088 -1.2029
 2166SOL    HW217958   1.755   2.004   8.175  0.2235  0.7179  0.2409
 2167SOL     OW17959   2.725   3.907   1.575  0.6258 -0.2950  0.2096
 2167SOL    HW117960   2.810   3.879   1.540  1.2075  0.9554  0.6397
 2167SOL    HW217961   2.756   3.970   1.639  0.4929 -0.0733  0.0539
 2168SOL     OW17962   0.395   1.301   2.805 -0.1305 -0.3608 -0.2929
 2168SOL    HW117963   0.333   1.229   2.801  1.0447 -1.2600 -2.0501
 2168SOL    HW217964   0.367   1.367   2.742 -0.3115 -2.5526 -2.4998
 2169SOL     OW17965   4.230   4.184   8.100  0.0618  0.3575  0.3896
 2169SOL    HW117966   4.289   4.125   8.055  0.9565 -0.9370  3.2556
 2169SOL    HW217967   4.223   4.262   8.045 -0.9382  0.8813  1.2491
 2170SOL     OW17968   0.604   1.036   7.984  0.0627 -0.3155  0.0311
 2170SOL    HW117969   0.534   1.080   8.031 -0.0329 -1.0139  0.5418
 2170SOL    HW217970   0.638   0.982   8.055  0.3066  0.7174  0.6990
 2171SOL     OW17971   1.349   2.470   2.207  0.0806 -0.5036 -0.4166
 2171SOL    HW117972   1.372   2.449   2.298 -0.2914  0.6691 -0.0521
 2171SOL    HW217973   1.264   2.428   2.218 -0.3610  1.0854  2.2551
 2172SOL     OW17974   3.007   3.525   4.742 -0.2137  0.0647  0.3625
 2172SOL    HW117975   3.065   3.518   4.818 -0.0188  0.4033  0.2439
 2172SOL    HW217976   3.013   3.619   4.726  0.4292  0.1796  1.2866
 2173SOL     OW17977   0.243   2.922   1.907  0.3585  0.7704 -0.2646
 2173SOL    HW117978   0.173   2.857   1.897  0.7399  0.0615  1.6902
 2173SOL    HW217979   0.285   2.917   1.821 -1.4216  0.6139 -1.1083
 2174SOL     OW17980   2.603   3.898   2.625  0.6534 -0.1451 -0.0772
 2174SOL    HW117981   2.660   3.902   2.549  0.6652 -0.7680 -0.0960
 2174SOL    HW217982   2.629   3.814   2.663  1.4721 -0.0389 -0.3947
 2175SOL     OW17983   3.359   3.863   3.810 -0.3001 -0.2510  0.2560
 2175SOL    HW117984   3.414   3.807   3.865 -0.1092 -0.4533 -0.1445
 2175SOL    HW217985   3.279   3.837   3.857 -0.9282 -0.6488 -1.0331
 2176SOL     OW17986   1.992   0.627  13.628  0.0346  0.1168 -0.5044
 2176SOL    HW117987   2.059   0.603  13.564  0.7159  1.2117 -0.2140
 2176SOL    HW217988   1.976   0.543  13.672  0.0340  1.4888  2.1161
 2177SOL     OW17989   4.318   3.913   3.006 -0.5880  0.2150  0.4684
 2177SOL    HW117990   4.350   3.904   3.096  3.3678  1.3536 -0.7838
 2177SOL    HW217991   4.390   3.880   2.951 -2.0482 -0.7189 -0.8766
 2178SOL     OW17992   2.486   1.218   5.226  0.4345 -0.4491 -0.1937
 2178SOL    HW117993   2.513   1.188   5.139 -0.6828 -0.3534 -0.5658
 2178SOL    HW217994   2.529   1.145   5.272 -1.1818  0.1737  2.2788
 2179SOL     OW17995   4.687   3.210   8.145  0.2777  0.3466  0.2521
 2179SOL    HW117996   0.007   3.220   8.059 -0.3503  2.3191  0.1923
 2179SOL    HW217997   4.708   3.288   8.197 -0.9497  2.4316 -2.4211
 2180SOL     OW17998   2.617   0.551   2.597  0.4811  0.3240  0.2305
 2180SOL    HW117999   2.621   0.632   2.546  1.9365 -0.0445 -0.2317
 2180SOL    HW218000   2.571   0.577   2.677  1.6968  0.7759  0.7871
 2181SOL     OW18001   1.530   3.070  15.602 -0.3189 -0.4097  0.1316
 2181SOL    HW118002   1.566   3.099  15.519  1.8056  1.7801  1.8059
 2181SOL    HW218003   1.528   2.975  15.595 -1.0103 -0.5188  1.6581
 2182SOL     OW18004   4.203   3.577   6.286  0.3312 -0.0718  0.2349
 2182SOL    HW118005   4.200   3.482   6.270 -1.7657 -0.4476  2.9403
 2182SOL    HW218006   4.203   3.588   6.381 -0.1658  0.3966  0.1748
 2183SOL     OW18007   4.659   1.841  12.718  0.2532  0.3268 -0.1201
 2183SOL    HW118008   4.692   1.757  12.751 -1.6820 -0.7574 -0.9346
 2183SOL    HW218009   4.711   1.849  12.638 -2.4251  1.1816 -1.7810
 2184SOL     OW18010   0.508   3.532  15.905  0.5069  0.3863  0.1316
 2184SOL    HW118011   0.455   3.601  15.945  0.6750  0.0114  0.9931
 2184SOL    HW218012   0.463   3.509  15.824 -1.8617 -1.1368  1.8895
 2185SOL     OW18013   0.737   2.007   8.467  0.6114 -0.5405  0.4182
 2185SOL    HW118014   0.686   2.087   8.473 -1.6528 -1.9334 -0.1697
 2185SOL    HW218015   0.785   2.010   8.550 -0.3586 -2.2922  1.0460
 2186SOL     OW18016   4.175   3.623   6.886  0.0828  0.3700  0.6102
 2186SOL    HW118017   4.134   3.619   6.972 -0.4238 -0.9879  0.3041
 2186SOL    HW218018   4.258   3.664   6.909  0.3581 -0.0460  0.3359
 2187SOL     OW18019   3.025   1.067   4.882 -0.3953  0.0642 -0.6292
 2187SOL    HW118020   2.934   1.089   4.904 -0.1974 -0.5101  0.7622
 2187SOL    HW218021   3.030   0.998   4.949  0.4020  1.5117  0.7891
 2188SOL     OW18022   3.136   3.556   6.233 -0.5031  0.2821  0.3145
 2188SOL    HW118023   3.172   3.583   6.149  0.6542 -0.4224  0.5762
 2188SOL    HW218024   3.046   3.581   6.212  0.2454  0.7069 -2.3600
 2189SOL     OW18025   3.942   1.227  12.964  0.4301 -0.2194 -0.3633
 2189SOL    HW118026   3.856   1.245  12.925 -0.0698  1.7093  1.6139
 2189SOL    HW218027   3.953   1.314  13.002  1.2422 -0.7580  0.6431
 2190SOL     OW18028   4.090   1.871   5.654 -0.0309 -0.0332  0.4399
 2190SOL    HW118029   4.172   1.846   5.695 -0.6212 -0.7351  1.1847
 2190SOL    HW218030   4.079   1.814   5.578  2.9113 -0.7345  0.5303
 2191SOL     OW18031   3.413   2.996   2.614 -0.0006 -0.1579  0.2731
 2191SOL    HW118032   3.481   2.932   2.635 -0.4497 -1.2516 -1.5750
 2191SOL    HW218033   3.466   3.062   2.570  1.7220 -0.1457  2.3814
 2192SOL     OW18034   2.197   2.123   5.752 -0.5866 -0.4733 -0.0741
 2192SOL    HW118035   2.115   2.075   5.748 -0.1609 -1.0852 -1.5005
 2192SOL    HW218036   2.194   2.169   5.669 -0.7226 -0.2759  0.0415
 2193SOL     OW18037   0.591   1.982   7.546  0.2447  0.4717 -0.0096
 2193SOL    HW118038   0.562   2.050   7.607 -0.9012  0.4733 -0.5393
 2193SOL    HW218039   0.516   1.922   7.542 -0.5404  1.2556  2.6050
 2194SOL     OW18040   3.895   0.076   4.432 -0.2136  0.2428  0.5058
 2194SOL    HW118041   3.844   0.151   4.462  0.8945  0.6277  1.4354
 2194SOL    HW218042   3.887   0.016   4.506  1.3259  0.8238  1.1425
 2195SOL     OW18043   3.462   1.910   1.998  0.2707 -0.1645 -0.2242
 2195SOL    HW118044   3.521   1.903   2.073  0.7806  0.3374 -0.5831
 2195SOL    HW218045   3.505   1.859   1.929 -1.7242 -1.3300 -0.6023
 2196SOL     OW18046   1.012   1.526   9.489  0.7095 -0.6111  0.2380
 2196SOL    HW118047   1.050   1.457   9.434  1.5660  0.2577 -0.2450
 2196SOL    HW218048   0.975   1.467   9.555  1.2984 -1.0163  0.2085
 2197SOL     OW18049   4.002   3.343   2.433  0.0158  0.3083 -0.2989
 2197SOL    HW118050   4.037   3.294   2.359 -0.7017  1.4724 -1.4220
 2197SOL    HW218051   3.961   3.273   2.483 -0.1959 -0.1981 -1.1935
 2198SOL     OW18052   0.958   3.483   7.245  0.1050 -0.2409  0.1520
 2198SOL    HW118053   0.898   3.552   7.274 -1.9276 -1.7822 -0.3853
 2198SOL    HW218054   0.944   3.490   7.150 -0.0828 -1.0462  0.1159
 2199SOL     OW18055   0.266   1.825  16.995  0.3783  0.9072 -0.1918
 2199SOL    HW118056   0.313   1.747  17.027 -0.5670  0.9172  1.2227
 2199SOL    HW218057   0.241   1.794  16.908 -2.9172  0.6421  0.8163
 2200SOL     OW18058   2.744   4.472  12.063  0.0191 -0.4990 -0.4148
 2200SOL    HW118059   2.826   4.423  12.072  1.5495  1.8243 -1.6956
 2200SOL    HW218060   2.700   4.423  11.994  2.3305  1.1503 -3.0920
 2201SOL     OW18061   2.991   1.126   7.155 -0.6215  0.1050  0.7069
 2201SOL    HW118062   2.914   1.142   7.101 -1.5765 -0.6445  1.8573
 2201SOL    HW218063   2.966   1.045   7.198  0.7279  0.0624  1.4079
 2202SOL     OW18064   0.701   1.305   0.414  0.2073 -0.2289  0.1431
 2202SOL    HW118065   0.655   1.287   0.332 -1.3493 -0.6875  1.1111
 2202SOL    HW218066   0.729   1.392   0.383 -1.0176  0.6702  1.5279
 2203SOL     OW18067   1.901   0.996   5.683 -0.3432  0.5706 -0.4985
 2203SOL    HW118068   1.878   0.954   5.766  0.2209  1.3887  0.0701
 2203SOL    HW218069   1.859   1.082   5.682 -1.9830 -0.2412 -2.1146
 2204SOL     OW18070   1.983   4.063   6.965  0.8375 -0.0823 -0.3383
 2204SOL    HW118071   2.076   4.087   6.969  1.2407 -1.1531 -3.3254
 2204SOL    HW218072   1.965   4.088   7.056 -0.6076  1.0484 -0.9371
 2205SOL     OW18073   2.003   1.037  16.824 -0.2885 -0.0403 -0.2716
 2205SOL    HW118074   1.978   1.017  16.734 -2.7018  5.9035 -0.9376
 2205SOL    HW218075   2.072   1.102  16.813  0.3289 -0.5421  0.6328
 2206SOL     OW18076   1.525   0.485   5.940  1.1361 -0.3956  0.0672
 2206SOL    HW118077   1.566   0.460   5.857  2.3647  1.3778  0.1262
 2206SOL    HW218078   1.598   0.479   6.002 -0.8512 -0.3915  2.3805
 2207SOL     OW18079   1.660   1.378   6.423 -0.2892 -0.2508 -0.3446
 2207SOL    HW118080   1.632   1.306   6.480  0.8406 -1.4832 -1.3266
 2207SOL    HW218081   1.709   1.431   6.485  1.8356  0.3270 -2.4957
 2208SOL     OW18082   2.344   3.772   0.430 -0.1653 -0.0857 -0.3135
 2208SOL    HW118083   2.252   3.783   0.403 -1.3212  3.4762  5.1011
 2208SOL    HW218084   2.337   3.784   0.524 -0.5007  2.2738 -0.6338
 2209SOL     OW18085   3.704   3.526  17.427  0.0625  0.0482  0.5290
 2209SOL    HW118086   3.673   3.517  17.337 -3.6516  1.2710  1.6721
 2209SOL    HW218087   3.655   3.606  17.446 -0.0448  0.2356 -0.5482
 2210SOL     OW18088   0.854   1.452   5.859  0.1033 -0.0003 -0.4703
 2210SOL    HW118089   0.912   1.388   5.899  1.0450 -0.0480 -1.8741
 2210SOL    HW218090   0.878   1.535   5.900 -0.1373 -0.9762  1.6133
 2211SOL     OW18091   1.849   0.614   4.426 -0.4478 -0.1976 -0.6472
 2211SOL    HW118092   1.869   0.680   4.359 -1.0149  1.2600  0.6082
 2211SOL    HW218093   1.850   0.671   4.503  1.9467  0.6362 -1.2929
 2212SOL     OW18094   4.431   0.929  15.280 -0.2680  0.1806 -0.0182
 2212SOL    HW118095   4.450   0.946  15.188 -1.8219 -2.8117 -0.8838
 2212SOL    HW218096   4.462   1.013  15.315  1.2171  0.0345 -0.9524
 2213SOL     OW18097   1.968   0.672   6.125 -0.5051 -0.0556 -0.0544
 2213SOL    HW118098   2.000   0.673   6.216  0.7144 -0.3092 -0.4704
 2213SOL    HW218099   2.049   0.646   6.081 -2.1324 -1.7804 -1.9804
 2214SOL     OW18100   3.435   0.493   6.512  0.3758  0.2692  1.1846
 2214SOL    HW118101   3.483   0.426   6.561 -0.2833 -2.1643 -1.4767
 2214SOL    HW218102   3.364   0.434   6.487  1.3833 -0.0535 -0.8905
 2215SOL     OW18103   4.230   3.916   2.163 -0.1571  0.4201 -0.5655
 2215SOL    HW118104   4.312   3.898   2.117 -1.3105  0.0912 -2.5181
 2215SOL    HW218105   4.260   3.990   2.215  0.3812 -0.4337  0.3571
 2216SOL     OW18106   4.289   2.985   8.173  0.2203 -0.0775  0.0748
 2216SOL    HW118107   4.378   2.987   8.137 -0.8090  1.4197 -2.3899
 2216SOL    HW218108   4.235   3.011   8.098 -1.4969 -1.2243  0.9159
 2217SOL     OW18109   3.152   4.432   2.464  0.1155  0.4958  0.8350
 2217SOL    HW118110   3.149   4.487   2.542  0.9799 -0.1190  1.3058
 2217SOL    HW218111   3.125   4.507   2.410  0.4562  0.9400  1.2768
 2218SOL     OW18112   2.199   1.987  13.355  0.3816 -0.5877  0.6060
 2218SOL    HW118113   2.270   1.930  13.383  0.9767 -0.0582  0.1755
 2218SOL    HW218114   2.202   2.058  13.420  0.7890 -1.4893  1.5597
 2219SOL     OW18115   2.223   4.153   5.467 -0.1630 -0.1588  0.3202
 2219SOL    HW118116   2.264   4.145   5.381 -1.2322  1.5438 -0.3461
 2219SOL    HW218117   2.279   4.222   5.501  0.2193  0.3923 -1.4457
 2220SOL     OW18118   4.048   0.446   6.331 -0.2850  0.5190 -0.6334
 2220SOL    HW118119   4.044   0.482   6.243 -1.0373 -0.9264 -1.1906
 2220SOL    HW218120   4.125   0.389   6.336  1.7305  3.1845 -1.1340
 2221SOL     OW18121   0.287   1.928   7.805  0.0002  0.0801  0.2594
 2221SOL    HW118122   0.209   1.904   7.755 -0.1913  1.4296 -0.0943
 2221SOL    HW218123   0.252   1.952   7.891  0.1421 -1.9041  0.8604
 2222SOL     OW18124   0.834   2.662   6.597 -0.4240 -0.7126  0.3474
 2222SOL    HW118125   0.812   2.631   6.509 -3.2852 -1.4332  1.3166
 2222SOL    HW218126   0.888   2.740   6.584 -0.5064 -0.7868 -0.4321
 2223SOL     OW18127   2.112   4.256   6.613 -0.0696 -0.3157 -0.0812
 2223SOL    HW118128   2.145   4.329   6.664 -0.8769  0.6049 -0.8778
 2223SOL    HW218129   2.026   4.290   6.589  0.0615  1.0871  1.4391
 2224SOL     OW18130   0.472   0.657   2.389 -0.0033  0.2464  0.4839
 2224SOL    HW118131   0.389   0.691   2.422 -0.5189  1.3014 -1.9498
 2224SOL    HW218132   0.479   0.583   2.450 -0.6492 -0.0828  0.1601
 2225SOL     OW18133   1.509   4.317   7.615 -0.3509 -0.3053 -0.3952
 2225SOL    HW118134   1.600   4.336   7.635 -1.0278  0.6998  1.8594
 2225SOL    HW218135   1.494   4.249   7.681  0.2016  1.7333  1.8333
 2226SOL     OW18136   0.867   1.641   2.220 -0.1116  0.0197 -0.5105
 2226SOL    HW118137   0.955   1.676   2.213 -0.0764  0.5891  2.8032
 2226SOL    HW218138   0.866   1.601   2.307 -1.3149 -1.0903 -1.0351
 2227SOL     OW18139   3.673   4.111   2.421  0.4293 -0.0530  0.2530
 2227SOL    HW118140   3.620   4.033   2.435  2.2723 -1.1653  1.0307
 2227SOL    HW218141   3.613   4.172   2.378 -1.3935  0.4036  3.5102
 2228SOL     OW18142   2.117   0.089   3.979  0.3573 -0.0990  0.7228
 2228SOL    HW118143   2.022   0.079   3.984  0.1115  1.5282 -0.8467
 2228SOL    HW218144   2.127   0.178   4.012 -1.4694  1.0423 -1.8235
 2229SOL     OW18145   3.318   2.507   8.136 -0.8423 -0.0739  0.8381
 2229SOL    HW118146   3.370   2.427   8.129  0.1199  0.5938  0.3892
 2229SOL    HW218147   3.299   2.504   8.230 -1.3311 -0.8285  0.7180
 2230SOL     OW18148   3.991   1.853  11.865 -0.3300  0.4451  0.2180
 2230SOL    HW118149   3.941   1.909  11.925 -0.2426  0.9841 -0.2096
 2230SOL    HW218150   4.057   1.910  11.825  0.2967 -0.9284 -0.7145
 2231SOL     OW18151   0.915   1.756  12.392 -0.2325  0.4691  0.4992
 2231SOL    HW118152   0.984   1.778  12.455  0.5739 -0.3376 -0.1102
 2231SOL    HW218153   0.957   1.713  12.317 -1.2828 -0.0278  0.1924
 2232SOL     OW18154   2.502   1.773   5.855  0.5565 -0.5716  0.0884
 2232SOL    HW118155   2.494   1.862   5.888 -0.5444 -0.4031 -0.6430
 2232SOL    HW218156   2.416   1.743   5.824  0.3754  1.4361 -1.2696
 2233SOL     OW18157   2.717   4.186   6.698  0.3015 -0.0231 -0.3373
 2233SOL    HW118158   2.807   4.161   6.719  1.0736  0.8920 -2.5894
 2233SOL    HW218159   2.715   4.189   6.602 -0.6334  2.3022 -0.2620
 2234SOL     OW18160   4.105   3.693   8.245 -1.0745 -0.1015 -0.0008
 2234SOL    HW118161   4.011   3.677   8.250 -0.7624 -2.3263 -1.1647
 2234SOL    HW218162   4.100   3.768   8.185  0.9982  1.0128  1.1901
 2235SOL     OW18163   2.934   3.321   5.589  0.0429  0.2737  0.2192
 2235SOL    HW118164   2.928   3.225   5.586 -0.3776  0.2971  0.2323
 2235SOL    HW218165   2.851   3.343   5.632 -1.8059 -0.2399 -3.0000
 2236SOL     OW18166   1.087   1.872   8.107 -0.3178 -0.4926 -0.0253
 2236SOL    HW118167   1.074   1.929   8.031 -0.0559  1.4314  1.3875
 2236SOL    HW218168   1.039   1.911   8.179  0.0089  0.0494 -0.1028
 2237SOL     OW18169   0.691   2.998   8.257  0.5804  0.1272  0.4617
 2237SOL    HW118170   0.614   2.956   8.216 -1.7694  0.9271  4.0629
 2237SOL    HW218171   0.648   3.056   8.319 -0.8875  0.6987 -1.0732
 2238SOL     OW18172   0.771   1.670   4.124  0.1243 -0.4019 -0.0224
 2238SOL    HW118173   0.685   1.679   4.164  0.3933  0.2683  0.4115
 2238SOL    HW218174   0.818   1.735   4.176 -1.1757  0.8631 -0.4077
 2239SOL     OW18175   3.413   4.676   2.682 -0.4178  0.4518  0.0271
 2239SOL    HW118176   3.424   0.040   2.641 -1.1648 -1.0175 -3.1928
 2239SOL    HW218177   3.493   4.668   2.733 -2.6644  1.8376  3.8175
 2240SOL     OW18178   3.416   2.793   7.701 -0.4849 -0.0568 -0.0783
 2240SOL    HW118179   3.403   2.699   7.687 -0.8389  0.9501 -6.8877
 2240SOL    HW218180   3.455   2.797   7.788  1.3126 -0.9787 -0.8296
 2241SOL     OW18181   1.596   1.723  12.377 -0.3073 -0.6785  0.2945
 2241SOL    HW118182   1.621   1.815  12.378  0.5525 -0.9113  0.3336
 2241SOL    HW218183   1.628   1.687  12.294 -3.3198 -1.3168 -0.6169
 2242SOL     OW18184   3.713   1.994   0.780 -0.4991  0.0780  0.1031
 2242SOL    HW118185   3.672   2.072   0.744  2.3352  1.7675  0.5194
 2242SOL    HW218186   3.670   1.977   0.864  0.7988 -0.3598  0.6880
 2243SOL     OW18187   4.228   3.902  13.120  0.3120  0.0711 -0.0982
 2243SOL    HW118188   4.241   3.817  13.078 -1.6547  0.2284 -1.0184
 2243SOL    HW218189   4.309   3.911  13.170  0.2630  0.6155 -0.1218
 2244SOL     OW18190   0.613   3.361   4.846  0.2283 -0.1452  0.8668
 2244SOL    HW118191   0.677   3.303   4.802  2.3212  1.1366  2.2351
 2244SOL    HW218192   0.534   3.308   4.845 -0.9274  1.5971  0.9692
 2245SOL     OW18193   3.309   4.582   7.368 -0.1586 -0.1660  0.2463
 2245SOL    HW118194   3.333   4.494   7.395 -0.5004 -0.3798 -0.1306
 2245SOL    HW218195   3.242   4.570   7.300 -2.8452 -0.0039  2.8364
 2246SOL     OW18196   2.945   2.170   0.451 -0.1162 -0.4211 -0.6404
 2246SOL    HW118197   2.886   2.095   0.460  0.5705 -0.9135 -0.3165
 2246SOL    HW218198   3.016   2.134   0.504  0.5277  0.0705 -1.1794
 2247SOL     OW18199   2.447   4.055  14.528 -0.3020 -0.3811 -0.3390
 2247SOL    HW118200   2.481   4.133  14.484 -1.4695  1.4820  2.0294
 2247SOL    HW218201   2.363   4.087  14.562 -1.0555 -1.7380 -0.8910
 2248SOL     OW18202   1.511   2.320   1.570 -0.2728 -0.3666  0.0787
 2248SOL    HW118203   1.570   2.309   1.495 -0.5907 -2.8304  0.2185
 2248SOL    HW218204   1.510   2.415   1.585  0.7533  0.0441 -2.4572
 2249SOL     OW18205   0.498   0.767   4.842 -0.0851  0.4567  0.6333
 2249SOL    HW118206   0.497   0.675   4.870  0.6757 -0.3336 -1.9933
 2249SOL    HW218207   0.576   0.769   4.787  0.1723  1.8374  1.0523
 2250SOL     OW18208   1.667   3.409  14.469 -0.1647  0.0435  0.6327
 2250SOL    HW118209   1.683   3.358  14.389 -2.8137  0.7464 -0.3379
 2250SOL    HW218210   1.599   3.467  14.436  0.1218 -0.8638 -1.5535
 2251SOL     OW18211   3.786   2.325   5.429 -0.2286  0.8426 -0.3355
 2251SOL    HW118212   3.749   2.409   5.402 -0.7725  0.5124 -0.6098
 2251SOL    HW218213   3.800   2.343   5.522 -1.1369 -0.5700  0.0771
 2252SOL     OW18214   1.891   1.711   8.306 -0.6317 -0.0346 -0.0493
 2252SOL    HW118215   1.800   1.699   8.277 -0.4440 -1.0891 -0.2074
 2252SOL    HW218216   1.950   1.697   8.232  1.0616 -0.8780  1.4479
 2253SOL     OW18217   1.422   3.980  13.147 -0.3720 -0.2663 -0.2344
 2253SOL    HW118218   1.373   4.062  13.156 -0.1649 -0.3139  1.4863
 2253SOL    HW218219   1.430   3.951  13.238  1.3102  0.7476 -0.0576
 2254SOL     OW18220   4.224   4.370   7.482 -0.3601  0.8324 -0.1431
 2254SOL    HW118221   4.150   4.421   7.514 -0.4080 -0.3137  1.5743
 2254SOL    HW218222   4.194   4.286   7.515 -0.0600 -0.4652 -3.1908
 2255SOL     OW18223   2.531   2.027  17.502  0.6653 -0.0088 -0.0760
 2255SOL    HW118224   2.496   2.105  17.459 -1.9513 -0.5632  1.0534
 2255SOL    HW218225   2.468   1.960  17.476  1.5549 -0.6907 -0.4842
 2256SOL     OW18226   4.627   3.742   3.397 -0.3709  0.5923 -0.2019
 2256SOL    HW118227   4.608   3.691   3.318  0.8347  2.1867 -1.5129
 2256SOL    HW218228   4.651   3.674   3.459 -0.8018  1.8021  1.2810
 2257SOL     OW18229   0.179   1.138   1.454  0.4825  0.3363 -0.3882
 2257SOL    HW118230   0.255   1.196   1.461 -0.9733  2.5319 -2.8910
 2257SOL    HW218231   0.174   1.124   1.360  0.6103 -0.2528 -0.3079
 2258SOL     OW18232   1.573   3.521   3.584 -0.4699  0.4732 -0.4411
 2258SOL    HW118233   1.628   3.599   3.581 -0.4396  0.4667 -0.0462
 2258SOL    HW218234   1.488   3.561   3.605 -0.6976 -1.0245  1.5121
 2259SOL     OW18235   0.629   2.528   6.114 -0.4509  0.3181 -0.5694
 2259SOL    HW118236   0.682   2.555   6.039  0.8322  0.0554  0.2428
 2259SOL    HW218237   0.570   2.469   6.067  1.8069 -2.2178 -0.2276
 2260SOL     OW18238   1.733   2.631  14.675 -0.2306  0.4219  0.1958
 2260SOL    HW118239   1.766   2.546  14.704  0.9385  0.4775 -0.9738
 2260SOL    HW218240   1.731   2.618  14.580  1.8037 -0.0416  0.2133
 2261SOL     OW18241   3.210   2.203   4.248 -0.5740  0.0157  0.3376
 2261SOL    HW118242   3.258   2.228   4.170  0.0164 -2.4046 -0.0962
 2261SOL    HW218243   3.166   2.287   4.258  1.4632  1.1133  0.1323
 2262SOL     OW18244   3.264   3.589  10.950 -0.3637 -0.4245 -0.0257
 2262SOL    HW118245   3.346   3.550  10.922 -0.7879 -0.4997 -1.1780
 2262SOL    HW218246   3.268   3.561  11.041 -2.0047  4.1870  1.4763
 2263SOL     OW18247   1.859   3.560   6.863  0.7825 -0.2215  0.3471
 2263SOL    HW118248   1.874   3.475   6.904 -2.3669 -1.9155 -1.9660
 2263SOL    HW218249   1.901   3.616   6.928  1.0120 -0.5659  0.5007
 2264SOL     OW18250   2.986   2.350   4.589  0.9922 -0.5929 -0.1136
 2264SOL    HW118251   2.947   2.411   4.652  0.8555 -1.6078  0.7979
 2264SOL    HW218252   2.927   2.275   4.594  1.4407 -1.1496 -3.1319
 2265SOL     OW18253   4.497   4.262  15.132 -0.9229 -0.9359 -0.4967
 2265SOL    HW118254   4.549   4.253  15.052  1.1373 -3.2305  1.0866
 2265SOL    HW218255   4.494   4.172  15.164  1.8664 -0.8636 -0.0104
 2266SOL     OW18256   4.385   4.122   0.491  0.2957 -0.1517  0.3701
 2266SOL    HW118257   4.339   4.087   0.414 -0.0375  2.7000 -0.7388
 2266SOL    HW218258   4.319   4.179   0.530  1.2264  1.3286 -0.2213
 2267SOL     OW18259   4.523   3.912   7.167 -0.0264 -0.1003 -0.1660
 2267SOL    HW118260   4.517   3.954   7.253  1.2339 -0.5415  0.1445
 2267SOL    HW218261   4.479   3.978   7.113 -0.4695  0.9098  1.4285
 2268SOL     OW18262   1.066   1.255  16.453 -0.1744 -0.0868 -0.5405
 2268SOL    HW118263   1.093   1.178  16.403  1.3390 -0.4006  0.7453
 2268SOL    HW218264   1.126   1.325  16.427 -0.3474  0.9186  1.7557
 2269SOL     OW18265   0.760   0.568  16.822 -0.5279 -0.4713  0.5129
 2269SOL    HW118266   0.711   0.568  16.905 -2.0591 -1.1750 -0.3788
 2269SOL    HW218267   0.748   0.658  16.793 -3.4367 -1.2240 -0.6825
 2270SOL     OW18268   1.027   2.253   9.660  0.1180 -0.2016  0.7133
 2270SOL    HW118269   1.009   2.307   9.738  2.7407 -0.5275  1.5532
 2270SOL    HW218270   1.034   2.326   9.598 -0.7047  0.8055  1.7980
 2271SOL     OW18271   4.301   3.622   3.866  0.3491 -0.1385  0.2596
 2271SOL    HW118272   4.293   3.608   3.961  1.6435  0.9736  0.5143
 2271SOL    HW218273   4.216   3.605   3.825  1.3133  1.0203 -2.2290
 2272SOL     OW18274   2.932   2.648  15.894  0.3085 -0.3699 -0.0804
 2272SOL    HW118275   2.841   2.627  15.917  0.9939 -2.2888  0.8218
 2272SOL    HW218276   2.932   2.632  15.799  1.8875  0.7072 -0.2639
 2273SOL     OW18277   2.771   1.066   5.492  0.0817 -0.2163  0.6834
 2273SOL    HW118278   2.816   1.006   5.432 -2.1463 -2.5888  1.3854
 2273SOL    HW218279   2.832   1.093   5.561  1.8535 -0.0602 -0.9509
 2274SOL     OW18280   0.885   0.327   3.886  0.4447 -0.5257 -0.1648
 2274SOL    HW118281   0.819   0.262   3.911 -0.3638  0.9776  1.6267
 2274SOL    HW218282   0.861   0.409   3.929  2.9231 -0.2578  0.6988
 2275SOL     OW18283   1.577   4.365  11.247  0.3105 -0.6650  0.2544
 2275SOL    HW118284   1.553   4.359  11.340 -1.4796  0.1712 -0.1639
 2275SOL    HW218285   1.497   4.380  11.197 -0.5738  0.3351  1.9666
 2276SOL     OW18286   2.210   1.843   1.862  0.1981  0.1284  0.0469
 2276SOL    HW118287   2.283   1.900   1.836  0.9087 -1.0697 -0.6077
 2276SOL    HW218288   2.233   1.837   1.955 -0.1753 -0.0802  0.1236
 2277SOL     OW18289   1.470   0.339   2.774 -0.3477  0.2872  0.5509
 2277SOL    HW118290   1.439   0.411   2.829  0.4301 -0.1203  1.5268
 2277SOL    HW218291   1.512   0.386   2.703  0.6240 -1.6825 -0.1833
 2278SOL     OW18292   1.369   2.603  13.382  0.6133 -0.1433  0.1749
 2278SOL    HW118293   1.465   2.604  13.380  0.6196 -0.8041 -0.1508
 2278SOL    HW218294   1.346   2.601  13.474  2.9233 -0.3275  0.7576
 2279SOL     OW18295   4.323   4.131   2.386  0.3952 -0.0183  0.1743
 2279SOL    HW118296   4.322   4.203   2.322 -0.7065 -0.0270  0.1784
 2279SOL    HW218297   4.417   4.141   2.398  0.0544  2.6964  0.5586
 2280SOL     OW18298   2.594   0.119   3.564  0.0136  0.2437  0.0433
 2280SOL    HW118299   2.663   0.172   3.523  0.6517  0.7046  1.7232
 2280SOL    HW218300   2.604   0.156   3.651  1.3596  0.1137 -0.0589
 2281SOL     OW18301   4.338   2.282  10.624 -0.9754 -0.0975  0.1762
 2281SOL    HW118302   4.401   2.324  10.683  0.1327 -0.6631 -0.5992
 2281SOL    HW218303   4.394   2.211  10.592 -0.4384 -0.2129  1.3790
 2282SOL     OW18304   1.273   0.841   9.855 -0.4770  0.1710 -0.1571
 2282SOL    HW118305   1.252   0.837   9.948 -0.8191 -0.2282 -0.2544
 2282SOL    HW218306   1.199   0.799   9.811  0.2517  1.4792 -2.6607
 2283SOL     OW18307   2.572   1.537  12.587  1.1040 -0.0936  0.1638
 2283SOL    HW118308   2.630   1.607  12.557  2.2710 -0.8949  0.5390
 2283SOL    HW218309   2.497   1.556  12.531 -0.9355 -2.8463  1.9171
 2284SOL     OW18310   3.008   2.059   4.123 -0.1724 -0.0225  0.0208
 2284SOL    HW118311   2.923   2.063   4.167 -0.8886  0.7219 -1.4399
 2284SOL    HW218312   3.068   2.109   4.178 -0.2355  1.3001 -1.1099
 2285SOL     OW18313   0.606   0.888   8.436  0.8067 -0.5437  0.7999
 2285SOL    HW118314   0.618   0.957   8.371 -2.4744  0.0583  0.8157
 2285SOL    HW218315   0.545   0.830   8.388  0.6714  1.4967 -1.4701
 2286SOL     OW18316   2.338   2.568   0.354 -0.6371  0.9250 -0.0870
 2286SOL    HW118317   2.409   2.524   0.309 -1.0287 -0.2353  0.4225
 2286SOL    HW218318   2.337   2.653   0.311  0.6879  2.2367  2.4988
 2287SOL     OW18319   4.217   1.976   4.548 -0.5942 -0.4196 -0.0280
 2287SOL    HW118320   4.200   1.988   4.642  2.1517  3.4270 -0.0241
 2287SOL    HW218321   4.293   1.919   4.543  0.5525  1.0011  1.1923
 2288SOL     OW18322   3.282   1.760   9.053  0.0213  0.0363  0.4857
 2288SOL    HW118323   3.309   1.668   9.058  0.5938  0.1588 -0.4532
 2288SOL    HW218324   3.358   1.805   9.090  0.8126 -1.0417  0.1763
 2289SOL     OW18325   0.872   2.006  13.785  0.3218  0.1378 -0.7884
 2289SOL    HW118326   0.891   1.948  13.859  0.2911  1.0712 -0.0374
 2289SOL    HW218327   0.907   2.088  13.822  0.5553 -0.1776 -0.3089
 2290SOL     OW18328   0.110   0.840   7.907 -0.5405 -0.3334 -0.3758
 2290SOL    HW118329   0.147   0.785   7.839  0.7613 -1.3517  1.1412
 2290SOL    HW218330   0.143   0.791   7.983 -1.9098 -2.6212 -1.2421
 2291SOL     OW18331   3.039   0.458   8.892 -0.4401 -0.2446 -0.0975
 2291SOL    HW118332   3.062   0.545   8.925 -1.2212 -0.1752  0.2632
 2291SOL    HW218333   3.093   0.452   8.814 -1.5739 -1.1292 -0.8248
 2292SOL     OW18334   0.481   1.234  12.787  0.1158 -0.7736  0.0460
 2292SOL    HW118335   0.543   1.306  12.785 -0.5439 -0.2452 -1.9238
 2292SOL    HW218336   0.529   1.173  12.731  1.7120  0.2262  0.3378
 2293SOL     OW18337   2.686   3.409   3.760  0.2603  0.0455 -0.2481
 2293SOL    HW118338   2.682   3.424   3.666  0.9782 -0.2157 -0.3197
 2293SOL    HW218339   2.611   3.353   3.781  0.0917  0.5760  0.5602
 2294SOL     OW18340   2.882   1.830   5.827 -0.5739  0.2753  0.6547
 2294SOL    HW118341   2.969   1.870   5.832 -0.3588 -0.5688  3.6967
 2294SOL    HW218342   2.884   1.814   5.732  1.3530  1.4362  0.5045
 2295SOL     OW18343   4.472   1.438   4.841  0.5120  0.3761  0.1741
 2295SOL    HW118344   4.474   1.345   4.864  1.5456  0.3408 -0.0739
 2295SOL    HW218345   4.386   1.465   4.874  0.2928 -0.6216  0.4316
 2296SOL     OW18346   2.277   3.975   3.154  0.6631  0.0163 -0.4789
 2296SOL    HW118347   2.235   3.889   3.155  0.5147  0.0887 -0.4550
 2296SOL    HW218348   2.245   4.021   3.076  0.2142  0.3654 -0.0879
 2297SOL     OW18349   4.483   2.578   2.686 -0.1630  0.2758 -0.1727
 2297SOL    HW118350   4.532   2.652   2.721 -0.3542 -0.9904  2.7480
 2297SOL    HW218351   4.550   2.510   2.679 -1.7067 -1.3538  0.7266
 2298SOL     OW18352   4.100   2.370   6.524 -0.8549  0.0089 -0.4263
 2298SOL    HW118353   4.014   2.331   6.512 -0.8149 -0.0830 -0.4151
 2298SOL    HW218354   4.096   2.431   6.598 -1.7649 -0.4692 -0.0761
 2299SOL     OW18355   3.621   4.588   5.194  0.4275 -0.8779  0.1303
 2299SOL    HW118356   3.632   4.631   5.279  1.8418  1.9067 -1.4693
 2299SOL    HW218357   3.683   4.516   5.200 -0.5917 -1.8908 -1.6630
 2300SOL     OW18358   4.035   4.650   5.199  0.0770 -0.1601  0.4757
 2300SOL    HW118359   3.987   4.620   5.275 -0.5809  1.2174  0.5992
 2300SOL    HW218360   4.010   4.581   5.138 -0.6714  0.2618  0.3073
 2301SOL     OW18361   3.816   1.618   4.211 -0.0993  0.1591  0.8414
 2301SOL    HW118362   3.769   1.669   4.278 -2.4534 -2.3908  1.1388
 2301SOL    HW218363   3.806   1.668   4.130 -1.9935  0.8715  1.4969
 2302SOL     OW18364   1.297   0.973  13.477  0.3899  0.2515 -0.0720
 2302SOL    HW118365   1.254   0.962  13.562 -1.6244 -0.2669 -1.1688
 2302SOL    HW218366   1.349   0.893  13.476  1.2321  0.7794  1.2285
 2303SOL     OW18367   2.026   4.123   2.488  0.0197 -0.3446  0.1243
 2303SOL    HW118368   1.990   4.190   2.430  2.0205  0.6358  0.0203
 2303SOL    HW218369   2.119   4.146   2.479  0.0328  0.1065  1.3737
 2304SOL     OW18370   2.907   2.989   1.563  0.5678 -0.1543 -0.1354
 2304SOL    HW118371   2.848   3.016   1.634  1.2509  0.2632  0.2787
 2304SOL    HW218372   2.854   2.926   1.514  0.6248 -0.5971  0.3640
 2305SOL     OW18373   3.090   0.819  17.671 -0.4067 -0.1098  0.3567
 2305SOL    HW118374   3.089   0.742   0.041  1.6459 -0.6141 -0.2931
 2305SOL    HW218375   3.173   0.862   0.004 -1.3208  2.3017 -1.1098
 2306SOL     OW18376   3.689   4.269   7.077  0.7106  0.4292  0.4359
 2306SOL    HW118377   3.608   4.280   7.029 -1.6134 -1.3461  3.9521
 2306SOL    HW218378   3.678   4.189   7.129 -3.0114  1.8624  1.8206
 2307SOL     OW18379   0.295   0.519  12.716 -0.8935 -0.2310 -0.2106
 2307SOL    HW118380   0.372   0.572  12.736 -0.8298 -0.5551  0.4087
 2307SOL    HW218381   0.300   0.517  12.621  0.6789 -1.5646 -0.0938
 2308SOL     OW18382   3.754   2.937   8.052 -0.9606 -0.1515  0.0732
 2308SOL    HW118383   3.753   3.001   8.123  1.3960  0.1314 -0.1588
 2308SOL    HW218384   3.838   2.895   8.069  0.2246  2.7781  1.4485
 2309SOL     OW18385   3.859   3.746  15.143 -0.2902 -0.0534 -0.5196
 2309SOL    HW118386   3.776   3.723  15.184 -0.5703  1.0409 -0.4807
 2309SOL    HW218387   3.857   3.842  15.143  0.8279 -0.0299  0.1495
 2310SOL     OW18388   0.341   2.491  12.768  0.2114  0.1342 -0.4326
 2310SOL    HW118389   0.274   2.513  12.704  0.0661 -1.8111 -0.9609
 2310SOL    HW218390   0.374   2.580  12.780 -0.5871  0.5419 -1.2556
 2311SOL     OW18391   3.551   1.834  11.483  0.0465  0.2649  0.1537
 2311SOL    HW118392   3.575   1.923  11.458  1.5358 -0.7240 -1.9925
 2311SOL    HW218393   3.521   1.793  11.402 -2.3909  1.3723  0.5074
 2312SOL     OW18394   3.585   3.897  12.515 -0.1382 -0.1354  0.3437
 2312SOL    HW118395   3.558   3.972  12.569  1.7710 -0.4599  1.7452
 2312SOL    HW218396   3.665   3.882  12.564 -0.0202 -3.0751 -0.7877
 2313SOL     OW18397   0.665   1.717  16.809  0.1201  0.4599  0.0652
 2313SOL    HW118398   0.624   1.702  16.894  0.0446  0.6901  0.0707
 2313SOL    HW218399   0.760   1.720  16.826  0.4497  1.0174 -1.8355
 2314SOL     OW18400   1.754   3.825   6.319  0.3384 -0.3966 -0.2763
 2314SOL    HW118401   1.762   3.881   6.396  1.6903 -1.1668  0.1628
 2314SOL    HW218402   1.846   3.800   6.307  0.7835  1.5145 -0.8391
 2315SOL     OW18403   3.306   3.931   4.518  0.9529 -0.0595 -0.2152
 2315SOL    HW118404   3.220   3.945   4.478  1.2532  0.6144 -0.6269
 2315SOL    HW218405   3.292   3.994   4.588 -2.3097 -2.5930  1.4460
 2316SOL     OW18406   3.492   4.141   8.642  0.1066 -0.4516 -0.0554
 2316SOL    HW118407   3.414   4.156   8.695 -0.4742  0.9853 -1.3293
 2316SOL    HW218408   3.455   4.152   8.554  0.4011  0.3204 -0.0766
 2317SOL     OW18409   3.428   1.086   7.315 -0.1718 -0.3216  0.1636
 2317SOL    HW118410   3.428   1.096   7.410  0.2334  0.6280  0.0683
 2317SOL    HW218411   3.496   1.019   7.308  2.4871  2.3212  0.4708
 2318SOL     OW18412   4.081   0.803   7.078 -0.0408 -0.5229  0.3960
 2318SOL    HW118413   4.013   0.808   7.011 -1.4234  0.3425  1.8528
 2318SOL    HW218414   4.112   0.892   7.059 -0.1695 -0.1954  1.7270
 2319SOL     OW18415   2.195   1.069   6.522 -0.3961 -0.3739  0.1032
 2319SOL    HW118416   2.135   1.140   6.497 -2.0649 -2.4868 -1.9585
 2319SOL    HW218417   2.154   1.018   6.592  1.2430 -0.3498  1.0615
 2320SOL     OW18418   4.142   0.608   6.106  0.4010  0.0747  0.5381
 2320SOL    HW118419   4.052   0.629   6.130  0.4256  0.3498  0.3877
 2320SOL    HW218420   4.134   0.666   6.030 -0.4805 -0.7469  0.0098
 2321SOL     OW18421   4.596   3.206   4.847 -0.6280 -0.5928 -0.1097
 2321SOL    HW118422   4.629   3.116   4.851 -0.8144 -0.5663  2.4113
 2321SOL    HW218423   4.673   3.260   4.829 -0.5281 -1.2606 -1.6769
 2322SOL     OW18424   1.056   1.726   5.751 -0.6690  0.3178  0.3898
 2322SOL    HW118425   1.037   1.809   5.706 -1.2371 -1.5743 -2.8168
 2322SOL    HW218426   0.995   1.726   5.826  0.1432  0.6050  1.0526
 2323SOL     OW18427   2.939   3.158   1.948  0.2265 -0.0182 -0.1267
 2323SOL    HW118428   2.982   3.232   1.905  2.2428 -0.3903  1.2371
 2323SOL    HW218429   2.847   3.181   1.936 -1.2419 -4.1805  3.3874
 2324SOL     OW18430   3.182   1.758   9.985 -0.4125  0.2923 -0.0188
 2324SOL    HW118431   3.182   1.817   9.911 -1.0312  2.3569  1.6405
 2324SOL    HW218432   3.146   1.678   9.946 -0.2341  1.1922 -1.9884
 2325SOL     OW18433   2.414   1.977   5.428 -0.1863 -0.3236 -0.6250
 2325SOL    HW118434   2.344   2.035   5.399 -0.5548  0.3197  1.5022
 2325SOL    HW218435   2.358   1.925   5.485 -1.0367  0.2030 -0.9895
 2326SOL     OW18436   3.134   2.665   6.465  0.1434 -0.3432  0.4424
 2326SOL    HW118437   3.184   2.619   6.397  0.1151 -0.8389  0.7514
 2326SOL    HW218438   3.194   2.690   6.535 -0.4635  2.9318 -0.2205
 2327SOL     OW18439   0.722   1.227   0.726 -0.4772  0.2470  0.5178
 2327SOL    HW118440   0.713   1.134   0.705 -0.0415  0.2297  0.4090
 2327SOL    HW218441   0.720   1.255   0.634 -0.6842  1.1834  0.8076
 2328SOL     OW18442   2.634   4.256   1.095 -0.0519  0.2862  0.1880
 2328SOL    HW118443   2.701   4.301   1.145 -1.5981  1.7794  0.9141
 2328SOL    HW218444   2.593   4.334   1.057 -1.5910 -0.3368  0.5632
 2329SOL     OW18445   2.015   1.498   0.673  0.2374  0.5584 -0.4384
 2329SOL    HW118446   1.941   1.528   0.725  0.5321  1.5299 -0.5823
 2329SOL    HW218447   1.973   1.465   0.594 -2.8941 -0.4296  1.6191
 2330SOL     OW18448   0.523   3.245   6.443  0.3660 -0.4421 -0.1983
 2330SOL    HW118449   0.579   3.265   6.368  0.2980 -0.4578 -0.2524
 2330SOL    HW218450   0.438   3.234   6.402 -0.4988  0.7933  1.2851
 2331SOL     OW18451   3.932   2.924  17.392 -0.0880 -1.0182  0.4340
 2331SOL    HW118452   3.901   2.927  17.302  1.0564  0.8778  0.0824
 2331SOL    HW218453   3.845   2.922  17.432 -1.2660 -0.7712 -2.0679
 2332SOL     OW18454   1.035   3.456  16.023  0.3475 -0.6423 -0.2034
 2332SOL    HW118455   1.020   3.372  16.065  1.4291 -0.2406  0.9980
 2332SOL    HW218456   1.079   3.439  15.940  1.7494 -0.8753  0.5851
 2333SOL     OW18457   3.996   2.582   6.255 -0.3155  0.3799  0.3380
 2333SOL    HW118458   3.990   2.497   6.212  0.0492  0.7181 -0.3955
 2333SOL    HW218459   4.091   2.587   6.260 -0.3877 -0.9023  2.8414
 2334SOL     OW18460   2.179   0.734  11.824 -0.0548 -0.1204  0.5246
 2334SOL    HW118461   2.091   0.697  11.824 -0.0974 -0.0380 -1.3962
 2334SOL    HW218462   2.193   0.747  11.917  1.1015 -0.5585  0.4082
 2335SOL     OW18463   4.086   4.392   3.535 -0.0622 -0.6175  0.1683
 2335SOL    HW118464   4.166   4.433   3.501  0.9824 -1.7706  1.2232
 2335SOL    HW218465   4.032   4.469   3.548 -0.0825 -0.7323  0.7410
 2336SOL     OW18466   4.066   2.040  15.507  0.0697 -0.4598 -0.4869
 2336SOL    HW118467   3.991   2.099  15.520  1.7737  1.7563 -0.6988
 2336SOL    HW218468   4.027   1.966  15.461  0.6868 -0.3515 -1.1745
 2337SOL     OW18469   2.975   0.268   8.580 -0.4803  0.2213 -0.1119
 2337SOL    HW118470   2.920   0.209   8.529 -0.1526 -0.7371  0.6455
 2337SOL    HW218471   2.950   0.350   8.538 -1.3805 -1.0136 -1.9720
 2338SOL     OW18472   3.925   2.008  10.032 -0.3071  0.0503 -0.1271
 2338SOL    HW118473   3.962   1.994  10.119  1.9942 -0.8177 -1.2650
 2338SOL    HW218474   3.974   1.949   9.975 -1.5945 -0.8955 -0.2549
 2339SOL     OW18475   3.215   0.477   8.642 -0.1099  0.5409  0.1809
 2339SOL    HW118476   3.299   0.520   8.628 -0.4523  0.5048 -2.0758
 2339SOL    HW218477   3.181   0.463   8.553  1.1778  0.4724 -0.2971
 2340SOL     OW18478   3.971   1.802   3.995 -0.4394  0.1870  0.1615
 2340SOL    HW118479   3.956   1.874   4.058  0.2288  0.1198  0.3997
 2340SOL    HW218480   4.058   1.832   3.970 -0.4713  0.6577  0.6031
 2341SOL     OW18481   2.042   4.454   3.743 -0.5209  0.2882  0.1245
 2341SOL    HW118482   2.071   4.518   3.678  1.4598 -1.5802 -0.8177
 2341SOL    HW218483   2.023   4.382   3.683 -2.3886 -0.7865  1.9661
 2342SOL     OW18484   1.846   1.581   0.382  1.0862 -0.1373 -0.4610
 2342SOL    HW118485   1.917   1.632   0.343  2.1312 -0.8641  0.5023
 2342SOL    HW218486   1.797   1.650   0.428 -1.0493 -1.8480 -0.2162
 2343SOL     OW18487   0.392   4.151   4.614 -0.4332 -0.0996  0.2137
 2343SOL    HW118488   0.347   4.176   4.695  1.2180  0.9862  0.7918
 2343SOL    HW218489   0.338   4.082   4.576 -2.3177  1.9361 -0.7844
 2344SOL     OW18490   4.250   3.877  11.081  0.7951 -0.1269 -0.4633
 2344SOL    HW118491   4.176   3.907  11.028  1.2920 -0.4695 -1.3477
 2344SOL    HW218492   4.281   3.798  11.038 -0.5972 -0.5109 -0.7446
 2345SOL     OW18493   4.002   3.635   8.566 -0.5776  0.1455 -0.0861
 2345SOL    HW118494   4.045   3.561   8.609 -0.4189 -0.0234 -0.5409
 2345SOL    HW218495   3.932   3.665   8.625  0.0711 -3.0349  2.3001
 2346SOL     OW18496   0.800   3.918   5.732  0.0383  0.5244  0.0539
 2346SOL    HW118497   0.766   3.946   5.817 -2.8626 -0.2404 -0.8463
 2346SOL    HW218498   0.860   3.852   5.765  1.1476  2.0434  1.0812
 2347SOL     OW18499   1.186   2.961   0.874  0.2148  0.3904 -0.2276
 2347SOL    HW118500   1.241   2.895   0.831 -0.2329  0.1943 -0.4951
 2347SOL    HW218501   1.099   2.926   0.852 -0.7734  0.8797  2.9759
 2348SOL     OW18502   4.366   2.924   1.192 -0.2616 -0.4605  1.1145
 2348SOL    HW118503   4.272   2.923   1.207 -0.4664 -0.8916 -0.2175
 2348SOL    HW218504   4.398   2.997   1.246  1.1471  0.3224 -0.8042
 2349SOL     OW18505   1.817   1.142  12.412  0.3332  0.0820 -0.1956
 2349SOL    HW118506   1.871   1.110  12.484  0.3736  0.6584  0.0310
 2349SOL    HW218507   1.839   1.235  12.417 -3.1245  0.8497  0.8409
 2350SOL     OW18508   1.668   0.213  14.130  0.5500  0.1237  0.0414
 2350SOL    HW118509   1.619   0.138  14.165  1.6152  0.3809  2.0428
 2350SOL    HW218510   1.605   0.282  14.148 -1.2216 -1.2967 -0.7003
 2351SOL     OW18511   0.645   2.727   9.688  0.3783  0.0350 -0.0373
 2351SOL    HW118512   0.677   2.707   9.776 -0.0327 -2.6299 -0.5073
 2351SOL    HW218513   0.664   2.821   9.679  0.1566  0.2480  1.5490
 2352SOL     OW18514   0.243   3.075   1.484 -0.2660  0.1282  0.2627
 2352SOL    HW118515   0.265   3.010   1.551 -0.5971  0.6280  0.8555
 2352SOL    HW218516   0.302   3.049   1.413  0.9656  0.7039  1.0788
 2353SOL     OW18517   0.897   1.774   4.697  0.4829  0.0508  0.8431
 2353SOL    HW118518   0.927   1.724   4.621  1.3596 -0.6718  1.6588
 2353SOL    HW218519   0.843   1.843   4.659 -0.1437 -1.4986 -1.0865
 2354SOL     OW18520   0.687   4.145   7.918 -0.1988 -0.1399 -0.7500
 2354SOL    HW118521   0.759   4.127   7.857  0.7272  2.0674 -0.2878
 2354SOL    HW218522   0.665   4.057   7.950  0.5015  0.3256  1.0280
 2355SOL     OW18523   1.917   2.367  14.637 -0.6490 -0.4163  0.1449
 2355SOL    HW118524   1.907   2.356  14.542 -1.5184  0.6291  0.1057
 2355SOL    HW218525   1.970   2.291  14.658 -1.0224 -1.0687 -1.2341
 2356SOL     OW18526   3.331   3.006  13.596 -0.0826 -0.1572  0.3286
 2356SOL    HW118527   3.344   3.044  13.683  2.7798  3.4709 -1.6570
 2356SOL    HW218528   3.283   3.076  13.553  2.6699  0.9457 -0.9893
 2357SOL     OW18529   2.660   2.940   1.158  0.8023  0.2956 -0.4906
 2357SOL    HW118530   2.580   2.941   1.106  1.4675 -0.4566 -1.5188
 2357SOL    HW218531   2.730   2.908   1.101 -0.7873  0.8925 -2.7700
 2358SOL     OW18532   1.927   0.052   1.849  0.3758 -0.4136 -0.8842
 2358SOL    HW118533   1.962   0.141   1.848  1.3187 -0.7883 -1.4241
 2358SOL    HW218534   1.854   0.059   1.909  1.4761  1.3323  0.2549
 2359SOL     OW18535   2.390   3.607   6.301 -0.1031  0.1450  0.6179
 2359SOL    HW118536   2.328   3.670   6.263 -0.1123 -0.4202 -0.3197
 2359SOL    HW218537   2.473   3.653   6.309 -0.6949  1.1634  0.8946
 2360SOL     OW18538   2.432   1.388  15.986 -0.1680  0.2229 -0.0778
 2360SOL    HW118539   2.343   1.388  15.950  0.1664  3.2555 -0.9065
 2360SOL    HW218540   2.417   1.384  16.080  0.3875  3.3692  0.1571
 2361SOL     OW18541   3.532   3.893  16.978 -0.0552 -0.1056 -0.0062
 2361SOL    HW118542   3.620   3.923  16.956  0.3007 -1.3186 -0.2492
 2361SOL    HW218543   3.543   3.845  17.060  1.5219  0.0937 -0.1053
 2362SOL     OW18544   4.044   0.851   8.901 -0.1362  0.0589 -0.1471
 2362SOL    HW118545   4.082   0.812   8.822  1.9161  2.4963 -0.3290
 2362SOL    HW218546   3.998   0.774   8.935 -1.9942  0.7622 -1.0341
 2363SOL     OW18547   2.629   3.513   6.104 -0.0046  0.4869  0.2073
 2363SOL    HW118548   2.551   3.556   6.138 -0.1486 -0.5230  1.1492
 2363SOL    HW218549   2.648   3.563   6.024 -1.5646  0.2721 -0.2937
 2364SOL     OW18550   1.994   2.418   5.435  0.1035  0.3312 -0.2505
 2364SOL    HW118551   1.989   2.505   5.393  0.5226  1.2045  1.5189
 2364SOL    HW218552   1.902   2.399   5.456  0.6326  1.1829  2.8171
 2365SOL     OW18553   0.433   1.051   0.500  0.2319 -0.2381 -0.2311
 2365SOL    HW118554   0.417   1.067   0.594  0.5271  0.4361 -0.2984
 2365SOL    HW218555   0.397   1.128   0.457 -0.4759 -0.1135  0.5759
 2366SOL     OW18556   3.467   3.770  11.696 -0.0027 -1.1356  0.0262
 2366SOL    HW118557   3.433   3.850  11.735  3.8253  1.2973 -1.5650
 2366SOL    HW218558   3.454   3.784  11.602  0.2396  1.3882  0.3633
 2367SOL     OW18559   4.155   1.291   4.630  0.6879  0.5245 -0.6651
 2367SOL    HW118560   4.201   1.230   4.687  1.5528  2.4969  0.7102
 2367SOL    HW218561   4.222   1.337   4.580  0.1751  0.7624 -1.1384
 2368SOL     OW18562   3.320   1.044   5.152  0.4858 -0.1704 -0.0515
 2368SOL    HW118563   3.390   1.023   5.214  2.2692 -1.3427 -2.4835
 2368SOL    HW218564   3.353   1.127   5.119 -2.1631  0.7860 -0.3450
 2369SOL     OW18565   3.178   0.538  15.915 -0.3001  0.1369  0.7245
 2369SOL    HW118566   3.110   0.570  15.857 -0.2144  1.7916  1.5457
 2369SOL    HW218567   3.144   0.550  16.004 -2.5051  0.1022 -0.1196
 2370SOL     OW18568   3.933   3.857   2.310  0.1691  0.2008  0.3073
 2370SOL    HW118569   3.938   3.891   2.399  1.3055 -2.2144  1.1608
 2370SOL    HW218570   4.005   3.793   2.301  2.0734  2.0622  2.4157
 2371SOL     OW18571   2.341   3.983   3.472  0.6956  0.5152  0.0492
 2371SOL    HW118572   2.299   4.005   3.388  1.5938 -0.0024 -0.5363
 2371SOL    HW218573   2.355   4.071   3.505 -2.1004  1.0495 -0.1368
 2372SOL     OW18574   0.345   2.450   7.631  0.2694 -0.0819  0.3563
 2372SOL    HW118575   0.368   2.543   7.633 -2.0151  0.4552  1.4946
 2372SOL    HW218576   0.413   2.401   7.678  1.8405  1.8488  0.0741
 2373SOL     OW18577   0.907   1.933   5.629  0.0101  0.4197  0.1656
 2373SOL    HW118578   0.876   2.020   5.605 -0.0894  0.6480  1.1151
 2373SOL    HW218579   0.895   1.882   5.549  0.7606  1.2142 -0.4508
 2374SOL     OW18580   2.705   1.547   4.529  0.0052 -0.5508 -0.5639
 2374SOL    HW118581   2.697   1.530   4.436 -1.2276 -1.3226 -0.3052
 2374SOL    HW218582   2.781   1.607   4.526 -0.5034  0.1053 -0.4249
 2375SOL     OW18583   3.013   4.345  15.411  0.1131  0.9123  0.2876
 2375SOL    HW118584   3.068   4.423  15.414  0.4837  0.6336  0.7578
 2375SOL    HW218585   2.946   4.379  15.352  1.5027  0.2609 -1.6748
 2376SOL     OW18586   1.959   2.826   2.401  0.2136  0.7323  0.4136
 2376SOL    HW118587   2.050   2.854   2.407  0.3125  0.1812  1.6025
 2376SOL    HW218588   1.952   2.771   2.479  1.7438 -0.4470 -0.2818
 2377SOL     OW18589   0.924   0.560   6.811 -0.0793 -0.1683  0.5792
 2377SOL    HW118590   0.989   0.629   6.827  1.2363 -0.8678 -1.6783
 2377SOL    HW218591   0.978   0.483   6.797 -0.8978 -0.8586  1.2223
 2378SOL     OW18592   4.333   3.463  14.782 -0.2252  0.2515  0.4721
 2378SOL    HW118593   4.281   3.531  14.824 -1.4760  0.4826 -1.4241
 2378SOL    HW218594   4.295   3.476  14.695  1.8594  0.3190 -0.4209
 2379SOL     OW18595   3.202   0.985  11.225  0.3549  0.0303  0.0373
 2379SOL    HW118596   3.292   0.951  11.223  0.6238  0.6416  1.5448
 2379SOL    HW218597   3.202   1.060  11.167 -0.7085 -1.1134 -1.4414
 2380SOL     OW18598   2.976   0.353   3.309 -0.1224 -0.6373  0.3563
 2380SOL    HW118599   2.999   0.363   3.217  1.9068 -0.3910  0.8923
 2380SOL    HW218600   2.963   0.444   3.335  1.8859 -0.2408 -0.0238
 2381SOL     OW18601   1.235   1.901   1.533 -0.1283  0.2823  0.0679
 2381SOL    HW118602   1.237   1.995   1.552 -1.1805  0.5921 -1.3022
 2381SOL    HW218603   1.231   1.874   1.624 -0.6948  0.4683  0.0959
 2382SOL     OW18604   1.430   4.376   5.077  0.0135  0.0718 -0.6076
 2382SOL    HW118605   1.340   4.365   5.046 -0.8175  0.0179  1.7594
 2382SOL    HW218606   1.410   4.422   5.159  0.4139  3.5084 -2.4298
 2383SOL     OW18607   2.427   0.633   9.917  0.2299 -0.1726  0.3639
 2383SOL    HW118608   2.363   0.674   9.975  0.2968 -0.5659  0.7150
 2383SOL    HW218609   2.506   0.686   9.928  0.4962 -0.3732 -0.5607
 2384SOL     OW18610   2.003   3.598   8.449  0.4051  0.4785 -0.4934
 2384SOL    HW118611   2.037   3.654   8.518  1.4987 -0.6944 -0.0810
 2384SOL    HW218612   1.945   3.656   8.400 -1.2753  0.8718  1.9398
 2385SOL     OW18613   2.085   0.921  16.363 -0.1688  0.0189 -0.2885
 2385SOL    HW118614   2.177   0.911  16.340  0.0817  0.1271  0.6950
 2385SOL    HW218615   2.086   0.839  16.413 -0.4630  0.2307  0.0608
 2386SOL     OW18616   0.442   3.811   9.026  0.2503  0.0048  1.2809
 2386SOL    HW118617   0.459   3.741   9.090  1.8176  0.8470  1.7951
 2386SOL    HW218618   0.400   3.871   9.088 -2.9272  0.9498 -1.8153
 2387SOL     OW18619   4.345   2.400   5.418  0.2375  0.3464  0.0234
 2387SOL    HW118620   4.360   2.308   5.397 -0.4792  0.3567 -0.5057
 2387SOL    HW218621   4.398   2.441   5.350 -1.0574  0.6571 -0.7870
 2388SOL     OW18622   0.762   1.310   9.134 -0.1239 -0.1459 -0.2736
 2388SOL    HW118623   0.751   1.403   9.116  1.5011 -0.2500 -1.7714
 2388SOL    HW218624   0.850   1.314   9.173  0.3165  1.5312 -1.4584
 2389SOL     OW18625   1.682   2.047  14.397  0.1135 -0.5406 -0.2137
 2389SOL    HW118626   1.659   2.117  14.337  1.9462  0.7500  0.5769
 2389SOL    HW218627   1.624   1.975  14.371 -1.4380  0.5437  0.2617
 2390SOL     OW18628   1.402   2.913   3.861 -0.1633  0.0671  0.5497
 2390SOL    HW118629   1.390   2.918   3.766 -0.9978 -1.3629  0.5882
 2390SOL    HW218630   1.367   2.998   3.888 -0.7003  0.0982 -0.2381
 2391SOL     OW18631   4.228   0.645  10.422  0.9192 -0.0569  0.5673
 2391SOL    HW118632   4.255   0.727  10.381 -1.4210 -0.6089 -2.0853
 2391SOL    HW218633   4.137   0.640  10.394  0.6142  1.7443  1.2462
 2392SOL     OW18634   2.629   1.608  10.410 -0.3423 -0.5732  0.4622
 2392SOL    HW118635   2.628   1.522  10.370  0.1855 -0.9438  1.2405
 2392SOL    HW218636   2.714   1.639  10.380 -0.4914  1.2532  1.8922
 2393SOL     OW18637   0.294   0.554   4.679  0.1671  0.0887 -0.2873
 2393SOL    HW118638   0.255   0.602   4.606 -2.0899  1.6562  1.9497
 2393SOL    HW218639   0.315   0.468   4.642 -0.9281 -0.2734 -0.0386
 2394SOL     OW18640   1.356   3.508   3.316 -0.2987  0.3034  0.4871
 2394SOL    HW118641   1.387   3.430   3.363  0.5712 -0.2268 -0.9547
 2394SOL    HW218642   1.436   3.560   3.309 -0.5192  0.8207  1.9099
 2395SOL     OW18643   2.920   2.197   3.874 -0.1328  0.4304 -0.2466
 2395SOL    HW118644   2.840   2.155   3.843  0.2144 -1.4630  1.4078
 2395SOL    HW218645   2.929   2.153   3.958 -2.1941 -0.8320 -0.6988
 2396SOL     OW18646   4.701   4.098   2.942  0.4657  0.1602 -0.0271
 2396SOL    HW118647   4.666   4.019   2.983 -1.3107  0.1447 -1.6187
 2396SOL    HW218648   0.066   4.057   2.929  0.1959 -0.0248 -1.1981
 2397SOL     OW18649   2.580   0.501   4.553 -0.4967  0.5295  0.0179
 2397SOL    HW118650   2.615   0.589   4.563  0.9256  0.0778 -1.0434
 2397SOL    HW218651   2.504   0.489   4.610 -2.7199  1.4864 -2.7107
 2398SOL     OW18652   1.049   1.321   8.830 -0.7499 -0.1268 -0.1900
 2398SOL    HW118653   1.110   1.327   8.757 -2.2051 -0.6248 -1.4740
 2398SOL    HW218654   1.090   1.253   8.883 -0.2304  1.9451  2.0134
 2399SOL     OW18655   1.927   1.205   0.199 -0.3209  0.2596 -0.0568
 2399SOL    HW118656   1.845   1.166   0.229 -0.4099  0.5112  0.0231
 2399SOL    HW218657   1.987   1.168   0.265 -2.5328 -3.0088  0.1516
 2400SOL     OW18658   1.018   1.329   4.623 -0.0699 -0.3441  0.2502
 2400SOL    HW118659   0.988   1.336   4.533  0.9361  0.6287 -0.0051
 2400SOL    HW218660   1.038   1.420   4.645 -0.6012 -0.2370  0.3000
 2401SOL     OW18661   3.650   3.729   0.032 -0.3262 -0.5939  0.5692
 2401SOL    HW118662   3.730   3.781   0.030  0.2762 -1.5613 -0.1708
 2401SOL    HW218663   3.676   3.668   0.101 -1.6635 -1.9901 -0.1449
 2402SOL     OW18664   0.167   1.683   5.805  0.2776  0.8520 -0.7484
 2402SOL    HW118665   0.112   1.733   5.745  1.1212 -0.0319 -2.2590
 2402SOL    HW218666   0.203   1.619   5.744  1.8747 -0.5008  1.6044
 2403SOL     OW18667   4.165   4.278  14.503 -0.3217  0.0958 -0.0371
 2403SOL    HW118668   4.231   4.310  14.441 -0.3418  0.8560  0.3352
 2403SOL    HW218669   4.090   4.334  14.481  2.2697  3.5013 -0.1049
 2404SOL     OW18670   1.029   0.955   1.761 -0.6550  0.0755  0.1172
 2404SOL    HW118671   1.056   0.988   1.846 -1.5815 -0.3679  0.5828
 2404SOL    HW218672   0.973   1.027   1.731  1.0256  1.0370 -0.7087
 2405SOL     OW18673   3.816   3.751   5.585  0.2083  0.3417  0.2149
 2405SOL    HW118674   3.784   3.753   5.675  0.6135 -1.7543  0.4181
 2405SOL    HW218675   3.873   3.673   5.589 -1.0205 -0.4785  1.5801
 2406SOL     OW18676   1.185   1.763   8.394 -0.3831 -0.7309  0.0222
 2406SOL    HW118677   1.151   1.851   8.375  0.2145 -0.2615  1.1465
 2406SOL    HW218678   1.274   1.794   8.411 -0.2040 -0.2636 -1.7625
 2407SOL     OW18679   0.343   0.279  12.775  1.0339  0.1131  0.2520
 2407SOL    HW118680   0.326   0.242  12.689  1.9707  1.4096 -0.4898
 2407SOL    HW218681   0.335   0.373  12.756  0.1052  0.0569  0.4001
 2408SOL     OW18682   1.421   2.938   4.692  0.6634 -0.4062 -0.2987
 2408SOL    HW118683   1.444   2.941   4.599 -1.5364  2.7106 -0.7326
 2408SOL    HW218684   1.501   2.954   4.743  0.5205 -1.5392  0.2979
 2409SOL     OW18685   4.491   0.628   2.378  0.6641  0.7219 -0.0184
 2409SOL    HW118686   4.500   0.554   2.317  0.7036  2.2500 -1.8532
 2409SOL    HW218687   4.423   0.670   2.325 -0.5260 -0.4523  0.5809
 2410SOL     OW18688   4.533   2.472  12.534  0.3513  0.0799  0.1605
 2410SOL    HW118689   4.522   2.437  12.622  0.7551 -0.3762  0.0374
 2410SOL    HW218690   4.591   2.546  12.552 -0.2959  0.4695  0.6073
 2411SOL     OW18691   4.092   3.500   7.594  0.3675  0.4689  0.7366
 2411SOL    HW118692   4.177   3.512   7.635  0.5090 -2.1427  1.1887
 2411SOL    HW218693   4.037   3.469   7.666 -1.1204 -1.1128 -1.0966
 2412SOL     OW18694   1.012   1.597   6.871  0.4102 -0.3057  0.4603
 2412SOL    HW118695   0.920   1.614   6.850  0.3762 -0.7524  0.2433
 2412SOL    HW218696   1.001   1.544   6.950  0.9663 -2.5568 -0.9647
 2413SOL     OW18697   4.487   2.814  12.738 -0.2901  0.5258 -0.6991
 2413SOL    HW118698   4.446   2.831  12.653  1.5791  2.7252 -1.1487
 2413SOL    HW218699   4.559   2.760  12.705 -0.0861  0.7945 -0.6948
 2414SOL     OW18700   3.372   2.985   3.429  0.1899  0.1225  0.1905
 2414SOL    HW118701   3.437   2.972   3.498 -0.7555 -0.7650  0.9061
 2414SOL    HW218702   3.312   3.025   3.491  0.0025  0.7033 -0.3639
 2415SOL     OW18703   3.537   1.481   2.985 -0.7379 -0.3070  0.0399
 2415SOL    HW118704   3.457   1.470   2.933 -0.2683 -0.3389 -0.6734
 2415SOL    HW218705   3.577   1.394   2.984  1.4141  0.6646  0.7860
 2416SOL     OW18706   2.296   3.703   7.591  0.3592  0.2932  0.1704
 2416SOL    HW118707   2.210   3.671   7.563  1.3666 -1.5331 -0.8419
 2416SOL    HW218708   2.306   3.676   7.683  0.1005  2.2988  0.7846
 2417SOL     OW18709   2.867   2.742   2.449  0.2396  0.0299  0.2731
 2417SOL    HW118710   2.887   2.658   2.407  0.1715  0.0148  0.2707
 2417SOL    HW218711   2.771   2.744   2.457  0.2893 -1.7206  1.3997
 2418SOL     OW18712   1.658   2.021   4.758  0.6618  0.2285  0.3055
 2418SOL    HW118713   1.642   2.061   4.673  0.9291  2.7771  1.4478
 2418SOL    HW218714   1.596   2.058   4.821  0.3931 -2.3616  1.5559
 2419SOL     OW18715   1.578   3.277   4.009  0.4032 -0.3764  0.8438
 2419SOL    HW118716   1.597   3.303   3.919 -0.5504 -1.0297  0.4492
 2419SOL    HW218717   1.491   3.238   4.000  0.6605 -1.6103  3.7983
 2420SOL     OW18718   1.241   3.298   6.758  0.1219 -0.2349  0.7482
 2420SOL    HW118719   1.265   3.205   6.754 -1.5129 -0.7061  1.9989
 2420SOL    HW218720   1.198   3.306   6.673  2.2062  1.9830 -0.0962
 2421SOL     OW18721   0.164   1.231   4.926  0.2781 -0.3521 -0.2771
 2421SOL    HW118722   0.221   1.180   4.868  2.5310  0.7048  1.0183
 2421SOL    HW218723   0.201   1.197   5.008 -0.5249 -0.4527  0.0394
 2422SOL     OW18724   1.655   1.797   5.081 -0.1388 -0.0210  0.0143
 2422SOL    HW118725   1.698   1.724   5.126  2.4096  1.1047 -0.5939
 2422SOL    HW218726   1.732   1.830   5.035  1.7868 -2.0925  1.7337
 2423SOL     OW18727   1.931   3.512   2.996  0.2497  0.2797 -0.7994
 2423SOL    HW118728   1.947   3.423   3.028  0.1549  0.8740  0.8949
 2423SOL    HW218729   2.017   3.532   2.959  0.4713  0.4594 -0.1922
 2424SOL     OW18730   1.860   1.674  16.093  0.4774  0.4115 -0.2508
 2424SOL    HW118731   1.931   1.716  16.046 -0.8930  2.2134 -0.7325
 2424SOL    HW218732   1.787   1.658  16.033  1.5271  0.3128 -1.4906
 2425SOL     OW18733   0.302   2.279   7.970 -0.1113  0.0739  0.1125
 2425SOL    HW118734   0.234   2.347   7.964 -1.5098 -1.3293 -0.1607
 2425SOL    HW218735   0.306   2.268   8.065  2.1737 -1.5496 -0.1725
 2426SOL     OW18736   3.087   3.630   0.726 -0.6311  0.5784  0.2554
 2426SOL    HW118737   3.023   3.695   0.696  0.1411  0.5489 -1.4552
 2426SOL    HW218738   3.036   3.557   0.760  1.0690 -0.4706  0.5595
 2427SOL     OW18739   2.684   4.670   6.314 -0.1292  0.1274  0.0488
 2427SOL    HW118740   2.760   4.673   6.372 -1.3092 -1.4182  1.6653
 2427SOL    HW218741   2.683   4.578   6.286 -1.2173 -0.4355  1.9448
 2428SOL     OW18742   0.964   0.648   6.148 -0.0301  0.8396  0.1771
 2428SOL    HW118743   0.903   0.702   6.097 -2.1387 -2.1906 -0.5039
 2428SOL    HW218744   0.924   0.565   6.120 -0.5623  1.1638 -0.0382
 2429SOL     OW18745   4.129   2.975   7.943  0.3464 -0.4929  0.0182
 2429SOL    HW118746   4.187   3.050   7.931 -0.5560  0.5111  1.9866
 2429SOL    HW218747   4.066   2.990   7.872 -1.4501  1.3126  1.9893
 2430SOL     OW18748   4.214   0.502   5.475  0.6495 -0.0329  0.4638
 2430SOL    HW118749   4.231   0.528   5.566 -0.2185 -0.4172  0.7435
 2430SOL    HW218750   4.133   0.547   5.451  1.1809  2.2066  2.9123
 2431SOL     OW18751   2.273   3.687   9.893 -0.9916 -0.1092 -0.4216
 2431SOL    HW118752   2.198   3.729   9.935 -0.1369 -2.0487  3.0251
 2431SOL    HW218753   2.331   3.692   9.969 -1.3324 -1.1924 -0.0984
 2432SOL     OW18754   1.988   0.478   2.645 -0.1922  0.4108 -0.6990
 2432SOL    HW118755   1.973   0.571   2.664  1.4367  0.5340 -0.0191
 2432SOL    HW218756   2.051   0.460   2.714 -1.5251 -0.9208  0.1750
 2433SOL     OW18757   2.076   2.003  12.426 -0.3444  0.0944  0.0100
 2433SOL    HW118758   2.152   2.060  12.420  0.4705 -0.8714  1.3150
 2433SOL    HW218759   2.014   2.061  12.471  0.5487 -0.6103  2.1563
 2434SOL     OW18760   0.159   0.056   2.931 -0.2229  0.3506 -0.2423
 2434SOL    HW118761   0.105   0.093   2.862 -0.5606 -1.1256 -0.7732
 2434SOL    HW218762   0.132   0.103   3.009  1.3633  1.5725 -0.4370
 2435SOL     OW18763   2.226   0.483   3.714  0.2536 -0.2710 -0.2775
 2435SOL    HW118764   2.163   0.550   3.687 -0.3488 -0.1214  1.5233
 2435SOL    HW218765   2.308   0.530   3.731  0.4706 -0.8562  0.2928
 2436SOL     OW18766   2.231   0.798   8.398  0.0261  0.2981 -0.1723
 2436SOL    HW118767   2.189   0.851   8.330 -2.7305 -0.3245  1.0350
 2436SOL    HW218768   2.316   0.783   8.359 -0.4757 -0.0959 -1.1151
 2437SOL     OW18769   2.354   2.533   5.368 -0.0228 -0.2371  0.3410
 2437SOL    HW118770   2.341   2.499   5.279  0.9516  0.2871 -0.0036
 2437SOL    HW218771   2.376   2.625   5.358 -1.0748 -0.0428 -0.2108
 2438SOL     OW18772   1.074   1.389   4.082  0.2392 -0.2711 -0.2126
 2438SOL    HW118773   1.159   1.387   4.126  0.2987  0.0411 -0.3104
 2438SOL    HW218774   1.100   1.327   4.015 -1.1707 -0.5317 -0.5187
 2439SOL     OW18775   3.565   2.561  11.516  0.2131  0.0575  0.1940
 2439SOL    HW118776   3.645   2.550  11.567  2.0990  2.0851 -2.3024
 2439SOL    HW218777   3.513   2.579  11.594 -0.0732 -1.7536  0.4339
 2440SOL     OW18778   2.476   4.116   6.779 -0.8876 -0.1018 -0.4260
 2440SOL    HW118779   2.491   4.144   6.869  2.2942 -0.4804 -0.8507
 2440SOL    HW218780   2.563   4.131   6.741  0.5645 -3.2616  1.6735
 2441SOL     OW18781   2.468   3.014   6.502  0.4105 -0.0048 -0.2165
 2441SOL    HW118782   2.508   3.089   6.547  2.8213 -2.1164  1.2135
 2441SOL    HW218783   2.450   2.949   6.571 -1.1193  0.5299 -0.1118
 2442SOL     OW18784   0.490   3.227   5.599  0.2536  0.2174 -0.2161
 2442SOL    HW118785   0.472   3.245   5.506  1.4416  2.6339  0.0300
 2442SOL    HW218786   0.411   3.262   5.640  0.5708  1.0282 -0.3045
 2443SOL     OW18787   3.826   1.587   1.942  0.1335  0.2517 -0.5928
 2443SOL    HW118788   3.819   1.532   2.021  1.4331  0.5724 -0.2535
 2443SOL    HW218789   3.918   1.577   1.918 -0.5420 -2.1871 -2.1562
 2444SOL     OW18790   3.799   2.216   4.580 -0.0783 -0.8074 -0.1900
 2444SOL    HW118791   3.809   2.235   4.673  1.2284 -1.5084 -0.1801
 2444SOL    HW218792   3.757   2.296   4.548 -0.8953 -0.0422  2.7648
 2445SOL     OW18793   4.037   0.919   5.362 -0.3768 -0.2859  0.4765
 2445SOL    HW118794   4.015   0.829   5.386 -2.3520 -0.0226 -0.4086
 2445SOL    HW218795   4.011   0.960   5.445 -3.1163  1.8747 -1.4697
 2446SOL     OW18796   2.433   1.344   1.647  0.1315 -0.2917 -0.6509
 2446SOL    HW118797   2.473   1.329   1.561 -2.3030  0.5122 -1.9328
 2446SOL    HW218798   2.406   1.435   1.636  1.2778  0.0715 -0.4055
 2447SOL     OW18799   1.122   1.761   2.185 -0.6417 -0.0883 -0.4354
 2447SOL    HW118800   1.147   1.714   2.265  0.4229  0.4792 -0.4319
 2447SOL    HW218801   1.168   1.717   2.114  0.7629  1.7221 -0.6420
 2448SOL     OW18802   0.078   1.228   3.589  0.2043  0.6879  0.3052
 2448SOL    HW118803   0.146   1.176   3.632  0.1867  0.0042 -0.4755
 2448SOL    HW218804   0.121   1.313   3.598 -0.0950  0.7806  0.8571
 2449SOL     OW18805   4.302   1.446   5.715 -0.2436  0.1656  0.2636
 2449SOL    HW118806   4.376   1.446   5.775  0.2848 -0.0133 -0.3829
 2449SOL    HW218807   4.298   1.352   5.696  0.9187  0.1034  0.3637
 2450SOL     OW18808   2.575   0.682   4.155 -0.0600  0.2569 -0.7138
 2450SOL    HW118809   2.496   0.694   4.208 -1.5250 -1.7846 -2.4547
 2450SOL    HW218810   2.574   0.597   4.112 -0.1629 -0.0557 -0.0886
 2451SOL     OW18811   2.023   0.889   6.918  0.2493  0.3491  0.0987
 2451SOL    HW118812   2.005   0.950   6.990 -0.2224  1.5941 -1.0761
 2451SOL    HW218813   2.056   0.814   6.968 -0.7309 -0.0111  0.2041
 2452SOL     OW18814   2.941   3.440   0.424 -0.6349 -0.4767 -0.2541
 2452SOL    HW118815   3.012   3.497   0.396 -0.1378 -0.4090  1.1342
 2452SOL    HW218816   2.977   3.355   0.395 -0.7326 -0.4138 -0.5651
 2453SOL     OW18817   4.179   3.138   5.325  0.2376  0.2434  0.4447
 2453SOL    HW118818   4.132   3.058   5.303  0.9186 -0.3465  1.1597
 2453SOL    HW218819   4.101   3.191   5.343  0.3533  0.2092  1.0421
 2454SOL     OW18820   3.052   2.877   4.539  0.3131 -0.0230  0.1522
 2454SOL    HW118821   3.105   2.874   4.619 -0.9767  1.1511  1.0299
 2454SOL    HW218822   3.122   2.906   4.481 -1.0591  0.4547 -1.2509
 2455SOL     OW18823   0.692   1.571   3.750  0.4313 -0.1048  0.3567
 2455SOL    HW118824   0.750   1.633   3.794  0.1395  0.2715  0.2094
 2455SOL    HW218825   0.730   1.551   3.664 -0.3655  1.3631 -0.3486
 2456SOL     OW18826   3.280   0.423   3.080  0.4888  0.1796  0.3417
 2456SOL    HW118827   3.354   0.367   3.101 -0.6483 -0.8530  1.6032
 2456SOL    HW218828   3.309   0.512   3.101 -0.5987  0.3263  1.2317
 2457SOL     OW18829   2.128   4.666  14.591  0.5487 -0.3809  0.6462
 2457SOL    HW118830   2.138   4.580  14.550 -0.0239  0.1478 -0.6227
 2457SOL    HW218831   2.214   4.686  14.627 -0.0729  2.1220  0.6900
 2458SOL     OW18832   0.529   1.202   9.042  0.0874  0.1063 -0.3453
 2458SOL    HW118833   0.555   1.176   8.954 -0.7015 -0.8144 -0.3136
 2458SOL    HW218834   0.611   1.240   9.072  0.3265 -1.4077  0.9540
 2459SOL     OW18835   0.905   2.681   3.031  0.4972 -0.3917  0.8924
 2459SOL    HW118836   0.917   2.607   2.972  0.0499 -0.9043  1.4391
 2459SOL    HW218837   0.809   2.685   3.033  0.4682 -0.3335 -0.7353
 2460SOL     OW18838   1.597   2.495  15.511  0.1750  0.5449 -0.4540
 2460SOL    HW118839   1.648   2.494  15.430  1.0184  1.4866  0.0751
 2460SOL    HW218840   1.666   2.496  15.577  0.3815  2.7239 -0.7303
 2461SOL     OW18841   1.081   1.872   6.781  0.0694  0.6771  0.1629
 2461SOL    HW118842   1.060   1.795   6.834 -0.9279  1.1349  0.4249
 2461SOL    HW218843   1.163   1.845   6.739 -0.4920  0.7544 -0.9794
 2462SOL     OW18844   0.639   2.492   7.096 -0.1720 -0.3733  0.0118
 2462SOL    HW118845   0.669   2.491   7.186  0.7877 -2.5217 -0.3154
 2462SOL    HW218846   0.699   2.431   7.053  1.0937  0.9826 -0.1086
 2463SOL     OW18847   2.141   2.430   0.751 -0.3732 -0.1995 -0.3976
 2463SOL    HW118848   2.182   2.396   0.672  0.8477  2.1343 -0.7594
 2463SOL    HW218849   2.147   2.358   0.815 -1.2673 -0.3228 -0.4587
 2464SOL     OW18850   3.344   2.650   2.861 -0.0181  0.0641  0.1171
 2464SOL    HW118851   3.383   2.704   2.929  0.9178  2.7880 -2.5926
 2464SOL    HW218852   3.333   2.711   2.788  0.0182 -1.3035 -1.0393
 2465SOL     OW18853   0.067   1.223  12.597 -0.0427 -0.1410  0.6001
 2465SOL    HW118854   0.057   1.181  12.511  1.5973 -0.9333  0.7891
 2465SOL    HW218855   4.701   1.239  12.631  1.3961  3.6610  2.5177
 2466SOL     OW18856   3.848   3.144  15.294 -0.1665 -0.0331  0.2408
 2466SOL    HW118857   3.884   3.161  15.381 -1.3591 -0.9634  0.9131
 2466SOL    HW218858   3.905   3.200  15.242  0.3818 -1.6474 -0.8974
 2467SOL     OW18859   3.447   2.027  16.249 -0.0878  0.2592 -0.2667
 2467SOL    HW118860   3.352   2.030  16.255 -0.0548  0.9024 -0.0458
 2467SOL    HW218861   3.457   1.978  16.167  0.2574 -0.8280  0.4288
 2468SOL     OW18862   2.354   2.926   4.550  0.6600 -0.1832 -0.5621
 2468SOL    HW118863   2.272   2.880   4.567  2.5155 -3.0372  0.5633
 2468SOL    HW218864   2.362   2.997   4.614  0.3654  0.0409 -0.7698
 2469SOL     OW18865   1.016   3.376  14.685  0.0498 -0.4837 -0.0639
 2469SOL    HW118866   1.034   3.458  14.732 -0.4108 -0.4966  0.1316
 2469SOL    HW218867   1.014   3.310  14.754  0.3055  1.0217  1.3760
 2470SOL     OW18868   4.140   4.015  17.484 -0.2494  0.3361  0.1055
 2470SOL    HW118869   4.093   3.933  17.500  0.5405 -0.7377 -3.1830
 2470SOL    HW218870   4.107   4.038  17.397 -0.4160  3.1442  0.9074
 2471SOL     OW18871   0.274   0.254   4.621  0.1977 -0.1812  1.0032
 2471SOL    HW118872   0.208   0.311   4.581  2.0391  2.7994  2.2090
 2471SOL    HW218873   0.226   0.173   4.638 -2.2161  0.4694 -2.7735
 2472SOL     OW18874   4.426   3.841   0.148  0.0149  0.3749 -0.0738
 2472SOL    HW118875   4.504   3.845   0.204 -1.6552 -1.3907  2.4100
 2472SOL    HW218876   4.380   3.765   0.183 -1.4678  2.4115  2.4295
 2473SOL     OW18877   0.203   0.212   7.411 -0.5045 -0.2752 -0.8569
 2473SOL    HW118878   0.196   0.307   7.422  0.0807 -0.4691  1.1074
 2473SOL    HW218879   0.132   0.194   7.349  0.5249  3.2309 -3.0768
 2474SOL     OW18880   0.261   1.850   3.043 -0.1700 -0.1342  0.4038
 2474SOL    HW118881   0.300   1.897   2.970 -0.5882  0.9226  0.8574
 2474SOL    HW218882   0.198   1.798   2.993  0.7720 -1.9435  1.0861
 2475SOL     OW18883   4.578   2.526   4.695  0.7844  0.0340 -0.3106
 2475SOL    HW118884   4.531   2.591   4.642  0.7837  0.0110 -0.3385
 2475SOL    HW218885   4.672   2.527   4.678  1.1313 -1.3472  1.5530
 2476SOL     OW18886   3.410   1.682   8.676 -0.2486 -0.2661  0.0311
 2476SOL    HW118887   3.475   1.708   8.610 -0.5992  0.4986 -0.0137
 2476SOL    HW218888   3.332   1.662   8.625  1.3936 -0.6608 -2.3457
 2477SOL     OW18889   0.314   2.459   5.684 -0.2858 -0.1213 -0.2077
 2477SOL    HW118890   0.284   2.464   5.774 -2.1606 -0.0353 -0.8491
 2477SOL    HW218891   0.232   2.437   5.640 -0.2279 -0.1590 -0.2988
 2478SOL     OW18892   0.348   4.588   1.796  0.1139 -0.9990  0.2958
 2478SOL    HW118893   0.265   4.601   1.750  1.0243  0.0460 -1.0527
 2478SOL    HW218894   0.383   4.677   1.785  0.1589 -0.8733  1.4492
 2479SOL     OW18895   2.312   3.545   5.437  0.2243  0.3344  0.5586
 2479SOL    HW118896   2.273   3.608   5.497  0.7300  1.4834 -0.3335
 2479SOL    HW218897   2.288   3.587   5.354 -1.6601  0.4080  1.1420
 2480SOL     OW18898   2.128   0.208   3.684  0.3746  0.2996  0.6156
 2480SOL    HW118899   2.061   0.241   3.744 -0.2847  0.7177 -0.3533
 2480SOL    HW218900   2.187   0.283   3.679  0.3763  0.0283 -3.0055
 2481SOL     OW18901   3.756   2.456  15.137 -0.2368  0.9764 -0.3690
 2481SOL    HW118902   3.832   2.505  15.107  0.1780  1.2374  1.1243
 2481SOL    HW218903   3.768   2.386  15.072 -0.9766 -1.6065  2.2418
 2482SOL     OW18904   1.143   4.172   5.750 -0.5800  0.3720 -0.1678
 2482SOL    HW118905   1.152   4.077   5.742 -0.4265  0.4984 -1.4481
 2482SOL    HW218906   1.172   4.188   5.840 -0.8143 -2.1451  0.3764
 2483SOL     OW18907   1.491   1.502  12.189 -0.1220 -0.2707 -0.1473
 2483SOL    HW118908   1.572   1.479  12.144 -0.7092 -0.5115 -1.0815
 2483SOL    HW218909   1.450   1.515  12.103 -0.7524  0.2016  0.2333
 2484SOL     OW18910   2.090   1.442  10.221 -0.1729 -0.0451  0.0623
 2484SOL    HW118911   2.039   1.514  10.183  0.7441  0.1182 -0.8791
 2484SOL    HW218912   2.017   1.413  10.275  1.3590 -1.1469  1.5215
 2485SOL     OW18913   1.304   2.511   7.359 -0.4475 -0.1137 -0.4072
 2485SOL    HW118914   1.284   2.484   7.269  0.1415 -0.1329 -0.5360
 2485SOL    HW218915   1.313   2.422   7.391 -0.2750  0.4620  1.1475
 2486SOL     OW18916   2.624   3.041   7.576  0.0393 -0.5602  0.5549
 2486SOL    HW118917   2.602   3.133   7.562 -1.3380 -0.7093  1.7354
 2486SOL    HW218918   2.537   3.014   7.606 -0.2034  1.2833  1.5257
 2487SOL     OW18919   1.909   0.304   0.718  0.6734 -0.1502  0.1216
 2487SOL    HW118920   1.819   0.270   0.724  0.5711 -0.3926 -2.7985
 2487SOL    HW218921   1.923   0.316   0.812 -0.8046  0.6212  0.2465
 2488SOL     OW18922   0.836   2.325   5.349 -0.1842 -0.6615  0.0708
 2488SOL    HW118923   0.884   2.406   5.365  0.2995 -1.0667  0.6721
 2488SOL    HW218924   0.832   2.321   5.254  0.1535  0.8182 -0.0042
 2489SOL     OW18925   0.230   1.692  16.763 -0.4172  0.0259  0.0633
 2489SOL    HW118926   0.168   1.689  16.690 -0.3436 -3.7007  0.1204
 2489SOL    HW218927   0.296   1.622  16.754 -1.2852 -0.5927 -1.5382
 2490SOL     OW18928   2.357   0.835  10.467 -0.6770 -0.2355 -0.1944
 2490SOL    HW118929   2.313   0.755  10.440  2.7718 -2.8072  1.8252
 2490SOL    HW218930   2.448   0.805  10.474 -0.9836 -1.6439 -2.1993
 2491SOL     OW18931   1.959   2.406  15.978  0.0949  0.3392  0.3100
 2491SOL    HW118932   1.935   2.406  16.071 -2.2712 -2.5926 -0.3318
 2491SOL    HW218933   2.044   2.362  15.981 -1.1695 -2.1452 -1.0383
 2492SOL     OW18934   2.406   0.310   9.259  0.1563 -0.2910  0.2297
 2492SOL    HW118935   2.314   0.336   9.254  1.0065  2.8574  0.7709
 2492SOL    HW218936   2.416   0.264   9.176 -0.5356 -1.7207  0.9430
 2493SOL     OW18937   4.649   0.518  13.138  1.0486  0.1737  0.9003
 2493SOL    HW118938   4.575   0.578  13.127  0.0767 -0.8566  1.8069
 2493SOL    HW218939   4.720   0.581  13.151  0.7585  0.8409 -0.6939
 2494SOL     OW18940   1.745   1.785   2.660 -0.5025 -0.5101  0.1356
 2494SOL    HW118941   1.744   1.776   2.564 -0.6135  2.4739 -0.1430
 2494SOL    HW218942   1.667   1.732   2.675  0.2798 -1.4973  0.6711
 2495SOL     OW18943   2.875   1.320   5.980  0.1031 -0.1341  0.4674
 2495SOL    HW118944   2.815   1.308   5.906  0.7090 -1.4182  0.1930
 2495SOL    HW218945   2.942   1.377   5.942 -1.2828  0.9893 -0.3227
 2496SOL     OW18946   3.818   2.565  17.523 -0.8950  0.0144  0.4544
 2496SOL    HW118947   3.787   2.541  17.611 -0.9576 -1.3976  0.0496
 2496SOL    HW218948   3.833   2.477  17.488 -0.1169  0.0607  0.6746
 2497SOL     OW18949   1.539   3.226   4.497  0.7344  0.3522  0.3012
 2497SOL    HW118950   1.545   3.245   4.591  2.3556  0.8147  0.1012
 2497SOL    HW218951   1.625   3.255   4.466  1.7975 -1.0549  1.9491
 2498SOL     OW18952   2.337   1.474  10.083 -0.4880  0.0552  0.1991
 2498SOL    HW118953   2.363   1.561  10.113 -3.3042  0.0460  2.6261
 2498SOL    HW218954   2.264   1.458  10.143 -0.2769 -0.5190  0.2948
 2499SOL     OW18955   4.635   1.761   6.032  0.2631  0.7508 -0.4740
 2499SOL    HW118956   4.618   1.747   6.125 -1.6779 -0.3690 -1.0034
 2499SOL    HW218957   0.006   1.737   6.030 -0.5784 -2.5561  0.7107
 2500SOL     OW18958   3.317   1.945  11.579 -0.2395  0.3274 -0.3001
 2500SOL    HW118959   3.377   1.886  11.534 -1.5308 -0.0475 -1.5634
 2500SOL    HW218960   3.381   2.001  11.621 -1.2768 -0.2282  2.0635
 2501SOL     OW18961   1.646   1.022   1.707 -0.9882  0.3897  0.0557
 2501SOL    HW118962   1.721   0.984   1.662 -0.2757  0.0512  1.5422
 2501SOL    HW218963   1.694   1.070   1.774 -0.1815  1.3669 -1.2287
 2502SOL     OW18964   2.731   3.432   3.129 -0.0701  0.2559  0.2115
 2502SOL    HW118965   2.715   3.379   3.050  0.8324 -0.4188  0.4792
 2502SOL    HW218966   2.796   3.492   3.093 -1.1039  0.1552 -1.8308
 2503SOL     OW18967   3.114   4.256  10.408 -0.1547 -0.3309  0.4599
 2503SOL    HW118968   3.160   4.238  10.326 -0.4934  1.1389 -0.0423
 2503SOL    HW218969   3.152   4.342  10.426  0.1996 -0.8019  1.9553
 2504SOL     OW18970   4.325   1.560   9.142  0.4790 -0.3157  0.5678
 2504SOL    HW118971   4.281   1.633   9.099 -0.7923 -1.2578  0.2552
 2504SOL    HW218972   4.370   1.518   9.069 -0.1423  1.2308 -0.7155
 2505SOL     OW18973   2.463   2.476   2.822  0.4743 -0.2776  0.4119
 2505SOL    HW118974   2.533   2.445   2.880  1.4689  0.5264 -0.3513
 2505SOL    HW218975   2.389   2.418   2.841  0.6560 -1.1589 -1.5271
 2506SOL     OW18976   1.407   1.853  10.170  0.3682  0.1392  0.0420
 2506SOL    HW118977   1.352   1.778  10.193  0.1755 -0.7725 -3.4600
 2506SOL    HW218978   1.482   1.818  10.122  0.7230 -0.7829  1.2616
 2507SOL     OW18979   0.130   2.287   2.475 -0.8620  0.3153  0.2497
 2507SOL    HW118980   0.159   2.328   2.394 -1.6231 -1.5224 -0.9626
 2507SOL    HW218981   0.065   2.221   2.449 -1.6785  1.6661 -1.1239
 2508SOL     OW18982   1.279   3.615   4.982  0.3561 -0.6557  0.0492
 2508SOL    HW118983   1.304   3.533   5.024  0.6718  0.5928  2.2626
 2508SOL    HW218984   1.233   3.660   5.052 -0.5007 -0.3546 -0.6991
 2509SOL     OW18985   3.849   4.270  12.972 -0.2000  0.3770 -0.0387
 2509SOL    HW118986   3.890   4.310  12.896  0.1101 -1.2995 -0.7524
 2509SOL    HW218987   3.895   4.186  12.979  0.1437  0.7431  2.0404
 2510SOL     OW18988   4.161   1.551   3.635  0.4548  0.1227 -0.3727
 2510SOL    HW118989   4.116   1.582   3.713  1.6999 -0.3182  0.5178
 2510SOL    HW218990   4.142   1.458   3.622  3.0803 -0.0940 -2.6912
 2511SOL     OW18991   4.132   3.876   8.525 -0.5985 -0.2206  0.6150
 2511SOL    HW118992   4.085   3.811   8.578 -0.8594 -1.6426 -1.3539
 2511SOL    HW218993   4.129   3.827   8.443 -1.7113  2.6304 -1.0150
 2512SOL     OW18994   4.495   2.416   2.425  0.2972  0.3146  0.3700
 2512SOL    HW118995   4.538   2.379   2.502  1.3194 -0.7866 -0.7203
 2512SOL    HW218996   4.570   2.449   2.375 -0.1808  1.2109  0.2459
 2513SOL     OW18997   3.387   1.093   6.642  0.0028 -0.0413  0.6653
 2513SOL    HW118998   3.403   1.016   6.587 -1.5846 -0.1973  0.4283
 2513SOL    HW218999   3.347   1.159   6.586 -0.7625 -0.1281  1.1218
 2514SOL     OW19000   3.483   0.668  17.443  0.2602  0.1503 -0.3850
 2514SOL    HW119001   3.449   0.711  17.521  0.2659 -0.6751  0.0647
 2514SOL    HW219002   3.426   0.717  17.383 -0.9317 -0.4307  0.2732
 2515SOL     OW19003   4.264   0.178   2.211  0.6822  0.0951 -0.6111
 2515SOL    HW119004   4.268   0.151   2.303  1.7719 -0.2224 -0.7651
 2515SOL    HW219005   4.231   0.100   2.167  0.9084 -0.9920  1.1466
 2516SOL     OW19006   4.481   4.077   7.402 -0.1850  0.2481  0.6336
 2516SOL    HW119007   4.502   4.047   7.491 -2.8704  3.1029  2.2658
 2516SOL    HW219008   4.403   4.130   7.419 -0.2570  0.1293  0.6803
 2517SOL     OW19009   2.711   3.652   1.645  0.6761  0.1535 -0.1182
 2517SOL    HW119010   2.630   3.606   1.626 -0.1304  1.9384 -0.9536
 2517SOL    HW219011   2.709   3.739   1.604 -1.6676 -0.9521 -2.2976
 2518SOL     OW19012   1.605   1.465   4.406 -0.0053  0.2046  0.6286
 2518SOL    HW119013   1.652   1.402   4.460 -1.7828  0.4316  2.4423
 2518SOL    HW219014   1.553   1.514   4.470 -1.3870  4.2481 -3.5781
 2519SOL     OW19015   3.760   3.106   1.008  0.3583  0.4279 -0.5134
 2519SOL    HW119016   3.676   3.112   0.963  0.0881  1.0683  0.0958
 2519SOL    HW219017   3.749   3.033   1.069 -0.6328  2.3957  1.6308
 2520SOL     OW19018   4.037   2.943   6.608  0.5004 -0.4223  0.1992
 2520SOL    HW119019   3.988   2.880   6.660 -2.0108 -0.7090 -2.4910
 2520SOL    HW219020   4.029   3.024   6.659  2.5100 -1.6685  2.4690
 2521SOL     OW19021   0.560   0.114   2.219  0.5451 -0.1458 -0.3612
 2521SOL    HW119022   0.578   0.096   2.127  1.3882  4.2257 -1.0133
 2521SOL    HW219023   0.481   0.062   2.235  2.3783 -2.9769 -0.4073
 2522SOL     OW19024   0.244   3.989   4.135  0.3110 -0.3639  0.1031
 2522SOL    HW119025   0.260   4.062   4.195  0.2619  0.7116 -1.1932
 2522SOL    HW219026   0.267   3.910   4.184  2.8965  0.8402  0.8078
 2523SOL     OW19027   0.930   2.899   3.353 -0.1260  0.3426  0.1663
 2523SOL    HW119028   0.988   2.824   3.364 -0.5904  0.0530  0.6103
 2523SOL    HW219029   0.860   2.867   3.295  1.7134 -0.7023 -1.4704
 2524SOL     OW19030   2.149   2.717   4.513 -0.2521  0.3975  0.4121
 2524SOL    HW119031   2.074   2.776   4.516  0.4732  1.3598 -0.0133
 2524SOL    HW219032   2.153   2.681   4.601 -0.6904 -0.7709 -0.0599
 2525SOL     OW19033   1.352   2.303  12.153 -0.1427 -0.0116  0.2344
 2525SOL    HW119034   1.363   2.368  12.224  3.0036  1.1376 -1.2955
 2525SOL    HW219035   1.293   2.249  12.205 -1.1462 -0.0691 -0.9702
 2526SOL     OW19036   3.641   1.742   1.861  0.2527  0.5209 -0.5603
 2526SOL    HW119037   3.712   1.685   1.888 -0.8438  0.7676  2.8943
 2526SOL    HW219038   3.690   1.809   1.813  1.9652 -1.6232 -1.7627
 2527SOL     OW19039   1.439   1.417  13.397 -0.0940  0.2490  0.6493
 2527SOL    HW119040   1.435   1.507  13.365  0.7891 -0.1881 -0.7058
 2527SOL    HW219041   1.358   1.426  13.448  1.3304 -1.1925  3.1519
 2528SOL     OW19042   1.268   1.522   9.338  0.0188 -0.4508 -0.3686
 2528SOL    HW119043   1.279   1.427   9.340  0.0135 -0.4174  1.7029
 2528SOL    HW219044   1.293   1.548   9.427  1.1307 -1.1814 -0.4629
 2529SOL     OW19045   4.072   1.268   3.686  0.5257 -0.3714 -0.2740
 2529SOL    HW119046   4.111   1.190   3.646 -0.1300 -1.5936  1.5103
 2529SOL    HW219047   3.988   1.260   3.639  0.9737  2.2645 -1.5538
 2530SOL     OW19048   1.144   0.053   1.196  0.8508  0.1840 -0.0477
 2530SOL    HW119049   1.103   0.137   1.219  0.7985 -0.4522  2.2064
 2530SOL    HW219050   1.113   4.713   1.263  0.6984  1.6393  1.2104
 2531SOL     OW19051   1.303   3.951  10.715  0.1612 -0.0268 -0.2139
 2531SOL    HW119052   1.281   3.885  10.650 -0.3708 -1.1996  1.1566
 2531SOL    HW219053   1.271   3.909  10.795  4.5214 -0.0697  1.5178
 2532SOL     OW19054   4.261   2.838  16.440 -0.0841 -0.1405  0.1435
 2532SOL    HW119055   4.215   2.759  16.469  0.0534 -0.6482 -1.0041
 2532SOL    HW219056   4.269   2.824  16.346 -0.7173  1.6440 -0.1667
 2533SOL     OW19057   4.317   2.851   5.594  0.3644  0.2708 -0.1117
 2533SOL    HW119058   4.228   2.819   5.584  0.6134 -0.8063  0.9481
 2533SOL    HW219059   4.325   2.873   5.687 -0.2962 -0.2643  0.0646
 2534SOL     OW19060   2.981   0.103  11.838 -0.1498  0.6887  0.4021
 2534SOL    HW119061   3.055   0.145  11.794  0.0471  0.1084  0.1818
 2534SOL    HW219062   3.014   0.014  11.842 -0.0057  0.6709 -1.0901
 2535SOL     OW19063   4.480   4.058  14.858  0.0573  0.1429 -0.7493
 2535SOL    HW119064   4.481   4.035  14.765  0.2966 -0.3802 -0.6175
 2535SOL    HW219065   4.412   4.125  14.864 -0.1801 -0.3266  1.6877
 2536SOL     OW19066   1.984   1.055   5.009  0.0706  0.0309  0.1186
 2536SOL    HW119067   1.936   0.976   5.034  1.4137 -1.1263 -0.9509
 2536SOL    HW219068   1.991   1.078   5.102  1.1456  0.6465 -0.1136
 2537SOL     OW19069   4.045   3.654   4.059 -0.0883  0.7829  0.7504
 2537SOL    HW119070   4.074   3.565   4.079  1.5657  1.0987 -0.2318
 2537SOL    HW219071   3.951   3.638   4.060  0.4513 -2.5390  0.2326
 2538SOL     OW19072   4.209   2.983   4.245  0.3072 -0.6361 -0.3788
 2538SOL    HW119073   4.244   2.903   4.205 -1.0608 -1.6200  0.3649
 2538SOL    HW219074   4.159   3.018   4.172 -1.4289 -0.1200  1.0460
 2539SOL     OW19075   2.680   4.029   5.308 -0.5014 -0.9441  0.1862
 2539SOL    HW119076   2.723   3.949   5.339  0.5392 -0.0398  1.0482
 2539SOL    HW219077   2.673   4.087   5.384 -0.6028  1.8674 -1.9566
 2540SOL     OW19078   4.642   1.252  13.437 -0.5777  0.3187 -0.6025
 2540SOL    HW119079   4.548   1.253  13.453 -0.3007  0.5073  1.0197
 2540SOL    HW219080   4.652   1.172  13.384  1.4709  0.8646 -1.0444
 2541SOL     OW19081   0.196   4.063   8.822 -0.1107  0.0049  0.2968
 2541SOL    HW119082   0.125   4.009   8.857  1.5854 -1.5275  1.3503
 2541SOL    HW219083   0.204   4.133   8.887 -2.0145 -1.0091  1.5979
 2542SOL     OW19084   1.052   3.920   5.548  0.5151  0.3817  0.1941
 2542SOL    HW119085   0.991   3.923   5.622  1.7067 -1.1437  1.2318
 2542SOL    HW219086   1.118   3.853   5.565  0.7940  0.4126 -0.7689
 2543SOL     OW19087   4.016   3.010   0.313 -0.2457 -0.2329 -0.1042
 2543SOL    HW119088   4.053   3.097   0.304  0.0105 -0.7296 -3.8326
 2543SOL    HW219089   4.085   2.954   0.278  0.8575 -0.8624  3.0489
 2544SOL     OW19090   2.205   0.568  13.216 -0.7329 -0.3385  0.3629
 2544SOL    HW119091   2.153   0.625  13.160 -1.1602 -2.0695 -0.9889
 2544SOL    HW219092   2.179   0.478  13.197 -0.6655 -0.1443 -0.6138
 2545SOL     OW19093   3.123   2.172  10.058  0.5026 -0.1255 -0.0077
 2545SOL    HW119094   3.100   2.243   9.998 -1.4589 -0.4663  0.3283
 2545SOL    HW219095   3.182   2.214  10.120 -0.3443  1.0927 -0.0130
 2546SOL     OW19096   3.801   3.269   2.830 -0.1307 -0.6129 -0.2911
 2546SOL    HW119097   3.842   3.355   2.836 -1.6759 -0.0092  1.6806
 2546SOL    HW219098   3.810   3.230   2.917  0.3004 -1.3873 -0.6744
 2547SOL     OW19099   3.116   1.201   3.691  0.3281 -0.2686 -0.7508
 2547SOL    HW119100   3.201   1.213   3.648  0.3250  0.4283 -0.5629
 2547SOL    HW219101   3.128   1.124   3.747  0.0674 -1.5928 -2.5201
 2548SOL     OW19102   2.063   0.222  13.551  0.0981 -0.2794 -0.9439
 2548SOL    HW119103   2.140   0.248  13.500 -0.9922  0.0128 -2.4258
 2548SOL    HW219104   2.088   0.132  13.572 -0.9876 -0.8698 -2.1888
 2549SOL     OW19105   1.316   2.659   2.794 -0.1175 -0.2647 -0.1043
 2549SOL    HW119106   1.365   2.580   2.771  3.6223  1.4770  1.9892
 2549SOL    HW219107   1.267   2.682   2.715 -2.0403 -0.6725  0.9532
 2550SOL     OW19108   4.020   3.527   3.716 -0.0724  0.0060  0.0318
 2550SOL    HW119109   4.012   3.456   3.781  2.8175  2.2429  2.8596
 2550SOL    HW219110   3.949   3.585   3.741 -0.5540 -0.2759 -0.6965
 2551SOL     OW19111   4.118   2.812   7.474  0.8412  0.4463  0.0136
 2551SOL    HW119112   4.063   2.889   7.462  0.3509  0.1003  0.0709
 2551SOL    HW219113   4.123   2.771   7.388 -2.2006 -1.7041  0.8953
 2552SOL     OW19114   1.324   4.690   8.630 -0.2360  0.3068 -0.0424
 2552SOL    HW119115   1.355   0.058   8.648  0.0097  0.2975 -0.4407
 2552SOL    HW219116   1.246   4.711   8.579 -0.5995 -1.9367 -0.4162
 2553SOL     OW19117   2.942   3.984   3.967  0.8340  0.4211 -0.3038
 2553SOL    HW119118   2.985   4.005   3.885 -0.7422  2.1502 -0.6788
 2553SOL    HW219119   2.883   4.057   3.985  3.6059  2.3175  1.2381
 2554SOL     OW19120   2.380   2.231   8.180  0.4515  0.1583 -0.2063
 2554SOL    HW119121   2.414   2.142   8.174  3.3152  1.1130  1.5987
 2554SOL    HW219122   2.289   2.214   8.206 -0.3078  0.9983 -2.2806
 2555SOL     OW19123   2.535   4.366   3.218  1.1687 -0.4822 -0.1390
 2555SOL    HW119124   2.514   4.308   3.291  2.7771  0.5558  1.1240
 2555SOL    HW219125   2.624   4.345   3.191  0.7914 -1.2090 -0.8255
 2556SOL     OW19126   3.302   4.516   6.741 -0.3877 -0.1256  0.1275
 2556SOL    HW119127   3.265   4.536   6.827 -1.5741  2.4137 -0.9383
 2556SOL    HW219128   3.224   4.497   6.689  0.0581  1.3881 -1.0956
 2557SOL     OW19129   4.175   4.011  15.751 -0.1236 -0.7287  0.6207
 2557SOL    HW119130   4.085   3.988  15.773 -1.7134  1.6773 -3.2964
 2557SOL    HW219131   4.169   4.105  15.768  2.5511 -0.0553 -1.9550
 2558SOL     OW19132   1.629   4.112   4.874  0.1395 -0.1245 -1.2325
 2558SOL    HW119133   1.689   4.118   4.800 -0.2985 -0.9011 -1.6540
 2558SOL    HW219134   1.549   4.144   4.832  0.6944  2.2066 -0.5293
 2559SOL     OW19135   3.301   3.494   6.607  0.4013 -0.1650  0.3865
 2559SOL    HW119136   3.333   3.430   6.544  0.6654 -0.1671  0.5225
 2559SOL    HW219137   3.373   3.491   6.670  1.0253 -0.6600 -0.3541
 2560SOL     OW19138   3.719   1.838   8.773 -0.0796  0.3137  0.1385
 2560SOL    HW119139   3.723   1.860   8.866 -0.6062 -0.1626  0.2703
 2560SOL    HW219140   3.706   1.744   8.781 -0.2181  0.4473  1.4206
 2561SOL     OW19141   0.821   0.274   4.546  0.1906  0.4500  0.4404
 2561SOL    HW119142   0.849   0.356   4.505 -0.4229  1.0216  1.1507
 2561SOL    HW219143   0.746   0.252   4.491  0.1664  0.9816  0.2618
 2562SOL     OW19144   1.777   1.739   3.426 -0.3627 -0.1404 -0.8607
 2562SOL    HW119145   1.705   1.685   3.459  0.8697 -0.5953  1.0808
 2562SOL    HW219146   1.854   1.693   3.458  0.0278 -0.3772 -2.1377
 2563SOL     OW19147   0.455   0.780   7.978 -0.3324 -0.1863 -0.2763
 2563SOL    HW119148   0.408   0.822   8.049 -1.6140 -1.5241 -0.3170
 2563SOL    HW219149   0.437   0.843   7.908  0.9688  0.3819 -0.0890
 2564SOL     OW19150   4.705   2.003   7.205  0.4701 -0.9401  0.3779
 2564SOL    HW119151   4.615   2.029   7.188  1.0731  1.2532  0.5051
 2564SOL    HW219152   0.030   2.084   7.182 -0.1006 -1.3389 -2.2511
 2565SOL     OW19153   1.817   3.444   9.554  0.7889  0.1670 -0.0977
 2565SOL    HW119154   1.908   3.475   9.550  0.9350 -0.3285 -0.7577
 2565SOL    HW219155   1.769   3.493   9.487  1.6065  1.9037  0.5884
 2566SOL     OW19156   2.580   3.849   8.425  0.0230  0.1643  0.0716
 2566SOL    HW119157   2.638   3.774   8.413 -0.2545 -0.2828  1.5037
 2566SOL    HW219158   2.603   3.899   8.347 -0.6709 -1.9204 -1.4538
 2567SOL     OW19159   3.150   4.006   6.549 -0.5838  0.1221  0.3163
 2567SOL    HW119160   3.244   4.004   6.566 -1.0474  0.3703  3.0455
 2567SOL    HW219161   3.128   3.922   6.509  0.8960 -0.7468  1.3225
 2568SOL     OW19162   0.277   4.238   2.016  0.5047 -0.0261  0.5120
 2568SOL    HW119163   0.231   4.280   2.088  1.3251 -1.3457  1.8134
 2568SOL    HW219164   0.222   4.160   2.002 -0.3479  1.0239 -1.9176
 2569SOL     OW19165   3.304   3.447   0.911  0.6257  0.5925  0.2470
 2569SOL    HW119166   3.251   3.522   0.883  1.2862  0.5799 -1.0645
 2569SOL    HW219167   3.327   3.405   0.828 -2.7011  1.4347 -1.0959
 2570SOL     OW19168   1.074   0.975   7.445  0.2566  0.3564  0.2222
 2570SOL    HW119169   1.036   0.921   7.514  2.4632 -1.1303  0.2673
 2570SOL    HW219170   1.031   1.061   7.451  2.2765  1.3851 -0.0428
 2571SOL     OW19171   0.831   0.331   0.615 -0.1259  0.1996  0.8498
 2571SOL    HW119172   0.901   0.375   0.566 -1.0452 -0.7266 -1.2832
 2571SOL    HW219173   0.878   0.285   0.684 -0.7472  0.9411  1.7794
 2572SOL     OW19174   4.323   1.993  11.189  0.2742  0.2000  0.3916
 2572SOL    HW119175   4.393   2.058  11.189 -0.5861  1.1283 -0.9134
 2572SOL    HW219176   4.260   2.022  11.255 -1.0715  0.0477 -0.8161
 2573SOL     OW19177   1.421   4.537   5.314  0.0535 -0.3743  0.7244
 2573SOL    HW119178   1.496   4.597   5.321  1.7908 -2.5068  0.4311
 2573SOL    HW219179   1.414   4.507   5.405 -2.0806 -1.3859  0.2115
 2574SOL     OW19180   0.760   0.524   3.977  0.3827  0.3265  0.5342
 2574SOL    HW119181   0.665   0.536   3.979  0.4823  1.5846 -1.7747
 2574SOL    HW219182   0.783   0.575   4.054  0.8583 -0.0121  0.6181
 2575SOL     OW19183   2.381   1.138   6.727 -0.4724 -0.2895  0.1590
 2575SOL    HW119184   2.353   1.168   6.641 -0.4777  1.2330  0.6880
 2575SOL    HW219185   2.474   1.159   6.720 -1.1994  3.5543  1.8020
 2576SOL     OW19186   2.232   2.297   2.871 -0.1429  0.1259 -0.1571
 2576SOL    HW119187   2.215   2.223   2.812 -3.9807 -0.7479  2.0741
 2576SOL    HW219188   2.214   2.257   2.956  1.7390  1.4012  0.8388
 2577SOL     OW19189   3.262   2.294   5.442  0.3071 -0.3738  0.1261
 2577SOL    HW119190   3.329   2.231   5.415 -0.9343 -2.2055  1.2943
 2577SOL    HW219191   3.188   2.243   5.475 -1.3981  0.8759 -1.7599
 2578SOL     OW19192   2.374   0.294   1.392  0.0180 -0.4016  0.3221
 2578SOL    HW119193   2.355   0.204   1.366  0.8663  0.8588 -4.6833
 2578SOL    HW219194   2.341   0.298   1.481  1.1607 -0.6306  0.7661
 2579SOL     OW19195   1.181   1.911   3.294 -0.7793 -0.6367  0.1827
 2579SOL    HW119196   1.136   1.949   3.219  1.2662  0.5734 -0.4108
 2579SOL    HW219197   1.192   1.818   3.275 -0.6896 -0.7733  0.9033
 2580SOL     OW19198   2.578   1.304   4.942  0.3672  0.2695 -0.1016
 2580SOL    HW119199   2.495   1.346   4.962  0.4860  0.1123  0.7712
 2580SOL    HW219200   2.631   1.360   4.886  0.9139  1.7286  1.8817
 2581SOL     OW19201   4.260   1.028   2.864 -0.0925 -0.2519 -0.5580
 2581SOL    HW119202   4.259   1.086   2.787 -1.5598 -0.9574 -1.0594
 2581SOL    HW219203   4.172   1.055   2.892 -0.6801 -0.8220 -1.8804
 2582SOL     OW19204   3.215   1.032   9.010  0.9498  0.3014  0.1970
 2582SOL    HW119205   3.191   1.113   8.966  0.4112  0.8492  1.5415
 2582SOL    HW219206   3.248   1.061   9.094 -0.9617  0.8587  0.7377
 2583SOL     OW19207   0.625   3.622   1.959 -0.3260 -0.4673  0.6757
 2583SOL    HW119208   0.618   3.571   1.878 -0.1032 -1.4328  1.2616
 2583SOL    HW219209   0.659   3.557   2.020 -1.9612 -2.2255 -0.3078
 2584SOL     OW19210   3.579   3.780   3.599 -0.1878 -0.4100  0.6798
 2584SOL    HW119211   3.631   3.814   3.672 -1.6487 -0.5415  1.7814
 2584SOL    HW219212   3.634   3.711   3.562  2.5931  1.7079  0.8723
 2585SOL     OW19213   3.104   3.493   3.315  0.7331  0.3524 -0.0462
 2585SOL    HW119214   3.043   3.522   3.384 -0.4031 -0.4019 -0.7342
 2585SOL    HW219215   3.155   3.424   3.357 -0.9651 -1.9908 -1.8998
 2586SOL     OW19216   3.753   3.989   6.937  0.3570 -0.9473  0.2700
 2586SOL    HW119217   3.704   4.005   7.018  0.5277  0.0043  0.1857
 2586SOL    HW219218   3.826   4.049   6.954  0.6170 -0.8322 -1.2379
 2587SOL     OW19219   0.272   0.042  16.146  0.0882  0.6924 -0.0426
 2587SOL    HW119220   0.340   4.714  16.194  1.6425  1.7188 -1.2265
 2587SOL    HW219221   0.295   0.040  16.054 -0.0172  0.5081 -0.0662
 2588SOL     OW19222   1.372   1.174   3.667 -0.1613  0.3748 -0.1273
 2588SOL    HW119223   1.417   1.090   3.659  0.3224  1.0626 -4.4405
 2588SOL    HW219224   1.317   1.171   3.589 -0.3077 -1.2414  0.0482
 2589SOL     OW19225   2.434   2.344   1.873  0.5583  0.6144  1.1352
 2589SOL    HW119226   2.444   2.256   1.837  0.2266  0.9352  0.2675
 2589SOL    HW219227   2.360   2.329   1.932  2.0674 -1.1140  2.5666
 2590SOL     OW19228   3.686   2.439   4.504  0.3920  0.1647  0.2730
 2590SOL    HW119229   3.683   2.400   4.416 -1.7574 -1.0534  0.8952
 2590SOL    HW219230   3.633   2.518   4.503 -3.7899 -2.6562  0.6406
 2591SOL     OW19231   1.551   0.675  15.053 -0.4407  0.0147 -0.0633
 2591SOL    HW119232   1.460   0.703  15.065 -0.9686 -2.0732  0.8007
 2591SOL    HW219233   1.556   0.611  15.125  0.3061 -0.0880 -0.2096
 2592SOL     OW19234   0.066   3.678  13.534 -0.1226  0.4662  0.2245
 2592SOL    HW119235   0.156   3.689  13.503  0.3822  0.1668  1.5437
 2592SOL    HW219236   0.069   3.714  13.623 -2.0115  0.1810  0.4004
 2593SOL     OW19237   4.670   0.955   3.073 -0.3669 -0.0128 -0.2749
 2593SOL    HW119238   4.652   0.874   3.121 -1.4028  0.6570  0.4648
 2593SOL    HW219239   4.630   1.016   3.134 -2.1101 -0.9871 -0.4390
 2594SOL     OW19240   4.504   3.372   4.191  0.1064  0.0529 -0.1907
 2594SOL    HW119241   4.413   3.382   4.161 -0.7375 -1.9246  1.7133
 2594SOL    HW219242   4.486   3.312   4.263  0.1813  1.5961  1.1011
 2595SOL     OW19243   4.612   4.063   4.840 -0.1417 -0.2066 -0.3970
 2595SOL    HW119244   4.554   4.131   4.877  0.1867 -0.2660  0.2095
 2595SOL    HW219245   4.700   4.100   4.848 -0.8535  2.2796 -3.7972
 2596SOL     OW19246   2.567   0.917   2.089 -0.0770 -0.0855 -0.1067
 2596SOL    HW119247   2.512   0.948   2.162  1.1066  2.4712 -0.2916
 2596SOL    HW219248   2.617   0.995   2.065  0.4894  0.6199  3.2982
 2597SOL     OW19249   2.597   1.481   0.795 -0.2110  0.6172  0.4489
 2597SOL    HW119250   2.661   1.524   0.738 -1.0199  2.4535  0.9282
 2597SOL    HW219251   2.568   1.406   0.742 -2.9959  2.0278 -0.0252
 2598SOL     OW19252   1.892   2.347   2.775  0.3888  0.0758  0.1946
 2598SOL    HW119253   1.914   2.272   2.719  2.0520  2.2015 -2.0082
 2598SOL    HW219254   1.969   2.401   2.759  1.5111 -1.2530  1.0953
 2599SOL     OW19255   3.446   2.146  14.689  0.0609  0.3658 -0.3248
 2599SOL    HW119256   3.470   2.057  14.715  1.5137  1.5955  2.5447
 2599SOL    HW219257   3.459   2.142  14.595 -0.5906 -1.1733 -0.3487
 2600SOL     OW19258   2.260   0.194   5.382  0.6971 -0.1045  0.3262
 2600SOL    HW119259   2.254   0.201   5.287  1.1980 -1.3860  0.1998
 2600SOL    HW219260   2.211   0.273   5.408 -0.9922 -1.4660  1.3542
 2601SOL     OW19261   4.234   4.290   0.614  0.4968  0.8349 -0.6556
 2601SOL    HW119262   4.174   4.318   0.545 -0.1459  1.7319  0.2599
 2601SOL    HW219263   4.270   4.378   0.629 -3.0648  2.0962  0.5264
 2602SOL     OW19264   4.691   1.654   1.881 -0.5428 -0.5609 -0.6826
 2602SOL    HW119265   4.600   1.683   1.873 -0.5913 -0.1422  1.3325
 2602SOL    HW219266   4.669   1.563   1.897 -0.8360 -0.2637  0.6105
 2603SOL     OW19267   3.913   1.969   2.252  0.0148  0.0263  0.3177
 2603SOL    HW119268   3.926   1.921   2.333 -0.3248  0.2959  0.5320
 2603SOL    HW219269   3.828   1.929   2.230  0.7238 -1.2028 -0.1819
 2604SOL     OW19270   2.561   2.946  13.899  0.1426 -0.9337  0.1621
 2604SOL    HW119271   2.634   2.942  13.839  0.3133 -1.9896  0.4424
 2604SOL    HW219272   2.591   2.873  13.953  2.9967 -0.2849 -0.5548
 2605SOL     OW19273   3.394   0.326   4.787 -0.0387  0.1768  0.1085
 2605SOL    HW119274   3.306   0.354   4.760  0.3776  0.4876 -0.9172
 2605SOL    HW219275   3.406   0.384   4.863 -0.3697  1.8134 -1.0750
 2606SOL     OW19276   2.341   2.801   7.456  0.4892  0.2820 -0.0212
 2606SOL    HW119277   2.357   2.895   7.444  1.0714 -0.0807 -2.1037
 2606SOL    HW219278   2.279   2.809   7.528  1.0387 -0.0189  0.4842
 2607SOL     OW19279   1.821   0.567   8.116  0.1372 -0.2055 -0.0455
 2607SOL    HW119280   1.762   0.641   8.103 -0.6553 -1.2077 -2.0645
 2607SOL    HW219281   1.831   0.532   8.028  0.2859 -0.2218 -0.0233
 2608SOL     OW19282   1.510   2.875  11.630 -0.3756  0.0072  0.4902
 2608SOL    HW119283   1.537   2.965  11.610  0.1213  0.6766  4.0650
 2608SOL    HW219284   1.555   2.818  11.568 -0.3908 -0.6694  1.0992
 2609SOL     OW19285   2.942   4.278   2.021  0.3534 -0.3625  0.1043
 2609SOL    HW119286   3.027   4.321   2.009  0.1875 -0.3540 -1.0121
 2609SOL    HW219287   2.901   4.339   2.083  1.1881 -0.6411  0.9355
 2610SOL     OW19288   2.830   2.685   4.094  0.4480  0.1529  0.3312
 2610SOL    HW119289   2.809   2.632   4.170 -0.3461  2.5424  1.7587
 2610SOL    HW219290   2.750   2.737   4.086  0.9476  0.7732 -0.6407
 2611SOL     OW19291   4.467   0.172   7.957 -0.1793  0.3764  0.2860
 2611SOL    HW119292   4.387   0.119   7.952 -0.6677  1.1234  0.0651
 2611SOL    HW219293   4.533   0.117   7.915 -0.1874  0.9893 -0.5477
 2612SOL     OW19294   3.100   0.009  13.779  0.0089  0.0556  0.6359
 2612SOL    HW119295   3.137   0.086  13.822 -0.1016  2.2195 -3.2326
 2612SOL    HW219296   3.012   0.017  13.816  1.6494 -0.2521  4.6730
 2613SOL     OW19297   4.639   0.854   6.860  0.1170  0.0588  0.1528
 2613SOL    HW119298   4.712   0.804   6.823 -0.3091 -1.0809  0.8678
 2613SOL    HW219299   4.616   0.796   6.933 -2.4374 -0.3241 -0.9671
 2614SOL     OW19300   0.736   0.268   8.249 -0.1353  0.6301 -0.2339
 2614SOL    HW119301   0.643   0.286   8.247 -0.3013 -0.3010 -0.9235
 2614SOL    HW219302   0.753   0.241   8.159  1.5067  0.3298  0.1497
 2615SOL     OW19303   3.801   0.071   2.770  0.0282  0.2287 -0.5856
 2615SOL    HW119304   3.877   0.041   2.721  0.8110  0.3793  0.5467
 2615SOL    HW219305   3.799   0.161   2.738 -1.0906  0.5260  0.3248
 2616SOL     OW19306   2.350   1.495   7.199 -0.0423  0.2559  0.6780
 2616SOL    HW119307   2.335   1.527   7.288 -0.8652  0.6452  0.3972
 2616SOL    HW219308   2.444   1.477   7.207  0.0294 -0.3859 -1.7291
 2617SOL     OW19309   3.673   4.018   2.937 -0.5187 -0.4795 -0.1882
 2617SOL    HW119310   3.663   4.101   2.984  0.1893 -0.9253  0.7512
 2617SOL    HW219311   3.601   3.964   2.969 -0.9148  0.2507  0.1639
 2618SOL     OW19312   1.235   2.810   6.655 -0.3747  0.1650 -0.2756
 2618SOL    HW119313   1.278   2.725   6.664 -0.7417 -0.2389 -2.5795
 2618SOL    HW219314   1.214   2.825   6.748 -2.0099  0.5488 -0.7066
 2619SOL     OW19315   3.793   0.705   4.856 -0.0651  0.0048  0.5435
 2619SOL    HW119316   3.860   0.701   4.788  1.2679  0.3762  1.8119
 2619SOL    HW219317   3.739   0.627   4.842  0.2465 -0.0624 -0.2859
 2620SOL     OW19318   1.279   3.388   4.195  0.1320  0.3390  0.2263
 2620SOL    HW119319   1.267   3.433   4.111 -0.8381  2.3196  1.4344
 2620SOL    HW219320   1.306   3.453   4.260  1.6719  0.3852 -0.4586
 2621SOL     OW19321   2.641   2.877   8.212  0.0530 -0.5035  0.1422
 2621SOL    HW119322   2.629   2.966   8.180 -0.7825 -0.2926  1.0850
 2621SOL    HW219323   2.548   2.859   8.226  0.0573 -0.8896 -0.3072
 2622SOL     OW19324   3.695   0.850   8.841 -0.4770 -0.4142 -0.0724
 2622SOL    HW119325   3.611   0.835   8.884 -0.7571  1.6121  0.0564
 2622SOL    HW219326   3.713   0.935   8.879 -1.3017  0.1193 -0.8781
 2623SOL     OW19327   1.309   4.596   1.090 -0.5333  0.0885 -0.5105
 2623SOL    HW119328   1.238   4.654   1.116 -0.9390 -1.2456  1.3811
 2623SOL    HW219329   1.386   4.625   1.138 -0.2421 -0.0591 -0.8877
 2624SOL     OW19330   3.293   3.958   0.936 -0.2486  0.4920 -0.4577
 2624SOL    HW119331   3.294   3.909   0.853  0.3707 -0.3749  0.0563
 2624SOL    HW219332   3.197   3.963   0.934 -0.3589 -1.0150  1.2091
 2625SOL     OW19333   1.439   1.334   5.343  1.0090 -0.4597 -0.2303
 2625SOL    HW119334   1.519   1.340   5.396  0.4780 -0.4884  0.5673
 2625SOL    HW219335   1.465   1.394   5.273 -0.3690  1.0253  0.5452
 2626SOL     OW19336   0.139   3.772   3.856 -0.0175 -0.6357  0.9161
 2626SOL    HW119337   0.080   3.845   3.840 -2.6195 -3.0813 -0.5449
 2626SOL    HW219338   0.152   3.740   3.767 -0.4123  3.0204 -0.4510
 2627SOL     OW19339   2.748   0.587  16.362  0.4705  0.4487 -0.6825
 2627SOL    HW119340   2.749   0.531  16.440 -0.2068  2.7098  0.9777
 2627SOL    HW219341   2.717   0.533  16.290  0.9913  0.7737 -1.1450
 2628SOL     OW19342   3.623   1.118   3.623  0.1743 -0.5554 -0.4812
 2628SOL    HW119343   3.631   1.059   3.698 -1.3337  1.0314  0.9304
 2628SOL    HW219344   3.650   1.069   3.546  3.6889  1.6836 -0.6726
 2629SOL     OW19345   4.454   4.347   4.685  0.4832 -0.1752 -0.2630
 2629SOL    HW119346   4.445   4.403   4.608  2.1196 -0.8674 -0.9621
 2629SOL    HW219347   4.484   4.271   4.635  2.9428 -0.3126  1.4293
 2630SOL     OW19348   1.270   3.866   2.202  0.3144 -0.7432  0.0257
 2630SOL    HW119349   1.275   3.921   2.123  0.5175 -1.0820 -0.1963
 2630SOL    HW219350   1.178   3.841   2.205  0.7028 -2.1185  0.2973
 2631SOL     OW19351   0.219   1.470   7.795 -0.2943 -0.0307  0.1252
 2631SOL    HW119352   0.222   1.451   7.702  0.7139 -1.7070  0.4880
 2631SOL    HW219353   0.263   1.554   7.802 -1.0331  0.5055 -1.6997
 2632SOL     OW19354   1.078   4.386  10.535 -0.5464 -0.2026 -0.4185
 2632SOL    HW119355   1.117   4.461  10.579  0.1767  0.6432 -2.5091
 2632SOL    HW219356   1.135   4.311  10.551 -1.1663 -1.2394 -3.0195
 2633SOL     OW19357   2.636   2.360   2.995  0.2212 -0.6767  0.4417
 2633SOL    HW119358   2.627   2.363   3.090  0.5485  0.0668  0.4522
 2633SOL    HW219359   2.730   2.368   2.980  0.3627 -0.6324  1.3251
 2634SOL     OW19360   1.340   4.318   6.360 -0.1268  0.1858  0.0090
 2634SOL    HW119361   1.357   4.351   6.448  0.0765  1.3425 -0.4739
 2634SOL    HW219362   1.394   4.238   6.365 -0.6097 -0.0633  1.3233
 2635SOL     OW19363   4.335   1.543   7.670  0.0666  0.6615 -0.8868
 2635SOL    HW119364   4.384   1.502   7.742 -0.3163  1.5393 -0.1279
 2635SOL    HW219365   4.406   1.584   7.621  0.2712  0.3032 -0.8905
 2636SOL     OW19366   1.779   0.657  15.877 -0.3855  0.5511  0.0496
 2636SOL    HW119367   1.781   0.737  15.930 -2.1569  2.0087 -2.0484
 2636SOL    HW219368   1.750   0.589  15.937  1.9501  0.0049  0.5486
 2637SOL     OW19369   1.887   0.839   4.182  0.0703  0.1268  0.5447
 2637SOL    HW119370   1.961   0.897   4.162 -0.0947  0.5007  1.0139
 2637SOL    HW219371   1.816   0.900   4.201  0.6465  0.9546  0.0409
 2638SOL     OW19372   3.532   4.279   0.745 -0.1652 -0.1880  0.0234
 2638SOL    HW119373   3.494   4.247   0.827  1.0877  0.7327  0.9720
 2638SOL    HW219374   3.457   4.311   0.695 -1.8079 -1.7268  1.4910
 2639SOL     OW19375   1.219   2.819  11.325  0.0426 -0.6362 -0.5813
 2639SOL    HW119376   1.215   2.726  11.344 -0.1446  0.2936  3.9248
 2639SOL    HW219377   1.125   2.839  11.326  0.1834  0.0342 -1.2379
 2640SOL     OW19378   2.405   3.485   8.349  0.4412  0.2586 -0.0208
 2640SOL    HW119379   2.466   3.474   8.422  0.0834 -0.9621  0.0840
 2640SOL    HW219380   2.348   3.410   8.363  0.4586  0.3835  0.7118
 2641SOL     OW19381   3.069   0.573  13.262  0.1720 -0.3286  0.2838
 2641SOL    HW119382   2.976   0.569  13.241  0.8559  1.0052 -3.0779
 2641SOL    HW219383   3.078   0.552  13.355  3.8004  2.5225  0.5688
 2642SOL     OW19384   4.236   2.522   2.799 -0.8689  0.4821 -0.1851
 2642SOL    HW119385   4.306   2.479   2.848  0.0329 -1.5266 -3.2210
 2642SOL    HW219386   4.285   2.575   2.737 -0.1882 -0.1415 -0.1801
 2643SOL     OW19387   1.340   4.114   7.907 -0.7560 -0.1700 -0.2993
 2643SOL    HW119388   1.314   4.058   7.979  1.7911 -2.2017 -0.9612
 2643SOL    HW219389   1.310   4.202   7.929  0.8005 -0.7979  4.3035
 2644SOL     OW19390   0.843   1.739   3.867  0.1817 -0.2540  0.5216
 2644SOL    HW119391   0.937   1.751   3.873  0.1348  0.3853 -0.0508
 2644SOL    HW219392   0.822   1.690   3.947  0.4166  0.1341  0.8162
 2645SOL     OW19393   2.542   2.608   0.014 -0.1191  0.0610  0.0729
 2645SOL    HW119394   2.508   2.536  17.648 -1.9841  1.4293 -0.5955
 2645SOL    HW219395   2.631   2.616  17.668 -0.0327  1.1508  0.5910
 2646SOL     OW19396   0.011   1.991   8.823  0.0837  0.1691 -0.4466
 2646SOL    HW119397   0.098   1.972   8.787 -0.0098  2.3431 -1.8490
 2646SOL    HW219398   0.024   2.086   8.814 -2.3957  0.4586 -0.8967
 2647SOL     OW19399   2.417   3.262   3.880 -0.5170 -0.4987 -0.3602
 2647SOL    HW119400   2.432   3.187   3.822 -0.8832 -0.6865 -0.2118
 2647SOL    HW219401   2.390   3.217   3.960 -0.4936 -0.8814 -0.5693
 2648SOL     OW19402   0.759   3.614   5.600 -0.4836  0.0918  0.3784
 2648SOL    HW119403   0.797   3.696   5.630 -0.9712 -0.3166  2.1494
 2648SOL    HW219404   0.690   3.648   5.543 -0.1180  0.5412  0.2055
 2649SOL     OW19405   3.031   4.554  10.258 -0.0170 -0.5596  0.2253
 2649SOL    HW119406   3.087   4.543  10.335 -0.1555 -1.3881  0.2052
 2649SOL    HW219407   3.081   4.517  10.185 -2.6284  0.8675 -2.2629
 2650SOL     OW19408   3.035   2.161   7.964  0.2836  0.2630 -0.5631
 2650SOL    HW119409   2.962   2.189   7.909 -0.1441  0.0756 -0.0978
 2650SOL    HW219410   3.101   2.167   7.896 -0.5126 -0.1594 -1.3704
 2651SOL     OW19411   1.407   0.079  17.591  0.5059 -0.3718 -0.6120
 2651SOL    HW119412   1.430   0.113  17.677 -0.2595 -0.3457 -0.4187
 2651SOL    HW219413   1.441   4.712  17.603  2.5820 -0.0447 -4.0889
 2652SOL     OW19414   3.250   3.464   5.608 -0.4784  0.2504  0.1053
 2652SOL    HW119415   3.290   3.510   5.534 -0.0401  0.1314  0.2648
 2652SOL    HW219416   3.297   3.380   5.607 -1.1739 -0.1649  1.5736
 2653SOL     OW19417   0.573   3.088   7.978  0.6002  0.6745  0.4038
 2653SOL    HW119418   0.586   3.020   7.911  0.9772  1.7537 -0.6182
 2653SOL    HW219419   0.540   3.040   8.054  1.7374  0.5847  0.8445
 2654SOL     OW19420   0.756   3.745   8.275 -0.3649 -0.4679  0.2776
 2654SOL    HW119421   0.806   3.795   8.211  1.0613 -2.4927 -0.2046
 2654SOL    HW219422   0.707   3.822   8.303  0.3571  1.2793 -3.3422
 2655SOL     OW19423   1.633   0.412   8.823 -0.2891 -0.3564  0.0008
 2655SOL    HW119424   1.555   0.453   8.787  1.0630  2.1472 -0.0716
 2655SOL    HW219425   1.665   0.398   8.734 -1.3017  0.0446 -0.4250
 2656SOL     OW19426   2.503   0.583   3.782 -0.0410  0.6136  0.0276
 2656SOL    HW119427   2.505   0.536   3.865 -0.7651  0.2670 -0.1512
 2656SOL    HW219428   2.537   0.668   3.808  1.5675 -0.7975  2.5334
 2657SOL     OW19429   2.457   4.208  14.760  0.5516  0.3027  0.6123
 2657SOL    HW119430   2.379   4.158  14.784  0.4007  0.3099  0.1431
 2657SOL    HW219431   2.514   4.179  14.831 -1.0621 -2.1686  0.8830
 2658SOL     OW19432   1.481   0.960   8.163 -0.0871  0.1295 -0.3606
 2658SOL    HW119433   1.449   1.013   8.236 -0.7796 -0.6870 -0.0695
 2658SOL    HW219434   1.397   0.940   8.121 -0.5805  0.6065  0.4044
 2659SOL     OW19435   0.579   3.744   3.151  0.2342  0.5121 -0.2890
 2659SOL    HW119436   0.492   3.772   3.126 -0.1310  0.0177  0.4091
 2659SOL    HW219437   0.619   3.830   3.142  0.7269  0.5895  2.6912
 2660SOL     OW19438   3.725   3.025   4.495  0.6646 -0.2652 -0.1016
 2660SOL    HW119439   3.748   2.981   4.413  0.1726  2.2808 -1.6152
 2660SOL    HW219440   3.790   3.096   4.496  1.6918 -1.1999 -0.3843
 2661SOL     OW19441   0.429   4.056   8.074 -0.2405 -0.1565  0.1298
 2661SOL    HW119442   0.469   4.049   8.161  3.4136  0.8508 -1.4537
 2661SOL    HW219443   0.478   3.983   8.035  2.3238  1.0453  1.0907
 2662SOL     OW19444   1.393   3.604  13.891  0.1783  0.2778  0.0023
 2662SOL    HW119445   1.312   3.553  13.888  0.3980  0.0191 -2.0959
 2662SOL    HW219446   1.359   3.664  13.958  0.1601  0.4390 -0.1498
 2663SOL     OW19447   3.557   4.320   3.254  0.3791 -0.0382 -0.6217
 2663SOL    HW119448   3.493   4.251   3.237  0.9559 -0.8604  0.5454
 2663SOL    HW219449   3.618   4.302   3.182  2.3615  2.2339  0.4862
 2664SOL     OW19450   0.603   2.272   2.963 -0.5776  0.1414  0.5257
 2664SOL    HW119451   0.662   2.274   2.888 -0.1149  1.0164  0.9089
 2664SOL    HW219452   0.544   2.199   2.946  0.0113 -0.5055  1.2506
 2665SOL     OW19453   4.582   0.410   7.370  0.6394  0.2253 -0.0701
 2665SOL    HW119454   4.572   0.366   7.454  1.1735 -2.9366 -1.6345
 2665SOL    HW219455   4.552   0.499   7.387 -2.2836 -0.4677 -1.5892
 2666SOL     OW19456   0.855   0.201   5.785 -0.3936 -0.2431  0.2816
 2666SOL    HW119457   0.771   0.246   5.772 -0.5556 -0.6888 -0.2165
 2666SOL    HW219458   0.914   0.257   5.735 -0.7930 -0.7824 -0.7933
 2667SOL     OW19459   0.682   4.483   7.487  0.2917  0.0703 -0.5967
 2667SOL    HW119460   0.726   4.502   7.404  0.7593  0.4117 -0.2713
 2667SOL    HW219461   0.746   4.430   7.533  0.3656  0.5109 -0.1973
 2668SOL     OW19462   3.528   1.060  11.958  0.3168  0.3555 -0.3975
 2668SOL    HW119463   3.530   1.082  12.052  0.9796 -1.9143  0.1208
 2668SOL    HW219464   3.616   1.031  11.936  0.2366 -1.3813  1.5579
 2669SOL     OW19465   3.275   3.507   8.185  0.2547  0.0352 -0.0580
 2669SOL    HW119466   3.208   3.569   8.156 -1.0936 -2.2994 -1.9352
 2669SOL    HW219467   3.318   3.553   8.257 -0.9384  0.6233  0.2851
 2670SOL     OW19468   4.707   2.008   9.497  0.1090  0.1187  0.5248
 2670SOL    HW119469   4.621   2.049   9.488  1.3903  2.5403 -0.6094
 2670SOL    HW219470   4.695   1.964   9.582  0.1846 -3.1651 -1.1591
 2671SOL     OW19471   3.187   2.524   7.248  0.0383  0.0612 -0.2243
 2671SOL    HW119472   3.239   2.444   7.250 -0.2801 -0.1341  0.2348
 2671SOL    HW219473   3.125   2.505   7.318  1.4319  0.9882  1.2647
 2672SOL     OW19474   1.139   3.146  17.447  0.9631 -0.5139  0.3780
 2672SOL    HW119475   1.170   3.236  17.435  0.7968 -0.7383 -1.6389
 2672SOL    HW219476   1.175   3.140  17.536  0.5549 -1.2864  0.4953
 2673SOL     OW19477   0.543   1.027   7.348  0.0235  0.1125  0.0502
 2673SOL    HW119478   0.455   1.018   7.309 -0.3455 -0.4489  1.0202
 2673SOL    HW219479   0.596   1.043   7.270 -0.7227  0.2125 -0.4446
 2674SOL     OW19480   3.678   2.257   3.000  0.5891  0.5145 -0.1452
 2674SOL    HW119481   3.744   2.193   3.026 -0.4464 -0.3985  0.2282
 2674SOL    HW219482   3.670   2.301   3.084  1.0363 -0.5281  0.4384
 2675SOL     OW19483   4.381   1.742   5.610 -0.3076 -0.0397  0.2875
 2675SOL    HW119484   4.385   1.685   5.686  1.9294  2.3490  1.9352
 2675SOL    HW219485   4.449   1.807   5.627 -0.5015  0.1987  0.1586
 2676SOL     OW19486   2.597   3.298   1.195  0.1637 -0.7820 -0.1968
 2676SOL    HW119487   2.560   3.232   1.252 -1.8443  0.3607 -0.1845
 2676SOL    HW219488   2.651   3.343   1.261 -1.7477 -1.7708  2.0166
 2677SOL     OW19489   1.514   0.297   7.182 -0.0283 -0.2772 -0.2362
 2677SOL    HW119490   1.426   0.312   7.218  0.7188 -0.5258  1.7023
 2677SOL    HW219491   1.551   0.228   7.238 -0.2861  0.7885  1.2329
 2678SOL     OW19492   0.529   1.709  17.142 -0.0185  0.5627  0.4328
 2678SOL    HW119493   0.585   1.785  17.125  0.6845 -0.1598 -0.5665
 2678SOL    HW219494   0.580   1.656  17.203 -0.6429  1.1342  1.4446
 2679SOL     OW19495   0.439   2.596   1.488  0.2684 -0.2738 -0.6603
 2679SOL    HW119496   0.418   2.648   1.409 -1.4047  0.1797  0.0844
 2679SOL    HW219497   0.461   2.666   1.549 -0.1235 -0.1756 -0.6339
 2680SOL     OW19498   1.593   2.878   6.225  0.3217 -0.0223 -0.6291
 2680SOL    HW119499   1.675   2.927   6.212 -1.6245  3.7163  1.1906
 2680SOL    HW219500   1.542   2.922   6.292  0.3517  0.7315 -1.0992
 2681SOL     OW19501   3.996   1.597  17.119  0.2032  0.8287 -0.4961
 2681SOL    HW119502   3.911   1.637  17.138  0.2162 -0.4031  2.1278
 2681SOL    HW219503   3.967   1.506  17.109 -0.2563  0.9188  0.0003
 2682SOL     OW19504   1.277   4.646   7.964  0.5140 -0.0304 -0.2723
 2682SOL    HW119505   1.224   0.003   7.985  1.1519  0.4848 -0.5783
 2682SOL    HW219506   1.360   4.686   7.938 -0.8332  2.1642 -1.2878
 2683SOL     OW19507   1.767   2.727   5.561 -0.6573  0.5674 -0.1218
 2683SOL    HW119508   1.672   2.737   5.565 -0.5307  0.5770  3.1783
 2683SOL    HW219509   1.776   2.648   5.613  1.7723  0.2849 -0.9377
 2684SOL     OW19510   2.465   4.345   4.856  0.2833 -0.0490 -0.2910
 2684SOL    HW119511   2.538   4.396   4.891  0.7888 -1.1385  0.2353
 2684SOL    HW219512   2.453   4.402   4.780 -1.0157  0.1599  0.0671
 2685SOL     OW19513   0.872   2.044   5.922 -0.0041 -0.1574 -0.2303
 2685SOL    HW119514   0.962   2.032   5.954 -0.1952  0.2999  0.4931
 2685SOL    HW219515   0.881   1.987   5.846  2.0561  0.6673 -0.6040
 2686SOL     OW19516   3.389   2.509   5.179 -0.4476  0.5866 -0.2032
 2686SOL    HW119517   3.306   2.468   5.158 -0.9996  0.9082  1.4010
 2686SOL    HW219518   3.362   2.551   5.261  0.6532  0.6033  0.1594
 2687SOL     OW19519   4.106   2.606   1.762 -0.0150  0.3666  0.0657
 2687SOL    HW119520   4.194   2.624   1.729 -0.3835  0.3927 -0.9021
 2687SOL    HW219521   4.131   2.551   1.837  1.5299 -0.4687 -1.0528
 2688SOL     OW19522   2.266   3.415   0.844  0.6690 -0.0054  0.1253
 2688SOL    HW119523   2.219   3.490   0.881  1.0547 -0.7971  2.2152
 2688SOL    HW219524   2.302   3.380   0.925  0.9036 -0.4295 -0.1616
 2689SOL     OW19525   2.558   2.526   5.024 -0.1889 -0.4337  0.2582
 2689SOL    HW119526   2.637   2.472   5.019  0.4586  0.5414 -0.0899
 2689SOL    HW219527   2.587   2.615   5.045 -0.8592 -0.0447 -0.4643
 2690SOL     OW19528   4.247   0.967   6.305 -0.4241 -0.1463 -0.0044
 2690SOL    HW119529   4.296   1.025   6.248  0.7844  0.5357  1.7434
 2690SOL    HW219530   4.283   0.982   6.392  0.2755 -2.6561  0.1496
 2691SOL     OW19531   2.054   4.233   0.171 -0.2013  0.2293  0.1525
 2691SOL    HW119532   2.137   4.219   0.125 -0.1857 -0.4937  0.4041
 2691SOL    HW219533   2.042   4.147   0.212  0.6536 -0.4354 -0.9732
 2692SOL     OW19534   2.704   4.419   6.238 -0.4310  0.3276  0.5740
 2692SOL    HW119535   2.742   4.345   6.285  0.4175  0.9983  0.9418
 2692SOL    HW219536   2.673   4.381   6.156 -1.3309  0.0165  1.0459
 2693SOL     OW19537   3.466   3.931   0.036 -0.3813 -0.0876 -0.0357
 2693SOL    HW119538   3.528   3.858   0.035 -0.0029  0.2339  0.2812
 2693SOL    HW219539   3.386   3.899  17.681 -0.2874 -1.0253  0.4988
 2694SOL     OW19540   3.181   2.977   2.231 -0.1059 -0.6033 -0.5380
 2694SOL    HW119541   3.091   2.943   2.234  0.4186 -2.0007 -0.7296
 2694SOL    HW219542   3.237   2.899   2.238 -0.7613 -1.4137 -4.3737
 2695SOL     OW19543   2.653   3.104   1.611  0.3229 -0.8923 -0.0475
 2695SOL    HW119544   2.619   3.015   1.622 -0.6820 -0.6518 -1.0980
 2695SOL    HW219545   2.574   3.158   1.611 -0.4241 -1.9770 -0.8055
 2696SOL     OW19546   2.013   1.743   3.999 -0.0728 -0.5161  0.4773
 2696SOL    HW119547   2.056   1.823   3.969 -0.5374 -0.8216 -0.9754
 2696SOL    HW219548   2.054   1.679   3.941 -0.5326 -0.2240 -0.1712
 2697SOL     OW19549   4.661   2.396  17.131  0.1870  0.3457  0.1147
 2697SOL    HW119550   4.645   2.473  17.076 -0.7013 -0.4970 -0.8184
 2697SOL    HW219551   4.666   2.436  17.218  1.9205 -1.0067  0.6349
 2698SOL     OW19552   0.221   3.017   3.610  0.4433 -0.0158 -0.1009
 2698SOL    HW119553   0.306   3.049   3.640  1.3263 -2.5053  0.0832
 2698SOL    HW219554   0.189   3.094   3.564 -0.6342  0.2689  1.1344
 2699SOL     OW19555   2.387   2.984   3.822 -0.2088  0.1185  0.7189
 2699SOL    HW119556   2.460   2.953   3.769 -0.1057  1.0128  0.3393
 2699SOL    HW219557   2.366   2.908   3.876 -1.0087 -1.5097 -1.9278
 2700SOL     OW19558   3.859   4.598   2.489 -0.4374 -0.6740 -0.4709
 2700SOL    HW119559   3.935   4.576   2.543 -1.0994  1.8133  1.4920
 2700SOL    HW219560   3.804   4.524   2.515  0.3639 -2.5658 -4.1285
 2701SOL     OW19561   2.493   2.794   8.561 -0.5581  0.0707 -0.1954
 2701SOL    HW119562   2.452   2.833   8.483 -0.9867  2.0491  1.0215
 2701SOL    HW219563   2.508   2.875   8.609 -0.7463  0.0261 -0.0636
 2702SOL     OW19564   0.070   4.348  17.643 -0.0577 -0.6276  0.4474
 2702SOL    HW119565   0.044   4.413   0.021  0.0389 -1.7917  1.6812
 2702SOL    HW219566   0.020   4.375  17.567 -1.0257 -0.3354  1.1852
 2703SOL     OW19567   0.346   0.308   4.303 -0.0561 -0.1188 -0.4084
 2703SOL    HW119568   0.295   0.229   4.318  1.4230 -1.3026 -1.5937
 2703SOL    HW219569   0.357   0.307   4.208 -2.4707  0.4130 -0.7060
 2704SOL     OW19570   0.747   2.716   0.543 -0.5043  0.4700 -0.7812
 2704SOL    HW119571   0.713   2.626   0.537  0.2540  0.2831 -2.0660
 2704SOL    HW219572   0.728   2.731   0.636 -0.8823  0.4018 -0.8472
 2705SOL     OW19573   3.052   3.021   7.202 -0.0160 -0.2317  0.2222
 2705SOL    HW119574   2.957   3.031   7.198 -0.0976 -1.1096 -0.1922
 2705SOL    HW219575   3.082   3.088   7.262 -2.9217  0.3607  1.0382
 2706SOL     OW19576   1.497   1.004   3.955  0.1214 -0.0274  0.1093
 2706SOL    HW119577   1.580   0.984   3.910  0.9554  3.1641  0.2570
 2706SOL    HW219578   1.522   1.082   4.004 -0.9240 -0.3671  1.1673
 2707SOL     OW19579   1.043   3.535   6.827  0.1206 -0.0722 -0.2043
 2707SOL    HW119580   0.951   3.528   6.855 -0.5636 -2.9107 -3.1256
 2707SOL    HW219581   1.071   3.443   6.825 -1.4401 -0.5870  1.9967
 2708SOL     OW19582   3.114   1.358  16.406 -0.2229  0.9237  0.5692
 2708SOL    HW119583   3.093   1.445  16.439 -1.2247  1.2656 -0.9659
 2708SOL    HW219584   3.035   1.319  16.443  0.0630 -0.3885 -0.2056
 2709SOL     OW19585   2.351   0.351   6.234  0.2029  0.2321  0.6020
 2709SOL    HW119586   2.330   0.422   6.295  1.1805  2.5292 -1.7305
 2709SOL    HW219587   2.446   0.356   6.239  0.2489 -1.0558  0.7891
 2710SOL     OW19588   2.505   2.143   0.294 -0.6293 -0.0309 -0.1772
 2710SOL    HW119589   2.460   2.081   0.237  1.9307 -1.1947 -0.9761
 2710SOL    HW219590   2.551   2.194   0.227 -1.1980  3.0441  1.7790
 2711SOL     OW19591   2.911   0.171  15.094 -0.0067 -0.0726  0.4202
 2711SOL    HW119592   2.989   0.121  15.071 -1.6225 -1.4572 -1.9839
 2711SOL    HW219593   2.952   0.241  15.145  0.6466 -0.0723 -0.1097
 2712SOL     OW19594   0.482   2.006  16.992  0.0079  0.0213  0.0705
 2712SOL    HW119595   0.427   1.934  17.022  1.0795 -0.7399  0.2338
 2712SOL    HW219596   0.501   2.038  17.081  3.4851 -3.7187  0.6602
 2713SOL     OW19597   0.780   0.455   9.132 -0.5584 -0.6010  0.0822
 2713SOL    HW119598   0.840   0.382   9.115  0.1171  0.4551 -2.0991
 2713SOL    HW219599   0.756   0.476   9.042  0.8949  1.1852  0.1144
 2714SOL     OW19600   0.612   1.970   0.686  0.0897  0.2030  0.9625
 2714SOL    HW119601   0.574   2.058   0.677  0.2660 -0.0495 -2.3132
 2714SOL    HW219602   0.639   1.958   0.595 -0.8761  0.8221  0.5888
 2715SOL     OW19603   1.359   4.111   8.914 -0.2805  0.4733 -0.0802
 2715SOL    HW119604   1.377   4.203   8.931  2.0881 -0.1186  0.5348
 2715SOL    HW219605   1.430   4.079   8.970 -0.7120 -1.1140 -0.4356
 2716SOL     OW19606   1.066   0.498   8.979 -0.4325  0.2895 -0.3837
 2716SOL    HW119607   1.040   0.438   9.048 -0.6518  2.2203  1.2171
 2716SOL    HW219608   0.989   0.519   8.927 -0.8755 -0.2697  0.0510
 2717SOL     OW19609   4.692   2.485   9.047 -0.0256 -0.4367 -0.3153
 2717SOL    HW119610   4.650   2.503   8.963  0.6527  3.2511  0.1369
 2717SOL    HW219611   4.687   2.389   9.041  3.4368 -0.6905  0.8324
 2718SOL     OW19612   1.857   0.117   7.019  0.3014 -0.4735 -0.3767
 2718SOL    HW119613   1.835   0.040   7.071  0.6509 -1.0328 -1.0573
 2718SOL    HW219614   1.878   0.176   7.092  0.3110 -2.4119  1.1981
 2719SOL     OW19615   3.408   2.313  12.055 -0.1692  0.0816  0.4499
 2719SOL    HW119616   3.367   2.385  12.104  3.0378  1.1312  1.5575
 2719SOL    HW219617   3.421   2.349  11.967  0.5020  0.1691  0.5847
 2720SOL     OW19618   3.236   3.643   1.246  0.4360 -0.0843  0.4288
 2720SOL    HW119619   3.315   3.594   1.222 -0.2305  0.6009 -3.1240
 2720SOL    HW219620   3.171   3.585   1.207 -0.3524  0.4640  0.9149
 2721SOL     OW19621   3.728   4.637   7.873  0.3599  0.3625 -0.0566
 2721SOL    HW119622   3.691   4.625   7.960  1.7763 -1.2857  0.3032
 2721SOL    HW219623   3.777   4.718   7.883 -0.5585  0.7614  1.2508
 2722SOL     OW19624   0.772   0.859  10.927  0.0628  0.2029  0.0877
 2722SOL    HW119625   0.686   0.848  10.967 -0.2128 -0.5534 -0.7258
 2722SOL    HW219626   0.796   0.934  10.982 -0.8850  0.2188  0.4887
 2723SOL     OW19627   4.173   2.952  14.245 -0.1310 -0.0182 -0.6410
 2723SOL    HW119628   4.258   2.992  14.260 -0.8734  1.8811 -1.5657
 2723SOL    HW219629   4.129   3.021  14.196 -1.3992 -1.4980 -1.6094
 2724SOL     OW19630   1.852   1.250   9.846  0.3569 -0.3009 -0.3077
 2724SOL    HW119631   1.815   1.194   9.914 -2.5295  2.7493  0.6202
 2724SOL    HW219632   1.928   1.291   9.888  0.1569 -1.9958  1.7287
 2725SOL     OW19633   0.953   1.213   4.993 -0.2880  0.0830  0.1876
 2725SOL    HW119634   0.906   1.293   5.017 -1.1090 -0.4930  0.5288
 2725SOL    HW219635   0.886   1.173   4.937  0.1648  0.9230 -0.9385
 2726SOL     OW19636   3.983   4.257   8.227  0.1758 -0.4910 -0.2554
 2726SOL    HW119637   4.078   4.254   8.239  0.2349  1.4789 -0.2411
 2726SOL    HW219638   3.948   4.229   8.312  0.5139 -0.3972 -0.0831
 2727SOL     OW19639   3.366   2.646   9.259  0.0333 -0.2021 -0.5475
 2727SOL    HW119640   3.446   2.660   9.208  0.1421  0.1726 -0.2725
 2727SOL    HW219641   3.300   2.617   9.195  1.3082 -1.9104 -1.0911
 2728SOL     OW19642   3.812   4.232  11.005 -0.5405  0.2449 -0.5254
 2728SOL    HW119643   3.891   4.218  10.953  0.5527 -0.3831  1.3170
 2728SOL    HW219644   3.861   4.258  11.083  2.0637 -2.2245 -1.3277
 2729SOL     OW19645   2.826   2.441  13.747 -0.2866 -0.7682  0.3370
 2729SOL    HW119646   2.872   2.515  13.787 -1.4084  0.8924 -1.4189
 2729SOL    HW219647   2.877   2.441  13.666 -1.5046 -0.4696 -0.4339
 2730SOL     OW19648   1.325   0.101   6.916  0.4021 -0.3833  0.3709
 2730SOL    HW119649   1.294   0.130   6.830  4.6701  1.0509 -0.6764
 2730SOL    HW219650   1.357   0.186   6.945  0.7071 -1.1327  2.2315
 2731SOL     OW19651   0.735   4.513  17.329  0.0265 -0.2744 -0.3141
 2731SOL    HW119652   0.736   4.425  17.366 -1.5247  0.2280  0.9572
 2731SOL    HW219653   0.826   4.544  17.327 -0.2853  0.7776  1.2911
 2732SOL     OW19654   0.480   4.138   3.474 -0.6760  0.0902  0.0216
 2732SOL    HW119655   0.515   4.162   3.560  0.8028  1.9536 -1.1091
 2732SOL    HW219656   0.440   4.223   3.456 -1.2586 -0.4663 -1.2888
 2733SOL     OW19657   2.908   0.635   5.373  0.5720 -0.0278 -0.0710
 2733SOL    HW119658   2.881   0.581   5.298  0.1795 -1.3171  1.0049
 2733SOL    HW219659   2.884   0.579   5.447 -0.8182  0.1737 -0.3673
 2734SOL     OW19660   4.336   0.364   6.054  0.4845 -0.4934  0.0193
 2734SOL    HW119661   4.381   0.445   6.078 -1.1274  0.8260 -1.4227
 2734SOL    HW219662   4.250   0.394   6.024  1.0986 -0.0852 -1.3091
 2735SOL     OW19663   0.888   4.564   3.098 -0.3060  0.0874  0.0161
 2735SOL    HW119664   0.918   4.608   3.177 -1.7072 -0.2324  0.7186
 2735SOL    HW219665   0.836   4.496   3.141 -0.1115  0.3462  0.6550
 2736SOL     OW19666   0.142   3.491   9.378 -0.1703 -0.2453  0.5663
 2736SOL    HW119667   0.098   3.518   9.297  1.6992  1.5372  0.1538
 2736SOL    HW219668   0.118   3.398   9.378  0.7244 -0.4676  2.9714
 2737SOL     OW19669   2.284   0.607   4.338  0.2597 -0.0235  0.0203
 2737SOL    HW119670   2.266   0.625   4.431 -1.5138  1.1138 -0.5532
 2737SOL    HW219671   2.200   0.582   4.300  1.3915  1.5496 -3.5210
 2738SOL     OW19672   3.036   4.449   0.111  0.3248  0.0137  0.6816
 2738SOL    HW119673   3.059   4.424   0.021 -2.0389 -1.9938  0.6362
 2738SOL    HW219674   2.960   4.507   0.101 -0.4466 -1.0565  0.2834
 2739SOL     OW19675   2.722   1.499   5.235 -0.0193  0.1524 -0.1618
 2739SOL    HW119676   2.805   1.535   5.204  0.0494  1.1381  1.1687
 2739SOL    HW219677   2.753   1.409   5.229  0.7335  0.3199  1.2932
 2740SOL     OW19678   3.150   3.311   3.505  0.0375  0.2422  0.4453
 2740SOL    HW119679   3.125   3.303   3.597  1.2809  1.5676  0.9015
 2740SOL    HW219680   3.183   3.223   3.484  0.0294  1.4802 -4.6190
 2741SOL     OW19681   0.482   2.775   2.865  0.2701  0.6273  0.3583
 2741SOL    HW119682   0.399   2.809   2.899 -0.1295 -0.5059  0.5036
 2741SOL    HW219683   0.485   2.854   2.811 -2.9113  1.2390  1.0907
 2742SOL     OW19684   4.056   1.830   6.010  0.3970 -0.4993  0.0723
 2742SOL    HW119685   4.074   1.738   6.029  1.5239 -0.1679  0.6595
 2742SOL    HW219686   4.143   1.870   6.014 -1.1181  2.7786  0.4020
 2743SOL     OW19687   3.513   0.522  15.211 -0.1214 -0.0608  0.5004
 2743SOL    HW119688   3.423   0.552  15.216 -0.5673 -1.5582  1.3386
 2743SOL    HW219689   3.560   0.597  15.248  2.3942  0.0432 -2.8851
 2744SOL     OW19690   0.750   2.990   8.800 -0.0216 -0.5358 -0.4525
 2744SOL    HW119691   0.714   3.078   8.803  1.0758 -0.0065 -2.3946
 2744SOL    HW219692   0.837   3.005   8.836  0.6214 -1.3071 -1.6796
 2745SOL     OW19693   2.948   1.590  16.547 -0.1686  0.5290 -0.0582
 2745SOL    HW119694   2.854   1.592  16.532  0.0145  0.2155 -1.2236
 2745SOL    HW219695   2.967   1.652  16.476 -1.4543  0.5157 -0.4177
 2746SOL     OW19696   1.281   3.733   4.627  0.7400 -0.3103  0.0859
 2746SOL    HW119697   1.369   3.731   4.665  0.0270 -1.6752  1.7139
 2746SOL    HW219698   1.305   3.735   4.535  2.6331  0.7698  0.6037
 2747SOL     OW19699   1.284   4.439   8.424 -0.1389 -0.2345  0.1307
 2747SOL    HW119700   1.335   4.504   8.473 -0.3710 -0.7703  1.0777
 2747SOL    HW219701   1.353   4.393   8.377 -1.1048 -0.5959 -0.9202
 2748SOL     OW19702   4.366   4.334   6.884 -0.8777  0.2609  0.7000
 2748SOL    HW119703   4.358   4.428   6.898  0.2813  0.4783 -0.1490
 2748SOL    HW219704   4.358   4.324   6.790 -3.2845 -1.1099  1.0316
 2749SOL     OW19705   1.652   0.365   9.113  0.5493 -0.3769 -0.1262
 2749SOL    HW119706   1.642   0.375   9.018  0.7992  1.6622  0.0719
 2749SOL    HW219707   1.747   0.377   9.116  0.4203 -0.1553  2.9477
 2750SOL     OW19708   3.973   1.175  14.984 -0.1720  0.2331 -0.2393
 2750SOL    HW119709   4.025   1.095  14.975  0.7850  0.8644 -0.4090
 2750SOL    HW219710   3.974   1.197  15.077 -0.3283 -1.9763  0.2798
 2751SOL     OW19711   1.181   0.667   8.773 -0.0579 -0.2596 -0.0972
 2751SOL    HW119712   1.097   0.700   8.744  1.0405  1.1221 -1.7019
 2751SOL    HW219713   1.159   0.621   8.854  2.2488 -0.9709  0.1290
 2752SOL     OW19714   3.045   1.980  17.592 -0.1765  0.5093 -0.7596
 2752SOL    HW119715   2.972   2.026  17.549  0.6427  1.7226 -0.8507
 2752SOL    HW219716   3.008   1.991  17.680  0.4679 -2.4082 -0.1322
 2753SOL     OW19717   1.219   3.044   2.978  0.1671  0.6634 -0.0485
 2753SOL    HW119718   1.300   2.999   2.954 -0.0262  0.4932 -0.3775
 2753SOL    HW219719   1.215   3.110   2.908  0.4645 -0.2120 -0.8871
 2754SOL     OW19720   0.182   3.065   0.652  0.2734  0.2035 -0.1063
 2754SOL    HW119721   0.190   3.025   0.565 -0.0988 -0.3855  0.1315
 2754SOL    HW219722   0.212   3.153   0.629  0.5505  0.5872  1.7365
 2755SOL     OW19723   1.496   0.325   0.362  0.0699  0.0941  0.1209
 2755SOL    HW119724   1.432   0.349   0.429 -0.3060 -0.8749  0.1058
 2755SOL    HW219725   1.573   0.366   0.401 -0.5703  0.6998  0.7527
 2756SOL     OW19726   2.866   0.624   8.713  0.7432 -0.3684 -0.3258
 2756SOL    HW119727   2.880   0.547   8.769  3.0858 -1.7814 -2.8360
 2756SOL    HW219728   2.883   0.586   8.627  0.6232 -1.4059  0.1027
 2757SOL     OW19729   0.131   0.107   3.958 -0.6891  1.0558 -0.4920
 2757SOL    HW119730   0.147   0.081   3.867 -1.2761  0.8007 -0.5231
 2757SOL    HW219731   0.203   0.058   3.999 -0.4432  2.5995  0.9024
 2758SOL     OW19732   1.262   4.103   3.109 -0.2856  0.3458  0.0121
 2758SOL    HW119733   1.286   4.028   3.055  2.5303  1.4274 -0.2613
 2758SOL    HW219734   1.301   4.170   3.053 -1.4328  0.4474 -0.6721
 2759SOL     OW19735   3.477   2.983   3.918  0.6868  0.4529  0.4222
 2759SOL    HW119736   3.515   3.053   3.971 -0.6397  1.7563 -0.3027
 2759SOL    HW219737   3.450   2.927   3.990  0.1506  1.0728  0.7092
 2760SOL     OW19738   1.325   3.366   3.735  0.1659  0.6099  0.4476
 2760SOL    HW119739   1.322   3.462   3.743  0.0249  0.5128  1.4978
 2760SOL    HW219740   1.265   3.357   3.661  0.2311 -0.9161  0.5793
 2761SOL     OW19741   2.722   3.209  10.117  0.0981  0.6199  0.2525
 2761SOL    HW119742   2.671   3.134  10.147 -0.2752  0.9693  0.4885
 2761SOL    HW219743   2.728   3.254  10.201  2.8751 -0.5849  0.6829
 2762SOL     OW19744   3.473   3.954  14.826 -0.7751  0.4649 -0.0810
 2762SOL    HW119745   3.398   4.009  14.802 -0.0050  0.4904 -2.4573
 2762SOL    HW219746   3.446   3.869  14.793  0.3195  0.4768 -1.0102
 2763SOL     OW19747   2.473   3.413   7.570 -0.9828 -0.1269  0.3049
 2763SOL    HW119748   2.548   3.457   7.532  0.5572 -2.1407  0.9545
 2763SOL    HW219749   2.428   3.484   7.615  1.2730  0.4981  1.5812
 2764SOL     OW19750   2.986   2.474   8.049  0.7418 -0.5657 -0.7171
 2764SOL    HW119751   2.942   2.529   8.114 -0.1338 -2.2235  0.1017
 2764SOL    HW219752   3.051   2.537   8.018  0.8597 -0.3804 -0.1032
 2765SOL     OW19753   0.223   0.266   8.376 -0.6050  0.4553 -0.5588
 2765SOL    HW119754   0.164   0.193   8.358 -2.4736  1.0713  3.1230
 2765SOL    HW219755   0.228   0.260   8.471 -0.3239  2.5923 -0.4375
 2766SOL     OW19756   3.535   0.527  10.448  0.6188 -0.2038 -0.1054
 2766SOL    HW119757   3.564   0.437  10.440 -2.9849 -1.2989 -0.9011
 2766SOL    HW219758   3.472   0.513  10.519 -0.1792 -0.5656 -0.8896
 2767SOL     OW19759   3.964   3.024   6.351  0.2045  0.7120  0.2347
 2767SOL    HW119760   3.976   3.024   6.446  3.7621 -0.8407 -0.1952
 2767SOL    HW219761   4.040   2.968   6.333 -1.0577 -0.9228 -0.0016
 2768SOL     OW19762   0.545   2.745   1.984 -0.2737 -0.0726  0.0326
 2768SOL    HW119763   0.455   2.715   1.975 -0.1105 -0.8022  0.8221
 2768SOL    HW219764   0.577   2.719   1.897 -1.4926  1.2778 -0.8215
 2769SOL     OW19765   0.500   1.363   6.328 -0.4096 -0.9965 -0.0666
 2769SOL    HW119766   0.593   1.348   6.307 -0.0084 -1.0183  1.6891
 2769SOL    HW219767   0.469   1.415   6.254 -1.7191 -1.7636 -0.0546
 2770SOL     OW19768   1.203   2.612   5.448 -0.0844  0.8510 -0.1494
 2770SOL    HW119769   1.248   2.565   5.519  1.4660  1.2889 -0.8450
 2770SOL    HW219770   1.258   2.690   5.441  1.8683 -0.3860  1.1780
 2771SOL     OW19771   1.003   3.484   5.925 -0.5215 -0.3979 -0.7928
 2771SOL    HW119772   0.933   3.420   5.941 -0.0960 -0.2577  1.7323
 2771SOL    HW219773   1.063   3.430   5.873  1.7535  0.9765  0.3992
 2772SOL     OW19774   1.414   3.245   3.382  0.3436  0.0294 -0.6081
 2772SOL    HW119775   1.504   3.221   3.362  0.0208 -0.0512 -1.9387
 2772SOL    HW219776   1.371   3.176   3.331 -0.8484  0.4544 -0.1800
 2773SOL     OW19777   1.005   2.607   3.276  0.1080  0.6648  0.0388
 2773SOL    HW119778   1.096   2.591   3.252 -0.4112 -0.9499 -0.8900
 2773SOL    HW219779   0.966   2.616   3.189 -3.4771 -2.2924  1.3183
 2774SOL     OW19780   2.872   0.319   1.746  0.1605 -0.2358  0.2495
 2774SOL    HW119781   2.848   0.294   1.656  0.1603 -0.4662  0.3133
 2774SOL    HW219782   2.822   0.400   1.744  0.8755  0.1784 -0.8028
 2775SOL     OW19783   4.635   1.794   9.227 -0.1798 -0.3092  0.3790
 2775SOL    HW119784   4.591   1.789   9.142 -0.5323  1.4444  0.4639
 2775SOL    HW219785   4.617   1.703   9.252  3.5741 -1.0026  0.4726
 2776SOL     OW19786   1.438   2.849   5.305  0.0312  0.1043  0.2822
 2776SOL    HW119787   1.488   2.769   5.321  0.9140  0.7349  0.6636
 2776SOL    HW219788   1.430   2.840   5.210  0.4840  0.7967  0.1822
 2777SOL     OW19789   0.203   0.539   8.319  0.3789  0.0723 -0.2343
 2777SOL    HW119790   0.233   0.586   8.397  1.2969  0.7569 -1.0078
 2777SOL    HW219791   0.185   0.453   8.357 -0.3766 -0.6062 -2.1640
 2778SOL     OW19792   1.595   0.959   3.046 -0.3426 -0.1466 -0.7835
 2778SOL    HW119793   1.540   0.893   3.088  1.3185 -0.5805  0.7284
 2778SOL    HW219794   1.658   0.988   3.112  0.9605  1.7800 -2.8735
 2779SOL     OW19795   2.221   4.601   2.930  0.0136  0.1654 -0.0967
 2779SOL    HW119796   2.226   4.510   2.901 -1.1953  0.1923 -0.3961
 2779SOL    HW219797   2.276   4.606   3.008  1.5819  0.3809 -1.2307
 2780SOL     OW19798   3.336   1.595  17.279 -0.0947  0.9721 -0.0954
 2780SOL    HW119799   3.358   1.589  17.186 -1.1520  2.9103 -0.4808
 2780SOL    HW219800   3.400   1.537  17.319 -1.1303 -0.2721 -0.2360
 2781SOL     OW19801   2.133   0.815  13.775  0.2240 -0.0748  0.1072
 2781SOL    HW119802   2.155   0.735  13.823 -1.4392  0.3525  1.5898
 2781SOL    HW219803   2.079   0.773  13.708  1.5161  1.2282 -1.7458
 2782SOL     OW19804   0.152   3.272   3.495  0.4942 -0.0990  0.1856
 2782SOL    HW119805   0.063   3.286   3.463  1.3010  0.1979 -1.9370
 2782SOL    HW219806   0.197   3.350   3.462  0.1708 -0.0791 -0.2062
 2783SOL     OW19807   1.575   0.156   5.661  0.7300  0.5334 -0.2975
 2783SOL    HW119808   1.609   0.245   5.669 -0.2135  1.0099 -1.5969
 2783SOL    HW219809   1.553   0.131   5.751  0.1220  0.4523 -0.4672
 2784SOL     OW19810   2.825   4.091   4.628 -0.3687  0.0592  0.9236
 2784SOL    HW119811   2.794   4.048   4.708 -2.0957  0.5978  0.5395
 2784SOL    HW219812   2.756   4.153   4.601  1.3653  3.0065  3.1910
 2785SOL     OW19813   3.830   4.108   5.825 -0.5372 -0.8700 -0.3500
 2785SOL    HW119814   3.885   4.121   5.902  0.2506 -0.8122 -0.9070
 2785SOL    HW219815   3.781   4.189   5.834 -3.0773 -2.4724 -0.0089
 2786SOL     OW19816   2.893   2.980   5.486  0.5728 -0.4734  0.2585
 2786SOL    HW119817   2.910   2.896   5.529 -0.7621 -1.3149 -0.8275
 2786SOL    HW219818   2.973   2.977   5.435 -0.3069 -0.7072 -1.1086
 2787SOL     OW19819   1.992   4.235  16.338  0.5925  0.0136  0.0082
 2787SOL    HW119820   2.047   4.173  16.290  0.5855  1.2184 -1.5426
 2787SOL    HW219821   1.983   4.308  16.276  0.3418  0.2288  0.2994
 2788SOL     OW19822   2.987   4.276   5.157 -0.5633  0.4934  0.0677
 2788SOL    HW119823   3.038   4.338   5.104  1.6896  0.1340  1.8642
 2788SOL    HW219824   2.921   4.332   5.198 -0.6952  1.0017 -0.8383
 2789SOL     OW19825   0.096   3.257   9.624  0.0948  0.1225  0.4288
 2789SOL    HW119826   0.060   3.274   9.537  0.2251  2.8766  0.9042
 2789SOL    HW219827   0.014   3.280   9.667  0.0924 -0.5048  0.7456
 2790SOL     OW19828   0.357   1.534  17.031 -0.0529 -0.3034 -0.0553
 2790SOL    HW119829   0.418   1.593  17.076 -0.8338  0.4169  0.0640
 2790SOL    HW219830   0.395   1.537  16.943  0.2996  0.0029  0.1087
 2791SOL     OW19831   3.390   1.575   6.676 -0.2152  0.4411  0.6049
 2791SOL    HW119832   3.333   1.579   6.599  1.7062 -3.6796 -1.0294
 2791SOL    HW219833   3.459   1.513   6.653 -1.8635 -0.9143 -0.6902
 2792SOL     OW19834   1.201   3.067   0.030 -0.4170  0.1319 -0.3658
 2792SOL    HW119835   1.171   3.101   0.114 -4.0068 -1.0059 -1.1859
 2792SOL    HW219836   1.228   2.977   0.051  1.4719 -0.0793 -3.8070
 2793SOL     OW19837   1.602   1.696   3.854 -0.2913 -0.2234 -0.4573
 2793SOL    HW119838   1.634   1.683   3.943 -1.0032 -0.3118 -0.2175
 2793SOL    HW219839   1.675   1.659   3.804 -0.1242  1.5565 -1.5228
 2794SOL     OW19840   3.723   0.550   2.057  0.5254  0.5554 -0.2381
 2794SOL    HW119841   3.709   0.540   2.151  0.6884  0.0047 -0.2691
 2794SOL    HW219842   3.658   0.488   2.022  1.3658  1.0120 -2.5601
 2795SOL     OW19843   0.463   2.379   6.637  0.2968  0.1795  0.1788
 2795SOL    HW119844   0.417   2.398   6.555 -0.7060  0.7311  0.8793
 2795SOL    HW219845   0.394   2.321   6.668  0.5590 -0.4389 -0.3977
 2796SOL     OW19846   4.162   1.974  12.177  0.4665 -0.1901 -0.3228
 2796SOL    HW119847   4.137   1.881  12.172 -0.4676  0.1366 -1.7440
 2796SOL    HW219848   4.095   1.995  12.242  1.1947 -0.1262  0.4078
 2797SOL     OW19849   1.404   3.530  10.047 -0.1477  0.6219 -0.0414
 2797SOL    HW119850   1.494   3.540  10.078 -0.3698  2.0989  0.1466
 2797SOL    HW219851   1.411   3.451   9.994  1.7665  0.2418  0.7842
 2798SOL     OW19852   2.821   3.017   7.734 -0.0736  0.4243 -0.4789
 2798SOL    HW119853   2.888   3.048   7.672 -0.8058  2.2762 -0.3581
 2798SOL    HW219854   2.744   3.013   7.677 -0.6740  2.6294  0.1777
 2799SOL     OW19855   3.041   2.279   8.810 -0.4518  0.0976 -0.4222
 2799SOL    HW119856   3.007   2.271   8.899 -0.8375 -1.4963 -0.7151
 2799SOL    HW219857   3.087   2.197   8.792 -1.7503 -0.4478 -1.2591
 2800SOL     OW19858   0.319   1.982   2.332 -0.2390  0.5419  0.0779
 2800SOL    HW119859   0.376   1.925   2.279  2.2706  2.6978  0.4335
 2800SOL    HW219860   0.378   2.057   2.328  0.2704  0.2899  2.9742
 2801SOL     OW19861   1.598   0.743   1.841 -0.4395 -0.1864 -0.2357
 2801SOL    HW119862   1.543   0.797   1.784  3.0139  1.9127 -1.5773
 2801SOL    HW219863   1.688   0.766   1.820  0.2543 -2.6742 -0.0524
 2802SOL     OW19864   2.788   2.754   0.390 -0.5633 -0.1707 -0.2817
 2802SOL    HW119865   2.729   2.799   0.450 -3.0065 -2.3925 -0.9732
 2802SOL    HW219866   2.876   2.779   0.417 -1.3153  1.5230  0.5828
 2803SOL     OW19867   1.270   3.267  15.095  0.1968  0.3775  0.4423
 2803SOL    HW119868   1.364   3.270  15.112  0.2913 -0.6333  0.1037
 2803SOL    HW219869   1.240   3.233  15.178  0.9745  0.3681  0.7237
 2804SOL     OW19870   2.726   0.400   7.264 -0.1104  0.3674 -0.9585
 2804SOL    HW119871   2.731   0.495   7.269  1.0075  0.2681 -0.2584
 2804SOL    HW219872   2.813   0.376   7.297  0.2294  3.1394  0.1512
 2805SOL     OW19873   1.440   4.268   8.256  0.1536 -0.3728  0.3731
 2805SOL    HW119874   1.527   4.228   8.257  0.0793 -0.5438  0.0264
 2805SOL    HW219875   1.378   4.196   8.270 -0.9921  0.4665 -0.3987
 2806SOL     OW19876   2.705   2.971   2.483  0.7006  0.6357 -0.9434
 2806SOL    HW119877   2.699   3.057   2.443 -0.6783  0.5724 -0.8694
 2806SOL    HW219878   2.787   2.979   2.532 -0.3256 -0.3372  0.9552
 2807SOL     OW19879   0.371   4.102   5.890  0.9092 -0.9171  0.5493
 2807SOL    HW119880   0.324   4.182   5.913  1.2393 -0.4499 -0.3940
 2807SOL    HW219881   0.437   4.131   5.827  0.0543 -1.0648 -0.4080
 2808SOL     OW19882   2.361   2.991   7.681 -0.4391 -0.3051 -0.7310
 2808SOL    HW119883   2.273   2.959   7.700  0.5842 -2.4953  0.2530
 2808SOL    HW219884   2.415   2.936   7.738  1.9187  2.0693 -0.6467
 2809SOL     OW19885   4.392   1.099  13.621  0.5846  0.8008 -0.4499
 2809SOL    HW119886   4.472   1.055  13.652 -1.0790 -1.1098  1.1108
 2809SOL    HW219887   4.364   1.154  13.694  2.8814 -0.9646  1.7569
 2810SOL     OW19888   1.237   4.496   3.551 -0.0289 -0.7433 -0.2766
 2810SOL    HW119889   1.322   4.488   3.509  0.8394 -0.5220  1.4212
 2810SOL    HW219890   1.235   4.586   3.585 -0.8911 -0.5743 -0.7800
 2811SOL     OW19891   0.734   2.441   6.442 -0.0184  0.0250 -0.6926
 2811SOL    HW119892   0.791   2.368   6.468  0.1936  0.4775  0.1077
 2811SOL    HW219893   0.654   2.418   6.489  0.4022  2.2435  1.1184
 2812SOL     OW19894   2.113   2.478   2.665 -0.1950  0.6919  0.4979
 2812SOL    HW119895   2.122   2.431   2.582  1.8857  0.2549  0.9889
 2812SOL    HW219896   2.193   2.463   2.714 -0.0590  1.9681  0.6620
 2813SOL     OW19897   3.577   2.400   5.679  0.8368  0.3064  0.0204
 2813SOL    HW119898   3.602   2.308   5.672 -2.6363 -0.7151  1.2310
 2813SOL    HW219899   3.557   2.409   5.773 -0.7569  0.9678 -0.3774
 2814SOL     OW19900   1.552   1.992  16.519 -0.4706  0.1913 -0.9941
 2814SOL    HW119901   1.471   1.973  16.470 -0.3609 -1.6824 -0.4559
 2814SOL    HW219902   1.532   1.965  16.609  0.8632 -1.1924 -1.1157
 2815SOL     OW19903   4.301   3.322  15.047  0.0338  0.1853 -0.2846
 2815SOL    HW119904   4.333   3.397  15.097 -1.0435  2.2448 -2.6992
 2815SOL    HW219905   4.314   3.355  14.958 -0.6466  1.9114  0.2760
 2816SOL     OW19906   0.228   1.463  14.516  0.0871 -0.1074  0.4173
 2816SOL    HW119907   0.181   1.516  14.580 -0.8534 -0.5272  0.0808
 2816SOL    HW219908   0.302   1.519  14.495 -0.1734 -0.5267 -1.6208
 2817SOL     OW19909   2.056   4.226   2.727  0.0897  0.3716  0.2678
 2817SOL    HW119910   2.068   4.307   2.678  1.0334 -0.2944 -0.6046
 2817SOL    HW219911   2.023   4.169   2.657 -0.8473 -1.1842  1.9497
 2818SOL     OW19912   2.842   3.869  16.723  0.0795 -0.6411  0.4893
 2818SOL    HW119913   2.842   3.776  16.745  1.4922 -0.7585  0.0133
 2818SOL    HW219914   2.894   3.863  16.642 -0.8347  0.0596 -0.1475
 2819SOL     OW19915   1.535   2.143  14.916  0.3169 -0.0850 -0.2891
 2819SOL    HW119916   1.440   2.154  14.911  0.4667  1.5962  0.7075
 2819SOL    HW219917   1.560   2.188  14.997 -2.7914 -0.7765  1.0447
 2820SOL     OW19918   4.631   1.695   8.167  0.6719  0.1976  0.0329
 2820SOL    HW119919   4.557   1.737   8.213 -0.5431 -0.1714 -1.5845
 2820SOL    HW219920   4.636   1.742   8.084  0.2055  0.3287  0.0785
 2821SOL     OW19921   3.513   0.444  14.915  0.7439 -0.2120 -0.0667
 2821SOL    HW119922   3.490   0.458  15.006  2.6623  0.9790  0.2307
 2821SOL    HW219923   3.524   0.349  14.927 -3.9467 -0.8125 -0.4037
 2822SOL     OW19924   2.076   3.147   8.879 -0.0015  0.4857 -0.4427
 2822SOL    HW119925   2.086   3.181   8.968 -0.2289 -1.6409  0.3770
 2822SOL    HW219926   2.023   3.068   8.889  0.6526  0.1718  0.5707
 2823SOL     OW19927   0.802   2.691   2.354  0.6031  0.1285  1.1245
 2823SOL    HW119928   0.707   2.694   2.341  0.4488  0.2402  2.2710
 2823SOL    HW219929   0.836   2.731   2.275  1.1454  2.0037  2.3150
 2824SOL     OW19930   3.933   2.951   8.336 -0.5819 -0.1843 -0.4827
 2824SOL    HW119931   3.959   2.893   8.264 -0.1238 -1.4165  0.6848
 2824SOL    HW219932   3.947   2.892   8.410 -0.2128 -1.2052 -1.3507
 2825SOL     OW19933   2.351   1.465  10.823 -0.0484 -0.2629  0.5716
 2825SOL    HW119934   2.283   1.515  10.777 -0.7151 -2.6747 -1.0592
 2825SOL    HW219935   2.367   1.526  10.895  0.2740 -0.2201  0.4622
 2826SOL     OW19936   1.952   2.211   5.264  0.3099  0.1815 -0.0956
 2826SOL    HW119937   1.982   2.268   5.334  2.7157 -2.1352  0.7795
 2826SOL    HW219938   1.995   2.126   5.279 -0.6087 -0.0189  1.3899
 2827SOL     OW19939   2.798   1.208   9.005 -0.1469 -0.1752  0.2473
 2827SOL    HW119940   2.879   1.258   9.015 -1.2820  1.3051  1.9301
 2827SOL    HW219941   2.788   1.209   8.910 -0.6282 -1.2050  0.2809
 2828SOL     OW19942   0.212   2.535   6.182 -0.0774  0.9270 -0.1030
 2828SOL    HW119943   0.127   2.577   6.172 -1.1132 -1.4343 -1.3793
 2828SOL    HW219944   0.268   2.612   6.172  1.3313 -0.2097 -1.0405
 2829SOL     OW19945   1.364   1.945   7.778  0.0300  0.6618  0.4446
 2829SOL    HW119946   1.287   1.953   7.835  0.5112 -0.9483  1.3319
 2829SOL    HW219947   1.366   2.037   7.752 -0.0034 -0.0594 -2.0785
 2830SOL     OW19948   3.592   2.079  15.789  0.3964  0.1366  0.4083
 2830SOL    HW119949   3.577   2.174  15.795 -3.4879 -0.4260 -1.0964
 2830SOL    HW219950   3.562   2.044  15.872 -0.4890  1.2215  0.5488
 2831SOL     OW19951   1.237   1.676   4.143  0.0362  0.0298 -0.2660
 2831SOL    HW119952   1.331   1.683   4.159 -0.1778 -0.4372  1.1789
 2831SOL    HW219953   1.211   1.619   4.215  0.8961  1.8211  1.4574
 2832SOL     OW19954   3.293   3.376  13.156 -0.0453 -0.2724 -0.2056
 2832SOL    HW119955   3.349   3.345  13.227 -1.4720  0.6433  1.3249
 2832SOL    HW219956   3.335   3.460  13.139  2.4735 -1.3754  0.5357
 2833SOL     OW19957   4.455   1.337   3.063  0.3257  0.8344 -0.4155
 2833SOL    HW119958   4.543   1.336   3.025  1.4188 -2.2555  2.3043
 2833SOL    HW219959   4.392   1.332   2.990  0.7237  0.7654 -0.7542
 2834SOL     OW19960   4.000   2.590  15.080 -0.5521 -0.1197 -0.1503
 2834SOL    HW119961   4.053   2.586  15.001 -0.1037 -0.8578  0.1781
 2834SOL    HW219962   4.007   2.683  15.102 -0.4088 -0.2210  0.2356
 2835SOL     OW19963   2.993   1.399   2.851  0.2029  0.2868 -0.6279
 2835SOL    HW119964   2.962   1.434   2.935 -1.4690 -2.7942  0.0632
 2835SOL    HW219965   2.908   1.395   2.808 -0.2027  2.6483 -0.0041
 2836SOL     OW19966   0.421   4.327  12.829  0.1305  0.3497 -0.4468
 2836SOL    HW119967   0.457   4.244  12.795  1.2088  1.3169 -1.6966
 2836SOL    HW219968   0.374   4.297  12.907 -2.2094 -1.0299 -2.3835
 2837SOL     OW19969   1.792   0.367  11.057  0.2874  0.0710  0.4841
 2837SOL    HW119970   1.727   0.303  11.028  0.2010  1.3734 -2.1500
 2837SOL    HW219971   1.764   0.436  10.998 -0.1178 -0.5687 -0.0710
 2838SOL     OW19972   3.645   0.432   6.222 -0.0518  0.0246 -0.2400
 2838SOL    HW119973   3.610   0.350   6.189  1.0949 -0.2597 -0.7659
 2838SOL    HW219974   3.589   0.453   6.296 -0.7885  0.4799 -0.9271
 2839SOL     OW19975   4.185   1.238   2.120 -0.0765 -0.3334 -0.1478
 2839SOL    HW119976   4.148   1.212   2.035 -0.3408 -1.3294  0.2744
 2839SOL    HW219977   4.235   1.160   2.142  0.4340  0.0179 -0.0595
 2840SOL     OW19978   1.497   2.780  15.562 -0.0485 -0.7582 -0.2202
 2840SOL    HW119979   1.561   2.709  15.552 -0.9147 -1.6364  0.5113
 2840SOL    HW219980   1.452   2.759  15.643  0.7381 -2.1089 -0.1298
 2841SOL     OW19981   4.573   3.642   4.264  0.3857 -0.3807 -0.1278
 2841SOL    HW119982   4.647   3.682   4.219 -0.6858  0.9294 -0.7326
 2841SOL    HW219983   4.574   3.553   4.229  1.1596 -0.9944  1.4463
 2842SOL     OW19984   3.784   3.629   4.097 -0.0621 -0.4864 -0.1472
 2842SOL    HW119985   3.735   3.581   4.164 -1.2357  2.5605  1.1377
 2842SOL    HW219986   3.723   3.626   4.023  1.7601 -0.3796 -1.6404
 2843SOL     OW19987   1.054   0.628   5.857  0.0838 -0.0356  0.1243
 2843SOL    HW119988   1.020   0.709   5.894  1.9971 -0.1793  2.1596
 2843SOL    HW219989   1.149   0.642   5.865  0.1941 -0.9191  0.4175
 2844SOL     OW19990   2.546   3.473   9.876 -0.1992  0.7143  0.7928
 2844SOL    HW119991   2.626   3.425   9.853 -0.9691  0.2616 -0.8773
 2844SOL    HW219992   2.590   3.545   9.922  0.5725  0.3528  0.6333
 2845SOL     OW19993   4.609   0.240   1.705  0.2287  0.3396  0.2937
 2845SOL    HW119994   4.636   0.177   1.638  2.0849  0.6888  0.7323
 2845SOL    HW219995   4.680   0.304   1.695  1.7399 -1.4466 -0.3239
 2846SOL     OW19996   4.688   1.710  15.891 -0.8555  0.7497 -0.3888
 2846SOL    HW119997   0.046   1.763  15.897 -1.1149  1.0510  0.4042
 2846SOL    HW219998   4.703   1.656  15.969 -2.1148  0.4074 -0.3930
 2847SOL     OW19999   4.583   1.397   1.974  0.7790 -0.0197  0.2828
 2847SOL    HW120000   4.509   1.398   1.913  0.8609 -0.3101  0.1761
 2847SOL    HW220001   4.618   1.314   1.943 -2.2318 -0.9861 -0.5440
 2848SOL     OW20002   4.525   2.854   3.290 -0.1553  0.6817  0.3921
 2848SOL    HW120003   4.495   2.764   3.278 -1.0623  1.0876 -0.3178
 2848SOL    HW220004   4.544   2.869   3.383 -2.0307 -1.3677  1.1108
 2849SOL     OW20005   1.301   0.379   4.618 -0.8554  0.2160  0.2761
 2849SOL    HW120006   1.303   0.285   4.632 -0.4441  0.2553  0.4963
 2849SOL    HW220007   1.388   0.410   4.643  0.4838 -2.5479 -0.9143
 2850SOL     OW20008   0.679   3.265   3.774 -0.3635  0.1082 -0.0379
 2850SOL    HW120009   0.694   3.267   3.680  0.5148 -1.4074  0.0655
 2850SOL    HW220010   0.612   3.196   3.774  0.3701 -0.6019 -1.7667
 2851SOL     OW20011   2.918   4.675   6.486  0.6824  0.0094  0.1625
 2851SOL    HW120012   2.928   4.692   6.579 -0.7639 -1.0593  0.5230
 2851SOL    HW220013   2.993   4.616   6.478  0.7687 -0.0026  1.1037
 2852SOL     OW20014   4.304   3.722  17.073  0.0374  0.5830  0.5880
 2852SOL    HW120015   4.377   3.759  17.123  0.3312  1.8636 -0.7870
 2852SOL    HW220016   4.358   3.713  16.995  1.3746 -2.0756  1.8058
 2853SOL     OW20017   4.463   2.080   2.965  0.0131  0.0447  0.1884
 2853SOL    HW120018   4.531   2.098   3.030  0.7100 -1.4927 -0.1158
 2853SOL    HW220019   4.494   1.994   2.935  1.6086 -0.2086  2.5881
 2854SOL     OW20020   1.423   4.492   8.792 -0.2557 -0.0890 -0.0904
 2854SOL    HW120021   1.362   4.538   8.735  0.5732 -0.3222 -1.1532
 2854SOL    HW220022   1.444   4.556   8.861 -2.2195 -0.0588  0.4766
 2855SOL     OW20023   3.741   1.538   1.101 -0.2575  0.7135 -0.4140
 2855SOL    HW120024   3.821   1.565   1.056  1.2555  1.5991  2.8162
 2855SOL    HW220025   3.768   1.562   1.190  0.9332  1.0927 -0.8724
 2856SOL     OW20026   1.746   4.636   6.390 -0.7271  0.9867 -0.7448
 2856SOL    HW120027   1.683   4.567   6.369  1.0052 -0.7596 -0.2223
 2856SOL    HW220028   1.758   4.615   6.483  1.9223 -1.0091 -1.5362
 2857SOL     OW20029   2.087   1.310   8.449 -0.6083  0.6337 -0.1010
 2857SOL    HW120030   2.100   1.315   8.544 -0.1147  1.9768 -0.2408
 2857SOL    HW220031   2.016   1.245   8.447 -0.0981  0.1100 -1.4057
 2858SOL     OW20032   2.828   2.537   3.156  0.0269  0.0549 -0.5457
 2858SOL    HW120033   2.843   2.516   3.064  2.7265 -1.3833  0.2141
 2858SOL    HW220034   2.877   2.619   3.154 -1.6925  1.1475  1.4516
 2859SOL     OW20035   1.195   4.074   8.299  0.3669  0.3792 -0.0740
 2859SOL    HW120036   1.134   4.024   8.354  2.7668  0.1242  2.3404
 2859SOL    HW220037   1.270   4.014   8.301 -0.6357 -0.8820  0.2040
 2860SOL     OW20038   2.592   1.658  10.731 -0.1221  0.2487 -0.6994
 2860SOL    HW120039   2.511   1.672  10.682  0.3582  2.0179 -0.9723
 2860SOL    HW220040   2.668   1.671  10.674 -0.5270 -0.2522 -1.3549
 2861SOL     OW20041   2.381   3.186   4.286  0.0654 -0.3490  0.1086
 2861SOL    HW120042   2.407   3.106   4.332  0.1626 -0.8350 -0.8046
 2861SOL    HW220043   2.459   3.241   4.278  1.3914 -2.1958  0.5653
 2862SOL     OW20044   0.470   3.558   1.010 -0.2937  0.0852  0.3964
 2862SOL    HW120045   0.538   3.512   1.060  0.4059  0.1251 -0.5031
 2862SOL    HW220046   0.505   3.647   1.002  1.5129 -0.6975 -0.6050
 2863SOL     OW20047   1.654   4.225  10.722  0.4122 -0.1379  0.1718
 2863SOL    HW120048   1.596   4.286  10.677 -0.4810  0.4559  2.1830
 2863SOL    HW220049   1.608   4.214  10.805 -0.7900  0.6542 -0.3973
 2864SOL     OW20050   0.253   0.378   1.486 -0.2075  0.1131 -0.0994
 2864SOL    HW120051   0.336   0.332   1.468 -0.5502 -0.0472 -1.2685
 2864SOL    HW220052   0.241   0.394   1.393 -0.3195 -0.2020 -0.1404
 2865SOL     OW20053   4.639   3.280   8.917 -0.4623  0.0802 -0.0272
 2865SOL    HW120054   4.600   3.209   8.967 -0.0087 -1.3827 -1.7727
 2865SOL    HW220055   4.719   3.240   8.883  0.2743  0.0588  1.7508
 2866SOL     OW20056   0.420   4.257   0.123 -0.3983 -0.0992 -0.1553
 2866SOL    HW120057   0.405   4.257   0.028  2.0201  0.6205 -0.5272
 2866SOL    HW220058   0.328   4.270   0.149 -0.4766 -2.2308  0.6685
 2867SOL     OW20059   0.095   4.171   7.041  0.1257 -0.1622 -1.2049
 2867SOL    HW120060   0.168   4.232   7.053  1.4447 -2.1994  1.1739
 2867SOL    HW220061   0.143   4.091   7.020 -0.6774 -1.0165  0.1916
 2868SOL     OW20062   3.791   2.419   2.742  0.3105 -0.5124  0.9351
 2868SOL    HW120063   3.795   2.370   2.824 -0.9798 -2.7546 -0.3579
 2868SOL    HW220064   3.708   2.466   2.749  0.3841  0.1525 -2.6081
 2869SOL     OW20065   0.358   1.385   1.502 -0.0855  0.4896 -0.2483
 2869SOL    HW120066   0.396   1.440   1.434  0.7014  0.9536  0.5794
 2869SOL    HW220067   0.314   1.442   1.565 -1.7742  1.1130 -1.9816
 2870SOL     OW20068   1.065   4.600  15.143 -0.4196  0.0093 -0.2883
 2870SOL    HW120069   1.127   4.660  15.101 -2.7136  2.0669 -0.7654
 2870SOL    HW220070   1.126   4.529  15.157  1.5642  1.5237 -1.1933
 2871SOL     OW20071   1.250   3.108  13.035  0.2371 -0.2543  0.3978
 2871SOL    HW120072   1.339   3.127  13.064 -0.0708  0.4152  0.9092
 2871SOL    HW220073   1.266   3.050  12.961  1.8968  1.9500 -0.9891
 2872SOL     OW20074   4.145   3.649   1.996 -0.2791 -0.2618  0.2357
 2872SOL    HW120075   4.140   3.716   1.928 -1.0299 -1.3765 -0.8077
 2872SOL    HW220076   4.228   3.603   1.982  0.8821  1.7198  0.6534
 2873SOL     OW20077   2.776   4.171   4.327  0.0919 -0.5011 -0.2454
 2873SOL    HW120078   2.821   4.087   4.318 -0.2106 -0.8308  1.3078
 2873SOL    HW220079   2.840   4.222   4.376 -2.1117  1.0886  0.9808
 2874SOL     OW20080   0.945   4.519   6.165  0.1608 -0.0169 -0.0103
 2874SOL    HW120081   0.911   4.608   6.176  0.6909  0.1262  0.4585
 2874SOL    HW220082   1.033   4.534   6.199  0.2909 -0.7399 -0.0355
 2875SOL     OW20083   0.778   2.130  12.261 -0.0626  0.0923 -0.2152
 2875SOL    HW120084   0.688   2.158  12.241  0.3751 -0.3579 -2.8267
 2875SOL    HW220085   0.808   2.187  12.331  0.4264 -1.0706  0.5140
 2876SOL     OW20086   0.206   1.682   2.019 -0.0218 -0.2175 -0.0834
 2876SOL    HW120087   0.137   1.709   1.957  1.0574  0.0710 -1.1573
 2876SOL    HW220088   0.171   1.701   2.106  0.6176 -0.3475  0.1972
 2877SOL     OW20089   0.883   0.096   7.489 -0.7927 -0.0026 -0.2603
 2877SOL    HW120090   0.890   0.186   7.520  0.8209  0.1548 -1.1110
 2877SOL    HW220091   0.794   0.076   7.519 -0.7483 -0.0783 -0.1822
 2878SOL     OW20092   1.198   3.470  15.763  0.7135  0.1276  0.4504
 2878SOL    HW120093   1.293   3.457  15.774  0.6016  0.4304  1.8219
 2878SOL    HW220094   1.196   3.553  15.715  0.8675 -1.1883 -1.8286
 2879SOL     OW20095   2.607   1.805   4.343 -0.6919 -0.2435 -0.0688
 2879SOL    HW120096   2.540   1.784   4.279 -0.6542  1.0606 -0.5457
 2879SOL    HW220097   2.547   1.835   4.412  0.8346  0.0308  1.1541
 2880SOL     OW20098   0.625   3.363   9.470  0.2825 -0.0375  0.1875
 2880SOL    HW120099   0.623   3.279   9.517  0.5149  0.7225  1.5715
 2880SOL    HW220100   0.717   3.369   9.444  0.4225  1.1003  0.9271
 2881SOL     OW20101   3.285   4.148   0.643 -0.6010  0.3568 -0.1387
 2881SOL    HW120102   3.346   4.149   0.570 -0.9135 -0.0366 -0.4042
 2881SOL    HW220103   3.293   4.065   0.690 -0.8679  1.3426  1.6898
 2882SOL     OW20104   1.354   3.490   5.426 -1.0710  0.1318 -0.4018
 2882SOL    HW120105   1.447   3.475   5.406 -1.2325 -1.2069 -0.1812
 2882SOL    HW220106   1.313   3.409   5.397  0.5110 -0.1118 -1.9775
 2883SOL     OW20107   2.438   2.029   4.769 -0.7905 -0.6925 -0.6961
 2883SOL    HW120108   2.414   1.941   4.796 -0.3880 -0.4131  0.5542
 2883SOL    HW220109   2.355   2.063   4.733 -0.8677 -1.2021 -0.9946
 2884SOL     OW20110   1.812   2.350   1.977 -0.0743 -0.1410 -0.3552
 2884SOL    HW120111   1.756   2.419   1.941  1.0051  1.0187  0.1816
 2884SOL    HW220112   1.863   2.336   1.898  0.4234 -1.7441  0.2396
 2885SOL     OW20113   3.435   0.686   5.143 -0.2052 -0.6945  0.0202
 2885SOL    HW120114   3.491   0.760   5.167 -0.3758 -0.8998  1.0513
 2885SOL    HW220115   3.360   0.701   5.200  0.7097 -0.1548  1.1016
 2886SOL     OW20116   2.325   1.838  10.768  0.0751  0.4972 -0.1838
 2886SOL    HW120117   2.255   1.861  10.828  0.4810 -0.5467  0.6907
 2886SOL    HW220118   2.304   1.897  10.695  1.5701 -1.2402 -2.0470
 2887SOL     OW20119   1.808   1.924   7.867 -0.1073  0.2241 -0.3430
 2887SOL    HW120120   1.896   1.940   7.901 -1.4264  2.8780  1.7879
 2887SOL    HW220121   1.760   1.948   7.947  1.5291 -0.6562  0.9104
 2888SOL     OW20122   0.848   3.135   6.475 -0.2791  0.2801  0.2829
 2888SOL    HW120123   0.803   3.067   6.424  2.1228 -1.7085  0.8112
 2888SOL    HW220124   0.819   3.215   6.431  1.0589 -0.0934 -1.2528
 2889SOL     OW20125   2.587   2.555   2.524 -0.1459 -0.1301 -0.5038
 2889SOL    HW120126   2.549   2.469   2.505 -1.4537 -0.1391  2.1014
 2889SOL    HW220127   2.580   2.564   2.619  0.9796  0.0202 -0.4325
 2890SOL     OW20128   4.418   3.655  11.950  0.5849 -0.3978  0.1427
 2890SOL    HW120129   4.426   3.742  11.911 -2.3178  1.4211  3.5735
 2890SOL    HW220130   4.350   3.623  11.890  0.0996  0.5880  0.1595
 2891SOL     OW20131   0.407   0.883  11.006 -0.2550  0.0150 -0.1647
 2891SOL    HW120132   0.380   0.795  10.979 -0.5129  0.0583 -0.0495
 2891SOL    HW220133   0.380   0.884  11.098 -0.3313 -0.7740 -0.1785
 2892SOL     OW20134   3.959   3.201   4.527 -0.4103 -0.2618 -0.7331
 2892SOL    HW120135   3.946   3.291   4.557  0.5873  0.6038 -2.8802
 2892SOL    HW220136   4.046   3.208   4.486  0.5035 -0.2987  1.2056
 2893SOL     OW20137   0.291   2.408   4.231 -0.1394  0.7087 -0.9075
 2893SOL    HW120138   0.197   2.424   4.237  0.0824  1.8185 -0.3927
 2893SOL    HW220139   0.320   2.474   4.167  0.7627  0.8043 -0.4068
 2894SOL     OW20140   2.919   3.561   7.582  0.4746  0.0723 -0.5049
 2894SOL    HW120141   2.960   3.477   7.602 -0.6416 -0.4608 -0.4545
 2894SOL    HW220142   2.857   3.562   7.655 -0.3948 -4.7393 -1.1886
 2895SOL     OW20143   2.664   3.731  10.633  0.1669  0.5748 -0.0503
 2895SOL    HW120144   2.751   3.697  10.614  0.4827  0.4454  1.6202
 2895SOL    HW220145   2.688   3.813  10.678 -0.5698  0.5581  0.3781
 2896SOL     OW20146   2.993   1.593   4.051 -0.1128 -0.6492 -0.3962
 2896SOL    HW120147   2.991   1.682   4.016  0.3392 -0.8709 -0.9897
 2896SOL    HW220148   2.987   1.615   4.144  4.5630 -1.3937  0.0653
 2897SOL     OW20149   2.019   2.615   8.137 -0.1225  0.0464 -0.0540
 2897SOL    HW120150   2.090   2.576   8.190 -1.4434 -1.1656  0.8195
 2897SOL    HW220151   2.074   2.669   8.081 -0.1712 -0.1964 -0.3337
 2898SOL     OW20152   3.650   3.706  15.512 -0.1433 -0.4420 -0.3656
 2898SOL    HW120153   3.571   3.753  15.541 -2.0525 -3.0963 -1.2053
 2898SOL    HW220154   3.639   3.625  15.561  3.0236 -0.6963 -0.1060
 2899SOL     OW20155   2.942   3.308   2.167 -0.1797 -0.5889  0.2578
 2899SOL    HW120156   2.961   3.239   2.104  2.9245  0.4259  0.0890
 2899SOL    HW220157   2.848   3.319   2.155  0.0253 -0.2616 -0.9958
 2900SOL     OW20158   0.926   3.928   3.200 -0.7072 -0.2316  0.1040
 2900SOL    HW120159   0.958   3.856   3.145 -1.3020 -1.0662  0.8571
 2900SOL    HW220160   0.949   3.893   3.287  0.9375  0.5951  0.0095
 2901SOL     OW20161   0.980   2.197  10.034  0.5307 -0.0728  0.7857
 2901SOL    HW120162   1.055   2.140  10.018 -1.0583 -1.4821 -1.5399
 2901SOL    HW220163   0.995   2.249   9.956 -0.6843 -0.3113  0.4006
 2902SOL     OW20164   0.328   1.132   4.712 -0.1715  0.3145 -0.0339
 2902SOL    HW120165   0.378   1.114   4.633  0.5914  0.6656  0.3781
 2902SOL    HW220166   0.278   1.050   4.715 -0.6560  0.5582 -1.2847
 2903SOL     OW20167   0.457   1.574  14.441 -0.4083  0.0721 -0.5869
 2903SOL    HW120168   0.459   1.502  14.378  0.6388 -0.2822 -0.1435
 2903SOL    HW220169   0.545   1.604  14.464  0.1277 -0.5753 -1.8293
 2904SOL     OW20170   2.888   3.665   6.139 -0.2619  0.2425  0.0183
 2904SOL    HW120171   2.907   3.624   6.054  1.3880  0.7755  0.1160
 2904SOL    HW220172   2.885   3.759   6.123 -0.8108 -0.0416 -1.5186
 2905SOL     OW20173   2.777   1.171   6.938 -0.0142 -0.1154  0.4002
 2905SOL    HW120174   2.755   1.183   6.845  0.7197  1.2124  0.3994
 2905SOL    HW220175   2.735   1.087   6.957  1.1062 -0.4862  1.2149
 2906SOL     OW20176   3.040   4.234   4.090 -0.2604  0.3506  0.8490
 2906SOL    HW120177   3.078   4.159   4.045  2.0742  2.7747 -1.2364
 2906SOL    HW220178   2.945   4.223   4.081 -0.3566  0.7173  1.4505
 2907SOL     OW20179   1.322   3.081   7.053  0.7735  0.3512 -0.0399
 2907SOL    HW120180   1.263   3.139   7.101  0.8040  1.4959 -1.3640
 2907SOL    HW220181   1.276   2.999   7.068  0.6761  0.4078 -0.0258
 2908SOL     OW20182   2.618   4.130   5.058  0.1229  0.3052 -0.1534
 2908SOL    HW120183   2.622   4.094   5.147 -0.5712 -0.1353 -0.2992
 2908SOL    HW220184   2.601   4.048   5.012 -0.8099  0.2718  0.2554
 2909SOL     OW20185   2.699   4.105  11.151  0.4641  0.0579 -0.1771
 2909SOL    HW120186   2.686   4.074  11.241 -0.0144 -0.0901 -0.2975
 2909SOL    HW220187   2.770   4.165  11.174 -1.1255  1.7218  0.3251
 2910SOL     OW20188   3.401   3.131   7.991  0.1024  0.0705  0.7020
 2910SOL    HW120189   3.319   3.181   7.998 -0.2725 -0.8816  2.9639
 2910SOL    HW220190   3.427   3.122   8.082 -1.3327 -1.0845  0.9940
 2911SOL     OW20191   1.780   4.360   3.903  0.2800  0.6348 -0.5057
 2911SOL    HW120192   1.854   4.337   3.848 -1.5227 -1.1365 -2.2051
 2911SOL    HW220193   1.811   4.411   3.978  0.0061  0.2402 -0.1291
 2912SOL     OW20194   2.363   1.827   4.462 -0.1977  0.1155 -0.3261
 2912SOL    HW120195   2.353   1.816   4.556 -0.6514  1.3872 -0.2291
 2912SOL    HW220196   2.297   1.894   4.443  0.0971  0.3351 -0.5745
 2913SOL     OW20197   3.613   1.891   2.253  0.0899 -0.2542  0.2452
 2913SOL    HW120198   3.594   1.872   2.345 -1.5029  0.1902  0.0163
 2913SOL    HW220199   3.562   1.972   2.253  2.6584  1.3365  0.9023
 2914SOL     OW20200   1.182   2.608   9.558  0.3821 -0.1492 -0.4495
 2914SOL    HW120201   1.200   2.626   9.466  1.8254 -1.3334 -0.3795
 2914SOL    HW220202   1.109   2.547   9.546 -0.2546  0.6875 -0.8895
 2915SOL     OW20203   0.401   4.675   5.675 -0.6555 -0.4430 -0.1316
 2915SOL    HW120204   0.353   4.593   5.667  1.1039 -1.3828 -0.9179
 2915SOL    HW220205   0.359   4.712   5.753  2.0854  3.5896 -0.5564
 2916SOL     OW20206   1.652   3.322  10.586 -0.1113 -0.2507 -0.0509
 2916SOL    HW120207   1.589   3.309  10.515 -1.4112  1.7258  0.7534
 2916SOL    HW220208   1.681   3.231  10.586 -0.3693 -0.3329  0.2029
 2917SOL     OW20209   1.120   2.120   9.384 -0.2359 -0.0973  0.6409
 2917SOL    HW120210   1.140   2.064   9.460  4.5151  1.7294  0.7369
 2917SOL    HW220211   1.057   2.059   9.345  0.0552  0.0823 -0.0973
 2918SOL     OW20212   3.983   0.177   9.946  0.1705 -0.5747  0.3855
 2918SOL    HW120213   4.019   0.089   9.949  1.0243 -0.2569 -0.6265
 2918SOL    HW220214   4.041   0.221  10.008  0.3306 -0.1334 -0.0756
 2919SOL     OW20215   3.058   3.433   3.989 -0.0772  0.2749 -0.1619
 2919SOL    HW120216   3.012   3.390   4.061  0.0124 -0.4627 -0.5420
 2919SOL    HW220217   3.032   3.384   3.911  0.7005  0.6675 -0.6672
 2920SOL     OW20218   2.741   3.581   5.332  0.2500  0.3598 -0.0092
 2920SOL    HW120219   2.662   3.633   5.343 -0.2048 -0.1201 -1.0237
 2920SOL    HW220220   2.774   3.624   5.253 -1.2088  1.0947 -0.2214
 2921SOL     OW20221   1.930   1.041   6.331  0.0901  0.0415  0.7598
 2921SOL    HW120222   2.001   1.097   6.361  1.5171 -0.9083 -0.8414
 2921SOL    HW220223   1.889   1.012   6.413 -1.9725  0.5996 -0.0767
 2922SOL     OW20224   3.314   3.287  16.873 -0.2960  0.7148 -0.0788
 2922SOL    HW120225   3.256   3.243  16.936  0.5549 -2.2729 -1.3731
 2922SOL    HW220226   3.260   3.364  16.860 -0.5659  0.5791  0.2447
 2923SOL     OW20227   3.554   2.673  14.765 -0.1695 -0.2220 -0.3980
 2923SOL    HW120228   3.468   2.709  14.744  0.5631  2.8223  1.9485
 2923SOL    HW220229   3.527   2.583  14.786  2.0441 -1.3071 -2.1043
 2924SOL     OW20230   2.434   0.708   7.828  0.0402 -0.8373 -0.7132
 2924SOL    HW120231   2.440   0.731   7.921  0.7221 -1.1858 -0.6726
 2924SOL    HW220232   2.387   0.626   7.838 -1.4580 -0.1057 -1.7299
 2925SOL     OW20233   3.147   3.820   5.902  0.1708  0.2670 -0.2190
 2925SOL    HW120234   3.164   3.729   5.878 -0.7994 -0.1178  0.5855
 2925SOL    HW220235   3.222   3.845   5.956  1.1040 -0.2305 -1.2772
 2926SOL     OW20236   3.635   1.311   1.004  0.3814 -0.3648 -0.1026
 2926SOL    HW120237   3.676   1.236   1.048  0.3414 -0.1745  0.2639
 2926SOL    HW220238   3.688   1.375   1.051 -1.7099 -0.8422  2.9164
 2927SOL     OW20239   4.676   3.448   4.510 -0.2189  0.0641  0.6195
 2927SOL    HW120240   4.593   3.426   4.468  1.1677 -1.3305 -1.3761
 2927SOL    HW220241   4.669   3.382   4.578 -1.8309  1.5439  1.8853
 2928SOL     OW20242   4.111   1.409   0.848 -0.0939 -0.4397 -0.1766
 2928SOL    HW120243   4.042   1.344   0.861  0.0335 -0.8755 -1.6683
 2928SOL    HW220244   4.155   1.397   0.932  1.4222  1.1221 -0.7539
 2929SOL     OW20245   0.818   4.598   8.968 -0.1856 -0.6602 -0.0816
 2929SOL    HW120246   0.770   4.574   8.889 -2.7341 -1.3870  1.6768
 2929SOL    HW220247   0.873   4.521   8.982 -0.0670 -0.4699  0.5230
 2930SOL     OW20248   0.189   0.945   8.336  0.2634  0.5617 -0.1594
 2930SOL    HW120249   0.180   0.923   8.428  0.4338  1.2920  0.0291
 2930SOL    HW220250   0.150   1.032   8.323 -0.9770  0.1799  1.0784
 2931SOL     OW20251   1.281   3.156   2.701  0.0699 -0.5088 -0.3204
 2931SOL    HW120252   1.271   3.061   2.710  0.0289 -0.6026 -1.4185
 2931SOL    HW220253   1.289   3.171   2.607 -0.8378  0.3824 -0.2433
 2932SOL     OW20254   2.131   2.957   3.262  0.5621  0.3543 -0.1780
 2932SOL    HW120255   2.211   2.924   3.220  0.9046 -0.2193  0.9306
 2932SOL    HW220256   2.166   2.961   3.351 -3.3166  0.3105  1.3523
 2933SOL     OW20257   1.957   0.118   8.034  0.1748 -0.9575 -0.0580
 2933SOL    HW120258   2.011   0.197   8.033 -2.1100  0.6234  1.2604
 2933SOL    HW220259   1.970   0.078   8.121  1.9148 -1.5180 -0.5803
 2934SOL     OW20260   4.547   4.536  10.723  0.6482  0.0780 -0.2693
 2934SOL    HW120261   4.627   4.566  10.680  1.6069 -0.5340  1.0804
 2934SOL    HW220262   4.549   4.444  10.696 -0.2266 -0.0218  0.0231
 2935SOL     OW20263   1.148   0.390   4.069  0.6104  0.3598  0.1215
 2935SOL    HW120264   1.091   0.356   4.138  1.4733  1.8818  1.5946
 2935SOL    HW220265   1.092   0.376   3.993 -0.6763  1.0138  0.9373
 2936SOL     OW20266   0.176   4.149  12.755  0.1712 -0.2277 -0.0886
 2936SOL    HW120267   0.241   4.181  12.692 -1.4704  1.2688 -1.0039
 2936SOL    HW220268   0.181   4.055  12.735 -1.1311 -0.4903  0.8685
 2937SOL     OW20269   4.374   3.123   0.078 -0.1939 -0.2189 -0.0264
 2937SOL    HW120270   4.307   3.058   0.052  1.1906 -0.8475 -2.0614
 2937SOL    HW220271   4.414   3.140  17.679 -1.7484  0.3724 -0.6436
 2938SOL     OW20272   0.618   2.020   8.150  0.8920  0.4025  0.5793
 2938SOL    HW120273   0.609   2.086   8.218  0.4768  2.0941 -1.1314
 2938SOL    HW220274   0.605   2.064   8.066  2.4612 -1.8532 -0.8791
 2939SOL     OW20275   0.401   0.145  10.901  0.1359  0.2672  0.0875
 2939SOL    HW120276   0.422   0.066  10.951  0.4411 -0.3225 -0.9674
 2939SOL    HW220277   0.343   0.185  10.966 -0.1208 -1.2447  0.7754
 2940SOL     OW20278   2.507   2.845  17.256 -0.1068 -0.5702 -0.1460
 2940SOL    HW120279   2.501   2.881  17.344 -0.9760 -1.2142  0.0621
 2940SOL    HW220280   2.599   2.845  17.230 -1.0401  1.3960 -3.5011
 2941SOL     OW20281   4.499   4.446   5.970  0.4784  0.3116 -0.1576
 2941SOL    HW120282   4.532   4.521   6.019  1.7020 -0.1378 -0.2807
 2941SOL    HW220283   4.420   4.484   5.933  0.7787  0.3110 -0.8044
 2942SOL     OW20284   4.512   3.899   8.491  0.3380  0.2162 -0.7472
 2942SOL    HW120285   4.460   3.874   8.567  1.4821  0.3979  0.0856
 2942SOL    HW220286   4.447   3.960   8.454 -0.2640  0.7971  1.3003
 2943SOL     OW20287   1.773   0.750   3.951 -0.5180  0.6908  0.2619
 2943SOL    HW120288   1.863   0.749   3.917 -0.1163 -0.6687  1.4123
 2943SOL    HW220289   1.798   0.772   4.040 -0.6393  2.4175 -0.1325
 2944SOL     OW20290   4.553   1.005  15.023 -0.2596  0.0607  0.2530
 2944SOL    HW120291   4.614   1.070  14.986  0.7456  0.6380  2.9014
 2944SOL    HW220292   4.572   0.929  14.968  0.8515 -0.0552  0.7970
 2945SOL     OW20293   0.182   2.160   1.006 -0.4137  0.5900  0.0342
 2945SOL    HW120294   0.222   2.104   0.939 -0.3025 -0.5622  1.0590
 2945SOL    HW220295   0.199   2.105   1.082  2.6622  0.5567 -0.6837
 2946SOL     OW20296   1.352   3.332  12.489  0.0837 -0.1346 -0.4374
 2946SOL    HW120297   1.269   3.284  12.482 -0.2266  0.2927  0.3070
 2946SOL    HW220298   1.374   3.311  12.580 -0.1611 -0.2976 -0.4142
 2947SOL     OW20299   1.944   2.187   7.173 -0.2658  0.4468  0.1190
 2947SOL    HW120300   1.905   2.112   7.218 -0.9926  0.9468  0.3026
 2947SOL    HW220301   1.867   2.231   7.139 -0.9276 -2.4050 -2.0713
 2948SOL     OW20302   3.531   3.172  14.761  0.0710  0.1355  0.0866
 2948SOL    HW120303   3.491   3.194  14.676  1.2884 -0.0203 -0.5286
 2948SOL    HW220304   3.581   3.097  14.727  0.4095  0.5722 -0.3758
 2949SOL     OW20305   4.638   0.405   3.191  0.0967  0.5271 -0.2556
 2949SOL    HW120306   4.556   0.378   3.151  0.4273 -0.7110 -0.0898
 2949SOL    HW220307   4.603   0.433   3.275  1.3313 -3.3957  1.5657
 2950SOL     OW20308   0.049   3.477   9.119 -0.5465  0.3165  0.0430
 2950SOL    HW120309   4.689   3.430   9.098  0.7239 -1.8425 -0.0848
 2950SOL    HW220310   0.036   3.563   9.078 -0.5715 -1.0329 -2.8090
 2951SOL     OW20311   3.181   0.041   7.570 -0.0210 -0.3970 -0.0535
 2951SOL    HW120312   3.093   0.050   7.534 -0.7592  3.0740  2.5959
 2951SOL    HW220313   3.223   0.010   7.490 -1.4142 -2.7717  0.1291
 2952SOL     OW20314   2.295   3.468   2.636  0.2465  0.5014  0.1165
 2952SOL    HW120315   2.349   3.422   2.572  0.4208 -2.8554  2.6255
 2952SOL    HW220316   2.235   3.519   2.582 -0.6079 -0.1003  0.4990
 2953SOL     OW20317   1.514   1.324  13.028 -0.4473 -0.0572 -0.0427
 2953SOL    HW120318   1.584   1.354  13.087 -1.0503 -1.0049  1.1409
 2953SOL    HW220319   1.462   1.404  13.032 -2.2301 -1.3541  2.1983
 2954SOL     OW20320   3.609   1.259   5.427  0.2111  0.5827 -0.0077
 2954SOL    HW120321   3.696   1.240   5.462  0.2460 -0.6694 -0.7653
 2954SOL    HW220322   3.550   1.199   5.472  0.3087 -1.1718 -2.1885
 2955SOL     OW20323   1.896   4.019  17.311  0.1512  0.0059 -0.2939
 2955SOL    HW120324   1.976   3.979  17.276 -0.4997 -1.8272  0.3322
 2955SOL    HW220325   1.843   4.022  17.231  1.2315  1.1225 -0.9785
 2956SOL     OW20326   1.395   0.344   9.782 -0.4480  0.1022 -0.3115
 2956SOL    HW120327   1.305   0.378   9.785 -0.5436 -0.0550 -1.3765
 2956SOL    HW220328   1.402   0.314   9.692  1.7345  0.6923 -0.3274
 2957SOL     OW20329   3.199   1.874  14.701  0.1446  0.4263 -0.0042
 2957SOL    HW120330   3.187   1.959  14.659 -2.7527 -0.0516 -0.1143
 2957SOL    HW220331   3.265   1.839  14.641  0.0627 -0.4539  0.4170
 2958SOL     OW20332   0.788   4.006   6.311 -0.1688  0.0342 -0.0421
 2958SOL    HW120333   0.846   4.048   6.375 -0.5230  1.9597 -0.9671
 2958SOL    HW220334   0.701   4.044   6.322  0.0045  0.2241  0.7323
 2959SOL     OW20335   1.220   1.770   5.995  0.3531  1.0092  0.1992
 2959SOL    HW120336   1.255   1.681   5.987  2.8964  2.0032  0.3775
 2959SOL    HW220337   1.128   1.749   6.011  0.6043 -0.3403 -0.1443
 2960SOL     OW20338   3.790   4.122   4.278 -0.5172 -0.4179  0.2956
 2960SOL    HW120339   3.738   4.141   4.200  0.3288 -0.8556 -0.3828
 2960SOL    HW220340   3.877   4.134   4.239  0.4128 -0.9489  2.2384
 2961SOL     OW20341   1.634   2.998   8.905 -0.2177  0.1834  0.1052
 2961SOL    HW120342   1.666   2.929   8.847 -2.6474 -1.1461  0.3729
 2961SOL    HW220343   1.717   3.028   8.942 -0.0925 -1.9340  1.5293
 2962SOL     OW20344   0.029   4.345   8.302 -0.7941 -0.2853  0.0976
 2962SOL    HW120345   0.037   4.302   8.216 -1.4288  0.3189 -0.2616
 2962SOL    HW220346   4.672   4.304   8.339 -0.9346  0.1879  0.3133
 2963SOL     OW20347   4.301   3.561   3.448 -0.5546 -0.9665 -0.2804
 2963SOL    HW120348   4.371   3.550   3.384  0.4222  0.6370  0.5152
 2963SOL    HW220349   4.344   3.622   3.508  1.4744 -1.2110 -1.4829
 2964SOL     OW20350   3.264   0.672   2.474 -0.0535  0.2309 -0.6278
 2964SOL    HW120351   3.296   0.598   2.527  3.1795  1.3187 -1.0428
 2964SOL    HW220352   3.175   0.650   2.447 -0.3163  1.4524 -0.7347
 2965SOL     OW20353   1.909   2.867   4.521 -0.1172 -0.5924 -0.2049
 2965SOL    HW120354   1.898   2.828   4.434 -0.6929  0.8231 -0.7697
 2965SOL    HW220355   1.885   2.959   4.507  0.2948 -0.2509  1.3645
 2966SOL     OW20356   1.549   3.793   3.936 -0.5001 -0.1495 -0.1288
 2966SOL    HW120357   1.479   3.744   3.892 -0.5801  1.3629 -1.6968
 2966SOL    HW220358   1.573   3.855   3.868  1.5099  0.7158  1.4020
 2967SOL     OW20359   2.493   1.496   9.233 -0.2959  0.2354 -0.2109
 2967SOL    HW120360   2.485   1.539   9.147  2.7410 -1.5574 -1.3845
 2967SOL    HW220361   2.415   1.441   9.242 -0.1261  0.3277  1.7684
 2968SOL     OW20362   2.324   3.694  10.171  0.3290  0.5115 -0.0686
 2968SOL    HW120363   2.417   3.713  10.185  0.9936 -1.9184 -1.0850
 2968SOL    HW220364   2.308   3.611  10.216 -0.3405 -0.4112 -2.0259
 2969SOL     OW20365   4.482   0.156   5.405  0.3147  0.2651  0.1509
 2969SOL    HW120366   4.509   0.150   5.314 -1.4479  1.0029 -0.4245
 2969SOL    HW220367   4.564   0.185   5.444  1.5240 -1.4266 -1.1730
 2970SOL     OW20368   1.138   3.553   8.254  0.1003 -0.4659  0.8155
 2970SOL    HW120369   1.081   3.619   8.293  1.2202  0.7311  0.4268
 2970SOL    HW220370   1.212   3.545   8.314  0.4655  1.2215  0.5905
 2971SOL     OW20371   4.263   3.929   6.626  0.6259 -0.2343 -0.6041
 2971SOL    HW120372   4.205   3.930   6.550  0.7263 -0.4474 -0.6836
 2971SOL    HW220373   4.192   3.935   6.689  1.7091 -0.6304  0.6437
 2972SOL     OW20374   1.507   1.187   4.323 -0.1906  0.3540  0.0276
 2972SOL    HW120375   1.422   1.180   4.367 -1.6178 -0.7958 -2.8860
 2972SOL    HW220376   1.532   1.276   4.346  2.2388 -0.0470 -0.9733
 2973SOL     OW20377   2.623   1.366   3.831  0.0194 -0.6573  0.2467
 2973SOL    HW120378   2.636   1.372   3.925  1.0844 -0.2893  0.0867
 2973SOL    HW220379   2.715   1.363   3.804  0.9245 -0.2838  3.3567
 2974SOL     OW20380   0.194   3.890   3.442 -0.2994  0.2582 -0.0121
 2974SOL    HW120381   0.201   3.971   3.391  1.2252 -0.8746 -1.5504
 2974SOL    HW220382   0.103   3.873   3.418 -0.2051 -0.6652  0.3090
 2975SOL     OW20383   2.586   0.473   6.221 -0.4488 -0.3031  0.1227
 2975SOL    HW120384   2.668   0.435   6.190 -1.2878 -2.2278  0.2231
 2975SOL    HW220385   2.598   0.465   6.316  0.2095 -0.4918  0.0210
 2976SOL     OW20386   1.911   1.419   4.031 -0.1350 -0.4357  0.3760
 2976SOL    HW120387   1.905   1.473   3.952  2.1731 -0.1904  0.3748
 2976SOL    HW220388   2.003   1.394   4.032  0.2254  0.8107 -1.0529
 2977SOL     OW20389   4.331   0.775   2.562  0.8957  0.0608 -0.0263
 2977SOL    HW120390   4.363   0.717   2.492  0.6190 -0.6562  0.4396
 2977SOL    HW220391   4.376   0.739   2.638 -0.4869 -0.8259  0.3813
 2978SOL     OW20392   2.539   1.813   1.458  0.6522 -0.0076 -0.3298
 2978SOL    HW120393   2.455   1.848   1.428  0.2689 -0.0288  0.7197
 2978SOL    HW220394   2.581   1.881   1.511 -0.5694  0.5297 -0.0585
 2979SOL     OW20395   3.955   2.286  11.216  0.0608  0.1589  0.7792
 2979SOL    HW120396   4.017   2.347  11.256 -1.1090  1.3843  0.7511
 2979SOL    HW220397   3.968   2.217  11.281  1.2942 -2.0198 -1.7959
 2980SOL     OW20398   3.215   1.775   5.968  0.0422  0.0944 -0.4973
 2980SOL    HW120399   3.241   1.710   5.903  0.2394  0.4270 -0.7501
 2980SOL    HW220400   3.295   1.802   6.013  0.7161 -3.1104  0.2002
 2981SOL     OW20401   0.638   0.465  10.839 -0.5392  0.6973  0.7572
 2981SOL    HW120402   0.708   0.466  10.904  0.8833 -0.1967 -0.7632
 2981SOL    HW220403   0.573   0.522  10.880 -2.1657 -0.6105 -0.0191
 2982SOL     OW20404   1.554   1.611  16.793 -0.4894 -0.3852 -0.4993
 2982SOL    HW120405   1.568   1.617  16.888  0.3173 -1.0975 -0.5676
 2982SOL    HW220406   1.553   1.702  16.765 -0.1217 -0.0274  0.6328
 2983SOL     OW20407   1.053   1.991  13.563 -0.0110  0.4484  0.1064
 2983SOL    HW120408   1.125   1.973  13.622  1.9667  1.2530 -2.0812
 2983SOL    HW220409   0.980   1.974  13.623  0.6146 -0.1118  0.7050
 2984SOL     OW20410   1.864   1.694   9.902 -0.0529  0.3044 -0.0379
 2984SOL    HW120411   1.906   1.646   9.831 -1.1065 -0.0420 -0.4238
 2984SOL    HW220412   1.932   1.676   9.968 -0.5546  1.2877  0.7500
 2985SOL     OW20413   1.076   1.189   5.270  0.2911  0.3088 -0.0924
 2985SOL    HW120414   1.049   1.179   5.179 -1.9095  0.2489  0.5726
 2985SOL    HW220415   0.989   1.215   5.301 -0.5387 -1.6345 -0.8187
 2986SOL     OW20416   0.448   4.184   8.784  0.2924  0.3309  0.3859
 2986SOL    HW120417   0.519   4.136   8.828  0.0677 -0.5647 -0.2045
 2986SOL    HW220418   0.394   4.106   8.769  1.2560 -0.0738 -1.0358
 2987SOL     OW20419   2.630   2.412   9.263 -0.2442  0.0825  0.0390
 2987SOL    HW120420   2.584   2.470   9.324 -1.0283 -0.2641 -0.2105
 2987SOL    HW220421   2.675   2.477   9.210 -1.0722 -1.3005 -2.3585
 2988SOL     OW20422   0.895   0.252  13.348 -0.5400 -0.1296 -0.1371
 2988SOL    HW120423   0.867   0.237  13.258  0.1513  1.1845 -0.5635
 2988SOL    HW220424   0.985   0.219  13.353  0.2847  2.1164  0.0042
 2989SOL     OW20425   1.927   3.321   6.053  0.3474 -0.0133  0.1196
 2989SOL    HW120426   1.870   3.259   6.007  0.1840 -1.1097  1.8090
 2989SOL    HW220427   1.986   3.352   5.983  2.5278 -3.1313  0.5841
 2990SOL     OW20428   1.098   0.543  11.059  0.2975 -0.3969 -0.4892
 2990SOL    HW120429   1.027   0.547  10.995  0.1672 -0.3103 -0.3402
 2990SOL    HW220430   1.133   0.457  11.035  2.6480  0.5736 -0.5152
 2991SOL     OW20431   4.149   2.900   8.677 -0.2193  0.5475 -0.5861
 2991SOL    HW120432   4.089   2.842   8.631 -1.4562  0.8285  0.6929
 2991SOL    HW220433   4.216   2.926   8.614 -0.3052  1.9318 -0.0965
 2992SOL     OW20434   2.160   3.016   5.962 -0.5673 -0.2834 -0.1497
 2992SOL    HW120435   2.199   2.964   6.032  0.3012 -0.9303 -1.1175
 2992SOL    HW220436   2.078   2.967   5.954  0.4871 -1.7639 -1.7411
 2993SOL     OW20437   2.877   1.012   8.446 -0.0158  0.3442  0.1476
 2993SOL    HW120438   2.801   0.987   8.499  0.8656 -0.3936  1.0642
 2993SOL    HW220439   2.854   0.967   8.365  0.9197  1.4040 -0.6918
 2994SOL     OW20440   2.060   1.519  16.187  0.2661  0.5468 -0.1180
 2994SOL    HW120441   1.980   1.566  16.164  0.2908  0.4368 -0.4405
 2994SOL    HW220442   2.029   1.463  16.258 -0.9977  1.5912  0.1573
 2995SOL     OW20443   1.072   4.480   8.767 -0.1964 -0.1558  0.2724
 2995SOL    HW120444   1.066   4.453   8.858 -0.3566  1.2260  0.6744
 2995SOL    HW220445   1.033   4.567   8.778 -0.2630  0.2394 -2.9840
 2996SOL     OW20446   2.053   4.418   8.483 -0.0309  0.0953  0.0241
 2996SOL    HW120447   2.101   4.371   8.551  1.9857  0.2738 -1.2552
 2996SOL    HW220448   1.963   4.425   8.515  0.1615 -1.7110  0.9443
 2997SOL     OW20449   0.301   2.129   6.951 -0.0517  0.3263 -0.2435
 2997SOL    HW120450   0.397   2.132   6.952 -0.0106  0.0205 -2.8872
 2997SOL    HW220451   0.267   2.134   6.861 -2.1334 -0.4953  0.5075
 2998SOL     OW20452   1.687   0.996   3.386  0.2657  0.1845  0.1959
 2998SOL    HW120453   1.737   0.988   3.305 -2.1629 -0.9135 -1.1795
 2998SOL    HW220454   1.603   1.042   3.373  0.7469  0.8201 -0.6417
 2999SOL     OW20455   3.938   2.897  13.208  0.7433  0.3185 -0.2528
 2999SOL    HW120456   3.945   2.988  13.180  1.0966  0.1576 -0.6818
 2999SOL    HW220457   3.912   2.859  13.124  0.4536 -1.7554  0.7726
 3000SOL     OW20458   0.161   2.549   8.169  0.0515 -0.2086  0.9442
 3000SOL    HW120459   0.235   2.608   8.156 -0.0883  0.3871  2.8165
 3000SOL    HW220460   0.187   2.524   8.258  1.2163 -1.3255  0.2771
 3001SOL     OW20461   3.826   2.148  15.482  0.4382  0.2694 -0.5078
 3001SOL    HW120462   3.863   2.160  15.394 -1.6343 -0.3880 -1.4527
 3001SOL    HW220463   3.805   2.237  15.512  0.7221 -0.2884  1.3750
 3002SOL     OW20464   0.980   2.559   5.294 -0.4239 -0.2143 -0.4560
 3002SOL    HW120465   1.062   2.567   5.342 -1.3769  1.6475  0.8754
 3002SOL    HW220466   0.995   2.574   5.200  1.1272  2.2784  0.1921
 3003SOL     OW20467   3.074   1.743  16.334  0.1566  0.1243 -0.3365
 3003SOL    HW120468   3.126   1.719  16.258  1.0616 -0.0776  0.3421
 3003SOL    HW220469   3.082   1.838  16.337  2.4773 -0.0887 -0.1646
 3004SOL     OW20470   1.470   1.931   6.012  0.2257 -0.0906 -0.0428
 3004SOL    HW120471   1.408   1.942   5.940 -0.5497 -1.0055  0.4926
 3004SOL    HW220472   1.414   1.886   6.075  0.9078 -1.3247 -0.3056
 3005SOL     OW20473   3.729   2.118   7.533  1.0402  0.3471 -0.3251
 3005SOL    HW120474   3.795   2.169   7.486  0.9759  0.6246 -0.1166
 3005SOL    HW220475   3.653   2.170   7.507  0.3853 -0.5525 -0.2188
 3006SOL     OW20476   4.271   2.966   4.827 -1.1298  0.3749 -0.2074
 3006SOL    HW120477   4.226   2.898   4.776  0.3781 -0.3113 -0.6109
 3006SOL    HW220478   4.352   2.922   4.853 -0.7982  0.4146 -1.2056
 3007SOL     OW20479   0.730   3.746   2.188  0.1031  0.5556 -0.1416
 3007SOL    HW120480   0.734   3.727   2.095  1.3152 -0.2021  0.0657
 3007SOL    HW220481   0.738   3.665   2.238 -0.6910  0.1699 -0.6526
 3008SOL     OW20482   2.455   2.733   3.933  0.2776 -0.0756 -0.4653
 3008SOL    HW120483   2.457   2.644   3.968 -0.9369  0.7546  1.7401
 3008SOL    HW220484   2.527   2.778   3.978 -1.0031  0.2292  1.2649
 3009SOL     OW20485   3.664   4.318   5.810 -0.0713  0.1684  0.0469
 3009SOL    HW120486   3.694   4.396   5.856  2.3852  0.0553 -1.3697
 3009SOL    HW220487   3.633   4.358   5.728 -0.5481 -1.1095 -0.4058
 3010SOL     OW20488   3.902   4.305  11.488  0.2900 -0.5175  0.5560
 3010SOL    HW120489   3.850   4.384  11.475 -1.0077 -1.3517  0.7725
 3010SOL    HW220490   3.963   4.334  11.557  0.0717 -0.1634  0.6021
 3011SOL     OW20491   1.812   0.507   7.441  0.0784 -0.5333  0.2897
 3011SOL    HW120492   1.794   0.565   7.515 -1.8424 -0.7532  0.0011
 3011SOL    HW220493   1.770   0.427   7.471 -1.1326  0.1845  0.4988
 3012SOL     OW20494   3.715   2.505   6.620 -0.0177  0.3877  0.3741
 3012SOL    HW120495   3.631   2.541   6.591  0.2063  0.3189 -0.3547
 3012SOL    HW220496   3.732   2.560   6.697  0.9398  0.8044 -0.1302
 3013SOL     OW20497   3.972   2.550   3.491  1.5567  0.6150  0.1139
 3013SOL    HW120498   4.023   2.534   3.570 -0.7466 -2.2971  1.0131
 3013SOL    HW220499   4.037   2.529   3.423 -1.1122 -0.1750 -2.2102
 3014SOL     OW20500   2.990   3.438   0.931 -0.0598 -0.8138  0.0826
 3014SOL    HW120501   2.895   3.442   0.921 -0.0958  0.9660  1.0817
 3014SOL    HW220502   3.005   3.481   1.015 -0.3807 -0.0433 -0.2530
 3015SOL     OW20503   0.502   3.107   6.175 -0.0324 -0.3449 -0.8065
 3015SOL    HW120504   0.581   3.150   6.144  0.6458 -0.6088  0.5366
 3015SOL    HW220505   0.541   3.043   6.234 -0.3205 -0.5405 -0.8249
 3016SOL     OW20506   2.867   2.317   3.282 -0.8987  0.5474  0.0629
 3016SOL    HW120507   2.874   2.400   3.236  1.3596 -0.4980 -1.4900
 3016SOL    HW220508   2.904   2.336   3.369 -0.4047 -1.0296  0.2024
 3017SOL     OW20509   1.119   4.473   7.599 -0.4228 -0.0919  0.2549
 3017SOL    HW120510   1.159   4.405   7.653 -2.2278 -1.4987 -0.1914
 3017SOL    HW220511   1.047   4.502   7.654 -1.1108  2.5691 -2.0313
 3018SOL     OW20512   2.344   2.676   4.730 -0.4614 -0.3323  0.4655
 3018SOL    HW120513   2.410   2.607   4.726 -1.0364 -0.8602  0.0592
 3018SOL    HW220514   2.262   2.630   4.749 -0.4759 -0.5262 -0.0650
 3019SOL     OW20515   4.048   2.474   7.185  0.1898 -0.4049 -0.5401
 3019SOL    HW120516   4.049   2.462   7.279  0.1037 -1.6407 -0.6956
 3019SOL    HW220517   4.018   2.388   7.154 -0.1947  0.0233 -1.3598
 3020SOL     OW20518   1.252   1.058   0.506 -0.4479  0.4696  0.2480
 3020SOL    HW120519   1.300   0.977   0.489 -2.0864 -0.5733  0.6007
 3020SOL    HW220520   1.187   1.033   0.572 -2.5491  1.1237 -1.5681
 3021SOL     OW20521   4.580   4.670   6.099 -0.3315  0.3060 -0.0786
 3021SOL    HW120522   4.518   0.021   6.102 -0.2486  0.2907  1.9087
 3021SOL    HW220523   4.617   4.657   6.187  0.0217 -0.0458 -0.2791
 3022SOL     OW20524   0.500   4.605   7.227 -0.0625 -0.6143 -0.0631
 3022SOL    HW120525   0.459   4.566   7.304  1.6699 -1.9324  0.1889
 3022SOL    HW220526   0.426   4.658   7.196  0.7732 -1.7639 -4.0039
 3023SOL     OW20527   3.879   0.722  12.888  0.0279  0.3730 -0.3784
 3023SOL    HW120528   3.847   0.633  12.898  3.6817 -1.1271 -2.0292
 3023SOL    HW220529   3.957   0.719  12.944 -0.7521  1.5072  0.7631
 3024SOL     OW20530   1.515   0.164  10.577  0.5163  0.3974  0.0231
 3024SOL    HW120531   1.580   0.172  10.507  2.4750 -2.7586  1.4722
 3024SOL    HW220532   1.523   0.254  10.610 -2.3515  0.2612  1.0846
 3025SOL     OW20533   0.823   4.623   5.220  0.4601 -0.5225 -1.2025
 3025SOL    HW120534   0.847   4.690   5.284  0.9493 -1.9663  0.1322
 3025SOL    HW220535   0.841   4.543   5.270  0.7469 -0.1227 -0.6607
 3026SOL     OW20536   2.270   0.398   8.503  0.4349 -0.2877  0.8839
 3026SOL    HW120537   2.334   0.327   8.502  0.6973 -0.0578  1.3215
 3026SOL    HW220538   2.200   0.343   8.536  0.8551 -1.5078 -0.2583
 3027SOL     OW20539   4.240   2.560  13.302 -0.0732  0.1002 -0.3678
 3027SOL    HW120540   4.192   2.513  13.234 -1.1640 -0.7013  0.9388
 3027SOL    HW220541   4.164   2.591  13.351  0.0717  1.3214 -0.9251
 3028SOL     OW20542   2.774   4.145   3.627  0.1748  0.5466  0.1564
 3028SOL    HW120543   2.711   4.073   3.636 -1.0280  1.5496 -0.2499
 3028SOL    HW220544   2.720   4.222   3.646  1.3723  2.2448 -3.3429
 3029SOL     OW20545   4.399   3.117   3.234 -0.2546  0.0472 -0.0749
 3029SOL    HW120546   4.310   3.105   3.266 -0.6040  0.3440 -0.9240
 3029SOL    HW220547   4.435   3.029   3.241  2.6949  1.2974  0.4298
 3030SOL     OW20548   1.200   3.735   5.255 -0.4161  0.1260  0.3121
 3030SOL    HW120549   1.273   3.715   5.313  1.1969 -0.1145 -1.8170
 3030SOL    HW220550   1.211   3.826   5.229  2.2461 -1.0497 -2.6230
 3031SOL     OW20551   4.382   1.986   8.546  0.0214 -0.5368  0.2596
 3031SOL    HW120552   4.300   2.006   8.592 -0.5208 -2.5642  0.1547
 3031SOL    HW220553   4.431   1.977   8.628  3.9198  0.0865 -1.9983
 3032SOL     OW20554   0.953   3.212  15.140 -0.1417  0.6964 -0.4711
 3032SOL    HW120555   0.860   3.199  15.159 -0.2703  0.6221 -1.1342
 3032SOL    HW220556   0.994   3.173  15.217 -1.6895 -1.0070 -0.4868
 3033SOL     OW20557   4.647   4.191  12.888 -0.3567 -0.0616  0.2658
 3033SOL    HW120558   4.719   4.142  12.851 -1.8495 -1.3560 -0.9272
 3033SOL    HW220559   4.606   4.109  12.917 -0.2544 -0.8206 -1.7189
 3034SOL     OW20560   1.172   3.630   7.861  0.1363  0.3215  0.0005
 3034SOL    HW120561   1.115   3.644   7.785 -1.3486 -0.2638  0.9984
 3034SOL    HW220562   1.155   3.540   7.889  0.1071  0.6394  0.9796
 3035SOL     OW20563   2.514   4.154   2.869  0.4853  0.3923  0.2674
 3035SOL    HW120564   2.432   4.187   2.832  0.4769 -0.4574 -0.4730
 3035SOL    HW220565   2.568   4.226   2.902  0.5336 -0.2944  1.6659
 3036SOL     OW20566   3.032   2.155   5.570  0.2206  0.6086  0.5009
 3036SOL    HW120567   2.966   2.139   5.637  1.8520 -2.4699  1.3558
 3036SOL    HW220568   2.993   2.105   5.498  0.5693  0.6523  0.2811
 3037SOL     OW20569   4.560   1.752   3.960  0.4036 -0.8077 -0.3340
 3037SOL    HW120570   4.517   1.716   3.883  0.2152 -1.5543  0.1230
 3037SOL    HW220571   4.499   1.819   3.989  0.7638 -2.0530  3.2509
 3038SOL     OW20572   2.615   2.726   9.658  0.4035 -0.2289  0.0595
 3038SOL    HW120573   2.604   2.663   9.728 -0.4141  0.8197  0.8724
 3038SOL    HW220574   2.598   2.680   9.576  1.2006  0.7700 -0.6729
 3039SOL     OW20575   0.991   4.030  14.087 -0.2389 -0.0220  0.2963
 3039SOL    HW120576   1.055   4.073  14.030 -0.2334  0.2512  0.5057
 3039SOL    HW220577   0.941   3.972  14.030  1.3161  0.7139 -1.8363
 3040SOL     OW20578   4.118   3.144  17.014  0.1100 -0.2378  0.2103
 3040SOL    HW120579   4.061   3.068  17.025  1.4083 -0.9536  2.0592
 3040SOL    HW220580   4.094   3.205  17.084 -1.2704 -0.1437 -0.3476
 3041SOL     OW20581   0.845   1.246  14.817  0.0288  0.2734  0.6620
 3041SOL    HW120582   0.751   1.261  14.813 -0.1535 -0.3734  2.4271
 3041SOL    HW220583   0.874   1.337  14.811 -1.3026  0.8073  2.2856
 3042SOL     OW20584   2.716   1.562   1.109 -0.0527 -0.7318 -0.0854
 3042SOL    HW120585   2.765   1.627   1.060  0.0860 -0.6290  0.1872
 3042SOL    HW220586   2.762   1.480   1.091 -0.9846 -1.8751  2.6807
 3043SOL     OW20587   3.571   0.127  14.218  0.7832  0.0884  0.2390
 3043SOL    HW120588   3.575   0.223  14.212  0.9439  0.1637  1.7111
 3043SOL    HW220589   3.635   0.105  14.150  0.9944 -0.9198  0.7627
 3044SOL     OW20590   2.188   3.758  15.193 -0.2553  0.2607 -0.5213
 3044SOL    HW120591   2.274   3.747  15.152 -0.2315 -0.5310 -0.2577
 3044SOL    HW220592   2.200   3.803  15.277  1.3168  0.4479 -0.8320
 3045SOL     OW20593   0.681   4.694   4.795  0.4771  0.3017  0.2818
 3045SOL    HW120594   0.640   0.054   4.765 -1.5666 -0.2280  1.5585
 3045SOL    HW220595   0.766   4.688   4.751  0.3381 -0.2140  0.0776
 3046SOL     OW20596   3.591   3.453   8.494  0.2186 -0.5376  0.1079
 3046SOL    HW120597   3.629   3.412   8.571  1.3655 -1.1861 -0.7978
 3046SOL    HW220598   3.644   3.419   8.421  0.9912  0.7955  0.0427
 3047SOL     OW20599   4.297   4.523   1.376 -0.7468  0.3170  0.4219
 3047SOL    HW120600   4.248   4.512   1.457  1.2756  0.4220  1.6687
 3047SOL    HW220601   4.243   4.477   1.312  0.8005 -0.6701 -0.1694
 3048SOL     OW20602   3.626   0.158  10.963 -0.3477 -0.1192 -0.2867
 3048SOL    HW120603   3.635   0.083  10.905  2.1036 -0.5071  0.5812
 3048SOL    HW220604   3.581   0.224  10.909 -0.7282  0.6562  0.9906
 3049SOL     OW20605   3.839   2.987  17.161  0.2023 -0.3685 -0.3364
 3049SOL    HW120606   3.842   3.042  17.082  0.0011 -1.9664 -1.4522
 3049SOL    HW220607   3.762   3.020  17.207  0.7717 -0.6961  0.8503
 3050SOL     OW20608   3.028   0.087   3.383 -0.5739  0.0955  0.1189
 3050SOL    HW120609   3.118   0.111   3.364 -1.3073  2.3986 -0.4661
 3050SOL    HW220610   2.984   0.167   3.356 -0.7874  0.6108  2.0174
 3051SOL     OW20611   4.110   2.312   4.726 -0.2054  0.4748  0.0867
 3051SOL    HW120612   4.186   2.346   4.773  0.8243 -1.5163 -0.1431
 3051SOL    HW220613   4.041   2.337   4.787 -0.5075  0.2106 -0.1443
 3052SOL     OW20614   0.286   4.434   5.675 -0.2065  0.1937 -0.2708
 3052SOL    HW120615   0.207   4.399   5.635 -0.6660 -0.5654  1.2969
 3052SOL    HW220616   0.349   4.383   5.623  1.6921  0.8893  1.3114
 3053SOL     OW20617   2.134   3.712   5.661 -0.1050  0.5209  0.3023
 3053SOL    HW120618   2.178   3.781   5.612  0.2770 -0.0257 -0.1188
 3053SOL    HW220619   2.178   3.710   5.746  0.5482  1.5152 -0.0201
 3054SOL     OW20620   1.180   1.845  12.536 -1.2384  0.1906 -0.2411
 3054SOL    HW120621   1.254   1.905  12.521 -0.8791 -0.7378 -2.1612
 3054SOL    HW220622   1.223   1.772  12.492  1.4910  2.0138 -0.6203
 3055SOL     OW20623   4.433   3.185  12.259 -0.4522 -0.2180 -0.1637
 3055SOL    HW120624   4.431   3.195  12.354 -3.1458 -0.6023 -0.1879
 3055SOL    HW220625   4.526   3.172  12.242 -0.5899 -1.7919  0.3140
 3056SOL     OW20626   0.006   2.922   0.812 -0.4190 -1.2824  0.0468
 3056SOL    HW120627   0.077   2.972   0.772  1.0551 -1.8161  1.9791
 3056SOL    HW220628   4.673   2.992   0.849  1.4212 -0.1711  0.6439
 3057SOL     OW20629   0.630   1.165   8.783 -0.9247 -0.1633  0.2541
 3057SOL    HW120630   0.677   1.246   8.760  2.0282 -2.3783 -1.5055
 3057SOL    HW220631   0.713   1.127   8.814 -0.3016  0.4168 -0.6791
 3058SOL     OW20632   1.011   0.267   8.348 -0.2869 -0.4605  0.0242
 3058SOL    HW120633   1.043   0.324   8.278 -2.1467 -0.1177 -0.5528
 3058SOL    HW220634   0.923   0.252   8.312 -0.0462 -0.4739 -0.5618
 3059SOL     OW20635   1.535   0.332   1.966  0.0216  0.3871  0.0315
 3059SOL    HW120636   1.568   0.243   1.954  0.3503  0.5914 -0.6416
 3059SOL    HW220637   1.599   0.366   1.903  0.1774  0.1479  0.0581
 3060SOL     OW20638   2.398   3.533   4.997 -0.3893  0.3344  0.1874
 3060SOL    HW120639   2.476   3.513   4.946  0.5453  1.5421  1.1476
 3060SOL    HW220640   2.344   3.454   4.996  0.8076 -0.4635 -1.2414
 3061SOL     OW20641   4.276   1.818  10.456  0.2560 -0.2251  0.1294
 3061SOL    HW120642   4.359   1.845  10.417 -0.6229  0.6306 -1.1604
 3061SOL    HW220643   4.271   1.873  10.534 -1.5250 -0.6178  0.2877
 3062SOL     OW20644   3.442   1.849   7.020 -0.2421 -0.3752  0.2138
 3062SOL    HW120645   3.510   1.785   7.041  1.9591  1.9316  0.0842
 3062SOL    HW220646   3.370   1.789   7.001 -0.1220 -0.9034  1.4295
 3063SOL     OW20647   1.890   4.010  10.168 -0.2992  0.5733  0.1609
 3063SOL    HW120648   1.796   3.993  10.170 -0.1627  0.0133  1.7297
 3063SOL    HW220649   1.933   3.936  10.125 -1.3518 -1.3210  2.3839
 3064SOL     OW20650   1.671   0.117   2.281  0.5793  0.4700  0.0954
 3064SOL    HW120651   1.635   0.077   2.360  1.9729  0.2456  0.6151
 3064SOL    HW220652   1.594   0.163   2.248  1.1243  0.5986 -1.0079
 3065SOL     OW20653   1.112   2.637  14.102  0.3916  0.7420  0.0473
 3065SOL    HW120654   1.097   2.617  14.194 -1.2401 -0.5192 -0.4890
 3065SOL    HW220655   1.111   2.732  14.092 -2.2577  0.5748 -1.3066
 3066SOL     OW20656   1.637   2.342   4.672  0.3433  0.0113 -0.5987
 3066SOL    HW120657   1.577   2.328   4.744  1.2132 -1.7897 -0.2183
 3066SOL    HW220658   1.578   2.387   4.612 -1.5846  0.9931  2.0434
 3067SOL     OW20659   0.452   1.507  16.769 -0.1579 -0.4580  0.2274
 3067SOL    HW120660   0.547   1.494  16.766 -0.1768 -0.3515 -1.0625
 3067SOL    HW220661   0.424   1.452  16.695 -2.0395  0.5177  0.2229
 3068SOL     OW20662   2.633   3.251   4.758  0.0746  0.3567  0.0537
 3068SOL    HW120663   2.650   3.277   4.849 -0.1535  1.9100 -0.3530
 3068SOL    HW220664   2.713   3.281   4.714  1.1078 -0.2628  1.5003
 3069SOL     OW20665   4.090   2.742  17.572 -0.5259  0.4937  0.1793
 3069SOL    HW120666   4.019   2.687  17.604 -0.5066 -0.8434 -2.1391
 3069SOL    HW220667   4.041   2.788  17.504 -3.0633  1.2616  2.4976
 3070SOL     OW20668   4.170   4.185   4.816 -0.6046 -0.0757  0.0005
 3070SOL    HW120669   4.105   4.192   4.746 -1.7882 -1.6724  0.9506
 3070SOL    HW220670   4.235   4.244   4.777 -1.0654 -0.5216 -1.4341
 3071SOL     OW20671   2.168   1.551   6.582  0.4277  0.0874  0.3544
 3071SOL    HW120672   2.117   1.590   6.510 -0.2110 -1.1999  0.1041
 3071SOL    HW220673   2.138   1.613   6.648 -0.1887  0.0282  0.1308
 3072SOL     OW20674   2.301   1.754   4.707 -0.3049 -0.3598  0.6757
 3072SOL    HW120675   2.336   1.666   4.695  0.3150  0.2564 -1.8951
 3072SOL    HW220676   2.211   1.743   4.678 -1.1428  2.1209  2.2607
 3073SOL     OW20677   4.305   3.491   7.760 -0.0162  0.5344  0.1709
 3073SOL    HW120678   4.379   3.450   7.713 -0.7019  0.1593 -0.5872
 3073SOL    HW220679   4.315   3.456   7.848 -2.0566 -0.0406  0.1633
 3074SOL     OW20680   3.501   4.647   1.895  0.0561 -0.2670  0.1905
 3074SOL    HW120681   3.440   4.573   1.895 -2.1104  1.5365  0.5139
 3074SOL    HW220682   3.506   4.676   1.804 -0.3005  0.2919  0.3549
 3075SOL     OW20683   3.496   1.249  14.316 -0.4584  0.0591 -0.4637
 3075SOL    HW120684   3.578   1.295  14.298 -0.2435 -0.1120  0.1022
 3075SOL    HW220685   3.494   1.196  14.236  2.2495 -1.6222  0.6199
 3076SOL     OW20686   1.028   4.609  14.181  0.4461  0.1392  0.2327
 3076SOL    HW120687   0.941   4.650  14.184 -0.2283 -1.3471  0.6281
 3076SOL    HW220688   1.071   4.695  14.174  0.1772  0.1402 -1.3671
 3077SOL     OW20689   0.978   4.179   3.184 -0.1442  0.0411  0.1825
 3077SOL    HW120690   1.051   4.182   3.122 -1.5794 -0.2965 -1.5081
 3077SOL    HW220691   0.983   4.086   3.203  1.5623  0.2449  0.7747
 3078SOL     OW20692   2.667   1.669   5.550  0.3682 -0.1826 -0.9460
 3078SOL    HW120693   2.673   1.575   5.534  2.4960 -0.2694  0.3599
 3078SOL    HW220694   2.575   1.693   5.544  0.0536 -1.1117  0.0153
 3079SOL     OW20695   4.695   3.274   1.453  0.3109 -0.1125 -0.7386
 3079SOL    HW120696   4.642   3.294   1.376 -1.2076  1.8613  0.8263
 3079SOL    HW220697   4.717   3.356   1.496 -1.2899 -0.9110  1.6106
 3080SOL     OW20698   2.709   2.316  15.850 -0.1979 -0.0939  0.0309
 3080SOL    HW120699   2.704   2.345  15.942  1.5997  0.5255 -0.0593
 3080SOL    HW220700   2.738   2.226  15.839 -0.3212  0.0009 -1.0931
 3081SOL     OW20701   0.304   2.308   9.384 -0.3262 -0.0620 -0.6755
 3081SOL    HW120702   0.329   2.296   9.292 -0.5256 -0.1427 -0.7187
 3081SOL    HW220703   0.227   2.358   9.358 -2.0744 -1.0864  2.4792
 3082SOL     OW20704   0.908   0.622  10.886 -0.1434 -0.5179  0.0147
 3082SOL    HW120705   0.982   0.631  10.826  0.2602  0.0873  0.5945
 3082SOL    HW220706   0.856   0.702  10.873  1.7525  0.4855 -1.3484
 3083SOL     OW20707   2.505   0.000  15.025 -0.6109 -0.0417  0.6244
 3083SOL    HW120708   2.416   0.010  14.991 -0.2162  1.5124  0.0612
 3083SOL    HW220709   2.493   0.026  15.116 -1.7180  1.3084  0.0855
 3084SOL     OW20710   3.801   0.363  12.721 -0.0518 -0.0556  0.3364
 3084SOL    HW120711   3.861   0.396  12.654  2.2437 -1.2359  1.8241
 3084SOL    HW220712   3.768   0.438  12.770 -0.4025  0.7403 -1.1494
 3085SOL     OW20713   0.648   4.591  10.733  0.0354  0.4095  0.0656
 3085SOL    HW120714   0.599   4.550  10.661 -1.4810  1.6908  0.3482
 3085SOL    HW220715   0.662   4.676  10.692  0.2444 -0.1843 -1.1022
 3086SOL     OW20716   1.916   1.870   2.180 -0.6037  0.3738 -0.2421
 3086SOL    HW120717   1.945   1.780   2.165  1.8413  1.1624 -0.1326
 3086SOL    HW220718   1.920   1.898   2.089 -2.7825 -0.1772 -0.5167
 3087SOL     OW20719   2.187   4.248   7.274 -0.7574  0.1847 -0.4515
 3087SOL    HW120720   2.110   4.277   7.225 -0.9404  1.3395  0.5091
 3087SOL    HW220721   2.245   4.235   7.199  1.3596  0.5841  1.1121
 3088SOL     OW20722   2.760   1.478  14.066 -0.8785 -0.0508 -0.4984
 3088SOL    HW120723   2.683   1.459  14.120 -0.6762 -0.3896 -0.3347
 3088SOL    HW220724   2.824   1.426  14.114 -1.4787 -0.0066  0.3605
 3089SOL     OW20725   4.026   2.447   6.815 -0.2451  0.4642 -0.0482
 3089SOL    HW120726   4.074   2.404   6.885 -0.6644 -1.6995 -1.0788
 3089SOL    HW220727   3.959   2.383   6.792  0.7450 -0.7127  0.3772
 3090SOL     OW20728   2.758   2.716   6.040 -0.1073  0.1475  0.1287
 3090SOL    HW120729   2.786   2.675   5.958 -1.3242 -0.9140  0.2422
 3090SOL    HW220730   2.667   2.687   6.043 -0.1031  0.1995  0.8549
 3091SOL     OW20731   1.311   3.948   4.864  0.2762 -0.0154  0.3775
 3091SOL    HW120732   1.310   4.012   4.792  2.5601  0.6028  0.8871
 3091SOL    HW220733   1.268   3.873   4.823  2.4317 -0.4610 -1.0927
 3092SOL     OW20734   2.146   0.701   7.053 -0.3865  0.2646 -0.0823
 3092SOL    HW120735   2.188   0.652   7.124  0.7872 -0.0719 -1.0095
 3092SOL    HW220736   2.161   0.634   6.986  1.3630 -1.9772  2.5397
 3093SOL     OW20737   1.872   3.809   7.644 -0.4122 -0.1093  0.2500
 3093SOL    HW120738   1.782   3.790   7.617  0.6941 -4.1934 -0.6854
 3093SOL    HW220739   1.924   3.737   7.607  0.9228 -0.5476  2.9597
 3094SOL     OW20740   3.256   3.526   1.995  0.1209  0.8160 -0.6084
 3094SOL    HW120741   3.310   3.541   1.917 -1.8658  0.3339 -2.1124
 3094SOL    HW220742   3.312   3.568   2.060 -0.6402  0.6461  0.1574
 3095SOL     OW20743   4.305   0.652   4.905  1.0456 -0.0974  0.2743
 3095SOL    HW120744   4.251   0.729   4.884  1.9088  0.4551  0.0755
 3095SOL    HW220745   4.393   0.685   4.886  0.6290 -0.1366 -1.7805
 3096SOL     OW20746   4.510   1.629   8.512 -0.2383  0.0258 -0.5949
 3096SOL    HW120747   4.498   1.535   8.515 -0.4556  0.0811  0.2565
 3096SOL    HW220748   4.606   1.635   8.513 -0.2956  0.9675 -0.4866
 3097SOL     OW20749   2.857   2.277   7.723 -0.2494  0.5210  0.9684
 3097SOL    HW120750   2.796   2.274   7.649 -0.1014 -0.8013  0.9138
 3097SOL    HW220751   2.794   2.284   7.794  0.5329 -0.3862  1.7499
 3098SOL     OW20752   3.057   0.333   6.665  0.0937  0.6052  0.2897
 3098SOL    HW120753   3.066   0.248   6.708 -1.5716  0.1859 -0.1733
 3098SOL    HW220754   2.962   0.344   6.669 -0.1629 -1.5643  0.1117
 3099SOL     OW20755   2.841   1.521   7.368  0.1788  0.0549  0.2270
 3099SOL    HW120756   2.918   1.578   7.361 -0.1534  0.3238 -1.1745
 3099SOL    HW220757   2.895   1.444   7.385  0.3035 -0.1383 -1.0832
 3100SOL     OW20758   1.500   0.816   9.090 -0.5624  0.4083  0.2578
 3100SOL    HW120759   1.486   0.750   9.158 -0.0794  1.0299  0.9679
 3100SOL    HW220760   1.545   0.885   9.139  0.1047 -0.1436  0.4152
 3101SOL     OW20761   1.355   2.489   5.636  0.0778  0.8728  0.4029
 3101SOL    HW120762   1.325   2.540   5.712 -0.4018  2.4353 -0.8354
 3101SOL    HW220763   1.417   2.433   5.683 -0.3400  0.6482  0.6908
 3102SOL     OW20764   3.248   4.346   5.772 -0.4643  0.1140  0.0749
 3102SOL    HW120765   3.289   4.262   5.796 -1.3344 -0.0925  0.8498
 3102SOL    HW220766   3.186   4.360   5.844  0.0239 -2.7668  1.0593
 3103SOL     OW20767   4.059   0.262   2.472 -0.1975 -0.3031 -0.4400
 3103SOL    HW120768   4.082   0.210   2.549  1.3139 -0.3393 -0.9334
 3103SOL    HW220769   3.997   0.204   2.429 -0.7737 -0.0260  0.0043
 3104SOL     OW20770   1.057   3.719   3.074  0.0778 -0.5199 -0.0949
 3104SOL    HW120771   1.070   3.626   3.089  0.1682 -0.5065 -0.0901
 3104SOL    HW220772   1.142   3.740   3.034 -0.8691  4.1492  0.3724
 3105SOL     OW20773   3.076   0.852   8.768  0.9912  0.4283  0.2050
 3105SOL    HW120774   3.129   0.806   8.833 -0.0201  0.7109  1.2261
 3105SOL    HW220775   3.013   0.782   8.751  1.2242  0.2777 -0.0397
 3106SOL     OW20776   1.574   1.433   3.686 -0.5033  0.8387  0.2299
 3106SOL    HW120777   1.535   1.347   3.704 -0.2500  0.4386 -1.0851
 3106SOL    HW220778   1.504   1.494   3.708 -0.3932  0.8900  0.4339
 3107SOL     OW20779   4.698   3.233  17.168 -0.2476 -0.5347 -0.4347
 3107SOL    HW120780   4.718   3.304  17.106  0.4564 -1.4901 -1.3121
 3107SOL    HW220781   0.054   3.238  17.224  0.1293 -2.7255 -0.7848
 3108SOL     OW20782   1.525   4.596   6.687 -0.1019 -0.2948 -0.3002
 3108SOL    HW120783   1.533   4.687   6.716 -1.3538  0.8222 -3.4352
 3108SOL    HW220784   1.620   4.582   6.682  0.0599  0.8672 -0.4459
 3109SOL     OW20785   1.095   2.050   7.824 -0.2058  0.2469  0.0862
 3109SOL    HW120786   1.036   2.000   7.767  1.0779 -0.9169 -0.2178
 3109SOL    HW220787   1.040   2.121   7.856  1.3603  1.0608  0.9887
 3110SOL     OW20788   4.164   1.807   7.000 -0.0519  0.4819 -0.2925
 3110SOL    HW120789   4.176   1.894   7.038 -1.0671  0.2305  0.6338
 3110SOL    HW220790   4.117   1.846   6.926 -0.3573  0.8472  0.0888
 3111SOL     OW20791   2.295   2.222   3.868  0.0494 -0.1157  0.7659
 3111SOL    HW120792   2.346   2.205   3.789 -0.1318 -0.3200  0.6918
 3111SOL    HW220793   2.269   2.313   3.848  1.7820  0.1566 -0.2698
 3112SOL     OW20794   4.404   3.116   1.940  0.0282 -0.3263 -0.0766
 3112SOL    HW120795   4.415   3.132   2.034 -0.2641  0.0113 -0.1013
 3112SOL    HW220796   4.346   3.189   1.919  3.6146  2.4743 -0.1588
 3113SOL     OW20797   2.577   2.797   4.643 -0.0185 -0.1809 -0.7798
 3113SOL    HW120798   2.494   2.774   4.684  0.7046 -0.4519  0.5585
 3113SOL    HW220799   2.539   2.852   4.575 -1.2057 -0.1022 -0.0492
 3114SOL     OW20800   3.468   3.098   7.720 -0.1532 -0.4503  0.3900
 3114SOL    HW120801   3.451   3.133   7.807 -0.2107 -2.7302  1.3029
 3114SOL    HW220802   3.439   3.007   7.732 -1.8315  0.1580  0.9363
 3115SOL     OW20803   1.475   3.904  11.670 -0.0675 -0.1132 -0.3123
 3115SOL    HW120804   1.454   3.971  11.605 -0.4996 -0.7264 -0.8088
 3115SOL    HW220805   1.539   3.854  11.620  1.6816  0.9170  0.8749
 3116SOL     OW20806   0.904   2.259   3.468 -0.3121  0.3290  0.3441
 3116SOL    HW120807   0.929   2.170   3.492  1.1910  0.3642 -1.0971
 3116SOL    HW220808   0.810   2.245   3.453 -0.0606 -0.4734 -0.4852
 3117SOL     OW20809   1.581   1.356  12.685  0.3845  0.0143 -0.2540
 3117SOL    HW120810   1.673   1.344  12.659 -0.3756 -1.1678 -2.4261
 3117SOL    HW220811   1.585   1.365  12.780 -2.0310  1.7731 -0.3078
 3118SOL     OW20812   3.085   0.599   7.550  0.1800 -0.1506 -0.1913
 3118SOL    HW120813   3.112   0.508   7.562 -1.8324 -0.5051  1.6684
 3118SOL    HW220814   3.055   0.588   7.460  0.6777 -0.9465 -0.2495
 3119SOL     OW20815   3.389   3.921   6.968  0.0540 -0.5152 -0.0369
 3119SOL    HW120816   3.389   3.858   6.896 -0.8666  1.3953 -1.6951
 3119SOL    HW220817   3.445   3.876   7.032 -1.3187 -2.2336 -0.0227
 3120SOL     OW20818   0.863   2.119   2.875  0.3141  0.1635 -0.2272
 3120SOL    HW120819   0.924   2.096   2.945  0.2867 -1.5099 -0.7461
 3120SOL    HW220820   0.893   2.204   2.843 -0.1674 -0.5772 -2.6027
 3121SOL     OW20821   0.574   4.518   5.828 -0.2816  0.1511  0.3887
 3121SOL    HW120822   0.581   4.587   5.894 -3.4318 -0.4259  1.2854
 3121SOL    HW220823   0.514   4.563   5.768 -0.5457  0.5440  0.9414
 3122SOL     OW20824   4.620   1.756  16.472  0.8336  0.0607 -0.2135
 3122SOL    HW120825   4.687   1.785  16.411 -0.2222  0.2585 -1.2670
 3122SOL    HW220826   4.657   1.669  16.489  1.9911  0.7156  0.6370
 3123SOL     OW20827   2.694   2.384  12.001 -0.2444 -0.1428  0.0850
 3123SOL    HW120828   2.726   2.368  12.090 -1.7514  1.3611  0.8834
 3123SOL    HW220829   2.620   2.440  12.022  0.1832 -0.3450  2.1078
 3124SOL     OW20830   4.237   3.303   1.901 -0.0587 -0.1442 -0.0189
 3124SOL    HW120831   4.269   3.393   1.899  1.4270 -0.6287  2.6300
 3124SOL    HW220832   4.150   3.316   1.939  1.1280 -0.3209  2.7474
 3125SOL     OW20833   0.310   3.715  13.428 -0.3145 -0.4295 -0.2976
 3125SOL    HW120834   0.370   3.690  13.498 -2.5663 -2.6080  0.8399
 3125SOL    HW220835   0.348   3.796  13.394 -1.8758  0.3491 -0.1919
 3126SOL     OW20836   2.731   2.294   5.973 -0.5561 -0.2868 -0.0870
 3126SOL    HW120837   2.728   2.364   6.039  1.9083 -1.2582  1.0449
 3126SOL    HW220838   2.824   2.298   5.948 -0.8906  0.7672 -1.1702
 3127SOL     OW20839   3.297   2.828   8.956 -0.1922  0.1932  0.2997
 3127SOL    HW120840   3.356   2.752   8.959 -1.7548 -1.0233  0.2837
 3127SOL    HW220841   3.302   2.863   9.045  0.1457 -1.5225  0.9669
 3128SOL     OW20842   4.639   3.119   6.599  0.0899  0.4820  0.2213
 3128SOL    HW120843   4.667   3.209   6.580 -0.5881 -0.0405 -3.2722
 3128SOL    HW220844   0.001   3.086   6.634  0.1026  0.1378 -0.1413
 3129SOL     OW20845   1.152   3.825   6.407  0.2218  0.2717  0.4868
 3129SOL    HW120846   1.149   3.737   6.443  0.0463  0.0401 -0.0984
 3129SOL    HW220847   1.209   3.873   6.467  0.1005  0.8330  0.1540
 3130SOL     OW20848   2.531   0.784   1.735 -0.6901 -0.0536 -0.2359
 3130SOL    HW120849   2.514   0.870   1.698  0.8081  0.5617  0.4870
 3130SOL    HW220850   2.519   0.805   1.827 -1.2481 -0.9023 -0.1115
 3131SOL     OW20851   3.207   4.665   3.091  0.0507  0.0116 -0.0761
 3131SOL    HW120852   3.210   4.571   3.072  1.0558 -0.2333  1.2943
 3131SOL    HW220853   3.154   4.704   3.021 -0.2875  0.4389  0.4230
 3132SOL     OW20854   1.963   3.241   8.139  0.4395 -0.1563 -0.3832
 3132SOL    HW120855   1.868   3.239   8.156  0.2074  1.7469 -1.4327
 3132SOL    HW220856   1.973   3.192   8.058  0.3924  0.6357 -0.8754
 3133SOL     OW20857   3.337   3.941  15.427 -0.0671 -0.0981  0.3457
 3133SOL    HW120858   3.248   3.973  15.439  0.6086  2.2343 -0.7639
 3133SOL    HW220859   3.355   4.011  15.365  0.3882 -1.4409 -1.0440
 3134SOL     OW20860   3.510   0.761   9.481 -0.1231 -0.5603 -0.2194
 3134SOL    HW120861   3.455   0.688   9.510 -0.7587 -1.1459 -2.8330
 3134SOL    HW220862   3.498   0.804   9.565 -1.1497  0.4289 -0.8704
 3135SOL     OW20863   2.468   3.327   2.453 -0.3969  0.6737  0.4353
 3135SOL    HW120864   2.562   3.311   2.459 -0.5004  0.6573  2.0076
 3135SOL    HW220865   2.447   3.277   2.375 -1.2118 -1.6858  2.1727
 3136SOL     OW20866   4.345   0.155  13.514 -0.3986  0.5912  0.2503
 3136SOL    HW120867   4.354   0.198  13.600  0.1564  0.1643  0.4069
 3136SOL    HW220868   4.430   0.173  13.473 -1.6364  2.4447 -1.5208
 3137SOL     OW20869   2.424   0.210   4.914 -0.3864 -0.4173  0.4205
 3137SOL    HW120870   2.340   0.180   4.950 -1.6123  2.8878  0.2743
 3137SOL    HW220871   2.460   0.130   4.875 -0.1993  0.1859 -0.6244
 3138SOL     OW20872   4.239   4.483  12.257  0.0545  0.0013  0.1463
 3138SOL    HW120873   4.223   4.481  12.351 -0.7064 -0.7257 -0.0021
 3138SOL    HW220874   4.152   4.484  12.217 -0.9084 -0.4762  2.2707
 3139SOL     OW20875   1.286   3.822   3.444 -0.4921  0.1321 -0.4149
 3139SOL    HW120876   1.244   3.743   3.411  1.2824 -0.6178 -0.8681
 3139SOL    HW220877   1.219   3.889   3.457  0.3328  1.0991 -1.1348
 3140SOL     OW20878   0.110   3.770  13.770 -0.1458 -0.1984 -0.2817
 3140SOL    HW120879   0.147   3.856  13.790 -0.7271  0.1185 -0.5525
 3140SOL    HW220880   0.160   3.721  13.836  0.8333 -0.5901 -1.3291
 3141SOL     OW20881   4.539   3.586   2.171 -0.2870 -0.4941  0.2874
 3141SOL    HW120882   4.632   3.565   2.175  0.0522  0.8876 -0.0893
 3141SOL    HW220883   4.505   3.513   2.221 -0.5922 -0.7493 -0.2969
 3142SOL     OW20884   2.238   1.844   6.317 -0.5741 -0.1303  0.0865
 3142SOL    HW120885   2.302   1.865   6.385  1.6442  0.8419 -2.3100
 3142SOL    HW220886   2.286   1.878   6.242 -1.1702  2.8656  1.0414
 3143SOL     OW20887   3.766   3.660   2.147  0.3078  0.5341  0.2343
 3143SOL    HW120888   3.831   3.722   2.182 -0.6203  1.6457 -0.0139
 3143SOL    HW220889   3.716   3.637   2.225 -1.0953 -1.9097 -1.4190
 3144SOL     OW20890   3.943   4.281  16.910  0.2988  0.1566 -0.0541
 3144SOL    HW120891   3.908   4.256  16.996  0.4488 -0.5079 -0.1866
 3144SOL    HW220892   3.867   4.291  16.853  0.0124 -1.6293  0.0007
 3145SOL     OW20893   1.774   0.182  13.173  0.1406  0.6615 -0.1170
 3145SOL    HW120894   1.799   0.242  13.102 -1.1556  2.3125  0.7993
 3145SOL    HW220895   1.800   0.241  13.244 -2.1317  1.3044  0.2011
 3146SOL     OW20896   0.452   3.439   5.395 -0.2107 -0.2951 -0.3712
 3146SOL    HW120897   0.411   3.509   5.446 -2.9468 -1.0029 -1.6557
 3146SOL    HW220898   0.504   3.489   5.331  0.7648 -3.1483 -1.7849
 3147SOL     OW20899   2.638   2.941  15.209 -0.1121  0.7722 -0.1809
 3147SOL    HW120900   2.619   3.014  15.150 -0.8955 -0.2992 -1.2378
 3147SOL    HW220901   2.553   2.929  15.251 -0.3980 -0.1095 -1.0301
 3148SOL     OW20902   3.435   3.249  13.352 -0.1891 -0.0372 -0.2168
 3148SOL    HW120903   3.440   3.302  13.432 -1.0931 -0.5278  0.1672
 3148SOL    HW220904   3.508   3.189  13.364  1.5970  1.9928 -0.8298
 3149SOL     OW20905   4.533   2.453   8.797 -0.2334 -0.2529 -0.1610
 3149SOL    HW120906   4.451   2.412   8.769 -0.9983  2.2591 -1.5524
 3149SOL    HW220907   4.533   2.518   8.727  2.3076 -0.5416 -0.4201
 3150SOL     OW20908   0.056   1.168   6.805  0.0946  0.7650  0.2500
 3150SOL    HW120909   0.103   1.094   6.844  2.8565  2.7552  0.6907
 3150SOL    HW220910   0.085   1.242   6.858  1.5584  1.2999 -1.2918
 3151SOL     OW20911   1.796   4.628   7.178 -0.1509 -0.0262  0.2242
 3151SOL    HW120912   1.703   4.641   7.197 -0.3764  3.1881 -2.9437
 3151SOL    HW220913   1.819   4.629   7.271 -2.3002  0.8488  0.7354
 3152SOL     OW20914   3.946   3.062   7.734 -0.5622  0.5508 -0.4168
 3152SOL    HW120915   4.002   3.115   7.678  2.2376 -1.1183  0.8119
 3152SOL    HW220916   3.879   3.122   7.768 -0.2088  0.9875 -0.4916
 3153SOL     OW20917   3.182   3.307   6.351 -0.2697  0.0381 -0.6067
 3153SOL    HW120918   3.163   3.392   6.312  0.7282  0.5058 -0.0827
 3153SOL    HW220919   3.275   3.287   6.339  0.0715  0.3939  1.4372
 3154SOL     OW20920   0.313   1.845   3.316  0.5903  0.6967  0.0855
 3154SOL    HW120921   0.389   1.799   3.352  0.4568 -1.5394 -2.4881
 3154SOL    HW220922   0.321   1.833   3.222  0.2152 -0.2186  0.1632
 3155SOL     OW20923   1.525   0.093   5.934  0.5490 -0.1759 -0.1113
 3155SOL    HW120924   1.514   0.149   6.011 -0.5522 -1.2502  0.5096
 3155SOL    HW220925   1.439   0.052   5.936  0.6186 -0.1397  2.8433
 3156SOL     OW20926   2.473   1.704   2.608  0.3047  0.6983  0.1412
 3156SOL    HW120927   2.505   1.724   2.520  1.6046  0.0319  0.4740
 3156SOL    HW220928   2.446   1.613   2.599  0.5940  0.6156  0.1289
 3157SOL     OW20929   1.356   2.096   3.155  0.6167 -0.6717 -0.2177
 3157SOL    HW120930   1.406   2.024   3.115 -1.4360 -2.6358  0.7025
 3157SOL    HW220931   1.320   2.048   3.230  2.0409 -0.5705  0.5203
 3158SOL     OW20932   1.593   0.741   3.362  0.4111 -0.5532  0.5406
 3158SOL    HW120933   1.678   0.752   3.404  0.7208 -0.9571  0.0003
 3158SOL    HW220934   1.538   0.776   3.433 -0.3650  0.2997 -0.4907
 3159SOL     OW20935   2.587   4.499   3.593 -0.0679 -0.2502 -0.2523
 3159SOL    HW120936   2.562   4.588   3.619 -2.9922 -0.6367 -1.7473
 3159SOL    HW220937   2.675   4.514   3.557  0.0344 -0.8793 -0.2587
 3160SOL     OW20938   1.428   3.093  11.264  0.4228 -0.3415  0.2672
 3160SOL    HW120939   1.516   3.100  11.301  0.1486 -0.4652  0.9395
 3160SOL    HW220940   1.378   3.118  11.341  0.0809  2.4130 -0.8557
 3161SOL     OW20941   2.157   0.532   8.325 -0.2852 -0.0993  0.6444
 3161SOL    HW120942   2.199   0.493   8.402  1.8183  0.2810 -0.2986
 3161SOL    HW220943   2.185   0.622   8.340  1.4602 -0.2575 -1.6041
 3162SOL     OW20944   3.853   0.771   6.913  0.4636 -0.3198  0.0140
 3162SOL    HW120945   3.896   0.802   6.833  0.2198 -0.8125 -0.3107
 3162SOL    HW220946   3.783   0.837   6.915  0.4119 -0.3344 -1.1975
 3163SOL     OW20947   0.230   4.185  17.496 -0.6175  0.0554  0.2508
 3163SOL    HW120948   0.309   4.239  17.488 -0.5310 -0.2141 -0.6794
 3163SOL    HW220949   0.179   4.250  17.544 -0.9971  0.2810 -0.4639
 3164SOL     OW20950   3.552   2.377   6.188  0.4676 -0.1979 -0.1344
 3164SOL    HW120951   3.523   2.325   6.263  1.1449 -2.1040 -1.1970
 3164SOL    HW220952   3.588   2.453   6.234  2.8235 -0.3234 -1.7878
 3165SOL     OW20953   0.696   2.083   6.254  0.2850  0.4991  0.1316
 3165SOL    HW120954   0.670   1.994   6.231  0.0663 -0.1206  2.7916
 3165SOL    HW220955   0.649   2.141   6.193  2.8302  1.9454 -0.4811
 3166SOL     OW20956   0.381   1.784   4.835 -0.1677  0.0905  0.4824
 3166SOL    HW120957   0.420   1.793   4.748 -2.3312 -2.1625 -0.7549
 3166SOL    HW220958   0.446   1.815   4.898 -0.9461 -0.8038  1.7349
 3167SOL     OW20959   3.824   3.924  12.834  0.4447  0.3814 -0.1065
 3167SOL    HW120960   3.736   3.960  12.829 -0.4697 -1.4392  2.7589
 3167SOL    HW220961   3.881   3.980  12.782 -2.0607  2.2623 -0.8304
 3168SOL     OW20962   1.876   3.871   5.507  1.0790  0.5646  0.8454
 3168SOL    HW120963   1.956   3.857   5.456  0.3611  3.9910 -1.2210
 3168SOL    HW220964   1.850   3.960   5.483  0.9788  0.4069  0.3724
 3169SOL     OW20965   2.768   1.134   5.011 -0.0648  0.1504  0.0335
 3169SOL    HW120966   2.699   1.199   5.000 -1.9246 -1.9653 -0.8572
 3169SOL    HW220967   2.724   1.067   5.064  0.3795  2.8988  3.8765
 3170SOL     OW20968   3.210   1.679   8.491  0.1137  0.4404 -0.5598
 3170SOL    HW120969   3.125   1.705   8.527 -0.4361 -1.3230 -0.5734
 3170SOL    HW220970   3.173   1.629   8.418  1.8317  0.3344 -1.3520
 3171SOL     OW20971   1.599   2.966  15.125 -0.3752 -0.0346 -0.0705
 3171SOL    HW120972   1.574   3.057  15.143  2.4094  1.2159 -2.4265
 3171SOL    HW220973   1.690   2.955  15.152 -0.6397  1.2519  1.3559
 3172SOL     OW20974   0.051   0.403   9.793  0.4859 -0.1918  0.7279
 3172SOL    HW120975   0.036   0.354   9.712 -0.0736 -0.3606  0.9315
 3172SOL    HW220976   4.699   0.374   9.848  0.1853 -0.2103  0.3200
 3173SOL     OW20977   3.323   2.849   5.230 -0.2035  0.6377 -0.1880
 3173SOL    HW120978   3.262   2.868   5.302 -0.3687  3.1549 -0.9987
 3173SOL    HW220979   3.407   2.881   5.263 -0.2338 -0.2053  0.7193
 3174SOL     OW20980   4.554   3.169   6.020  0.2142  0.1930 -0.1484
 3174SOL    HW120981   4.548   3.260   5.990  0.5568  0.0921 -0.5117
 3174SOL    HW220982   4.547   3.122   5.937 -2.7451 -0.6709  0.5692
 3175SOL     OW20983   3.513   4.208  11.607 -0.2897 -0.0487  0.2209
 3175SOL    HW120984   3.504   4.283  11.548 -0.0245  0.4387  0.8052
 3175SOL    HW220985   3.608   4.207  11.617 -0.0794 -0.9647 -1.8373
 3176SOL     OW20986   1.883   3.874  10.597  0.3301 -0.1758 -0.3509
 3176SOL    HW120987   1.794   3.908  10.596 -0.0786 -1.2792 -1.1221
 3176SOL    HW220988   1.935   3.939  10.643 -1.3897 -0.9447  2.6397
 3177SOL     OW20989   4.697   2.365   6.857 -0.7204  0.6444 -0.0949
 3177SOL    HW120990   4.628   2.431   6.851 -0.1069  1.4409  1.6159
 3177SOL    HW220991   0.021   2.379   6.940 -0.1821 -4.1965  0.4262
 3178SOL     OW20992   1.078   1.240   8.035 -0.1082 -0.3941  0.1533
 3178SOL    HW120993   1.011   1.306   8.051 -1.1537 -1.0376 -1.5797
 3178SOL    HW220994   1.100   1.258   7.943  0.7802  2.1581  0.8662
 3179SOL     OW20995   4.677   2.245  17.416 -0.1701  0.2094  0.0443
 3179SOL    HW120996   0.020   2.185  17.379 -0.2229  0.2029 -0.0368
 3179SOL    HW220997   4.714   2.330  17.392  0.6307 -0.4510 -1.0756
 3180SOL     OW20998   1.742   2.431   3.830  0.1436  0.0649 -0.0182
 3180SOL    HW120999   1.806   2.435   3.759  1.1877 -0.1873  0.9076
 3180SOL    HW221000   1.687   2.363   3.793 -0.9374  1.9504 -1.9093
 3181SOL     OW21001   0.119   0.884   0.380  0.3554  0.1246  0.5866
 3181SOL    HW121002   0.049   0.897   0.443  0.7149  0.4147  0.9244
 3181SOL    HW221003   0.121   0.975   0.350 -0.0537 -1.0347 -3.0285
 3182SOL     OW21004   0.948   4.556   5.000 -0.1001 -0.0358 -0.5318
 3182SOL    HW121005   0.872   4.506   4.970  1.0093 -0.8615 -1.9299
 3182SOL    HW221006   0.898   4.588   5.075  0.2475 -1.2470  0.2246
 3183SOL     OW21007   1.479   3.957   5.088 -0.2530 -0.0481 -0.7697
 3183SOL    HW121008   1.430   3.959   5.005 -2.1223 -0.2870  0.3307
 3183SOL    HW221009   1.406   3.954   5.150  1.1937  2.8726  1.0611
 3184SOL     OW21010   3.063   4.615  17.206 -0.4791  0.2610  0.0627
 3184SOL    HW121011   3.000   4.661  17.150 -0.4567 -1.9408 -1.7558
 3184SOL    HW221012   3.097   4.695  17.246  1.5641 -0.1073 -0.9586
 3185SOL     OW21013   2.618   2.212   5.730 -0.6128 -0.1756 -0.0098
 3185SOL    HW121014   2.663   2.218   5.814 -0.2674  1.8387 -0.3528
 3185SOL    HW221015   2.595   2.303   5.713  0.4914  0.3100  1.1310
 3186SOL     OW21016   1.409   2.430   3.935 -0.0089  0.3631 -0.0513
 3186SOL    HW121017   1.374   2.392   3.854 -1.2734 -0.2608  0.8081
 3186SOL    HW221018   1.364   2.514   3.946  2.6230  1.7400  0.3875
 3187SOL     OW21019   2.065   4.110  16.738  0.4002  0.0993 -0.2621
 3187SOL    HW121020   2.054   4.039  16.674 -2.7663  0.7815 -0.4739
 3187SOL    HW221021   2.126   4.165  16.689 -0.5676  1.0571 -0.3972
 3188SOL     OW21022   4.245   2.706   3.055 -0.0046 -0.3642 -0.0902
 3188SOL    HW121023   4.226   2.770   2.987  0.2329 -0.3379 -0.1329
 3188SOL    HW221024   4.182   2.721   3.125 -2.0000  1.0581 -2.1745
 3189SOL     OW21025   2.724   4.423  17.539  0.3578  0.2850  0.5634
 3189SOL    HW121026   2.806   4.467  17.516  0.6808 -0.1755  0.8325
 3189SOL    HW221027   2.669   4.450  17.466  1.0024  0.6243  0.2037
 3190SOL     OW21028   4.441   3.815  17.481  0.7053  0.3390  0.3764
 3190SOL    HW121029   4.475   3.729  17.505  2.2392  0.9728  0.4198
 3190SOL    HW221030   4.358   3.802  17.527  0.2603  0.1333 -0.4894
 3191SOL     OW21031   1.105   3.502   1.510  0.2784 -0.8548 -0.3428
 3191SOL    HW121032   1.131   3.470   1.596  0.7351 -1.7719 -0.8154
 3191SOL    HW221033   1.187   3.544   1.486 -0.1260  0.0250 -0.1985
 3192SOL     OW21034   1.587   3.389   6.490  0.0040  0.4051 -0.2845
 3192SOL    HW121035   1.552   3.300   6.497 -0.5893  0.7792  1.4092
 3192SOL    HW221036   1.662   3.382   6.431 -0.3894  0.5686 -0.8027
 3193SOL     OW21037   4.423   2.319   4.628 -0.4209 -0.3107  0.1234
 3193SOL    HW121038   4.489   2.383   4.653 -0.3192  0.4386 -2.0412
 3193SOL    HW221039   4.408   2.271   4.710  0.9189 -1.7405 -0.4823
 3194SOL     OW21040   1.855   1.949   3.589  0.4196  0.3543  0.3390
 3194SOL    HW121041   1.803   2.008   3.535  0.3881  0.3432  0.3572
 3194SOL    HW221042   1.828   1.868   3.547  1.2931 -0.4854  1.3921
 3195SOL     OW21043   3.476   1.016   6.015  0.0529  0.2875 -0.7046
 3195SOL    HW121044   3.523   0.972   6.087 -1.4156  1.2974  0.8651
 3195SOL    HW221045   3.427   0.938   5.990 -2.3163  1.4593  0.2836
 3196SOL     OW21046   0.855   0.546   8.792  0.5140  0.2600 -0.3966
 3196SOL    HW121047   0.868   0.520   8.700  1.9431  1.1215 -0.4444
 3196SOL    HW221048   0.770   0.506   8.809  0.2275  1.0585  0.0752
 3197SOL     OW21049   3.105   2.905   7.943  0.1714 -0.5322 -0.4801
 3197SOL    HW121050   3.174   2.839   7.940  1.5765  0.9403 -1.2824
 3197SOL    HW221051   3.042   2.852   7.989  0.1268  0.3224  0.4414
 3198SOL     OW21052   2.572   1.725   7.141 -0.1627  0.0218 -0.0837
 3198SOL    HW121053   2.583   1.632   7.161  2.2421  0.5394  0.9901
 3198SOL    HW221054   2.595   1.738   7.049 -1.0140 -0.2169 -0.3301
 3199SOL     OW21055   4.576   3.298   9.731 -0.1450 -0.3683  0.3910
 3199SOL    HW121056   4.589   3.338   9.817  0.3996  1.3625 -0.5104
 3199SOL    HW221057   4.481   3.290   9.744 -0.1191 -4.2038 -1.8046
 3200SOL     OW21058   4.248   1.333  10.025 -0.7237  0.1184  0.0150
 3200SOL    HW121059   4.257   1.420   9.986 -0.4968 -0.4152 -1.1171
 3200SOL    HW221060   4.154   1.322  10.040 -0.8274  0.1729 -0.5940
 3201SOL     OW21061   0.259   4.264   0.954  0.4959 -0.1796  0.8003
 3201SOL    HW121062   0.188   4.303   1.006  0.0514  0.0212  0.0507
 3201SOL    HW221063   0.216   4.179   0.945  0.4274 -0.0996  0.3703
 3202SOL     OW21064   0.049   3.633  11.624  0.4480 -0.0258 -0.4793
 3202SOL    HW121065   0.126   3.586  11.655  0.1905 -0.2294 -0.1560
 3202SOL    HW221066   0.008   3.677  11.698  1.0706  0.3775 -0.3712
 3203SOL     OW21067   4.640   2.210  14.505  0.1475 -0.1401 -0.5060
 3203SOL    HW121068   4.677   2.282  14.557  2.4568 -0.7102 -1.3610
 3203SOL    HW221069   4.599   2.265  14.438  0.2088 -0.7990 -1.0726
 3204SOL     OW21070   3.778   3.761   4.520 -0.4019  0.0888 -0.5094
 3204SOL    HW121071   3.870   3.733   4.522 -0.2534  0.5665 -0.6474
 3204SOL    HW221072   3.753   3.736   4.609 -0.0307 -1.7398 -0.9185
 3205SOL     OW21073   1.838   0.509  11.279 -0.0416 -0.0565 -0.0783
 3205SOL    HW121074   1.918   0.560  11.267 -0.8167  1.1719 -0.1100
 3205SOL    HW221075   1.839   0.469  11.192  0.6003  0.4370 -0.2975
 3206SOL     OW21076   0.042   2.460   4.259 -0.4175  0.4418 -0.2790
 3206SOL    HW121077   0.025   2.552   4.240  0.4929  1.1271  2.2536
 3206SOL    HW221078   4.684   2.428   4.301  0.5386 -0.1898  1.0545
 3207SOL     OW21079   1.833   1.354   8.998  0.5252  0.0724 -0.4378
 3207SOL    HW121080   1.897   1.312   9.056  1.3255  1.3496 -0.3961
 3207SOL    HW221081   1.795   1.278   8.953  1.6640 -0.8668  0.1807
 3208SOL     OW21082   4.117   4.717  13.547  0.2450 -0.2221  0.1940
 3208SOL    HW121083   4.064   0.072  13.524 -1.1543 -0.4520  2.7004
 3208SOL    HW221084   4.204   0.029  13.526  0.0088 -0.3420 -0.9615
 3209SOL     OW21085   0.808   3.774   6.494  0.0975 -0.3892 -0.2339
 3209SOL    HW121086   0.857   3.827   6.432  0.1675 -0.1822 -0.0020
 3209SOL    HW221087   0.720   3.788   6.459  0.3702  0.5608 -0.5397
 3210SOL     OW21088   3.132   3.994  14.016 -0.7539  0.1902 -0.1279
 3210SOL    HW121089   3.213   3.967  14.060 -1.7360  0.4617  1.8458
 3210SOL    HW221090   3.083   3.913  14.031 -1.5636  0.7155  0.0537
 3211SOL     OW21091   1.907   2.514   0.677 -0.4230  0.4572 -0.4254
 3211SOL    HW121092   1.992   2.478   0.704 -0.2099  0.8597 -0.5558
 3211SOL    HW221093   1.905   2.595   0.726 -0.0768 -0.8556  1.7482
 3212SOL     OW21094   1.225   2.172  12.340  0.1529 -0.1455 -0.3237
 3212SOL    HW121095   1.264   2.147  12.423  1.2286  1.5250 -0.3070
 3212SOL    HW221096   1.207   2.086  12.302 -1.2382  0.6397 -1.4717
 3213SOL     OW21097   0.273   4.674   2.356 -0.0304 -0.1229 -0.1350
 3213SOL    HW121098   0.234   0.033   2.391 -0.9091 -0.4895 -0.2765
 3213SOL    HW221099   0.255   4.608   2.423 -0.0833  0.0924  0.0642
 3214SOL     OW21100   3.032   4.184   3.788  0.3586  0.4551  0.0578
 3214SOL    HW121101   2.957   4.171   3.729  0.9351  3.0942 -1.2464
 3214SOL    HW221102   3.050   4.277   3.779  2.1741 -0.0018 -1.1854
 3215SOL     OW21103   1.270   2.532  11.367  0.2349  0.7588 -0.1655
 3215SOL    HW121104   1.235   2.449  11.399  0.7138  0.9025  0.7125
 3215SOL    HW221105   1.303   2.514  11.279 -1.4637  1.4543 -0.9490
 3216SOL     OW21106   4.067   3.984  15.413  0.2362  0.2765 -0.0263
 3216SOL    HW121107   3.993   3.939  15.454  1.7437  0.4019  2.8475
 3216SOL    HW221108   4.114   4.008  15.493 -0.9176  1.2393  0.3662
 3217SOL     OW21109   3.485   4.258  17.527 -0.1162  0.0685  0.2755
 3217SOL    HW121110   3.402   4.236  17.485  1.0352 -4.0035  0.0920
 3217SOL    HW221111   3.456   4.326  17.587 -0.0718 -1.2693  1.8102
 3218SOL     OW21112   0.276   4.589  10.659 -0.0434 -0.2899  0.0525
 3218SOL    HW121113   0.294   4.683  10.652 -0.4799 -0.2715 -0.7841
 3218SOL    HW221114   0.257   4.569  10.751  0.8169 -0.1911  0.2511
 3219SOL     OW21115   0.267   1.341   4.437  1.0827  0.4076 -0.2624
 3219SOL    HW121116   0.324   1.265   4.422  0.1522 -0.5387  1.0895
 3219SOL    HW221117   0.315   1.386   4.507  0.2275  1.2294 -0.2073
 3220SOL     OW21118   3.606   2.392  10.701 -0.0318 -0.1648 -0.4754
 3220SOL    HW121119   3.653   2.330  10.646 -2.5366 -2.0920 -0.4111
 3220SOL    HW221120   3.584   2.453  10.630 -0.2432 -1.2945 -1.3657
 3221SOL     OW21121   4.591   2.167  15.346 -0.5383  0.6700  0.1313
 3221SOL    HW121122   4.533   2.226  15.299 -0.8804 -1.6448 -2.3823
 3221SOL    HW221123   4.595   2.224  15.422  1.7439 -1.4151  1.5971
 3222SOL     OW21124   2.462   3.716   7.332 -0.0791  0.3414  0.5169
 3222SOL    HW121125   2.539   3.668   7.363 -0.0261 -0.2161 -0.4809
 3222SOL    HW221126   2.402   3.660   7.380 -0.5483 -0.3090 -0.8104
 3223SOL     OW21127   0.486   0.030   3.479 -1.2378  0.3921 -0.5122
 3223SOL    HW121128   0.399   0.020   3.442 -1.4604 -0.2056  0.1699
 3223SOL    HW221129   0.532   0.063   3.402  2.1288 -1.0550  0.8516
 3224SOL     OW21130   3.758   3.212  17.319  0.1800 -0.2576 -0.3953
 3224SOL    HW121131   3.776   3.267  17.395  0.1748 -0.6723 -0.0920
 3224SOL    HW221132   3.703   3.138  17.347 -2.0744  0.2093 -3.6105
 3225SOL     OW21133   0.905   1.844   1.743  0.4475  0.0578 -0.1659
 3225SOL    HW121134   0.844   1.918   1.745  0.5075  0.1533 -1.8292
 3225SOL    HW221135   0.986   1.888   1.768  0.1609 -0.0844  1.0444
 3226SOL     OW21136   3.484   1.533   4.127 -0.0748  0.4595 -0.2233
 3226SOL    HW121137   3.578   1.519   4.117 -0.0124  1.7754 -1.4624
 3226SOL    HW221138   3.471   1.609   4.070 -3.3369  0.2185  0.1749
 3227SOL     OW21139   1.123   0.759   2.608  0.4501 -0.2864  0.4461
 3227SOL    HW121140   1.179   0.836   2.611 -1.1634  0.8112  2.3286
 3227SOL    HW221141   1.091   0.763   2.518  0.3467  2.1231  0.6096
 3228SOL     OW21142   3.190   2.343  11.595 -0.3821  0.0972 -0.0047
 3228SOL    HW121143   3.117   2.313  11.648  1.4441 -2.0630  1.3039
 3228SOL    HW221144   3.175   2.436  11.612  1.9655  0.5454 -0.2954
 3229SOL     OW21145   3.897   1.682   0.930 -0.7221 -0.1013  0.1090
 3229SOL    HW121146   3.918   1.753   0.869  0.1104 -1.3665 -1.0883
 3229SOL    HW221147   3.939   1.613   0.878 -2.2122 -0.5866 -0.4433
 3230SOL     OW21148   4.249   2.319   2.276 -0.0958  0.8218  0.8241
 3230SOL    HW121149   4.255   2.415   2.282  0.3217  0.8437  0.0725
 3230SOL    HW221150   4.313   2.309   2.346 -2.3239 -1.6625  2.5056
 3231SOL     OW21151   2.829   3.699   1.880  0.4420  0.0877  0.1893
 3231SOL    HW121152   2.918   3.731   1.862  0.1009 -0.2174 -2.0698
 3231SOL    HW221153   2.795   3.696   1.790  0.9506 -0.0788  0.0023
 3232SOL     OW21154   3.988   2.010   6.242 -0.1125 -0.3633 -0.9507
 3232SOL    HW121155   4.079   1.982   6.228  0.3684  1.2703 -1.2191
 3232SOL    HW221156   3.936   1.950   6.189 -2.7405  1.4613 -0.4636
 3233SOL     OW21157   3.614   1.314  14.657 -0.0684  0.2069 -0.8826
 3233SOL    HW121158   3.666   1.274  14.726 -0.0234  0.2095 -0.9146
 3233SOL    HW221159   3.559   1.242  14.626 -0.3748 -0.1273  0.4391
 3234SOL     OW21160   3.685   1.909  10.150  0.0076  0.8043  0.4972
 3234SOL    HW121161   3.766   1.917  10.100 -0.5169  4.0185  0.1363
 3234SOL    HW221162   3.648   1.827  10.116  0.1178  1.7653 -1.9808
 3235SOL     OW21163   3.746   1.653   2.257  0.5509 -0.3825 -0.4971
 3235SOL    HW121164   3.694   1.717   2.209  3.1285  1.4216 -0.8970
 3235SOL    HW221165   3.688   1.578   2.247 -0.6826  0.3377  1.2994
 3236SOL     OW21166   4.099   1.089   7.002 -0.0436 -0.0543  0.7715
 3236SOL    HW121167   4.174   1.112   7.057 -0.0570 -2.5015  1.7748
 3236SOL    HW221168   4.049   1.171   7.003  1.8019  1.0907 -0.1799
 3237SOL     OW21169   3.548   2.204   0.671 -0.9664  0.4449  0.3032
 3237SOL    HW121170   3.554   2.193   0.576  1.6834  2.7434  0.2081
 3237SOL    HW221171   3.452   2.209   0.675 -0.9393 -0.2336  1.9748
 3238SOL     OW21172   3.225   3.642  10.417  0.6094  0.3713  0.4832
 3238SOL    HW121173   3.317   3.665  10.423  0.6438  0.7515 -1.7154
 3238SOL    HW221174   3.242   3.562  10.467  3.2305 -1.4008 -3.2593
 3239SOL     OW21175   0.109   4.011   1.951 -0.4665 -0.2202  0.3948
 3239SOL    HW121176   0.044   4.071   1.988  0.3247  2.1842 -2.1798
 3239SOL    HW221177   0.110   3.940   2.015 -2.1613 -0.1859  0.4702
 3240SOL     OW21178   0.730   3.623   6.223  0.5749  0.5289 -0.6256
 3240SOL    HW121179   0.638   3.645   6.209  0.1157 -1.4777 -0.7964
 3240SOL    HW221180   0.770   3.680   6.158 -1.0474 -0.0088 -2.0897
 3241SOL     OW21181   4.024   2.076   7.878  0.2454 -0.5380 -0.5871
 3241SOL    HW121182   4.088   2.027   7.929 -0.1871  0.9779  1.4185
 3241SOL    HW221183   4.005   2.145   7.942 -1.2669 -1.4516 -0.0361
 3242SOL     OW21184   0.636   0.355   5.677  0.5243 -0.3688 -0.9061
 3242SOL    HW121185   0.586   0.390   5.751  0.8635  0.6148 -1.1468
 3242SOL    HW221186   0.580   0.372   5.602  1.2274 -0.5850 -1.4771
 3243SOL     OW21187   2.613   0.975   5.188 -0.1736 -0.0865 -0.1822
 3243SOL    HW121188   2.690   0.965   5.244 -1.4286 -1.5612  1.2620
 3243SOL    HW221189   2.547   0.923   5.234 -0.1913 -1.1514 -1.3962
 3244SOL     OW21190   0.424   3.080   6.620 -0.1469 -0.0259 -0.3380
 3244SOL    HW121191   0.458   3.144   6.558  2.5037  0.5562  1.7548
 3244SOL    HW221192   0.488   3.093   6.689 -0.9319  1.4038  0.1201
 3245SOL     OW21193   4.511   1.473   5.887  0.5108 -0.0671  0.8617
 3245SOL    HW121194   4.498   1.563   5.918 -1.4164 -0.2367  0.4994
 3245SOL    HW221195   4.570   1.437   5.953  0.9657  0.4172  0.7257
 3246SOL     OW21196   0.326   1.708  13.508  0.2854  0.6068  0.0490
 3246SOL    HW121197   0.267   1.653  13.559  1.5033 -0.5711  0.1840
 3246SOL    HW221198   0.267   1.737  13.438 -0.5590  0.3635  0.6625
 3247SOL     OW21199   3.097   4.231   8.378 -0.1319  0.7212 -0.1847
 3247SOL    HW121200   3.172   4.202   8.327 -0.1306 -0.5554  0.5522
 3247SOL    HW221201   3.027   4.217   8.314  0.3362 -1.5997 -0.1535
 3248SOL     OW21202   2.579   1.699   2.343  0.2495 -0.6457 -0.3510
 3248SOL    HW121203   2.563   1.785   2.306  1.6866 -0.1209  0.2496
 3248SOL    HW221204   2.531   1.642   2.283  1.2887 -0.2271 -1.5595
 3249SOL     OW21205   2.369   3.446   9.675 -0.9627 -0.2090  0.0621
 3249SOL    HW121206   2.301   3.511   9.693  0.4417  1.2764  0.0248
 3249SOL    HW221207   2.435   3.459   9.743 -1.8468 -0.3407  0.9417
 3250SOL     OW21208   1.779   0.103   3.707 -0.3030  0.0555  0.3675
 3250SOL    HW121209   1.839   0.148   3.648 -1.1770 -2.0538 -2.1279
 3250SOL    HW221210   1.723   0.051   3.648  1.2206  0.0378 -1.0518
 3251SOL     OW21211   0.830   3.035   6.159  0.0611 -0.4189 -0.2792
 3251SOL    HW121212   0.843   3.128   6.143 -1.4976 -0.4263 -1.6399
 3251SOL    HW221213   0.888   2.994   6.095  1.5369 -0.6046  1.1906
 3252SOL     OW21214   1.685   2.000  14.693 -0.2262  0.1491  0.1676
 3252SOL    HW121215   1.637   2.071  14.735 -0.9963 -0.2311 -0.0738
 3252SOL    HW221216   1.637   2.002  14.610 -0.5785 -1.0228  0.3405
 3253SOL     OW21217   0.209   4.661   6.574  0.0763 -0.1906 -0.3733
 3253SOL    HW121218   0.192   0.017   6.628  0.1177 -0.7348  0.4218
 3253SOL    HW221219   0.140   4.606   6.610 -0.8861  0.3143 -1.4561
 3254SOL     OW21220   2.552   1.693   8.676  0.0166 -0.0897  0.7785
 3254SOL    HW121221   2.503   1.634   8.733 -1.5756  2.6367  2.2602
 3254SOL    HW221222   2.477   1.723   8.625 -0.2010 -0.6799  0.7568
 3255SOL     OW21223   4.459   3.383  16.898  0.4063 -0.0464  0.2065
 3255SOL    HW121224   4.540   3.389  16.948 -0.3954  1.5181  1.3117
 3255SOL    HW221225   4.481   3.292  16.875  0.8770  0.4743 -1.3968
 3256SOL     OW21226   2.963   0.971  17.488 -0.5768 -0.5668 -0.7538
 3256SOL    HW121227   2.872   0.943  17.503 -0.5271 -0.8375 -0.9595
 3256SOL    HW221228   3.024   0.916  17.538 -0.8880  0.8170  1.1499
 3257SOL     OW21229   0.153   0.659  13.163  0.5320 -0.2672  0.1106
 3257SOL    HW121230   0.147   0.753  13.148 -2.2044 -0.4184  0.3598
 3257SOL    HW221231   0.247   0.642  13.158  0.6598 -0.0373  1.7436
 3258SOL     OW21232   3.465   0.880  11.290  0.1508 -0.5187 -0.4654
 3258SOL    HW121233   3.489   0.932  11.213 -1.3964 -0.5405 -0.9554
 3258SOL    HW221234   3.466   0.795  11.248 -1.5708 -0.5139 -0.5285
 3259SOL     OW21235   2.507   1.195   3.609 -0.5134 -0.2919 -0.3898
 3259SOL    HW121236   2.534   1.233   3.693 -2.1832  0.0745 -0.0043
 3259SOL    HW221237   2.587   1.199   3.557 -0.9093  1.4818 -0.8793
 3260SOL     OW21238   2.184   2.216   7.734 -0.3351  0.1977  0.7732
 3260SOL    HW121239   2.189   2.157   7.809 -0.7294  2.3655  2.5216
 3260SOL    HW221240   2.090   2.214   7.719 -0.3818 -1.9969  1.2966
 3261SOL     OW21241   0.652   1.843   2.425 -0.0400  0.1504  0.1391
 3261SOL    HW121242   0.595   1.841   2.348 -0.2426 -1.2741  0.3204
 3261SOL    HW221243   0.608   1.776   2.478 -0.9701  0.0321 -0.7939
 3262SOL     OW21244   4.076   3.694   3.460 -0.1794  0.3213  0.0780
 3262SOL    HW121245   4.084   3.638   3.537 -1.5753  0.7624  0.5398
 3262SOL    HW221246   4.148   3.656   3.409 -0.2005  2.2388 -1.4184
 3263SOL     OW21247   0.312   2.747   8.944  0.2389 -0.1032  0.6935
 3263SOL    HW121248   0.223   2.756   8.979  0.0188 -1.0318  0.3761
 3263SOL    HW221249   0.321   2.812   8.875 -0.1266 -0.6879  0.0928
 3264SOL     OW21250   1.274   3.535   2.141 -0.6487  0.1311 -0.1844
 3264SOL    HW121251   1.265   3.590   2.063 -0.3164 -1.2965 -1.2228
 3264SOL    HW221252   1.191   3.489   2.140  1.4740 -3.7043  0.5386
 3265SOL     OW21253   2.454   1.933   2.259 -0.2118  0.6542  0.6717
 3265SOL    HW121254   2.478   1.979   2.340 -2.8627  0.8986  1.3268
 3265SOL    HW221255   2.361   1.957   2.259 -0.7542 -1.5084  0.6963
 3266SOL     OW21256   2.019   3.359   0.626 -0.1375  0.1405 -0.0440
 3266SOL    HW121257   1.984   3.445   0.601  1.7906  1.1590  0.7700
 3266SOL    HW221258   1.940   3.305   0.617 -0.0470 -0.2532  1.7313
 3267SOL     OW21259   3.791   2.789   7.091  0.1396  0.0918 -0.0222
 3267SOL    HW121260   3.753   2.717   7.140  1.0720  1.0966  2.1810
 3267SOL    HW221261   3.720   2.849   7.068  1.0656  2.8707  4.3646
 3268SOL     OW21262   3.494   2.506   9.979  0.1385 -0.2891  0.2880
 3268SOL    HW121263   3.555   2.532   9.909  0.4075 -1.0944  0.2315
 3268SOL    HW221264   3.494   2.412   9.966  0.0395 -0.2576  0.0604
 3269SOL     OW21265   0.498   1.889   6.193  0.2671  0.4201 -0.3112
 3269SOL    HW121266   0.455   1.974   6.178  0.2737  0.3441 -0.7653
 3269SOL    HW221267   0.478   1.857   6.105 -0.2920 -0.0636 -0.0019
 3270SOL     OW21268   3.955   4.111   6.339 -0.6115  0.3266  0.5873
 3270SOL    HW121269   3.992   4.192   6.375  0.8377  0.0057 -0.1960
 3270SOL    HW221270   3.864   4.133   6.359 -0.9089 -0.2027 -0.2154
 3271SOL     OW21271   4.079   3.487   0.880  0.0277  0.3993 -0.1073
 3271SOL    HW121272   4.055   3.419   0.816 -0.4257 -0.4292  0.9524
 3271SOL    HW221273   4.012   3.464   0.943 -0.1176  2.5717  0.5142
 3272SOL     OW21274   2.612   1.571   7.811  0.1648  0.9331 -0.1868
 3272SOL    HW121275   2.650   1.651   7.846  0.5662  0.5379  0.3011
 3272SOL    HW221276   2.662   1.560   7.731 -0.4333 -0.5068 -0.3792
 3273SOL     OW21277   0.943   2.666  17.320 -0.5822 -0.0716 -0.7007
 3273SOL    HW121278   0.955   2.718  17.400 -2.1272 -2.0229  0.8224
 3273SOL    HW221279   0.905   2.587  17.360 -1.7339  0.6280 -0.3919
 3274SOL     OW21280   3.984   1.788   8.530  0.3197 -0.6470 -0.3309
 3274SOL    HW121281   3.954   1.712   8.580  0.2745  1.8868  3.5075
 3274SOL    HW221282   4.032   1.753   8.455  0.1963  0.9675 -1.1516
 3275SOL     OW21283   1.762   3.392   4.178 -0.1613  0.2659 -0.1299
 3275SOL    HW121284   1.748   3.475   4.133  1.6604  1.2434  1.0758
 3275SOL    HW221285   1.697   3.341   4.131  0.3643  0.0803 -0.6582
 3276SOL     OW21286   2.799   2.882   9.484 -0.4114 -0.3638  0.2487
 3276SOL    HW121287   2.783   2.818   9.553 -2.6740  0.5848  0.6257
 3276SOL    HW221288   2.711   2.921   9.489  0.6633  2.2337 -0.8459
 3277SOL     OW21289   0.029   3.015   2.209 -0.1626  0.3746 -0.0663
 3277SOL    HW121290   0.099   2.955   2.234  0.0967  0.6294 -0.1919
 3277SOL    HW221291   4.690   2.956   2.165  0.5212  0.9939 -1.8091
 3278SOL     OW21292   4.277   1.368   2.852  0.0574  0.7554  0.9102
 3278SOL    HW121293   4.327   1.398   2.775  1.1556 -0.2815  1.2126
 3278SOL    HW221294   4.225   1.300   2.810  0.6932  0.4651  0.5844
 3279SOL     OW21295   0.639   1.200   3.450  0.0999 -0.2427 -0.0153
 3279SOL    HW121296   0.572   1.239   3.506 -0.9729 -0.2091 -1.3147
 3279SOL    HW221297   0.594   1.129   3.406 -2.2846  1.2608  0.0188
 3280SOL     OW21298   4.446   1.066   5.486  0.0991  0.3299 -0.6727
 3280SOL    HW121299   4.466   0.994   5.427 -1.4820 -1.4533  0.9774
 3280SOL    HW221300   4.355   1.086   5.462  0.4203 -0.0954 -2.2502
 3281SOL     OW21301   3.655   0.791   7.948  0.9357  0.0130  0.0824
 3281SOL    HW121302   3.719   0.728   7.917  0.4828 -0.2089 -0.3994
 3281SOL    HW221303   3.689   0.819   8.033  1.9655  1.7346 -0.9011
 3282SOL     OW21304   0.376   3.170  17.683  0.4966  1.1456 -0.2209
 3282SOL    HW121305   0.455   3.151  17.632  0.3419  1.2552 -0.5007
 3282SOL    HW221306   0.310   3.144  17.620 -0.0300 -0.1472  0.8564
 3283SOL     OW21307   1.585   0.855  15.789 -0.4971  0.3600  0.2329
 3283SOL    HW121308   1.631   0.775  15.817 -2.0796 -0.4383  0.5355
 3283SOL    HW221309   1.618   0.929  15.839  1.5932 -0.0342 -0.5237
 3284SOL     OW21310   0.134   0.492   4.278 -0.5058  0.6412  0.3516
 3284SOL    HW121311   0.083   0.544   4.216 -0.6623  2.2866  1.8566
 3284SOL    HW221312   0.168   0.414   4.235 -1.1161 -0.1334  1.2589
 3285SOL     OW21313   2.881   4.114   4.962 -0.2192 -0.3548  0.3781
 3285SOL    HW121314   2.939   4.161   5.022  1.3980 -0.4068 -1.1337
 3285SOL    HW221315   2.795   4.121   5.002  0.2334  3.1471  0.7118
 3286SOL     OW21316   0.627   0.672  11.131 -0.3586  0.2284  0.4748
 3286SOL    HW121317   0.555   0.667  11.068  0.7309 -1.7130 -0.6361
 3286SOL    HW221318   0.609   0.595  11.185  1.5731  1.7932  3.3442
 3287SOL     OW21319   1.140   1.035   4.938 -0.3805 -0.5012  0.0059
 3287SOL    HW121320   1.187   1.023   5.020 -0.0691  1.4278  0.0987
 3287SOL    HW221321   1.072   1.099   4.960 -1.1764 -0.7190 -1.8064
 3288SOL     OW21322   0.911   1.167   7.319  0.2640 -0.3006 -0.3430
 3288SOL    HW121323   0.817   1.148   7.310  0.6523 -0.9380 -3.0793
 3288SOL    HW221324   0.927   1.161   7.225  1.3764  0.0243 -0.1651
 3289SOL     OW21325   1.857   3.046  11.485  0.3251  0.5435  0.2556
 3289SOL    HW121326   1.948   3.026  11.466  0.2037  1.1369 -0.9468
 3289SOL    HW221327   1.834   3.067  11.394  2.9460  1.7689 -0.1063
 3290SOL     OW21328   3.624   1.795   4.834 -0.0837  0.0416  0.2589
 3290SOL    HW121329   3.603   1.704   4.813 -3.6101  1.0151 -0.4672
 3290SOL    HW221330   3.537   1.834   4.843  1.1114  2.8442 -0.3149
 3291SOL     OW21331   4.034   4.411   0.454 -0.5550  0.0716  0.1641
 3291SOL    HW121332   3.967   4.406   0.522 -0.2120 -0.3852  0.4776
 3291SOL    HW221333   4.005   4.334   0.405 -1.6796  0.6673 -0.0985
 3292SOL     OW21334   1.359   0.600   1.916  0.5506  0.2319 -0.0654
 3292SOL    HW121335   1.370   0.562   2.003 -1.4752  1.7257  0.8395
 3292SOL    HW221336   1.439   0.651   1.901  1.5513 -0.9132  1.4397
 3293SOL     OW21337   1.628   4.514  14.738  0.5216  0.4621  0.2811
 3293SOL    HW121338   1.712   4.553  14.715  1.2652 -2.6139 -2.2211
 3293SOL    HW221339   1.630   4.446  14.670  0.8037  0.5706  0.1809
 3294SOL     OW21340   3.522   3.236   4.961  0.1245  0.4100 -0.2281
 3294SOL    HW121341   3.575   3.197   4.891  0.9635  0.9722  0.0945
 3294SOL    HW221342   3.452   3.172   4.952 -1.1777  1.7716  0.3282
 3295SOL     OW21343   3.271   1.034  16.494 -0.0614  0.0094 -0.2990
 3295SOL    HW121344   3.178   1.015  16.480 -0.4182  0.4100  1.5070
 3295SOL    HW221345   3.295   1.061  16.406  1.6784 -1.7918 -0.3839
 3296SOL     OW21346   3.741   1.166   7.327  0.4635  0.2720  0.7461
 3296SOL    HW121347   3.712   1.117   7.250  0.3148 -0.9401  1.5765
 3296SOL    HW221348   3.753   1.090   7.384  1.7662 -0.2783 -0.2532
 3297SOL     OW21349   2.240   4.442   3.524  0.8225  0.6725 -0.7072
 3297SOL    HW121350   2.217   4.535   3.526 -0.2338  0.3961 -0.0353
 3297SOL    HW221351   2.210   4.408   3.440  0.1166  1.5618 -0.8170
 3298SOL     OW21352   1.563   4.086   2.466  0.0903  0.5381 -1.1364
 3298SOL    HW121353   1.566   4.020   2.535 -0.5134  2.3025  0.5965
 3298SOL    HW221354   1.578   4.028   2.392  2.3810  0.0680 -0.2999
 3299SOL     OW21355   3.099   1.989  11.765  0.1304  0.2308  0.7925
 3299SOL    HW121356   3.050   1.908  11.783  1.5483 -0.5878  1.0072
 3299SOL    HW221357   3.161   1.959  11.698 -1.7077 -1.1861 -0.2830
 3300SOL     OW21358   3.970   2.292   4.220 -0.1871 -0.1399 -0.1001
 3300SOL    HW121359   3.876   2.293   4.234 -0.1931 -0.2523 -0.1386
 3300SOL    HW221360   3.996   2.229   4.286 -0.0496 -1.0875 -1.0562
 3301SOL     OW21361   1.641   4.717   3.039 -0.4749  0.0064  0.4603
 3301SOL    HW121362   1.691   0.070   3.005 -1.5477  0.3903 -0.3206
 3301SOL    HW221363   1.552   0.031   3.032 -0.3205  1.0782  3.7761
 3302SOL     OW21364   2.733   3.746  15.912 -0.0961 -0.3808  0.0740
 3302SOL    HW121365   2.818   3.750  15.957 -0.8133  2.6654  1.1876
 3302SOL    HW221366   2.722   3.652  15.902 -1.6703 -0.7115  4.8750
 3303SOL     OW21367   1.602   2.888   4.473  0.3244 -0.0199  0.2087
 3303SOL    HW121368   1.604   2.798   4.441  0.1897 -0.2276  0.7684
 3303SOL    HW221369   1.665   2.934   4.418 -1.5072  0.2753 -1.6283
 3304SOL     OW21370   2.899   2.081   0.151  0.5335 -0.7203  0.0203
 3304SOL    HW121371   2.874   2.124   0.233  1.0064 -1.2787  0.4621
 3304SOL    HW221372   2.820   2.036   0.120  0.2696  0.9633 -1.7030
 3305SOL     OW21373   3.470   4.124   5.841 -0.4961  0.4534 -0.2693
 3305SOL    HW121374   3.520   4.043   5.847  0.0374  0.7224 -1.1955
 3305SOL    HW221375   3.537   4.192   5.846 -1.9124  1.7277  1.5727
 3306SOL     OW21376   3.905   2.158  12.259 -0.0814  0.0603 -0.5281
 3306SOL    HW121377   3.845   2.190  12.326 -3.0968 -3.1399 -1.6578
 3306SOL    HW221378   3.978   2.207  12.295 -0.9214  1.7562 -1.1526
 3307SOL     OW21379   1.561   0.416   1.570  0.2167  0.6156 -0.2356
 3307SOL    HW121380   1.489   0.467   1.609  0.6930  1.2335 -0.1636
 3307SOL    HW221381   1.519   0.332   1.550 -0.3622  0.7250  0.5061
 3308SOL     OW21382   2.967   2.749   1.691  0.3196 -0.4985  0.6899
 3308SOL    HW121383   2.978   2.806   1.767 -1.1721  1.9648 -0.9355
 3308SOL    HW221384   2.973   2.816   1.622  0.4685 -4.0726 -2.7749
 3309SOL     OW21385   0.484   4.577  17.362  0.2755 -0.3874  0.6050
 3309SOL    HW121386   0.576   4.569  17.338  0.0062  0.3343 -0.6467
 3309SOL    HW221387   0.495   4.653  17.418 -0.3491 -0.1296  0.3800
 3310SOL     OW21388   0.023   0.867   7.590  0.2452 -0.5698  0.0386
 3310SOL    HW121389   4.669   0.898   7.640  0.5693  0.4711 -0.1286
 3310SOL    HW221390   0.035   0.940   7.529 -1.5000 -0.5394 -0.2670
 3311SOL     OW21391   1.045   3.151   7.545  0.2270 -0.5736 -0.2042
 3311SOL    HW121392   1.040   3.065   7.504 -0.6964  0.0901 -1.4875
 3311SOL    HW221393   1.063   3.126   7.636  0.5793 -2.1671 -0.7159
 3312SOL     OW21394   0.182   0.715   4.439 -0.3452  0.0921  0.3270
 3312SOL    HW121395   0.109   0.739   4.382  0.7399  2.0152 -0.2604
 3312SOL    HW221396   0.245   0.686   4.373 -1.1888 -0.0670 -0.3992
 3313SOL     OW21397   2.699   3.992   0.092 -0.1870 -0.3638 -0.3085
 3313SOL    HW121398   2.774   4.052   0.094  1.0431 -1.9113 -0.0700
 3313SOL    HW221399   2.736   3.905   0.081  0.1384 -0.4266  1.2198
 3314SOL     OW21400   3.990   0.787  13.175  0.4725 -0.3247  0.2517
 3314SOL    HW121401   4.011   0.740  13.256  2.7094  0.6981  0.2526
 3314SOL    HW221402   4.049   0.862  13.183  1.5619 -1.0832 -0.6508
 3315SOL     OW21403   3.285   2.389   3.203 -0.1620  0.4493 -0.1335
 3315SOL    HW121404   3.309   2.480   3.223 -0.1853  0.4358 -0.0451
 3315SOL    HW221405   3.290   2.347   3.289 -2.0507  2.0477  0.7378
 3316SOL     OW21406   3.859   3.187  14.411  0.2710 -0.0249  0.5000
 3316SOL    HW121407   3.834   3.158  14.323  1.0278  0.2432  0.1942
 3316SOL    HW221408   3.947   3.150  14.424 -0.1333 -0.7781  1.1096
 3317SOL     OW21409   3.611   0.282   5.500 -0.3825  0.5027 -0.0215
 3317SOL    HW121410   3.573   0.367   5.478  0.5422  0.5506 -1.4229
 3317SOL    HW221411   3.626   0.298   5.593  0.3862  0.9757 -0.2283
 3318SOL     OW21412   3.278   2.534   6.276 -0.2355  0.2545  0.0607
 3318SOL    HW121413   3.303   2.451   6.234  0.5494  1.5301 -2.0421
 3318SOL    HW221414   3.236   2.581   6.204 -1.1545 -2.5524 -1.2511
 3319SOL     OW21415   4.514   3.994   6.563 -0.2467 -0.2044  0.8255
 3319SOL    HW121416   4.420   3.980   6.575 -0.3378 -0.3545 -0.0618
 3319SOL    HW221417   4.524   4.079   6.606  0.0598  1.1396 -1.9112
 3320SOL     OW21418   4.578   1.569  15.184 -0.0367 -0.4750  0.3498
 3320SOL    HW121419   4.490   1.531  15.184 -0.7001  1.0498  0.5467
 3320SOL    HW221420   4.620   1.520  15.255 -0.0680 -0.4876  0.3594
 3321SOL     OW21421   3.008   0.884   1.261 -0.0893 -0.2837  0.1012
 3321SOL    HW121422   2.989   0.823   1.189  1.1775  1.5583 -1.7885
 3321SOL    HW221423   2.920   0.894   1.296  0.3973 -0.8413  1.4570
 3322SOL     OW21424   4.268   1.613   9.954  0.2153 -1.0151  0.2412
 3322SOL    HW121425   4.361   1.602   9.977  0.9996  0.6375 -2.1438
 3322SOL    HW221426   4.217   1.616  10.035  0.4466 -0.0506  0.3472
 3323SOL     OW21427   2.063   0.663   7.703 -0.1380  0.5280 -0.0868
 3323SOL    HW121428   2.105   0.645   7.787 -1.7040  0.9440  0.7877
 3323SOL    HW221429   2.046   0.573   7.675  1.7504  0.5105 -1.1804
 3324SOL     OW21430   1.109   1.453   6.292 -0.0068 -0.1932 -0.1360
 3324SOL    HW121431   1.017   1.477   6.303  0.3372  1.5647 -1.1687
 3324SOL    HW221432   1.130   1.440   6.384 -1.2312 -0.7437  0.0720
 3325SOL     OW21433   4.718   2.915   3.118 -0.4105 -0.0029  0.5809
 3325SOL    HW121434   4.652   2.876   3.175 -1.6392  0.8334 -0.2570
 3325SOL    HW221435   0.013   3.003   3.151 -0.0546  0.4769 -0.8708
 3326SOL     OW21436   0.592   2.938   9.118 -0.0396  0.2144 -0.5738
 3326SOL    HW121437   0.568   2.918   9.028 -2.0426  1.3644 -0.2989
 3326SOL    HW221438   0.639   2.865   9.158 -0.3313  0.1860 -0.2767
 3327SOL     OW21439   0.362   0.457   1.870  0.3196  0.5341  0.0712
 3327SOL    HW121440   0.419   0.518   1.918  1.9223 -0.9656  0.1004
 3327SOL    HW221441   0.430   0.408   1.824 -1.3663 -0.8529 -0.9120
 3328SOL     OW21442   2.695   0.919  11.801 -0.2245 -0.5138 -0.1210
 3328SOL    HW121443   2.700   1.010  11.829  1.1690 -1.0160  1.2721
 3328SOL    HW221444   2.755   0.920  11.727 -1.3481 -1.7479 -1.0640
 3329SOL     OW21445   0.170   2.752   0.976 -0.4898 -0.1506 -0.4585
 3329SOL    HW121446   0.243   2.756   0.914 -1.0889  1.1698 -1.1010
 3329SOL    HW221447   0.107   2.818   0.945  0.5028  0.0010 -2.1774
 3330SOL     OW21448   2.320   1.439   3.260 -0.3204  0.5427  0.5197
 3330SOL    HW121449   2.231   1.407   3.243  0.3387 -2.3114  2.4924
 3330SOL    HW221450   2.348   1.510   3.202 -3.4559  0.7289 -0.7583
 3331SOL     OW21451   0.480   1.852   4.600  0.2310  0.5783 -0.2026
 3331SOL    HW121452   0.448   1.898   4.522  0.4999  0.3687 -0.4394
 3331SOL    HW221453   0.571   1.884   4.601  0.3735  0.1584  0.2189
 3332SOL     OW21454   0.725   2.076   7.344  0.0096  0.1672  0.2518
 3332SOL    HW121455   0.648   2.112   7.298 -0.4559 -1.6836 -0.4431
 3332SOL    HW221456   0.690   2.024   7.416  2.1614 -0.0336  1.1397
 3333SOL     OW21457   0.104   3.860   8.607 -0.3418 -0.4315 -0.2798
 3333SOL    HW121458   0.016   3.824   8.617 -1.1553  1.6106 -0.0234
 3333SOL    HW221459   0.093   3.922   8.679  0.7720 -0.1953 -0.3136
 3334SOL     OW21460   3.420   2.941  15.390  0.4534 -0.1824  0.9945
 3334SOL    HW121461   3.362   2.918  15.317  2.2957  3.0363 -1.5068
 3334SOL    HW221462   3.503   2.941  15.341 -0.1705 -0.6044 -0.0762
 3335SOL     OW21463   1.945   0.242   7.251 -0.3705  0.3809  0.1937
 3335SOL    HW121464   1.913   0.194   7.327  1.4300 -0.0233  0.6783
 3335SOL    HW221465   2.014   0.297   7.287  0.2397 -0.9997  1.1266
 3336SOL     OW21466   0.288   3.884   1.101  0.0541  0.0823 -0.0930
 3336SOL    HW121467   0.361   3.848   1.050 -0.4750 -1.6466  0.3643
 3336SOL    HW221468   0.247   3.947   1.042  1.3178 -0.3559 -1.4624
 3337SOL     OW21469   4.533   1.604   5.396  0.0946 -0.2714 -0.2048
 3337SOL    HW121470   4.491   1.689   5.405 -2.4840 -1.4196 -1.3086
 3337SOL    HW221471   4.537   1.574   5.487 -2.5012 -0.6280 -0.1960
 3338SOL     OW21472   4.531   3.648   7.914 -0.0710 -0.1975 -0.0780
 3338SOL    HW121473   4.454   3.667   7.968  0.3025  1.4160 -0.1019
 3338SOL    HW221474   4.586   3.709   7.964 -0.6481  1.0579 -0.9619
 3339SOL     OW21475   1.726   1.092   5.890 -0.3353  0.3422  0.1099
 3339SOL    HW121476   1.681   1.144   5.956  2.4463  1.5866  1.0347
 3339SOL    HW221477   1.817   1.094   5.919 -0.0559  1.8727 -0.8585
 3340SOL     OW21478   1.234   0.649   6.218  0.2920 -0.7693  0.4369
 3340SOL    HW121479   1.141   0.651   6.195  0.4258  1.4167  0.1406
 3340SOL    HW221480   1.232   0.587   6.291 -0.6026 -1.7231 -0.3851
 3341SOL     OW21481   4.512   1.982  16.440 -0.1073 -0.2460  0.0945
 3341SOL    HW121482   4.566   1.903  16.441 -0.8461 -0.7366  1.3984
 3341SOL    HW221483   4.447   1.960  16.507 -1.4640  0.6150 -0.9382
 3342SOL     OW21484   4.069   0.098   7.706  0.3664  0.2686 -0.1652
 3342SOL    HW121485   4.095   0.179   7.662  1.6015 -1.3220 -2.3151
 3342SOL    HW221486   3.981   0.130   7.728  0.1017  0.5776 -1.7030
 3343SOL     OW21487   4.107   3.668  15.463 -0.2390 -0.3025 -0.2145
 3343SOL    HW121488   4.073   3.584  15.493  3.1481 -1.5947  0.1110
 3343SOL    HW221489   4.119   3.704  15.551  1.0388  2.4541 -1.5192
 3344SOL     OW21490   0.256   1.880   9.565  0.3824 -0.2319  0.4340
 3344SOL    HW121491   0.233   1.971   9.581 -2.2735 -0.5017 -1.7601
 3344SOL    HW221492   0.211   1.867   9.482 -0.4478 -0.7383  0.9603
 3345SOL     OW21493   1.873   2.016  13.391  0.0681 -0.1336 -0.5834
 3345SOL    HW121494   1.949   1.958  13.393 -0.0729 -0.3098 -0.3395
 3345SOL    HW221495   1.857   2.041  13.300  2.7236 -1.5694 -1.4620
 3346SOL     OW21496   0.330   3.003   1.218 -0.3479  0.2298 -0.6757
 3346SOL    HW121497   0.238   3.016   1.195 -0.5937 -0.5604 -0.1548
 3346SOL    HW221498   0.360   3.088   1.187 -1.4172  0.6210 -0.6194
 3347SOL     OW21499   0.957   4.604  10.758 -0.6180  0.0657 -0.8064
 3347SOL    HW121500   0.890   4.536  10.754 -0.3497 -0.3044  0.8927
 3347SOL    HW221501   0.900   4.681  10.764  2.1109  1.9933  0.0273
 3348SOL     OW21502   3.354   4.677   7.742 -0.3069  0.4176  0.1705
 3348SOL    HW121503   3.301   4.700   7.666 -0.8106 -3.2285 -0.5695
 3348SOL    HW221504   3.379   0.036   7.788 -2.1995 -0.1626  2.1586
 3349SOL     OW21505   3.878   3.852   0.057 -0.8390 -0.6998  0.2852
 3349SOL    HW121506   3.930   3.838  17.665  1.1529 -0.4660  1.5584
 3349SOL    HW221507   3.908   3.781   0.114  0.2561  0.4237  1.1244
 3350SOL     OW21508   2.231   0.789  14.680 -0.5089  0.5512 -0.5171
 3350SOL    HW121509   2.320   0.824  14.689  0.3921 -1.6885 -0.7175
 3350SOL    HW221510   2.184   0.842  14.744 -1.1698 -1.1502  0.4161
 3351SOL     OW21511   1.428   1.874   5.465  0.6758  0.1702 -0.2123
 3351SOL    HW121512   1.486   1.819   5.412 -0.3663 -0.2692 -0.8986
 3351SOL    HW221513   1.350   1.822   5.485  0.2384  1.4416  1.4002
 3352SOL     OW21514   4.337   2.025  16.232  0.5553  0.1067 -0.0593
 3352SOL    HW121515   4.402   2.007  16.301  1.0424  1.5449 -0.1409
 3352SOL    HW221516   4.361   2.116  16.219  0.0814  0.2063 -0.2092
 3353SOL     OW21517   1.875   3.303   8.735  0.1835 -0.3002 -0.0015
 3353SOL    HW121518   1.952   3.250   8.752 -0.2645 -1.1557 -0.6241
 3353SOL    HW221519   1.874   3.304   8.639  0.1840  1.0644  0.0095
 3354SOL     OW21520   3.091   2.789  13.705 -0.6951  0.0840 -0.7241
 3354SOL    HW121521   3.108   2.740  13.624  0.8314  0.0226 -0.3653
 3354SOL    HW221522   3.167   2.839  13.732 -2.5339  2.4244  0.1173
 3355SOL     OW21523   3.893   3.751  14.057  0.5621 -0.5641 -0.1236
 3355SOL    HW121524   3.903   3.742  14.152  0.5643 -1.4837 -0.2140
 3355SOL    HW221525   3.871   3.844  14.054 -0.3889 -0.8806 -2.7946
 3356SOL     OW21526   0.372   2.040   9.049  0.4443  0.2940 -0.2989
 3356SOL    HW121527   0.409   2.124   9.077 -3.0720  2.3507 -1.7708
 3356SOL    HW221528   0.404   2.034   8.959  0.5010 -0.0447 -0.2538
 3357SOL     OW21529   2.657   2.581  15.768 -0.2956 -0.8791  0.0142
 3357SOL    HW121530   2.691   2.493  15.783 -1.2260 -1.2046  0.2212
 3357SOL    HW221531   2.718   2.618  15.704 -1.3140 -2.3685 -1.8258
 3358SOL     OW21532   0.703   1.200   5.188  0.1751  0.6007  0.0888
 3358SOL    HW121533   0.686   1.106   5.181  0.6502  0.4762  0.6166
 3358SOL    HW221534   0.644   1.241   5.124 -0.5266  1.7624  1.4805
 3359SOL     OW21535   3.460   1.251   5.021 -0.4399  0.7674 -0.6028
 3359SOL    HW121536   3.385   1.248   4.962 -0.3185  1.1239 -0.7732
 3359SOL    HW221537   3.523   1.316   4.989  1.0750 -0.8813 -1.0415
 3360SOL     OW21538   2.840   4.488   5.321 -0.8986  0.1243 -0.4414
 3360SOL    HW121539   2.753   4.490   5.361 -0.6992  0.5405 -0.0269
 3360SOL    HW221540   2.847   4.573   5.277 -0.7392  0.1635 -0.3421
 3361SOL     OW21541   2.904   2.496   0.410 -0.1624  0.4414 -0.2363
 3361SOL    HW121542   2.839   2.565   0.395  0.4604  1.0999  0.1272
 3361SOL    HW221543   2.854   2.415   0.416 -0.0026  0.4014  0.5080
 3362SOL     OW21544   2.648   0.199  13.562  0.6146  0.8981 -0.3623
 3362SOL    HW121545   2.705   0.265  13.521  2.2635 -0.9579 -1.1044
 3362SOL    HW221546   2.703   0.121  13.549 -3.4931 -1.8704 -1.0925
 3363SOL     OW21547   2.392   1.115  16.737 -0.1678  0.4527  0.8906
 3363SOL    HW121548   2.362   1.102  16.647  0.1646 -0.0123  0.8433
 3363SOL    HW221549   2.324   1.173  16.768 -1.0296  0.4926 -1.0268
 3364SOL     OW21550   4.466   2.673   7.600 -0.0532  0.0053 -0.5493
 3364SOL    HW121551   4.433   2.701   7.686  1.5613 -1.3399  0.5115
 3364SOL    HW221552   4.549   2.721   7.603 -0.3858  0.6599 -2.1451
 3365SOL     OW21553   1.793   1.916  16.455  0.2056 -0.3887 -0.0528
 3365SOL    HW121554   1.706   1.956  16.465  0.3873  0.5370 -2.2974
 3365SOL    HW221555   1.756   1.839  16.413  0.0445  0.2419 -1.0557
 3366SOL     OW21556   2.739   0.418   4.846 -0.0787  0.4397 -0.2217
 3366SOL    HW121557   2.663   0.380   4.890  0.0558  0.2128 -0.1843
 3366SOL    HW221558   2.712   0.508   4.828 -0.9537 -0.0076 -1.1403
 3367SOL     OW21559   3.690   4.272  13.190 -0.0571 -0.0604 -0.1776
 3367SOL    HW121560   3.729   4.335  13.250 -2.4966  2.0336 -0.7936
 3367SOL    HW221561   3.741   4.298  13.113 -2.4716 -1.5402 -2.2933
 3368SOL     OW21562   3.022   4.304   1.611 -0.1690  0.1581  0.2625
 3368SOL    HW121563   3.032   4.387   1.657 -1.2494 -1.1403  2.8595
 3368SOL    HW221564   3.070   4.317   1.529  1.3166 -1.3132  0.8965
 3369SOL     OW21565   2.673   3.557   7.417  0.4732 -0.2236  0.3182
 3369SOL    HW121566   2.757   3.556   7.463 -0.2003  1.8896  1.5926
 3369SOL    HW221567   2.667   3.463   7.400  0.0335  0.0436 -1.0256
 3370SOL     OW21568   3.304   0.596   9.602 -0.2108 -0.0402 -0.2432
 3370SOL    HW121569   3.294   0.502   9.615  1.2199 -0.0386  0.8213
 3370SOL    HW221570   3.254   0.624   9.525 -0.2424  0.2278 -0.1266
 3371SOL     OW21571   1.988   4.619   2.712 -0.5773  0.0567 -0.4134
 3371SOL    HW121572   2.047   4.557   2.669 -0.1287 -0.1827  0.5619
 3371SOL    HW221573   1.908   4.603   2.662 -0.6342  1.3008 -0.7315
 3372SOL     OW21574   1.127   0.155   3.886 -0.2450  0.0704 -0.1979
 3372SOL    HW121575   1.124   0.066   3.852 -1.1383  0.4320 -1.0859
 3372SOL    HW221576   1.145   0.211   3.810 -2.4360 -0.4281 -1.0804
 3373SOL     OW21577   1.638   2.367   7.454  0.1188  0.4457 -0.5161
 3373SOL    HW121578   1.651   2.460   7.474 -0.6440  0.4498 -0.0185
 3373SOL    HW221579   1.707   2.334   7.511  1.4796 -1.2520 -3.1771
 3374SOL     OW21580   2.775   4.445   7.256 -0.0820 -0.3785  0.5278
 3374SOL    HW121581   2.695   4.482   7.293  0.9077  3.3407 -0.9858
 3374SOL    HW221582   2.760   4.353   7.276  1.6534 -0.7705  0.0606
 3375SOL     OW21583   0.997   3.927   7.286  0.0235 -0.0451 -0.1101
 3375SOL    HW121584   0.971   3.943   7.195  2.5899 -0.5385 -0.9439
 3375SOL    HW221585   1.024   4.012   7.319  0.7504 -0.1366 -0.4734
 3376SOL     OW21586   2.566   3.196   5.790 -0.1405  0.6467  0.0402
 3376SOL    HW121587   2.537   3.257   5.723  0.1500  1.4913  0.6728
 3376SOL    HW221588   2.487   3.160   5.830 -0.1066  1.6066  0.9735
 3377SOL     OW21589   3.095   0.356   2.645  0.0035  0.4097  0.3202
 3377SOL    HW121590   3.078   0.334   2.736 -0.6701  1.0894  0.3608
 3377SOL    HW221591   3.187   0.332   2.637 -0.1090  0.4618 -1.1186
 3378SOL     OW21592   3.398   2.501   2.030  0.2046  0.4120 -0.2069
 3378SOL    HW121593   3.311   2.541   2.024 -0.0811 -0.2192 -0.2549
 3378SOL    HW221594   3.383   2.408   2.012  1.4884  0.2117 -0.2098
 3379SOL     OW21595   2.252   0.428   7.062  0.3839  0.1509 -0.5327
 3379SOL    HW121596   2.347   0.424   7.053  0.2623 -1.8887 -0.9732
 3379SOL    HW221597   2.241   0.337   7.090  0.1372  0.0452 -0.9687
 3380SOL     OW21598   0.813   1.487  12.487  0.0124 -0.2199  0.4750
 3380SOL    HW121599   0.905   1.465  12.505  0.0689 -0.0329  0.4170
 3380SOL    HW221600   0.817   1.579  12.462 -1.0815  0.1448  1.6013
 3381SOL     OW21601   1.945   2.598   6.217 -0.7337 -0.2390 -0.2231
 3381SOL    HW121602   1.973   2.523   6.270  0.9197  1.5456  1.3935
 3381SOL    HW221603   1.931   2.662   6.286  0.9031  2.1955 -2.1492
 3382SOL     OW21604   0.603   4.000  11.898 -0.5822  0.5792  0.0121
 3382SOL    HW121605   0.526   4.022  11.951  1.1307  2.5593  1.6841
 3382SOL    HW221606   0.672   4.005  11.964 -3.1678  1.9878  2.6520
 3383SOL     OW21607   1.008   2.821  17.529 -0.3133  0.7577 -0.2232
 3383SOL    HW121608   1.045   2.910  17.521  1.1596  0.2428  0.7174
 3383SOL    HW221609   0.913   2.830  17.535 -0.1047  1.4052  2.6307
 3384SOL     OW21610   1.833   0.006   3.957 -0.2729 -0.2479 -0.1003
 3384SOL    HW121611   1.742   0.027   3.978 -1.1293 -0.4654 -3.5379
 3384SOL    HW221612   1.830   0.051   3.872  1.2922 -1.5518 -0.8473
 3385SOL     OW21613   0.622   1.786   6.625  0.6440 -0.1094 -0.2031
 3385SOL    HW121614   0.585   1.872   6.606  0.0511 -0.6455 -1.4773
 3385SOL    HW221615   0.595   1.737   6.547  0.4659 -1.3663  0.6333
 3386SOL     OW21616   1.808   2.176   9.476 -0.1860  0.4540 -0.2560
 3386SOL    HW121617   1.897   2.210   9.482  0.4345 -1.4854  1.5142
 3386SOL    HW221618   1.766   2.208   9.556  1.3794  0.0863  0.7040
 3387SOL     OW21619   3.592   0.352   1.945 -0.2192 -0.1547  0.0972
 3387SOL    HW121620   3.584   0.290   2.017 -0.6644 -0.4637 -0.2226
 3387SOL    HW221621   3.522   0.319   1.889  1.3750  1.0381 -2.5794
 3388SOL     OW21622   1.574   1.793   4.650  0.0261 -0.2740 -0.5514
 3388SOL    HW121623   1.591   1.877   4.693 -0.1783 -0.5407  0.0481
 3388SOL    HW221624   1.625   1.795   4.569  0.6243  0.3294 -0.1648
 3389SOL     OW21625   3.056   0.546   3.697  0.1116  0.2130  0.4915
 3389SOL    HW121626   3.084   0.633   3.726 -0.0498 -0.0814  1.5244
 3389SOL    HW221627   3.106   0.526   3.618 -0.0988 -0.2741  0.4806
 3390SOL     OW21628   0.053   2.015  12.041 -0.1852  0.3600  0.4156
 3390SOL    HW121629   4.702   1.958  12.070 -0.4849 -0.2859 -1.5534
 3390SOL    HW221630   0.029   2.032  11.950 -0.9165  0.1463  0.5624
 3391SOL     OW21631   3.261   3.787   8.778  0.3631  0.1826 -0.2941
 3391SOL    HW121632   3.227   3.867   8.738 -0.6395  0.1757  0.5602
 3391SOL    HW221633   3.312   3.830   8.847 -2.0537 -0.0414  1.6337
 3392SOL     OW21634   1.889   0.477   8.382  0.7640 -0.2538 -0.4859
 3392SOL    HW121635   1.862   0.529   8.306  0.2956  2.6258  1.6241
 3392SOL    HW221636   1.983   0.491   8.373  1.0959 -1.4035  1.2559
 3393SOL     OW21637   0.235   2.899  15.168  0.5026 -0.0313  0.0702
 3393SOL    HW121638   0.289   2.848  15.108 -0.6717  0.1238 -1.1107
 3393SOL    HW221639   0.173   2.929  15.102 -0.5659 -0.3028  0.9451
 3394SOL     OW21640   1.560   2.814   6.574 -0.1267 -0.2956  0.4505
 3394SOL    HW121641   1.524   2.756   6.506 -1.8525 -1.3476  2.2668
 3394SOL    HW221642   1.518   2.789   6.656 -0.7096  4.0280  1.4794
 3395SOL     OW21643   3.714   2.325   5.100 -0.1582 -0.1898  0.1707
 3395SOL    HW121644   3.682   2.279   5.178 -0.8511  0.9852  0.6014
 3395SOL    HW221645   3.667   2.274   5.035  1.0624 -1.6232  0.4416
 3396SOL     OW21646   2.817   3.187   5.824 -0.2371  0.4098  0.1089
 3396SOL    HW121647   2.732   3.196   5.780  0.5669  1.8396 -1.1390
 3396SOL    HW221648   2.779   3.151   5.904  2.9111  2.7206  2.6363
 3397SOL     OW21649   1.317   0.180  13.183 -0.4495  0.3652 -1.0678
 3397SOL    HW121650   1.257   0.230  13.127 -1.3658  1.5201  0.9549
 3397SOL    HW221651   1.399   0.190  13.135  0.6114 -0.4612  0.5746
 3398SOL     OW21652   4.614   1.114   4.673  0.3441  0.0908  0.1418
 3398SOL    HW121653   4.684   1.179   4.672 -0.5860  1.0921 -2.2380
 3398SOL    HW221654   4.655   1.045   4.724  1.5896 -0.6390 -1.8481
 3399SOL     OW21655   4.002   4.182   7.576  0.0918 -0.6086  0.7324
 3399SOL    HW121656   4.002   4.095   7.537 -1.9327 -1.4991  2.7043
 3399SOL    HW221657   3.940   4.225   7.517 -1.1740  0.2823  2.6922
 3400SOL     OW21658   0.281   0.165   7.938 -0.1869 -0.0372  0.0130
 3400SOL    HW121659   0.291   0.196   7.848  0.2330  0.5832  0.2753
 3400SOL    HW221660   0.292   0.070   7.937  1.1631  0.1392 -1.9173
 3401SOL     OW21661   0.031   0.832   2.817  0.1431  0.5291 -0.7093
 3401SOL    HW121662   4.677   0.858   2.871 -1.5029 -1.3175 -2.0784
 3401SOL    HW221663   0.036   0.742   2.850 -0.5635  0.1167 -1.7305
 3402SOL     OW21664   2.502   3.102   0.084  0.2116  0.3256  0.1571
 3402SOL    HW121665   2.591   3.079   0.112  1.0903  2.0751 -1.2518
 3402SOL    HW221666   2.456   3.084   0.167 -0.8239  1.0657 -0.2588
 3403SOL     OW21667   0.757   2.759   9.235  0.0040 -0.4017 -0.2641
 3403SOL    HW121668   0.738   2.707   9.313  0.6958  2.8019  2.0454
 3403SOL    HW221669   0.849   2.784   9.246  0.3191 -2.0352  0.9163
 3404SOL     OW21670   2.242   0.166   4.630  0.1375 -0.0973  0.5776
 3404SOL    HW121671   2.178   0.142   4.696 -1.5949 -1.7582 -1.7209
 3404SOL    HW221672   2.257   0.257   4.655 -1.7564  0.5399 -0.6616
 3405SOL     OW21673   4.128   3.454   4.702 -0.2464  0.5979  0.0793
 3405SOL    HW121674   4.123   3.466   4.797 -0.4730  2.7882 -0.1969
 3405SOL    HW221675   4.184   3.377   4.695  0.4458  1.1712 -0.7304
 3406SOL     OW21676   3.818   2.484  13.512  0.1813 -0.0110  0.3284
 3406SOL    HW121677   3.786   2.546  13.446  0.0102 -0.0166  0.4065
 3406SOL    HW221678   3.797   2.530  13.594 -0.5115 -3.5175  2.1007
 3407SOL     OW21679   2.999   2.486   1.688 -0.1587 -0.2496 -0.3906
 3407SOL    HW121680   2.963   2.484   1.599  0.8704  0.4644 -0.8318
 3407SOL    HW221681   3.005   2.577   1.717  2.7953 -0.3415 -0.6944
 3408SOL     OW21682   1.940   1.473   7.882  0.0399 -0.0070  0.1756
 3408SOL    HW121683   1.898   1.517   7.808 -1.2540 -0.3695  0.6819
 3408SOL    HW221684   1.936   1.380   7.860 -0.3510 -0.2000  1.0481
 3409SOL     OW21685   0.218   3.119   7.405  0.5396 -0.4960  0.3350
 3409SOL    HW121686   0.276   3.192   7.428  1.7011 -0.5850 -2.3373
 3409SOL    HW221687   0.210   3.130   7.310 -0.9934  2.1234  0.7554
 3410SOL     OW21688   4.250   0.508  11.108 -0.0464 -0.5398  0.3797
 3410SOL    HW121689   4.246   0.412  11.105 -2.2056 -0.4621  0.7623
 3410SOL    HW221690   4.213   0.528  11.022  0.8250  1.0522  0.3872
 3411SOL     OW21691   4.684   3.015   5.528  0.0202 -0.2339  0.2526
 3411SOL    HW121692   4.658   2.923   5.530 -1.1111  0.0481 -1.4558
 3411SOL    HW221693   4.606   3.058   5.493  0.3254 -1.4931 -1.9954
 3412SOL     OW21694   2.549   1.253   5.945 -0.6861  0.0293  0.1525
 3412SOL    HW121695   2.501   1.266   6.026  0.5789  1.1060  0.7116
 3412SOL    HW221696   2.504   1.175   5.909  1.0642 -0.9983  0.2126
 3413SOL     OW21697   1.422   1.720  13.566 -0.2462  0.3941 -0.3332
 3413SOL    HW121698   1.332   1.714  13.534 -1.1696 -0.7936  2.5297
 3413SOL    HW221699   1.449   1.805  13.530  1.4625 -0.3163 -0.7000
 3414SOL     OW21700   3.450   4.418   8.851 -0.2186  0.5414 -0.5039
 3414SOL    HW121701   3.448   4.365   8.771 -2.1842  0.0504 -0.1256
 3414SOL    HW221702   3.383   4.384   8.911  0.6966  1.0687  0.8203
 3415SOL     OW21703   2.310   0.115   8.121 -0.0875  0.1887 -0.1010
 3415SOL    HW121704   2.215   0.115   8.109  0.0003  0.6204 -0.7877
 3415SOL    HW221705   2.342   0.041   8.070  1.2315  1.5224 -1.1980
 3416SOL     OW21706   3.139   1.960  11.345 -0.5649  0.5257  0.1359
 3416SOL    HW121707   3.202   1.967  11.417  2.0652 -2.5936 -1.8320
 3416SOL    HW221708   3.149   1.866  11.336  1.7094  0.5146  2.6920
 3417SOL     OW21709   0.368   3.164  12.228 -0.3666 -0.6553 -0.6895
 3417SOL    HW121710   0.422   3.085  12.229  0.7829  0.1008 -1.9851
 3417SOL    HW221711   0.357   3.181  12.322  0.5113  1.4070 -0.9477
 3418SOL     OW21712   3.618   3.882   7.611 -0.1427 -0.0345 -0.2899
 3418SOL    HW121713   3.566   3.962   7.599 -0.2776  0.1058  1.2835
 3418SOL    HW221714   3.680   3.911   7.677 -0.5616 -2.7752  1.3053
 3419SOL     OW21715   2.488   0.210  11.233  0.1909 -0.0622  0.0495
 3419SOL    HW121716   2.425   0.142  11.208 -0.9504 -0.3678  3.7994
 3419SOL    HW221717   2.460   0.219  11.324  0.2571  0.3445  0.0277
 3420SOL     OW21718   3.290   0.892  10.763  0.0169 -0.0591 -0.3014
 3420SOL    HW121719   3.248   0.924  10.843  1.2985 -2.7492  1.4837
 3420SOL    HW221720   3.371   0.860  10.803 -1.7326  0.0172  3.3127
 3421SOL     OW21721   1.073   1.373   1.749  0.2801  0.4468 -0.4484
 3421SOL    HW121722   1.110   1.457   1.722 -0.5968  1.4760  1.4998
 3421SOL    HW221723   0.979   1.392   1.757  0.1981 -0.6482  1.0309
 3422SOL     OW21724   4.662   0.136  15.007 -0.5348  0.0495  0.4745
 3422SOL    HW121725   4.680   0.149  15.100  1.8933 -0.4917  0.0818
 3422SOL    HW221726   4.636   0.225  14.983  0.2469 -0.0246 -0.6816
 3423SOL     OW21727   0.470   3.762  16.550  0.1797 -0.2661 -0.0282
 3423SOL    HW121728   0.557   3.800  16.533  0.7260 -1.0001  1.1387
 3423SOL    HW221729   0.466   3.757  16.646  0.3482 -0.1930 -0.0174
 3424SOL     OW21730   2.627   4.629  13.981  0.3165 -0.8491  0.1042
 3424SOL    HW121731   2.572   4.612  13.904  2.0302 -1.1438 -1.0477
 3424SOL    HW221732   2.561   4.612  14.049 -0.6514  2.0657 -0.1389
 3425SOL     OW21733   3.585   1.978  10.694  0.1667 -0.4265 -0.1786
 3425SOL    HW121734   3.644   2.041  10.735 -0.5207 -0.3316  0.6634
 3425SOL    HW221735   3.639   1.904  10.664 -0.3148  0.2476 -2.6893
 3426SOL     OW21736   3.425   0.981  16.712  0.1189  0.4599 -0.4657
 3426SOL    HW121737   3.512   0.954  16.684 -1.0161 -3.3866 -0.2869
 3426SOL    HW221738   3.381   0.993  16.628 -0.6816  1.8249  0.1524
 3427SOL     OW21739   1.066   0.302   4.746 -0.2882 -0.1654  0.6434
 3427SOL    HW121740   1.117   0.280   4.668 -2.2061 -0.3560 -0.5740
 3427SOL    HW221741   1.047   0.216   4.784  0.6645 -1.1777 -1.2061
 3428SOL     OW21742   0.019   2.787   6.597  0.9577 -0.0316 -0.2792
 3428SOL    HW121743   0.039   2.809   6.688 -1.5831  0.1600  0.2265
 3428SOL    HW221744   0.077   2.849   6.552  0.9959  0.0030 -0.1822
 3429SOL     OW21745   1.089   2.935   5.933 -0.5029  0.2698  0.3596
 3429SOL    HW121746   1.023   2.996   5.900 -0.5282  0.0837  0.0674
 3429SOL    HW221747   1.040   2.866   5.976 -0.7477  0.1915 -0.0453
 3430SOL     OW21748   1.206   3.499  10.988 -0.0831 -0.2595 -0.5662
 3430SOL    HW121749   1.293   3.528  11.017 -0.0200 -1.5453  0.4969
 3430SOL    HW221750   1.188   3.569  10.924  0.0085  2.1998  2.0910
 3431SOL     OW21751   1.800   4.506  13.965 -0.2825 -0.5317  0.1661
 3431SOL    HW121752   1.868   4.501  14.032  0.2848 -0.1937 -0.3756
 3431SOL    HW221753   1.835   4.442  13.903  0.1176  1.4411 -1.6698
 3432SOL     OW21754   4.515   3.914   0.657 -0.3026 -0.4648  0.1241
 3432SOL    HW121755   4.420   3.902   0.645 -0.3928 -0.8780  1.2225
 3432SOL    HW221756   4.506   4.001   0.696  1.6689 -0.3547  0.3260
 3433SOL     OW21757   1.922   3.943   7.889  0.0932  0.7119  0.7298
 3433SOL    HW121758   1.919   3.915   7.797  0.3707  1.3629  0.5217
 3433SOL    HW221759   1.831   3.936   7.920 -0.3026  1.6192 -0.2237
 3434SOL     OW21760   4.430   1.168   7.642 -0.2039  0.6422 -0.2829
 3434SOL    HW121761   4.424   1.252   7.687  3.5447  1.5639 -1.5362
 3434SOL    HW221762   4.445   1.118   7.722  0.1501 -0.6768 -1.1788
 3435SOL     OW21763   4.128   1.062  14.490  0.1807 -0.3480 -0.2268
 3435SOL    HW121764   4.072   1.116  14.547 -0.2710  1.1311 -2.0895
 3435SOL    HW221765   4.119   1.112  14.409  1.6911  0.1862 -0.0579
 3436SOL     OW21766   3.636   1.966  15.553 -0.5226  0.0207 -0.0594
 3436SOL    HW121767   3.614   2.020  15.629 -0.5705  0.7313 -0.5742
 3436SOL    HW221768   3.708   2.020  15.520  1.2407 -1.7605  0.8887
 3437SOL     OW21769   0.976   3.920   5.273  0.3290 -0.2926 -0.4327
 3437SOL    HW121770   1.008   3.833   5.250 -1.0849 -1.0504  0.4389
 3437SOL    HW221771   1.001   3.923   5.365  0.1150  0.0762 -0.3845
 3438SOL     OW21772   3.555   1.525   0.807  0.7610 -0.0178  0.0065
 3438SOL    HW121773   3.618   1.592   0.782  1.6611 -0.5329  0.9112
 3438SOL    HW221774   3.572   1.512   0.900  3.1620 -1.3097 -0.6122
 3439SOL     OW21775   4.638   4.650   7.912 -0.0817  0.5375  0.7503
 3439SOL    HW121776   4.640   4.554   7.920  0.1141  0.3488 -1.4287
 3439SOL    HW221777   0.003   4.670   7.876 -0.6904  2.0355  0.1374
 3440SOL     OW21778   0.630   1.562   9.245 -0.0918  0.6212  0.6153
 3440SOL    HW121779   0.543   1.548   9.208 -1.0894  0.9752  2.8444
 3440SOL    HW221780   0.615   1.629   9.311  1.4725 -0.3869  1.9920
 3441SOL     OW21781   1.010   2.298   4.081  0.5749  0.6419  0.1481
 3441SOL    HW121782   1.095   2.271   4.045 -0.2208 -0.2775 -1.0362
 3441SOL    HW221783   0.976   2.209   4.086 -0.5212  1.0534  0.0163
 3442SOL     OW21784   0.763   0.434   8.531 -0.0108  0.0227 -0.3289
 3442SOL    HW121785   0.701   0.504   8.513  0.1832 -0.0982 -1.4763
 3442SOL    HW221786   0.791   0.401   8.446  0.1313 -0.2511 -0.1776
 3443SOL     OW21787   2.361   2.253   9.416 -0.3285 -0.5389 -0.5629
 3443SOL    HW121788   2.325   2.232   9.330  1.5945  0.3751 -1.5863
 3443SOL    HW221789   2.324   2.342   9.424  3.9824  1.0688  1.2654
 3444SOL     OW21790   3.714   1.725   5.603 -0.0827 -0.4839 -0.1156
 3444SOL    HW121791   3.769   1.776   5.663 -0.2726  2.2418 -2.2693
 3444SOL    HW221792   3.638   1.782   5.591  1.3374  1.3445 -0.4765
 3445SOL     OW21793   1.935   2.106   7.611  0.5384  0.2543 -0.1352
 3445SOL    HW121794   1.884   2.182   7.641  1.5467  0.0446  2.1087
 3445SOL    HW221795   1.871   2.036   7.623  0.9264  0.0748  0.8678
 3446SOL     OW21796   4.287   1.731  12.345  0.8111 -0.2458 -0.3753
 3446SOL    HW121797   4.251   1.691  12.266 -1.6034  0.1694  0.4895
 3446SOL    HW221798   4.375   1.695  12.348  0.4662 -1.1581 -1.4544
 3447SOL     OW21799   3.673   4.007   7.181  0.5955  0.3747 -0.4064
 3447SOL    HW121800   3.589   3.975   7.213  0.6098  0.9711  0.2230
 3447SOL    HW221801   3.728   3.964   7.246  0.8759  0.2723 -0.7082
 3448SOL     OW21802   3.735   0.391   7.564 -0.1641 -0.0519  0.6080
 3448SOL    HW121803   3.640   0.404   7.563 -0.0675  0.5733 -0.1325
 3448SOL    HW221804   3.746   0.308   7.516 -1.7712  1.0146 -1.6303
 3449SOL     OW21805   0.310   2.596   4.027 -0.2010 -0.0299 -0.4702
 3449SOL    HW121806   0.328   2.690   4.017 -1.1051  0.4310  2.1671
 3449SOL    HW221807   0.289   2.579   3.936 -1.4703  3.0616 -0.7433
 3450SOL     OW21808   1.759   4.012  11.112  0.1816 -0.2373 -0.0054
 3450SOL    HW121809   1.836   4.052  11.153 -0.3147  1.1556 -0.4384
 3450SOL    HW221810   1.711   4.093  11.095 -1.4950 -1.7298 -2.2598
 3451SOL     OW21811   4.196   3.955   3.452  0.2302 -0.0479  0.1938
 3451SOL    HW121812   4.148   3.872   3.453 -1.3919  0.8557 -1.7118
 3451SOL    HW221813   4.246   3.949   3.371  0.8892 -1.4970  0.7055
 3452SOL     OW21814   1.667   3.613   5.171  0.2134  0.1500  0.3050
 3452SOL    HW121815   1.663   3.702   5.137 -0.0424 -0.2364 -0.6669
 3452SOL    HW221816   1.667   3.627   5.266 -1.4281  2.2379 -0.0233
 3453SOL     OW21817   0.348   3.196   4.627  0.2441  0.4968 -0.0213
 3453SOL    HW121818   0.390   3.136   4.689  0.9653 -0.1358 -1.1031
 3453SOL    HW221819   0.293   3.241   4.691 -0.8485  0.4781 -0.9578
 3454SOL     OW21820   3.169   2.648   1.353 -0.1445 -0.1840 -0.8864
 3454SOL    HW121821   3.078   2.668   1.333 -1.0160 -1.5152  1.8660
 3454SOL    HW221822   3.187   2.570   1.301  0.3839 -0.7011  0.0767
 3455SOL     OW21823   1.521   0.094   2.525  0.1971 -0.2035 -0.0381
 3455SOL    HW121824   1.456   0.126   2.587 -0.7152  1.9265 -2.0770
 3455SOL    HW221825   1.479   0.030   2.468 -1.3681  1.3289 -0.5965
 3456SOL     OW21826   2.381   0.591   3.306  0.5483 -0.3463 -0.1324
 3456SOL    HW121827   2.431   0.644   3.368  0.0413  1.7998 -1.5657
 3456SOL    HW221828   2.456   0.533   3.290  0.9155  0.4164 -1.1514
 3457SOL     OW21829   1.585   0.275   3.776 -0.1038 -0.0428 -0.5337
 3457SOL    HW121830   1.654   0.215   3.748  0.7280  0.2200  0.9409
 3457SOL    HW221831   1.627   0.313   3.853 -0.9409 -2.6375  1.1990
 3458SOL     OW21832   2.716   3.913   5.908  0.6963 -0.0197  0.1358
 3458SOL    HW121833   2.775   3.942   5.838  1.8215 -0.9803  0.6749
 3458SOL    HW221834   2.776   3.920   5.983 -1.1927  1.1743  1.5255
 3459SOL     OW21835   0.715   2.029  13.536  0.5941 -0.1016 -0.0539
 3459SOL    HW121836   0.763   2.040  13.618 -2.2532  0.4945  1.5284
 3459SOL    HW221837   0.723   2.119  13.506 -1.8033  0.5011  1.1217
 3460SOL     OW21838   2.557   3.879   5.008  0.0775 -0.2979 -0.3953
 3460SOL    HW121839   2.462   3.880   5.001 -0.0433  3.3100  1.7933
 3460SOL    HW221840   2.574   3.821   4.934  0.2617 -1.0818  0.2640
 3461SOL     OW21841   2.946   3.969   8.830 -0.1942  0.1407  0.3408
 3461SOL    HW121842   2.903   3.983   8.914 -0.6053  0.9118  0.0047
 3461SOL    HW221843   2.871   3.976   8.770  1.1813  1.1005 -1.2617
 3462SOL     OW21844   3.677   0.963   6.606 -0.3134  0.7874 -0.1961
 3462SOL    HW121845   3.656   1.034   6.666  1.2382  0.2841  0.9376
 3462SOL    HW221846   3.620   0.980   6.531 -0.4835 -0.6714 -0.4025
 3463SOL     OW21847   2.518   0.505   5.863 -0.7654 -0.0253 -0.4537
 3463SOL    HW121848   2.540   0.412   5.870 -4.1575 -0.5954  2.6264
 3463SOL    HW221849   2.480   0.499   5.776 -1.0584 -1.5709 -0.2209
 3464SOL     OW21850   2.183   1.038   5.747  0.4050  0.0106  0.5312
 3464SOL    HW121851   2.179   1.074   5.658  0.4450  0.2644  0.6321
 3464SOL    HW221852   2.091   1.033   5.773 -0.0126  0.5943 -0.8052
 3465SOL     OW21853   3.488   4.466   4.746 -0.2162  0.4106  0.5843
 3465SOL    HW121854   3.489   4.499   4.836  0.6248 -0.5026  0.9168
 3465SOL    HW221855   3.477   4.547   4.696 -0.2500  0.5311  0.7862
 3466SOL     OW21856   2.697   3.890  14.764  0.1322  0.3645 -0.1798
 3466SOL    HW121857   2.689   3.967  14.820  1.3341  0.7111 -0.4909
 3466SOL    HW221858   2.620   3.892  14.706  0.2614 -0.0135 -0.3711
 3467SOL     OW21859   2.198   3.367   6.999 -0.0369 -0.2555  0.2899
 3467SOL    HW121860   2.236   3.292   6.953  0.6232  0.3228 -0.1142
 3467SOL    HW221861   2.106   3.343   6.998 -0.0311 -0.3117  1.2704
 3468SOL     OW21862   2.097   1.549   2.461 -0.6895  0.4636  0.0222
 3468SOL    HW121863   2.050   1.467   2.445  3.0162 -1.7293  0.3350
 3468SOL    HW221864   2.071   1.600   2.384  1.3095  1.2683 -0.1248
 3469SOL     OW21865   4.057   4.716  11.950  0.2451 -0.4689  0.3012
 3469SOL    HW121866   4.041   4.633  11.994  0.6531 -1.3250 -1.1864
 3469SOL    HW221867   4.034   0.061  12.016 -0.5428  0.2323 -0.6815
 3470SOL     OW21868   1.123   0.614  12.548  0.0652 -0.3234 -0.8217
 3470SOL    HW121869   1.116   0.709  12.539 -0.8281 -0.4594 -1.5825
 3470SOL    HW221870   1.157   0.598  12.636 -0.0631  1.9023 -0.3626
 3471SOL     OW21871   3.986   3.196  16.213  0.0218  0.4688  0.2487
 3471SOL    HW121872   3.946   3.257  16.275  0.0751 -0.2534  0.9925
 3471SOL    HW221873   4.052   3.157  16.271 -2.1024 -1.1771  1.5504
 3472SOL     OW21874   4.136   2.245   3.328 -0.4439  0.0297 -0.2806
 3472SOL    HW121875   4.141   2.340   3.337 -0.0779  0.0650 -0.8325
 3472SOL    HW221876   4.079   2.220   3.401 -2.5082 -1.2301 -2.3124
 3473SOL     OW21877   0.262   2.673   8.619  0.7423  0.7056 -0.6946
 3473SOL    HW121878   0.288   2.682   8.710 -1.1547  0.4032 -0.1290
 3473SOL    HW221879   0.311   2.744   8.577  2.5886  0.1520  0.5400
 3474SOL     OW21880   0.036   1.961  11.778 -0.0534 -0.3610  0.1763
 3474SOL    HW121881   4.685   2.023  11.766  0.0411 -0.2732  0.0665
 3474SOL    HW221882   0.112   2.005  11.741 -1.0626  0.3186 -1.0886
 3475SOL     OW21883   0.301   0.829   5.280  0.8715 -0.0728  0.2800
 3475SOL    HW121884   0.374   0.768   5.293  1.3915  0.9883  2.3164
 3475SOL    HW221885   0.323   0.905   5.334  0.4100 -0.8693  1.5905
 3476SOL     OW21886   2.525   2.164   4.997 -0.7918  0.6190  0.0749
 3476SOL    HW121887   2.533   2.083   5.048  1.2228  0.9461  0.2806
 3476SOL    HW221888   2.458   2.143   4.933 -1.7304 -0.3330  1.3526
 3477SOL     OW21889   4.224   3.235   7.285 -0.2511 -0.4814 -0.2392
 3477SOL    HW121890   4.172   3.225   7.205  1.5541 -3.0538 -1.0956
 3477SOL    HW221891   4.247   3.143   7.301 -0.8292 -0.6166 -0.2086
 3478SOL     OW21892   4.544   2.862   3.558  0.7278 -0.0278 -0.3233
 3478SOL    HW121893   4.477   2.889   3.621 -0.0305 -1.1870 -0.6406
 3478SOL    HW221894   4.614   2.843   3.621 -0.6407 -0.4408  1.0657
 3479SOL     OW21895   3.656   1.552  17.648 -0.2803 -0.3670 -0.0115
 3479SOL    HW121896   3.651   1.584  17.558  1.5374  1.2593  0.4610
 3479SOL    HW221897   3.663   1.460  17.622  2.2127 -0.7118  1.8534
 3480SOL     OW21898   0.966   4.336  17.482 -0.4526  0.5766 -0.1428
 3480SOL    HW121899   1.004   4.266  17.534 -0.6375  0.9626  0.5251
 3480SOL    HW221900   0.983   4.410  17.541 -1.8399  1.1134 -0.4104
 3481SOL     OW21901   3.370   0.411  12.675 -0.7988 -0.2450 -0.4925
 3481SOL    HW121902   3.419   0.412  12.757 -2.0036  0.8136  0.2148
 3481SOL    HW221903   3.350   0.504  12.666  1.1211  0.2982  0.9103
 3482SOL     OW21904   1.489   3.771  17.676 -0.2113  0.4428 -0.5135
 3482SOL    HW121905   1.469   3.864  17.681 -1.3376  0.2436 -1.2964
 3482SOL    HW221906   1.562   3.771  17.614 -0.0564  1.4467 -0.3184
 3483SOL     OW21907   2.021   4.430   6.317 -0.4879 -0.0631 -0.4229
 3483SOL    HW121908   2.011   4.492   6.390 -2.2522 -0.7053 -0.1109
 3483SOL    HW221909   1.943   4.375   6.327 -1.0803  0.7666 -0.5649
 3484SOL     OW21910   3.602   3.337   8.175 -0.0952  0.1575  0.2666
 3484SOL    HW121911   3.674   3.304   8.121 -1.2392 -0.1406 -1.0509
 3484SOL    HW221912   3.531   3.351   8.113 -0.3173 -0.5655  0.3479
 3485SOL     OW21913   4.709   4.365   7.724 -0.2112 -0.3293  0.1340
 3485SOL    HW121914   4.636   4.304   7.730 -1.2460  0.8360 -0.6156
 3485SOL    HW221915   0.034   4.342   7.804 -0.9224  2.6594  1.3857
 3486SOL     OW21916   2.365   4.062  16.683 -0.0267 -0.5510  0.4027
 3486SOL    HW121917   2.389   4.097  16.769 -2.0767  1.7785 -0.0133
 3486SOL    HW221918   2.428   3.989  16.680 -0.4001 -0.8506 -0.1304
 3487SOL     OW21919   0.181   3.922   6.549 -0.4908 -0.0149  0.4765
 3487SOL    HW121920   0.165   3.843   6.601 -0.2467  0.5009  1.3417
 3487SOL    HW221921   0.234   3.881   6.480 -2.3505  0.3341 -1.1453
 3488SOL     OW21922   2.443   4.316   7.084  0.0095 -0.1967 -0.1691
 3488SOL    HW121923   2.396   4.397   7.101 -1.8756 -1.1674 -0.6910
 3488SOL    HW221924   2.485   4.355   7.007 -1.6897  0.2789 -0.8494
 3489SOL     OW21925   0.895   0.185   9.587  0.0091 -0.1821 -0.1301
 3489SOL    HW121926   0.861   0.194   9.676  1.9534  2.5677  0.3335
 3489SOL    HW221927   0.860   0.268   9.554 -0.6773  0.0271  1.1087
 3490SOL     OW21928   4.436   2.225   0.182 -0.4604  0.1465 -0.3156
 3490SOL    HW121929   4.487   2.300   0.214 -0.7147  0.0167  0.3761
 3490SOL    HW221930   4.487   2.196   0.106 -0.5925  0.0284 -0.3580
 3491SOL     OW21931   4.366   4.618  15.434  0.0394  0.3565  0.1403
 3491SOL    HW121932   4.426   4.584  15.368 -1.1062  3.2830 -2.3863
 3491SOL    HW221933   4.346   4.532  15.472 -1.6498  0.8511  0.3378
 3492SOL     OW21934   2.866   2.822   1.018 -0.1229  0.9281  0.0794
 3492SOL    HW121935   2.949   2.866   1.007 -0.2433  0.0552 -4.1656
 3492SOL    HW221936   2.850   2.801   0.926  1.7532  0.4106 -0.1149
 3493SOL     OW21937   1.142   4.376  13.145  0.2548  0.3179 -0.4613
 3493SOL    HW121938   1.143   4.469  13.170 -0.0515  0.9778 -2.8720
 3493SOL    HW221939   1.052   4.350  13.167  1.2790 -1.9965  0.9491
 3494SOL     OW21940   0.641   0.550   4.561 -0.1315 -0.0390 -0.4822
 3494SOL    HW121941   0.640   0.623   4.623 -2.5189  0.1041 -0.6799
 3494SOL    HW221942   0.734   0.538   4.542  0.0534  0.8896 -0.1857
 3495SOL     OW21943   0.324   3.059   3.941 -0.9509 -0.2206  0.0576
 3495SOL    HW121944   0.356   3.062   4.031 -1.4661  2.4541  0.1423
 3495SOL    HW221945   0.240   3.102   3.951 -0.4882  0.8469 -0.6832
 3496SOL     OW21946   3.531   3.846   1.006 -0.1157 -0.1033  0.5511
 3496SOL    HW121947   3.448   3.895   1.005  0.8999  1.6917  3.0787
 3496SOL    HW221948   3.515   3.781   0.938  1.5152 -0.9823  1.0307
 3497SOL     OW21949   4.062   2.714   5.576 -0.3403  0.2244  0.3148
 3497SOL    HW121950   4.048   2.635   5.523 -0.3258 -0.2985  1.0963
 3497SOL    HW221951   4.093   2.668   5.654 -1.2879 -0.8621  0.0504
 3498SOL     OW21952   0.568   3.268   2.951 -0.3722  0.1491 -0.1413
 3498SOL    HW121953   0.599   3.358   2.960  1.0072 -0.1502 -1.9529
 3498SOL    HW221954   0.646   3.214   2.964  0.4864  1.3159 -0.4967
 3499SOL     OW21955   1.913   2.226  12.441  0.0574 -0.0017  0.2440
 3499SOL    HW121956   1.995   2.265  12.471  1.0605 -2.1314  0.2593
 3499SOL    HW221957   1.876   2.295  12.385  0.8948 -0.5060 -0.9154
 3500SOL     OW21958   3.740   2.531   1.964  0.1178  0.6891 -0.1669
 3500SOL    HW121959   3.811   2.469   1.946 -1.4304 -1.3893  0.9633
 3500SOL    HW221960   3.710   2.544   1.874 -0.2488 -1.6080 -0.3723
 3501SOL     OW21961   3.723   4.246   5.170 -0.1760  0.1856  0.0713
 3501SOL    HW121962   3.666   4.244   5.093  2.3300  0.0873 -1.7936
 3501SOL    HW221963   3.690   4.171   5.219  3.6186 -1.6977 -0.2647
 3502SOL     OW21964   4.132   1.563   2.936  0.5200 -0.1625 -0.3109
 3502SOL    HW121965   4.163   1.487   2.886  2.2019  0.4078 -0.0945
 3502SOL    HW221966   4.176   1.536   3.017  0.3064  0.2519 -0.0583
 3503SOL     OW21967   0.585   1.168  10.707  0.0207  0.3685 -0.2139
 3503SOL    HW121968   0.520   1.103  10.734  0.3264  0.0151 -0.3350
 3503SOL    HW221969   0.546   1.253  10.727  0.1629  0.6375 -1.0621
 3504SOL     OW21970   2.430   1.958   0.614  0.0805 -0.3183  0.2507
 3504SOL    HW121971   2.452   1.920   0.699  0.7412  1.7353  0.9904
 3504SOL    HW221972   2.440   1.887   0.551 -0.8974  0.0352 -0.2971
 3505SOL     OW21973   2.240   0.484   2.459 -0.6751 -0.4159  0.4256
 3505SOL    HW121974   2.247   0.579   2.459 -0.6833 -0.4214  1.5534
 3505SOL    HW221975   2.173   0.482   2.527 -1.1284 -0.4163 -0.0256
 3506SOL     OW21976   4.351   3.003   4.479  0.0237 -0.0039  0.1192
 3506SOL    HW121977   4.409   2.933   4.450  0.7912 -0.3949  2.5656
 3506SOL    HW221978   4.317   3.037   4.396  2.4144  2.7063  0.2748
 3507SOL     OW21979   3.895   3.011  11.176  0.0142 -0.3645  0.2161
 3507SOL    HW121980   3.810   3.010  11.131 -0.8884 -1.2900  1.9416
 3507SOL    HW221981   3.877   2.934  11.230 -0.0239  1.1336  2.3352
 3508SOL     OW21982   3.490   0.160  15.062 -0.1662  0.2834  0.4318
 3508SOL    HW121983   3.524   0.071  15.058  1.4840  0.9130  0.7489
 3508SOL    HW221984   3.435   0.159  14.983  1.4138 -3.4083 -0.5891
 3509SOL     OW21985   4.442   0.369   5.051 -0.0844 -0.1222 -0.2322
 3509SOL    HW121986   4.518   0.417   5.017 -1.3562  1.4831 -0.8087
 3509SOL    HW221987   4.400   0.432   5.110  0.0565 -1.6650  1.5097
 3510SOL     OW21988   0.748   4.339   4.978  0.1926 -0.3736  0.2531
 3510SOL    HW121989   0.763   4.308   4.888  2.4291  1.8501 -0.1412
 3510SOL    HW221990   0.656   4.319   4.993  0.1863 -0.7419 -0.2718
 3511SOL     OW21991   2.522   1.115   4.740 -0.5136  0.5664  0.4801
 3511SOL    HW121992   2.427   1.131   4.743 -0.6483 -0.0404 -0.6779
 3511SOL    HW221993   2.549   1.153   4.824  1.7903 -0.4829  0.1991
 3512SOL     OW21994   1.139   1.102   8.982 -0.4350  0.2961 -0.3077
 3512SOL    HW121995   1.167   1.020   8.942 -1.7663 -0.4782  0.3226
 3512SOL    HW221996   1.211   1.123   9.042  1.6250 -2.9618 -1.6500
 3513SOL     OW21997   2.973   2.173  12.236 -0.2359  0.2956 -0.4965
 3513SOL    HW121998   3.005   2.161  12.325 -0.2434 -0.1271 -0.5535
 3513SOL    HW221999   3.027   2.117  12.181 -2.1381 -0.9883 -1.0546
 3514SOL     OW22000   4.116   3.330  10.007 -0.4480  0.7288 -0.5350
 3514SOL    HW122001   4.080   3.265   9.948 -0.9429  0.2177  0.3252
 3514SOL    HW222002   4.076   3.410   9.972 -1.5849  0.7638  0.8477
 3515SOL     OW22003   3.889   4.601   4.657  0.1719 -0.5606  0.1876
 3515SOL    HW122004   3.834   4.594   4.735 -0.3433  0.3059 -0.1023
 3515SOL    HW222005   3.852   4.534   4.600 -1.2163 -0.6545  1.2010
 3516SOL     OW22006   2.894   3.242   9.408 -0.7167 -0.2741  0.8158
 3516SOL    HW122007   2.936   3.158   9.389 -1.6118 -0.2264 -1.3560
 3516SOL    HW222008   2.834   3.224   9.480  0.7760 -1.4346  1.7826
 3517SOL     OW22009   3.242   1.632   8.128  0.3375 -0.7683 -0.6199
 3517SOL    HW122010   3.261   1.608   8.037  4.5850  1.6823 -0.3558
 3517SOL    HW222011   3.211   1.721   8.112 -1.7521 -1.4703 -0.4984
 3518SOL     OW22012   1.221   1.998   3.978 -0.4256 -0.0697  0.3772
 3518SOL    HW122013   1.295   1.979   4.035  1.0970  1.8567 -0.9261
 3518SOL    HW222014   1.275   2.027   3.904 -0.8214 -0.8035 -0.1950
 3519SOL     OW22015   3.127   0.845   8.219 -0.1079  0.4508  0.6294
 3519SOL    HW122016   3.173   0.848   8.303  1.3251 -0.2705 -0.1091
 3519SOL    HW222017   3.108   0.935   8.196  2.9673  0.7991 -0.5266
 3520SOL     OW22018   1.711   4.001   6.565  0.2927  0.2295  0.1399
 3520SOL    HW122019   1.765   3.939   6.614  2.3622  2.7587  1.0660
 3520SOL    HW222020   1.702   4.067   6.634 -5.6346 -1.5535  1.0399
 3521SOL     OW22021   1.644   2.845   5.930  0.0215  0.6081 -0.0861
 3521SOL    HW122022   1.636   2.880   5.841  0.8689 -0.7779 -0.6998
 3521SOL    HW222023   1.561   2.882   5.960  0.2868  1.6017 -0.5612
 3522SOL     OW22024   3.400   4.620   5.892 -0.9593  0.1258 -0.4211
 3522SOL    HW122025   3.330   4.562   5.862 -0.0966 -0.3255 -1.5267
 3522SOL    HW222026   3.368   4.665   5.971  2.5591  0.6012  0.7101
 3523SOL     OW22027   0.596   0.067   5.476 -0.1723 -0.2913  0.0103
 3523SOL    HW122028   0.526   0.056   5.541  1.1817 -0.8825  1.3772
 3523SOL    HW222029   0.645   4.707   5.491  2.8139  1.1181 -2.1590
 3524SOL     OW22030   4.230   0.610   4.132  0.0525  0.6768  0.7131
 3524SOL    HW122031   4.211   0.677   4.198 -1.7264 -0.8536  1.7377
 3524SOL    HW222032   4.144   0.574   4.108  1.4869 -1.0062 -1.8548
 3525SOL     OW22033   4.456   0.283   2.999  0.8128 -0.2384 -0.8177
 3525SOL    HW122034   4.513   0.278   2.922  1.3144 -0.6672 -0.4137
 3525SOL    HW222035   4.372   0.257   2.961 -0.5712  1.3335  1.1910
 3526SOL     OW22036   2.230   3.284   5.392 -0.4120  0.6255 -0.1256
 3526SOL    HW122037   2.291   3.212   5.376 -2.0646 -0.2097 -2.6718
 3526SOL    HW222038   2.279   3.362   5.415 -0.4761  0.4112  0.7341
 3527SOL     OW22039   1.964   4.256   5.784 -0.5177  0.5078  0.6238
 3527SOL    HW122040   1.953   4.190   5.852 -0.2590 -0.2331 -0.0418
 3527SOL    HW222041   1.973   4.205   5.703 -2.1236  0.9801  0.1501
 3528SOL     OW22042   0.068   2.465  13.279 -0.1598 -0.1608 -0.1651
 3528SOL    HW122043   0.030   2.553  13.281 -2.4342 -1.1221 -2.1000
 3528SOL    HW222044   0.040   2.445  13.368 -1.3081 -0.3163 -0.5618
 3529SOL     OW22045   3.715   2.905   3.226  0.3945  0.1659  0.1859
 3529SOL    HW122046   3.622   2.892   3.207  0.5497 -1.0701  0.2405
 3529SOL    HW222047   3.729   2.888   3.319  1.7244  0.0508 -0.0334
 3530SOL     OW22048   3.688   1.930  16.341  0.8558 -0.2210  0.2279
 3530SOL    HW122049   3.664   1.854  16.393 -1.7764  2.1485  2.5062
 3530SOL    HW222050   3.605   1.947  16.296  0.0995 -1.4991  1.1513
 3531SOL     OW22051   0.965   2.599   0.940 -0.5582 -0.0352 -0.4816
 3531SOL    HW122052   0.947   2.655   0.864  1.8519  1.0777 -0.2250
 3531SOL    HW222053   0.941   2.654   1.015 -0.5562  2.3921 -2.2409
 3532SOL     OW22054   3.320   3.661   4.585  0.2255  0.2693 -0.7170
 3532SOL    HW122055   3.384   3.639   4.653 -0.0371  1.5554 -0.0399
 3532SOL    HW222056   3.335   3.755   4.572  1.9107  0.0558 -0.3199
 3533SOL     OW22057   4.575   2.801   1.097  0.0212  0.1384 -0.0765
 3533SOL    HW122058   4.492   2.829   1.135 -1.3025  0.3229 -3.0856
 3533SOL    HW222059   4.542   2.756   1.018  0.3155 -2.8985  1.5320
 3534SOL     OW22060   4.349   1.280  14.660  0.8714  0.1891  0.8820
 3534SOL    HW122061   4.332   1.196  14.701  2.3234 -0.3123  0.4650
 3534SOL    HW222062   4.439   1.265  14.632  0.8705  0.2177  0.8639
 3535SOL     OW22063   2.574   3.084   6.261  0.0771 -0.3109 -0.4590
 3535SOL    HW122064   2.528   3.168   6.269 -1.5605 -1.6058  3.5906
 3535SOL    HW222065   2.553   3.046   6.346 -1.7318  0.4409 -0.5530
 3536SOL     OW22066   0.252   1.773   9.052  0.4750  0.7510 -0.4088
 3536SOL    HW122067   0.283   1.850   9.004 -1.6106  2.4665  0.9693
 3536SOL    HW222068   0.234   1.812   9.138  1.4388 -0.6325  0.4046
 3537SOL     OW22069   0.317   1.559   3.003  0.5774 -0.0817  0.0865
 3537SOL    HW122070   0.392   1.504   2.978  0.3447  0.1097 -1.0048
 3537SOL    HW222071   0.277   1.596   2.925  1.2189  1.6072  0.5416
 3538SOL     OW22072   1.561   2.303  13.444 -0.1676 -0.0294 -0.0432
 3538SOL    HW122073   1.559   2.312  13.539  3.1480 -2.2515  0.2638
 3538SOL    HW222074   1.576   2.393  13.415 -1.0693  0.0007 -0.4194
 3539SOL     OW22075   2.079   2.484   6.638 -0.5514 -0.1665  0.5724
 3539SOL    HW122076   2.032   2.452   6.715 -1.0484 -0.9849 -0.0723
 3539SOL    HW222077   2.134   2.408   6.618  1.7586  1.0649  2.2957
 3540SOL     OW22078   1.239   1.630   9.616 -0.0972 -0.3645  0.0155
 3540SOL    HW122079   1.144   1.619   9.623 -0.3647  1.5756 -0.8217
 3540SOL    HW222080   1.264   1.658   9.704  0.4733 -0.2612 -0.1763
 3541SOL     OW22081   2.187   3.810   8.027 -0.0767  0.5245 -0.8640
 3541SOL    HW122082   2.195   3.738   8.090  3.0093  0.1306 -1.7101
 3541SOL    HW222083   2.093   3.827   8.018 -0.4711 -0.9397  0.4339
 3542SOL     OW22084   0.872   1.909  11.452 -0.3884 -0.3899  0.1829
 3542SOL    HW122085   0.920   1.862  11.520  0.3392  0.5027  0.2863
 3542SOL    HW222086   0.836   1.979  11.507 -1.1169 -0.1730 -0.5658
 3543SOL     OW22087   4.317   4.378  15.554 -0.4433  0.1400  0.0004
 3543SOL    HW122088   4.397   4.331  15.577 -1.1544  1.2100  4.4851
 3543SOL    HW222089   4.286   4.385  15.644 -2.0329  2.0162 -0.6838
 3544SOL     OW22090   1.468   3.302   7.123  0.6094  0.0163 -0.8247
 3544SOL    HW122091   1.409   3.347   7.063  1.1679 -0.4805 -1.7444
 3544SOL    HW222092   1.454   3.209   7.101 -0.5472  0.5619 -2.4078
 3545SOL     OW22093   2.805   3.795   6.657 -0.3180  0.4834 -0.6540
 3545SOL    HW122094   2.805   3.806   6.752  0.3404 -0.8633 -0.4979
 3545SOL    HW222095   2.710   3.781   6.651 -0.2909  0.8220 -1.9712
 3546SOL     OW22096   4.560   0.742   4.869  0.3177 -0.0187 -0.1667
 3546SOL    HW122097   4.621   0.712   4.936  0.3826  0.0196 -0.2078
 3546SOL    HW222098   4.610   0.816   4.833  1.0705  0.1040  1.1202
 3547SOL     OW22099   2.164   3.125   4.463 -0.3206  0.1661  0.4155
 3547SOL    HW122100   2.106   3.157   4.394  0.7521 -1.7109 -1.3489
 3547SOL    HW222101   2.246   3.149   4.418 -1.6456 -0.0520 -2.1081
 3548SOL     OW22102   4.345   2.137  15.841  0.5755 -0.4851  0.2981
 3548SOL    HW122103   4.431   2.094  15.845  0.3382 -1.0076 -0.1390
 3548SOL    HW222104   4.283   2.067  15.818  1.3297 -1.2541  0.6023
 3549SOL     OW22105   0.711   2.344   8.428  0.6865 -0.7503 -0.1462
 3549SOL    HW122106   0.682   2.409   8.492 -0.7675 -1.3827 -0.1648
 3549SOL    HW222107   0.807   2.349   8.431  0.4904  1.9394  1.3954
 3550SOL     OW22108   3.736   2.312   4.018 -0.1917 -0.1628  0.3167
 3550SOL    HW122109   3.815   2.321   3.964 -1.0798  2.3794 -0.5729
 3550SOL    HW222110   3.694   2.243   3.967 -0.2183  0.7689 -0.9419
 3551SOL     OW22111   2.885   3.203  11.407  0.1622  0.0168  0.1206
 3551SOL    HW122112   2.836   3.173  11.484 -2.3233  0.5727 -1.2439
 3551SOL    HW222113   2.814   3.210  11.343 -0.5561 -2.3112  0.6731
 3552SOL     OW22114   2.199   2.960   8.733  0.4950  0.3768 -0.0801
 3552SOL    HW122115   2.278   2.941   8.782  0.1633 -0.3346  0.1731
 3552SOL    HW222116   2.161   3.028   8.790 -0.1395 -0.5424  0.5978
 3553SOL     OW22117   0.875   1.770   9.530  0.4946 -0.3294 -0.5359
 3553SOL    HW122118   0.909   1.791   9.617 -1.6692  1.1609 -0.0421
 3553SOL    HW222119   0.934   1.701   9.502  1.0159  0.7891 -2.1551
 3554SOL     OW22120   0.422   1.505   4.615 -0.7490 -0.8395  0.1043
 3554SOL    HW122121   0.504   1.553   4.609 -0.8607 -0.5495  0.8336
 3554SOL    HW222122   0.429   1.473   4.705  0.4556 -1.3821 -0.1824
 3555SOL     OW22123   3.077   1.662  11.296 -0.2050  0.1122  0.0524
 3555SOL    HW122124   3.134   1.588  11.275  2.3216  2.7291 -2.3323
 3555SOL    HW222125   3.073   1.655  11.391 -0.7777  0.8968  0.0852
 3556SOL     OW22126   1.575   1.635  17.424  0.0141  0.4277 -0.2115
 3556SOL    HW122127   1.496   1.603  17.466  1.0951 -1.7067  0.1970
 3556SOL    HW222128   1.619   1.554  17.400  0.3509  1.3471 -2.7215
 3557SOL     OW22129   3.269   4.155   6.940 -0.0915  0.2703 -0.0338
 3557SOL    HW122130   3.312   4.069   6.946 -1.4322 -0.3440  0.8776
 3557SOL    HW222131   3.344   4.202   6.904 -0.3354  0.3075 -0.4864
 3558SOL     OW22132   2.059   0.466  16.760  0.3989  0.2567 -0.3111
 3558SOL    HW122133   2.112   0.468  16.840  0.1772  1.6133 -0.1935
 3558SOL    HW222134   2.086   0.383  16.721 -1.9659 -1.4838  1.7779
 3559SOL     OW22135   0.812   0.770   9.046 -0.0802 -0.0282 -0.0421
 3559SOL    HW122136   0.851   0.856   9.061 -2.8679  1.8541 -3.6435
 3559SOL    HW222137   0.865   0.711   9.099  0.4520  1.2985  0.9073
 3560SOL     OW22138   0.566   0.636   8.299 -0.5324  0.1022  0.4822
 3560SOL    HW122139   0.527   0.554   8.268 -2.2720  0.8088  0.7797
 3560SOL    HW222140   0.659   0.616   8.286 -0.6835 -0.5159  0.3385
 3561SOL     OW22141   2.234   3.008   6.390  0.2587 -0.0656 -0.6803
 3561SOL    HW122142   2.314   3.025   6.439  0.4746 -0.6997 -0.8052
 3561SOL    HW222143   2.175   2.969   6.454 -1.6136  1.4455 -1.5032
 3562SOL     OW22144   2.470   1.945  10.262  0.0662 -0.4509 -0.5907
 3562SOL    HW122145   2.499   1.915  10.348 -0.7679  1.3541  0.3247
 3562SOL    HW222146   2.408   2.011  10.292 -0.4873 -1.3697  0.2736
 3563SOL     OW22147   0.749   0.525   5.301 -0.3645  0.1267  0.4691
 3563SOL    HW122148   0.842   0.505   5.311  0.1350  1.0948 -2.3885
 3563SOL    HW222149   0.706   0.458   5.248  1.6252 -1.6581  1.1044
 3564SOL     OW22150   0.533   1.661   2.581  0.1620 -0.5494  0.1511
 3564SOL    HW122151   0.530   1.705   2.666  0.3071  0.9433 -0.6066
 3564SOL    HW222152   0.479   1.587   2.606 -1.7840  0.5798 -0.7612
 3565SOL     OW22153   3.121   0.125   7.988 -0.3076  0.0652 -0.3157
 3565SOL    HW122154   3.088   0.135   8.077 -2.4247  0.9034 -1.1860
 3565SOL    HW222155   3.212   0.109   8.010 -0.6098 -2.2227 -0.7016
 3566SOL     OW22156   2.479   1.673   9.791 -0.1750 -0.4182  0.3904
 3566SOL    HW122157   2.515   1.708   9.710 -1.5483 -0.5863 -0.2841
 3566SOL    HW222158   2.553   1.700   9.844  1.2169 -2.8138 -0.3191
 3567SOL     OW22159   2.448   3.726   4.773  0.4479 -0.1467  0.7017
 3567SOL    HW122160   2.368   3.776   4.786  0.6608  1.2308 -3.0965
 3567SOL    HW222161   2.415   3.644   4.810 -0.5956 -1.1379 -2.4418
 3568SOL     OW22162   4.150   1.081  12.897 -0.0660 -0.5439 -0.2670
 3568SOL    HW122163   4.144   1.026  12.975  0.1927  0.3405  0.3793
 3568SOL    HW222164   4.077   1.142  12.908  0.6969  0.4708 -0.8703
 3569SOL     OW22165   3.334   3.970   5.190  0.6673 -0.5185 -0.2012
 3569SOL    HW122166   3.349   3.906   5.120  0.0728 -0.3640 -0.4662
 3569SOL    HW222167   3.243   3.953   5.214  1.1686  0.4203  2.3452
 3570SOL     OW22168   0.464   0.347   8.266  0.0142 -0.0773 -0.0666
 3570SOL    HW122169   0.431   0.396   8.191  0.2214  0.2535  0.0583
 3570SOL    HW222170   0.378   0.333   8.307  0.8354 -1.6943  1.0739
 3571SOL     OW22171   3.171   3.295   5.155 -0.2578 -0.0230  0.1230
 3571SOL    HW122172   3.107   3.308   5.225 -1.1265  3.0732 -1.2608
 3571SOL    HW222173   3.112   3.247   5.098  0.7575 -0.0362 -0.9183
 3572SOL     OW22174   3.573   0.609   4.614 -0.2154  0.3319  0.1553
 3572SOL    HW122175   3.497   0.620   4.671 -1.5105  0.9035 -1.7040
 3572SOL    HW222176   3.605   0.529   4.656 -2.8318 -0.3368  0.8307
 3573SOL     OW22177   3.315   1.265  17.259 -0.3039 -0.3193 -0.1529
 3573SOL    HW122178   3.310   1.300  17.170  1.2562  0.3045  0.0059
 3573SOL    HW222179   3.364   1.329  17.310 -0.1698 -0.6766  0.1644
 3574SOL     OW22180   4.294   0.696   2.229  0.0714  0.2289  0.0110
 3574SOL    HW122181   4.199   0.700   2.228  0.0352 -1.1077 -2.8208
 3574SOL    HW222182   4.313   0.698   2.135  2.0241 -0.1383  0.3867
 3575SOL     OW22183   1.652   2.310   9.267 -0.5150 -0.3090 -0.1096
 3575SOL    HW122184   1.722   2.288   9.328 -0.4036  0.8321  0.1840
 3575SOL    HW222185   1.684   2.386   9.218 -1.5582  0.1667 -0.0540
 3576SOL     OW22186   2.342   1.765   8.926  0.6068  0.6737  0.3093
 3576SOL    HW122187   2.342   1.824   8.850 -2.2350  1.1521  0.6678
 3576SOL    HW222188   2.269   1.708   8.901 -0.3711  2.2886 -0.5364
 3577SOL     OW22189   0.668   4.383  15.864  0.2793 -0.4099  0.0504
 3577SOL    HW122190   0.590   4.340  15.827  1.5770 -2.4431 -0.3727
 3577SOL    HW222191   0.662   4.463  15.812 -1.5611 -0.1400  0.7013
 3578SOL     OW22192   1.855   4.519   7.462  0.4719 -0.2218  0.5256
 3578SOL    HW122193   1.840   4.425   7.468  1.7830 -0.4434  0.1585
 3578SOL    HW222194   1.781   4.548   7.515  0.2716  0.1676  0.0399
 3579SOL     OW22195   0.953   0.447   2.170 -0.6627  0.0225  0.5899
 3579SOL    HW122196   0.860   0.443   2.194 -0.7468  0.7518  0.3990
 3579SOL    HW222197   0.946   0.533   2.128  0.9697 -0.9118 -1.6038
 3580SOL     OW22198   4.238   3.530   5.845  0.1962 -0.0640  0.1120
 3580SOL    HW122199   4.322   3.565   5.814 -0.4581  1.8767  0.5231
 3580SOL    HW222200   4.191   3.610   5.869  1.3535  1.4345 -2.6391
 3581SOL     OW22201   0.834   4.112  13.745  0.0503 -0.8331 -0.0333
 3581SOL    HW122202   0.792   4.086  13.827  2.9105 -1.2205  1.2844
 3581SOL    HW222203   0.912   4.057  13.741  1.0805  0.7488 -1.3533
 3582SOL     OW22204   3.315   3.096   0.908 -0.1547 -0.0823 -0.0226
 3582SOL    HW122205   3.229   3.136   0.919 -0.1981  0.0457 -0.8587
 3582SOL    HW222206   3.314   3.020   0.966 -0.5766  0.0256  0.1090
 3583SOL     OW22207   1.151   3.954   2.536  0.1347  0.8020 -0.0140
 3583SOL    HW122208   1.097   4.015   2.486 -1.3504  0.7168  1.4679
 3583SOL    HW222209   1.096   3.938   2.613 -0.1926 -0.5130 -0.5305
 3584SOL     OW22210   0.195   2.240  13.910  0.3258  0.4191  0.1224
 3584SOL    HW122211   0.264   2.282  13.961  1.0290  0.0445 -0.5218
 3584SOL    HW222212   0.140   2.184  13.964  1.7308 -0.7873  0.2736
 3585SOL     OW22213   1.562   2.348   6.684  0.4037 -0.0641  0.0979
 3585SOL    HW122214   1.624   2.421   6.694  0.0644 -0.0655  2.1870
 3585SOL    HW222215   1.617   2.283   6.639 -0.9950 -1.6667  0.7178
 3586SOL     OW22216   2.097   2.595   1.914  0.2170 -0.6638 -0.3175
 3586SOL    HW122217   2.117   2.653   1.841  0.5573  0.3913  0.6248
 3586SOL    HW222218   2.009   2.624   1.937 -0.0953 -1.8777  0.0386
 3587SOL     OW22219   2.776   1.108  13.069 -0.0759 -0.7663 -0.4529
 3587SOL    HW122220   2.796   1.196  13.038  0.0245 -0.2091  1.1563
 3587SOL    HW222221   2.770   1.125  13.163  1.0829 -0.8958 -0.3522
 3588SOL     OW22222   0.895   3.444  14.952  0.2682 -0.0603 -0.1219
 3588SOL    HW122223   0.976   3.481  14.986  0.0919 -1.5368  1.8717
 3588SOL    HW222224   0.842   3.413  15.025  1.5790 -0.5563  0.6121
 3589SOL     OW22225   2.359   0.985   0.368  0.2208 -0.2278 -0.3464
 3589SOL    HW122226   2.284   0.997   0.310  1.9317  1.3929 -2.2706
 3589SOL    HW222227   2.389   0.897   0.345 -0.4455 -0.3143 -0.8665
 3590SOL     OW22228   4.379   2.773   7.831 -0.4815  0.7499 -0.4716
 3590SOL    HW122229   4.359   2.741   7.918  0.3310  0.2575 -0.4735
 3590SOL    HW222230   4.320   2.849   7.829 -2.4352 -0.8001 -1.6137
 3591SOL     OW22231   2.341   2.000   8.711  0.6830  0.3927  0.3756
 3591SOL    HW122232   2.323   2.087   8.676  1.8444  0.4778 -0.0179
 3591SOL    HW222233   2.420   1.979   8.661 -0.4172  2.4724 -2.2134
 3592SOL     OW22234   0.074   3.363  13.193 -0.3675  0.0910  0.6174
 3592SOL    HW122235   0.055   3.354  13.099  0.2442  0.3995  0.4662
 3592SOL    HW222236   0.123   3.445  13.189 -0.8350  0.3640  0.3986
 3593SOL     OW22237   3.120   1.628   8.802  0.1909 -0.0111  0.6554
 3593SOL    HW122238   3.106   1.546   8.756  1.1443  0.2336 -0.0516
 3593SOL    HW222239   3.192   1.594   8.855  1.6674 -0.9434 -1.9395
 3594SOL     OW22240   2.100   1.990   7.450 -0.6633  0.4015 -0.3105
 3594SOL    HW122241   2.025   2.026   7.495 -1.3842 -1.5065  0.0399
 3594SOL    HW222242   2.158   1.975   7.525 -0.6663  1.3858 -0.1126
 3595SOL     OW22243   2.459   4.277   3.478  0.1491 -0.6038 -0.1587
 3595SOL    HW122244   2.365   4.293   3.485  0.3423  0.2504  0.5482
 3595SOL    HW222245   2.490   4.360   3.514 -0.9247  0.4056 -1.5261
 3596SOL     OW22246   3.048   3.896   0.354 -0.5944 -0.1849  0.5152
 3596SOL    HW122247   3.020   3.916   0.265 -0.4142 -1.5513  0.1546
 3596SOL    HW222248   2.991   3.959   0.398 -1.4016 -1.7920  1.7713
 3597SOL     OW22249   2.066   4.564  12.147 -0.0301  0.4418  0.5763
 3597SOL    HW122250   2.020   4.489  12.110  1.7447 -0.3589 -0.0060
 3597SOL    HW222251   2.138   4.519  12.193 -0.9095 -0.7748  0.7707
 3598SOL     OW22252   3.213   1.204   8.098  0.5265 -0.5290 -0.0041
 3598SOL    HW122253   3.261   1.211   8.181  2.0092 -0.9274 -0.8398
 3598SOL    HW222254   3.275   1.170   8.035  3.4084  1.9811  1.4755
 3599SOL     OW22255   3.003   2.881   1.916  0.6493  0.3086  1.0195
 3599SOL    HW122256   2.981   2.974   1.916 -1.5504 -0.1982  0.2056
 3599SOL    HW222257   2.992   2.861   2.009 -1.2004  0.2497  0.7949
 3600SOL     OW22258   1.309   3.590  10.679 -0.1987 -0.0728  0.4140
 3600SOL    HW122259   1.357   3.543  10.748  0.4079  0.2733  0.2297
 3600SOL    HW222260   1.222   3.591  10.718 -1.4850  0.5489 -2.4451
 3601SOL     OW22261   0.294   4.352   5.924 -0.7374  0.0396  0.1637
 3601SOL    HW122262   0.336   4.427   5.968 -1.9688  1.7788 -1.6285
 3601SOL    HW222263   0.293   4.389   5.836 -0.3159 -1.4179 -0.4408
 3602SOL     OW22264   3.358   1.451   0.644  0.3456  0.4760  0.1308
 3602SOL    HW122265   3.355   1.523   0.582 -1.9223  0.7920  0.6028
 3602SOL    HW222266   3.419   1.473   0.716 -0.5644  0.7121  0.8290
 3603SOL     OW22267   1.434   0.082   0.175 -0.2103  0.7703  0.3440
 3603SOL    HW122268   1.468   4.718   0.205 -0.6562  0.1894 -0.7789
 3603SOL    HW222269   1.453   0.141   0.248  0.1810  3.5330 -2.0067
 3604SOL     OW22270   0.145   2.206   4.003  0.1825 -0.4396  0.2674
 3604SOL    HW122271   0.058   2.238   3.980  0.1046 -0.7971  0.0765
 3604SOL    HW222272   0.136   2.239   4.093 -0.5864  3.3536 -1.2234
 3605SOL     OW22273   0.067   4.427   0.697  0.3814 -0.0971 -0.1055
 3605SOL    HW122274   4.699   4.457   0.714 -0.3960 -1.7856 -1.2480
 3605SOL    HW222275   0.059   4.332   0.690  0.4795 -0.0456 -0.9234
 3606SOL     OW22276   0.672   4.019   3.163  0.6343  0.6117 -0.9047
 3606SOL    HW122277   0.686   4.093   3.105  2.3146 -0.1650 -1.4905
 3606SOL    HW222278   0.764   3.993   3.162 -0.5262 -3.6030 -0.1948
 3607SOL     OW22279   3.745   2.935   2.412 -0.5804  0.1381 -0.1749
 3607SOL    HW122280   3.741   2.890   2.496  0.5036 -2.9786 -1.8273
 3607SOL    HW222281   3.774   3.018   2.451  1.9498 -0.2720 -1.2664
 3608SOL     OW22282   2.123   0.144   6.348  0.3956 -0.3321  0.1658
 3608SOL    HW122283   2.205   0.098   6.366  0.1142 -0.5375  0.9135
 3608SOL    HW222284   2.166   0.204   6.286 -1.7207  0.3561 -0.6529
 3609SOL     OW22285   1.692   0.945   7.748  0.0923  0.4602 -0.6755
 3609SOL    HW122286   1.602   0.934   7.718 -0.2483  2.9136 -0.5697
 3609SOL    HW222287   1.686   1.007   7.821 -0.0468  0.0365 -0.3266
 3610SOL     OW22288   0.553   1.788   5.593 -0.1537 -0.0719 -0.2921
 3610SOL    HW122289   0.574   1.854   5.659 -0.8992 -1.4684  1.3311
 3610SOL    HW222290   0.471   1.826   5.561 -0.6223  0.4401  1.5125
 3611SOL     OW22291   3.395   2.132   3.145  0.0671 -0.4996 -0.1518
 3611SOL    HW122292   3.425   2.222   3.153 -2.7680  0.4894 -0.7095
 3611SOL    HW222293   3.304   2.152   3.126  0.3935  0.3295 -0.8643
 3612SOL     OW22294   0.804   3.758   6.766  0.4162  0.1621  0.4069
 3612SOL    HW122295   0.717   3.746   6.730  0.4675  0.3598  0.2202
 3612SOL    HW222296   0.855   3.761   6.685  1.8943  0.9105  1.3518
 3613SOL     OW22297   0.437   0.967  17.281  0.5211  0.5776  0.1999
 3613SOL    HW122298   0.379   0.944  17.208 -0.3871 -0.7674  1.3648
 3613SOL    HW222299   0.403   0.947  17.367 -2.6311 -1.3105 -1.5079
 3614SOL     OW22300   0.321   3.792   4.315 -0.0368  0.5318 -0.4777
 3614SOL    HW122301   0.286   3.712   4.356  2.2397  0.0378  0.4997
 3614SOL    HW222302   0.409   3.766   4.287 -0.9127 -1.5823 -1.3321
 3615SOL     OW22303   0.782   0.719   4.731 -0.2043 -0.2362 -0.2822
 3615SOL    HW122304   0.818   0.630   4.723 -0.8768 -0.6847  1.8163
 3615SOL    HW222305   0.857   0.759   4.775 -0.8631 -2.2615  2.6387
 3616SOL     OW22306   1.551   2.430   5.863  0.1576 -0.0490 -0.6243
 3616SOL    HW122307   1.614   2.491   5.826  1.2057 -0.9103 -0.2506
 3616SOL    HW222308   1.493   2.496   5.901  0.4446  0.8441 -1.7353
 3617SOL     OW22309   4.260   3.824   4.270  0.3523  0.0015  0.3175
 3617SOL    HW122310   4.178   3.834   4.222  0.7615  2.0923  0.0831
 3617SOL    HW222311   4.250   3.886   4.342 -1.3809  3.8342 -3.2678
 3618SOL     OW22312   1.147   2.955  12.817  0.4548 -0.3579  0.1519
 3618SOL    HW122313   1.201   2.962  12.738 -0.1653 -1.9750 -0.4202
 3618SOL    HW222314   1.139   2.861  12.834 -0.7949 -0.4796 -1.1380
 3619SOL     OW22315   3.862   3.985  10.540  0.4180  0.2461 -0.3942
 3619SOL    HW122316   3.826   3.930  10.609 -1.1367 -0.6053 -1.8867
 3619SOL    HW222317   3.931   3.934  10.497 -1.1449 -2.6824  0.5940
 3620SOL     OW22318   4.611   0.847   2.033 -0.5693 -0.3503  0.0599
 3620SOL    HW122319   4.668   0.889   1.968 -0.8422 -0.5336 -0.3012
 3620SOL    HW222320   4.585   0.773   1.977  2.1231 -1.0892 -0.2374
 3621SOL     OW22321   0.400   2.771   6.127 -0.4046  0.1751  0.4917
 3621SOL    HW122322   0.473   2.761   6.188 -1.8604 -1.6321  1.9417
 3621SOL    HW222323   0.451   2.779   6.047 -2.0243  0.4993 -0.4934
 3622SOL     OW22324   4.354   2.997   7.339 -0.6824 -0.1140  0.0284
 3622SOL    HW122325   4.362   2.982   7.433 -0.3688 -1.8287 -0.2677
 3622SOL    HW222326   4.419   3.067   7.328 -2.0580  1.1303 -0.0767
 3623SOL     OW22327   2.370   4.426   3.864 -0.2344 -0.6277 -0.0765
 3623SOL    HW122328   2.301   4.447   3.926 -0.1068 -2.7484  0.7906
 3623SOL    HW222329   2.378   4.498   3.802  0.1614 -0.6696 -0.0752
 3624SOL     OW22330   3.724   1.092   5.219  0.3421  0.5809  0.3406
 3624SOL    HW122331   3.679   1.009   5.203  1.1901 -0.0035  0.9874
 3624SOL    HW222332   3.686   1.114   5.304 -0.6369  0.5856 -0.0930
 3625SOL     OW22333   2.102   4.107  16.096  0.2049 -0.0558 -0.3941
 3625SOL    HW122334   2.052   4.147  16.025  1.1831  1.3227 -0.3073
 3625SOL    HW222335   2.141   4.035  16.047 -2.0756 -1.4607 -0.1318
 3626SOL     OW22336   0.572   3.003   4.321 -0.3782 -0.2397 -0.7225
 3626SOL    HW122337   0.656   2.972   4.355 -0.1201  0.5893 -0.6152
 3626SOL    HW222338   0.592   3.076   4.263 -0.1869  1.1255  1.0711
 3627SOL     OW22339   3.138   1.029   2.955  0.4264 -0.2813  0.0837
 3627SOL    HW122340   3.139   1.071   2.869  1.3052 -0.0831  0.1919
 3627SOL    HW222341   3.071   1.076   3.004  1.2181  0.5793  0.3263
 3628SOL     OW22342   2.380   4.431  16.871 -0.1104 -0.4961 -0.0420
 3628SOL    HW122343   2.288   4.453  16.857 -0.2588 -0.7624  0.5057
 3628SOL    HW222344   2.411   4.466  16.788 -0.4369 -1.3740 -0.5328
 3629SOL     OW22345   0.232   4.475  17.340 -0.8330 -0.4906  0.1395
 3629SOL    HW122346   0.317   4.518  17.351 -2.3650  2.8549 -1.2183
 3629SOL    HW222347   0.178   4.549  17.311  2.5133  1.5252 -0.9585
 3630SOL     OW22348   0.302   3.797   6.368  0.0368 -0.3886 -0.7398
 3630SOL    HW122349   0.358   3.727   6.332 -0.0537 -0.6939 -0.2881
 3630SOL    HW222350   0.223   3.779   6.316 -1.3536  0.9238  0.9548
 3631SOL     OW22351   4.369   1.290   1.841  0.3231 -0.3146  0.1173
 3631SOL    HW122352   4.347   1.281   1.749  0.4157  0.8055 -0.0167
 3631SOL    HW222353   4.383   1.199   1.866  1.5211 -0.3474 -0.6746
 3632SOL     OW22354   3.307   0.129  16.756  0.3313 -0.1312  0.1707
 3632SOL    HW122355   3.356   0.160  16.680 -0.4182 -1.2413 -0.7590
 3632SOL    HW222356   3.254   0.054  16.729  2.3328 -0.9657 -1.4252
 3633SOL     OW22357   2.540   3.411  16.780 -0.1019  0.3621  0.0136
 3633SOL    HW122358   2.508   3.501  16.779 -0.4302  0.2163 -2.1302
 3633SOL    HW222359   2.460   3.359  16.777 -0.4176  0.6473  3.0370
 3634SOL     OW22360   4.063   0.836   2.558  0.0347  0.3876  0.2939
 3634SOL    HW122361   4.155   0.813   2.547  0.0030  1.2379 -1.7723
 3634SOL    HW222362   4.023   0.801   2.479  1.5541 -1.1165  0.2115
 3635SOL     OW22363   4.582   3.479   5.706  0.3488 -0.1374 -0.0323
 3635SOL    HW122364   4.570   3.428   5.625 -2.1468  0.8797 -0.3176
 3635SOL    HW222365   4.636   3.417   5.755  1.2673  2.1505  1.8162
 3636SOL     OW22366   2.279   1.243   4.642  0.5276 -0.1437 -0.5226
 3636SOL    HW122367   2.284   1.269   4.550  2.8567  1.5047  0.0748
 3636SOL    HW222368   2.255   1.332   4.670 -0.7913 -0.8139  0.4567
 3637SOL     OW22369   0.805   1.315   9.586 -0.7093  0.1622 -0.0323
 3637SOL    HW122370   0.822   1.248   9.652  2.0182  2.4195  1.5243
 3637SOL    HW222371   0.773   1.387   9.640 -2.0276 -0.0268 -0.5403
 3638SOL     OW22372   0.472   0.385   5.451  0.0980  0.3062 -0.0674
 3638SOL    HW122373   0.481   0.391   5.356 -2.4860  1.5526 -0.2516
 3638SOL    HW222374   0.445   0.293   5.450 -0.3847  0.4338  0.8525
 3639SOL     OW22375   0.641   1.054  12.668  0.1084 -0.4685 -0.6537
 3639SOL    HW122376   0.724   1.066  12.621 -0.1558 -2.5001 -1.6558
 3639SOL    HW222377   0.635   0.960  12.650  1.6482 -0.6456 -0.2585
 3640SOL     OW22378   2.899   3.914   4.245  0.4526  0.0806  0.4439
 3640SOL    HW122379   2.953   3.834   4.244  1.3658  0.7114 -0.8317
 3640SOL    HW222380   2.921   3.930   4.153  1.9635 -1.3999  0.5260
 3641SOL     OW22381   0.889   2.813   2.118 -0.4968 -0.0126  0.1964
 3641SOL    HW122382   0.900   2.875   2.046 -0.8326 -1.4723 -1.1219
 3641SOL    HW222383   0.901   2.729   2.073 -2.1638 -0.4190  0.5232
 3642SOL     OW22384   4.312   4.477   8.384  0.0974 -0.0814  0.0672
 3642SOL    HW122385   4.352   4.551   8.338  1.8137 -0.1745  1.4015
 3642SOL    HW222386   4.378   4.408   8.387  0.7868  0.6627  2.0336
 3643SOL     OW22387   3.187   2.309   6.538 -0.0698 -0.1190  0.0641
 3643SOL    HW122388   3.149   2.348   6.459 -0.5961 -1.0122 -0.1309
 3643SOL    HW222389   3.113   2.263   6.580 -0.9450 -1.3934 -2.8368
 3644SOL     OW22390   2.946   0.817  14.517 -0.1228 -0.5055  0.1095
 3644SOL    HW122391   2.869   0.767  14.545 -0.7382  0.4563  0.1166
 3644SOL    HW222392   2.955   0.808  14.422  2.9399  0.3412  0.3099
 3645SOL     OW22393   1.581   1.936  10.445 -0.2649  0.1264 -0.1160
 3645SOL    HW122394   1.649   1.903  10.386  1.6036  0.6426  1.7419
 3645SOL    HW222395   1.549   2.004  10.386 -0.9054 -0.4708 -0.4521
 3646SOL     OW22396   0.108   1.296   2.326  0.1039  0.2483  0.5061
 3646SOL    HW122397   0.138   1.235   2.258 -1.3848 -0.2715  0.3007
 3646SOL    HW222398   0.043   1.247   2.377  0.8174  0.9971  2.1007
 3647SOL     OW22399   1.718   0.405   0.503 -0.2881  0.3561  0.6320
 3647SOL    HW122400   1.727   0.500   0.509  0.8095  0.1823  1.6713
 3647SOL    HW222401   1.713   0.373   0.593 -0.9459 -0.0649  0.4493
 3648SOL     OW22402   1.070   3.955   2.823  0.2584  0.2834 -0.1361
 3648SOL    HW122403   1.071   4.051   2.822  0.0594  0.3052  1.8181
 3648SOL    HW222404   1.153   3.923   2.858  1.3071  2.5143 -0.5712
 3649SOL     OW22405   0.621   1.526  14.735 -0.0085  0.1920 -0.5856
 3649SOL    HW122406   0.590   1.444  14.695  1.8294 -0.6648 -0.2380
 3649SOL    HW222407   0.654   1.573  14.659 -0.3806 -0.1168 -0.9433
 3650SOL     OW22408   0.419   2.984   5.357 -0.2881  0.3679  0.3033
 3650SOL    HW122409   0.357   3.042   5.400  0.0784  0.5778  0.5567
 3650SOL    HW222410   0.482   3.041   5.313  1.3026  0.2482  2.3848
 3651SOL     OW22411   4.283   4.320  13.837  0.2686  0.8958  0.3264
 3651SOL    HW122412   4.358   4.372  13.864  0.7572  0.5642 -0.3955
 3651SOL    HW222413   4.281   4.333  13.742  0.9047 -0.4061  0.1269
 3652SOL     OW22414   1.655   1.085  11.136 -0.0992  0.0714 -0.0727
 3652SOL    HW122415   1.643   1.053  11.225 -3.2103  2.7660  0.4824
 3652SOL    HW222416   1.623   1.175  11.141 -2.7378 -0.7870 -1.1978
 3653SOL     OW22417   4.578   0.429   4.280 -0.6555  0.3910  0.4857
 3653SOL    HW122418   4.515   0.402   4.347 -1.2604 -0.6963 -0.5305
 3653SOL    HW222419   4.523   0.410   4.204  2.4351 -0.0385 -1.6351
 3654SOL     OW22420   0.089   4.151   3.977 -0.2746 -0.1128  0.2793
 3654SOL    HW122421   0.150   4.090   4.018 -0.9715 -0.5551  0.6545
 3654SOL    HW222422   0.148   4.223   3.953  0.0187 -0.3347  0.3317
 3655SOL     OW22423   0.068   4.249  11.854  0.0720 -0.1222 -0.2752
 3655SOL    HW122424   0.162   4.247  11.875  0.0368 -0.9026 -0.2235
 3655SOL    HW222425   0.025   4.284  11.932 -0.2628  0.0371 -0.5325
 3656SOL     OW22426   3.386   2.544   9.498  1.0327 -0.0229  0.0555
 3656SOL    HW122427   3.347   2.575   9.417  1.9048 -0.3083 -0.4853
 3656SOL    HW222428   3.478   2.568   9.481  1.4359 -0.5127  1.5737
 3657SOL     OW22429   4.161   2.090   3.858  0.2696  0.4550  0.3189
 3657SOL    HW122430   4.187   2.020   3.918 -2.7210 -1.4738 -0.6122
 3657SOL    HW222431   4.245   2.128   3.831  0.1708 -0.3504 -1.1336
 3658SOL     OW22432   3.312   2.251   7.310 -0.1150  0.1864 -0.1274
 3658SOL    HW122433   3.223   2.219   7.324  0.6934 -2.7347 -1.6609
 3658SOL    HW222434   3.327   2.203   7.228 -0.6988  0.4030 -0.3566
 3659SOL     OW22435   3.247   1.917   0.425 -0.3438 -0.3823 -0.4249
 3659SOL    HW122436   3.218   1.951   0.341  1.1902  1.4556 -0.2092
 3659SOL    HW222437   3.203   1.981   0.482  0.0752  1.1589 -1.8260
 3660SOL     OW22438   2.485   4.694   7.647  0.3042  0.6888 -0.3910
 3660SOL    HW122439   2.551   4.650   7.593  0.4200 -0.3673  0.6098
 3660SOL    HW222440   2.429   4.619   7.670  1.3041  0.0013 -0.1876
 3661SOL     OW22441   0.913   4.584   7.739  0.0726  0.1391  0.3714
 3661SOL    HW122442   0.921   4.679   7.746 -0.3278  0.3473 -1.9040
 3661SOL    HW222443   0.824   4.559   7.763 -0.7557  1.0418 -1.7037
 3662SOL     OW22444   0.155   3.319  17.334 -0.6604 -0.3710 -0.3469
 3662SOL    HW122445   0.143   3.379  17.407 -1.6312 -0.0736 -0.7481
 3662SOL    HW222446   0.248   3.314  17.314 -0.5799 -0.1409 -0.0209
 3663SOL     OW22447   4.194   4.361  16.842 -0.0820  0.2308  0.0237
 3663SOL    HW122448   4.110   4.332  16.879 -0.8835 -0.8258 -2.6000
 3663SOL    HW222449   4.251   4.346  16.918 -2.1096 -3.1106  0.9041
 3664SOL     OW22450   1.894   3.162  17.445  0.0001 -0.5635  0.5814
 3664SOL    HW122451   1.824   3.170  17.509  0.0346  1.4997  0.3576
 3664SOL    HW222452   1.841   3.173  17.365  0.8199 -0.2501  0.0855
 3665SOL     OW22453   3.906   3.871   0.814 -0.0629  0.0262  0.1369
 3665SOL    HW122454   3.832   3.931   0.825 -1.0735 -1.0192 -0.9546
 3665SOL    HW222455   3.949   3.932   0.753 -1.6170 -0.2074 -1.1883
 3666SOL     OW22456   4.449   0.661   9.122  0.5625  0.4907  0.1807
 3666SOL    HW122457   4.534   0.634   9.086 -0.2809 -2.0982  0.1536
 3666SOL    HW222458   4.396   0.612   9.059  1.6213  0.5513 -0.7485
 3667SOL     OW22459   0.219   0.226  13.333 -0.3067 -0.0325 -0.1539
 3667SOL    HW122460   0.304   0.267  13.348  0.0812  0.3926 -3.4129
 3667SOL    HW222461   0.155   0.293  13.357 -0.6017  0.5344 -2.5078
 3668SOL     OW22462   0.221   0.087   0.673  0.3880  0.1442 -0.3548
 3668SOL    HW122463   0.237   0.181   0.679 -0.9191  0.3010  0.7456
 3668SOL    HW222464   0.223   0.076   0.578 -0.1275 -0.2705 -0.3144
 3669SOL     OW22465   1.095   1.598   1.348  0.4023  0.1368 -0.2115
 3669SOL    HW122466   1.024   1.620   1.408  1.2088 -0.2071  0.8509
 3669SOL    HW222467   1.063   1.512   1.319 -0.5185 -0.0968  1.5050
 3670SOL     OW22468   2.737   1.586   3.212  0.3664 -0.0320 -0.3576
 3670SOL    HW122469   2.684   1.528   3.157 -1.9809  1.1414  0.7097
 3670SOL    HW222470   2.695   1.671   3.198 -1.2794 -1.1096 -2.0191
 3671SOL     OW22471   4.241   3.833   7.341 -0.1096 -0.3033  0.0523
 3671SOL    HW122472   4.307   3.894   7.373  0.5282 -1.4417  0.8840
 3671SOL    HW222473   4.163   3.884   7.362 -0.9228 -0.7072 -1.9206
 3672SOL     OW22474   1.911   4.211  10.604  0.2745 -0.0366 -0.0062
 3672SOL    HW122475   1.865   4.199  10.521 -0.4234  2.7605 -0.0447
 3672SOL    HW222476   1.833   4.235  10.653 -0.8093  0.3754 -1.9289
 3673SOL     OW22477   3.237   4.050   2.043 -0.4123 -0.0381 -0.1370
 3673SOL    HW122478   3.225   4.078   2.134 -3.9381 -0.8473 -0.3812
 3673SOL    HW222479   3.155   4.064   1.997  0.0626  0.8435 -0.7328
 3674SOL     OW22480   0.942   2.035   5.214 -0.0946  0.4949 -0.0267
 3674SOL    HW122481   1.001   2.106   5.239  0.5522 -0.2672  0.5920
 3674SOL    HW222482   0.885   2.074   5.147 -0.2008  1.9676  0.9013
 3675SOL     OW22483   1.748   1.165   0.685 -0.5545 -0.5298 -0.1277
 3675SOL    HW122484   1.680   1.219   0.725 -2.6153 -3.4899  0.3773
 3675SOL    HW222485   1.788   1.229   0.625  0.5828 -1.4658 -0.3829
 3676SOL     OW22486   2.737   4.033   1.226 -0.2695  0.1206  0.2259
 3676SOL    HW122487   2.705   4.114   1.188 -1.8157 -1.3199 -1.5595
 3676SOL    HW222488   2.823   4.050   1.265 -0.3612  1.3478 -0.1136
 3677SOL     OW22489   1.937   3.249   3.875 -0.0752 -0.0264  0.1728
 3677SOL    HW122490   1.962   3.330   3.919 -0.0904 -0.2025  0.5065
 3677SOL    HW222491   2.019   3.201   3.860 -1.2171 -1.7437 -0.6009
 3678SOL     OW22492   4.710   1.953   7.996  0.9938  0.1347  0.0321
 3678SOL    HW122493   4.704   1.948   7.900  0.3911  2.9520 -0.0795
 3678SOL    HW222494   0.009   2.045   8.013 -1.1205  0.3514  1.4082
 3679SOL     OW22495   2.089   1.101  10.316 -0.1496  0.5525 -0.1934
 3679SOL    HW122496   2.030   1.027  10.329  0.1736  0.0939 -1.3094
 3679SOL    HW222497   2.125   1.082  10.229 -1.0320  0.3146 -0.5059
 3680SOL     OW22498   3.727   1.773   6.196  0.2255 -0.8575  0.1769
 3680SOL    HW122499   3.716   1.718   6.273 -1.3943 -1.6490 -0.6173
 3680SOL    HW222500   3.761   1.711   6.131 -0.4980 -0.9963 -0.0646
 3681SOL     OW22501   2.213   1.513   8.818  0.3420  0.3563 -0.5592
 3681SOL    HW122502   2.160   1.481   8.745  1.1380  0.9031 -1.3844
 3681SOL    HW222503   2.301   1.483   8.795  1.2386  2.6849 -0.2224
 3682SOL     OW22504   0.808   1.551   3.196 -0.2290 -0.0940 -0.0014
 3682SOL    HW122505   0.893   1.509   3.207  0.5229  1.4090 -0.0643
 3682SOL    HW222506   0.835   1.633   3.155 -0.8082 -1.2113 -2.5734
 3683SOL     OW22507   1.452   0.844  12.067  0.1358  0.2566  0.0681
 3683SOL    HW122508   1.437   0.935  12.090  3.0061  0.9784 -0.9322
 3683SOL    HW222509   1.475   0.836  11.975 -1.9891 -0.9111 -0.3626
 3684SOL     OW22510   0.883   1.541   5.099  0.0968 -0.6991 -0.3075
 3684SOL    HW122511   0.860   1.495   5.180  0.9995 -0.3270  0.1629
 3684SOL    HW222512   0.968   1.578   5.122 -0.2012  0.1058 -0.4719
 3685SOL     OW22513   0.413   0.333   7.037  0.4855  0.6816 -0.1888
 3685SOL    HW122514   0.459   0.378   6.966  0.7792 -1.9773 -1.6803
 3685SOL    HW222515   0.469   0.345   7.114 -0.9878  0.4819  0.9223
 3686SOL     OW22516   0.006   2.805   7.960  0.0751 -0.2355 -0.5222
 3686SOL    HW122517   4.700   2.802   7.868 -2.1080  2.0329  0.0603
 3686SOL    HW222518   4.680   2.726   7.985  0.1394 -0.0216  0.2503
 3687SOL     OW22519   2.561   3.837  13.755  0.0691 -0.0617  0.4992
 3687SOL    HW122520   2.513   3.917  13.732  3.2019  1.9404  0.7677
 3687SOL    HW222521   2.540   3.813  13.845 -0.1039 -1.8264 -0.0080
 3688SOL     OW22522   1.900   2.320   8.142  0.1294  0.3572 -0.0126
 3688SOL    HW122523   1.980   2.284   8.180  0.2320  1.7219  1.0441
 3688SOL    HW222524   1.864   2.364   8.218 -2.4565  0.5161 -1.2969
 3689SOL     OW22525   2.779   4.038  15.464  0.0605  0.4378  0.0922
 3689SOL    HW122526   2.770   3.970  15.531  0.5872 -0.1290 -0.4074
 3689SOL    HW222527   2.712   4.016  15.400  0.1887  0.9427 -0.2162
 3690SOL     OW22528   4.015   3.688   3.034 -0.1791 -0.3689 -0.7594
 3690SOL    HW122529   4.066   3.759   3.072 -0.0953 -0.0912 -1.3870
 3690SOL    HW222530   3.941   3.689   3.094  0.2494  0.7301 -0.2582
 3691SOL     OW22531   4.502   3.039   6.367  0.1123 -0.2016  0.2081
 3691SOL    HW122532   4.553   3.032   6.448  0.4535  1.9845  0.1664
 3691SOL    HW222533   4.567   3.086   6.316  0.1618 -0.7462 -0.2374
 3692SOL     OW22534   0.518   0.156   4.670  0.2199 -0.5632  0.5538
 3692SOL    HW122535   0.439   0.196   4.634  1.1293 -0.6549 -1.5087
 3692SOL    HW222536   0.516   0.067   4.637 -3.5025 -0.6950  1.1337
 3693SOL     OW22537   3.417   3.243  10.457  0.0298 -0.2467  0.2436
 3693SOL    HW122538   3.424   3.244  10.361 -2.4513 -0.6116  0.0577
 3693SOL    HW222539   3.333   3.287  10.471  1.2263  1.6043  1.5024
 3694SOL     OW22540   0.881   2.316  14.792  0.3095 -0.3681 -1.0123
 3694SOL    HW122541   0.787   2.328  14.809  0.1475 -2.0279 -0.6816
 3694SOL    HW222542   0.888   2.285  14.702  1.9220 -0.1043 -0.9647
 3695SOL     OW22543   1.352   0.632   2.214 -0.0804 -0.4345 -0.3295
 3695SOL    HW122544   1.389   0.717   2.241 -1.0198 -0.9625  2.6121
 3695SOL    HW222545   1.428   0.575   2.225 -0.2160 -0.6992 -0.7718
 3696SOL     OW22546   0.385   1.029  10.796 -0.1537 -0.1804  0.1455
 3696SOL    HW122547   0.295   1.013  10.769  0.0306 -0.7722 -0.1009
 3696SOL    HW222548   0.399   0.997  10.885  2.5936  1.9663  0.5005
 3697SOL     OW22549   4.495   4.061   6.235  0.3428  0.6130  0.2137
 3697SOL    HW122550   4.490   4.011   6.153 -0.9453 -0.0558  0.6945
 3697SOL    HW222551   4.587   4.053   6.259  0.3257  2.1697  0.8130
 3698SOL     OW22552   3.650   4.573   5.927 -0.0770 -0.3077 -0.5149
 3698SOL    HW122553   3.557   4.590   5.913 -0.2287  0.3859  1.3535
 3698SOL    HW222554   3.686   4.658   5.901  1.2458 -0.4641  0.8149
 3699SOL     OW22555   4.587   3.369   0.279  0.8090 -0.0773 -0.0599
 3699SOL    HW122556   4.628   3.335   0.200  1.7473 -0.1597  0.4622
 3699SOL    HW222557   4.665   3.366   0.334  0.1145 -3.3312  0.7574
 3700SOL     OW22558   0.281   0.968   7.235 -0.2053 -0.6375  0.0351
 3700SOL    HW122559   0.277   0.991   7.142 -0.9793  0.5135  0.3509
 3700SOL    HW222560   0.317   0.880   7.230 -0.9755 -0.9018 -0.8899
 3701SOL     OW22561   3.558   2.080  12.606 -0.0805 -0.1268  0.2525
 3701SOL    HW122562   3.505   2.158  12.589  1.3278  0.6804 -0.4380
 3701SOL    HW222563   3.588   2.063  12.517 -1.3136 -0.3493 -0.1175
 3702SOL     OW22564   0.402   3.266   1.159 -0.3990  0.4000  0.0186
 3702SOL    HW122565   0.393   3.308   1.074 -0.9527 -2.0530 -1.1260
 3702SOL    HW222566   0.410   3.340   1.219 -0.8844  0.0546  0.5172
 3703SOL     OW22567   0.894   0.217   6.227  0.4069  0.8520 -0.1566
 3703SOL    HW122568   0.859   0.173   6.305  0.7782  0.3508 -0.2744
 3703SOL    HW222569   0.826   0.204   6.161  0.1209  0.1554  0.2746
 3704SOL     OW22570   1.148   1.726  10.161 -0.3376  0.3389  0.3120
 3704SOL    HW122571   1.072   1.678  10.195 -1.5555  2.6104  0.8566
 3704SOL    HW222572   1.106   1.804  10.125  0.9233  1.5627  1.4801
 3705SOL     OW22573   3.728   3.222   9.549  0.2422 -0.1332  0.7433
 3705SOL    HW122574   3.674   3.145   9.567 -2.4963  1.7836  0.7082
 3705SOL    HW222575   3.816   3.189   9.568 -1.2193 -3.9607  0.8958
 3706SOL     OW22576   4.549   4.698  16.045 -0.1864 -0.6659 -0.5553
 3706SOL    HW122577   4.510   4.629  15.991 -0.4490 -1.1519  0.2581
 3706SOL    HW222578   4.477   0.015  16.095  0.2634  0.6765 -0.8983
 3707SOL     OW22579   1.640   0.017  15.531  0.4073  0.0304 -0.0402
 3707SOL    HW122580   1.632   0.107  15.563  0.8979 -0.7140  2.1806
 3707SOL    HW222581   1.630   0.038  15.438  0.0802  4.3826  0.9800
 3708SOL     OW22582   0.611   0.551   7.228 -0.4455 -0.2444 -0.7311
 3708SOL    HW122583   0.677   0.541   7.159 -0.5467  2.4996 -1.2138
 3708SOL    HW222584   0.622   0.469   7.278 -2.8814 -0.4823 -0.6024
 3709SOL     OW22585   2.269   1.349  15.152  0.0294 -0.1023 -0.1127
 3709SOL    HW122586   2.245   1.266  15.193  1.8155 -1.4806 -1.8922
 3709SOL    HW222587   2.250   1.407  15.226  0.9619  0.4463 -0.2916
 3710SOL     OW22588   3.503   2.459  11.838 -0.2833  0.7421  0.1762
 3710SOL    HW122589   3.591   2.468  11.873  0.7054  0.4316 -2.2311
 3710SOL    HW222590   3.480   2.542  11.797 -0.0245  1.0637  0.6867
 3711SOL     OW22591   1.535   1.259   6.059  0.2200  0.2248  0.0493
 3711SOL    HW122592   1.521   1.353   6.073 -1.8433 -0.2424  1.1025
 3711SOL    HW222593   1.609   1.246   6.119  0.5293 -0.9338 -0.5869
 3712SOL     OW22594   0.919   0.501   4.435 -0.4810 -0.3653 -0.2029
 3712SOL    HW122595   1.000   0.530   4.478 -0.2790 -2.2440  0.6828
 3712SOL    HW222596   0.952   0.456   4.357 -1.8349 -1.3177 -0.2338
 3713SOL     OW22597   0.060   3.511   8.029 -0.1342  0.1820  0.3820
 3713SOL    HW122598   0.020   3.497   8.115  0.2719 -1.4342  0.3087
 3713SOL    HW222599   0.143   3.543   8.066  1.4568 -0.7751 -2.3936
 3714SOL     OW22600   3.181   0.871  12.492  0.1256  0.2032  0.2412
 3714SOL    HW122601   3.201   0.790  12.540 -2.9908 -1.0767 -0.6836
 3714SOL    HW222602   3.184   0.834  12.404 -1.0248  2.3412 -0.6918
 3715SOL     OW22603   2.548   0.477  13.439 -0.3987 -0.0697 -0.5078
 3715SOL    HW122604   2.524   0.544  13.374 -3.2446  0.3822  1.0074
 3715SOL    HW222605   2.636   0.453  13.412 -0.2753 -1.3352  1.0542
 3716SOL     OW22606   2.089   1.908   7.110  0.0323  0.6407 -0.8756
 3716SOL    HW122607   2.134   1.985   7.076  1.3503  0.1159 -0.3323
 3716SOL    HW222608   2.071   1.926   7.202 -4.2202 -0.6811 -1.4497
 3717SOL     OW22609   4.313   0.728   3.627 -0.5993  0.0564  0.2574
 3717SOL    HW122610   4.250   0.656   3.620 -2.1402  1.5159 -0.6995
 3717SOL    HW222611   4.331   0.731   3.721  0.0244 -1.3206  0.1735
 3718SOL     OW22612   0.536   2.647   8.283 -0.0235 -0.0847  1.0596
 3718SOL    HW122613   0.472   2.687   8.224  0.6762 -0.3831  0.0740
 3718SOL    HW222614   0.567   2.721   8.335  0.1094  0.7161 -0.1408
 3719SOL     OW22615   4.513   1.908  15.572 -0.0473  0.3618 -0.3265
 3719SOL    HW122616   4.497   2.002  15.566 -0.2424  0.1047 -3.8529
 3719SOL    HW222617   4.421   1.883  15.578  0.5075 -1.3340  0.8523
 3720SOL     OW22618   2.772   1.274  16.814  0.2595  1.0436 -0.5937
 3720SOL    HW122619   2.704   1.287  16.748 -0.9709  0.8662  0.6205
 3720SOL    HW222620   2.825   1.352  16.799  1.9304  0.1571  0.7604
 3721SOL     OW22621   2.150   0.329   9.187  0.2304 -0.4450  0.0234
 3721SOL    HW122622   2.075   0.378   9.156  0.5307 -0.6796 -1.0815
 3721SOL    HW222623   2.112   0.250   9.225  0.5002  0.4478  2.1171
 3722SOL     OW22624   4.229   1.287   8.114  0.2949 -0.1533  0.2839
 3722SOL    HW122625   4.246   1.357   8.051 -1.9002 -1.2085 -1.4885
 3722SOL    HW222626   4.256   1.340   8.188 -0.0228 -1.2708  1.2044
 3723SOL     OW22627   0.928   4.302   7.426  0.0625 -0.1344 -0.3173
 3723SOL    HW122628   0.956   4.316   7.336 -1.6745 -0.2241 -0.8595
 3723SOL    HW222629   0.954   4.383   7.470 -0.5878  0.0201 -0.2222
 3724SOL     OW22630   4.538   4.488   0.772  0.2778 -0.3413  0.8885
 3724SOL    HW122631   4.449   4.486   0.737  0.6482 -2.6487  0.0574
 3724SOL    HW222632   4.545   4.410   0.827  0.7261 -0.5200  0.5858
 3725SOL     OW22633   2.721   2.627   1.840 -0.3990 -0.0797 -0.8934
 3725SOL    HW122634   2.798   2.643   1.786  0.4400 -0.5699  0.1735
 3725SOL    HW222635   2.706   2.712   1.882 -0.5146  0.1645 -1.4332
 3726SOL     OW22636   0.203   3.984   4.489  0.3152  0.0480 -0.3831
 3726SOL    HW122637   0.197   3.940   4.573  0.9488  0.7651  0.0406
 3726SOL    HW222638   0.233   3.915   4.429 -0.0838  0.7516 -1.3960
 3727SOL     OW22639   1.447   1.562  14.512 -0.6003 -0.2284 -0.5167
 3727SOL    HW122640   1.387   1.626  14.551 -0.2878 -0.0616 -0.3038
 3727SOL    HW222641   1.530   1.597  14.544  0.8810 -1.7049 -2.8574
 3728SOL     OW22642   2.948   2.522   7.398 -0.0974 -0.4420  0.2083
 3728SOL    HW122643   2.863   2.533   7.442  0.6628  1.3525  1.2292
 3728SOL    HW222644   2.989   2.597   7.441  0.2510 -1.7104  2.0943
 3729SOL     OW22645   1.211   4.537   2.581 -0.4161  0.3779 -0.3998
 3729SOL    HW122646   1.232   4.613   2.527  1.1477 -0.4872 -1.0134
 3729SOL    HW222647   1.124   4.523   2.543 -0.5589 -1.7290  0.7022
 3730SOL     OW22648   1.572   2.259   4.060 -0.0992 -0.0371 -0.2790
 3730SOL    HW122649   1.526   2.332   4.017 -2.2104 -0.6805  0.8942
 3730SOL    HW222650   1.578   2.198   3.987 -0.0343 -1.0616  0.5825
 3731SOL     OW22651   0.542   2.401   3.547 -0.1177 -0.2835 -0.3629
 3731SOL    HW122652   0.530   2.493   3.570 -1.2987 -0.7800  0.9866
 3731SOL    HW222653   0.637   2.397   3.534 -0.0339 -1.3004  0.5968
 3732SOL     OW22654   4.042   0.391  17.369 -0.0592  0.7589  0.5261
 3732SOL    HW122655   4.056   0.312  17.423  0.9529 -0.6169 -1.7590
 3732SOL    HW222656   4.133   0.417  17.358  1.0623 -3.3422 -0.0943
 3733SOL     OW22657   4.078   1.209   3.968 -0.1251 -0.5754  0.1784
 3733SOL    HW122658   4.101   1.226   3.876 -0.5464 -2.1218 -0.2162
 3733SOL    HW222659   4.056   1.300   3.990  1.4128 -0.3588  0.8286
 3734SOL     OW22660   0.306   3.373   5.961 -0.5074  0.5690 -0.5233
 3734SOL    HW122661   0.322   3.466   5.980 -1.7166  0.8186 -0.7471
 3734SOL    HW222662   0.315   3.374   5.866  0.9593 -0.3313 -0.3836
 3735SOL     OW22663   2.609   0.917   8.585  0.0876 -0.0437  0.0025
 3735SOL    HW122664   2.638   0.866   8.661  0.0805  0.1981  0.1677
 3735SOL    HW222665   2.529   0.867   8.571  0.7683 -0.8789 -0.9113
 3736SOL     OW22666   2.768   1.873  11.617 -0.5865  0.0205  0.0961
 3736SOL    HW122667   2.773   1.962  11.582  2.7472 -0.6656 -1.1569
 3736SOL    HW222668   2.700   1.898  11.679 -1.7655  0.5602 -1.4100
 3737SOL     OW22669   1.947   3.609   7.267 -0.1116  0.0810 -0.2844
 3737SOL    HW122670   1.864   3.576   7.233 -0.4882  1.0549 -0.3106
 3737SOL    HW222671   1.991   3.603   7.182 -1.2149 -2.1258 -0.7085
 3738SOL     OW22672   0.860   4.705  15.273 -0.0662  0.3871  0.4096
 3738SOL    HW122673   0.936   4.652  15.250 -2.6707 -2.4906 -1.4942
 3738SOL    HW222674   0.869   0.066  15.224  0.5460 -1.0493 -1.8887
 3739SOL     OW22675   3.671   4.558   2.791  0.3440 -0.4241  0.3682
 3739SOL    HW122676   3.720   4.638   2.773 -0.4369  0.1718  0.8638
 3739SOL    HW222677   3.674   4.560   2.886 -0.7285  0.7519  0.3831
 3740SOL     OW22678   2.002   1.839  12.985 -0.2115 -0.0743 -0.6399
 3740SOL    HW122679   1.954   1.852  13.067 -1.5883 -0.3449 -1.4066
 3740SOL    HW222680   2.006   1.930  12.955 -0.3919  0.3389  0.5842
 3741SOL     OW22681   1.615   4.542  11.876  0.1152  0.1212 -0.0336
 3741SOL    HW122682   1.617   4.521  11.970  2.7886 -2.2140 -0.6052
 3741SOL    HW222683   1.525   4.573  11.870  1.0862  2.3571 -3.5588
 3742SOL     OW22684   4.363   1.017   2.479  0.1340  0.1397 -0.4948
 3742SOL    HW122685   4.344   1.006   2.386  1.3922  1.0203 -0.8469
 3742SOL    HW222686   4.345   0.926   2.500 -2.1712  1.0374  1.4340
 3743SOL     OW22687   2.930   3.533   8.613  0.0914 -0.1505  0.2094
 3743SOL    HW122688   2.907   3.536   8.706 -0.9992  2.2433 -0.1421
 3743SOL    HW222689   3.026   3.536   8.613 -0.0034  2.6715 -1.6469
 3744SOL     OW22690   4.469   0.827   5.257 -0.3311  0.6672  1.0449
 3744SOL    HW122691   4.397   0.764   5.252 -0.9111  1.2958  1.4576
 3744SOL    HW222692   4.536   0.782   5.204 -0.4725  0.3590  1.1255
 3745SOL     OW22693   3.397   0.251   8.559  0.2607 -0.0139  0.1585
 3745SOL    HW122694   3.333   0.202   8.611 -0.6034 -0.2242 -1.1179
 3745SOL    HW222695   3.406   0.331   8.612 -1.7666  0.1520  0.2814
 3746SOL     OW22696   1.412   2.738  14.924 -0.0475 -0.1055 -0.1649
 3746SOL    HW122697   1.496   2.709  14.960 -0.4488  0.0126  0.8397
 3746SOL    HW222698   1.437   2.779  14.841 -1.8214  1.2974  0.0003
 3747SOL     OW22699   2.887   4.305   5.513  0.3892 -0.4665 -0.4616
 3747SOL    HW122700   2.864   4.367   5.443 -1.3054  0.5206  0.9780
 3747SOL    HW222701   2.981   4.296   5.495  0.6809 -1.1810  1.4136
 3748SOL     OW22702   2.134   3.104   3.739 -0.1823  0.4592 -0.4727
 3748SOL    HW122703   2.223   3.069   3.743 -0.6208 -0.5769  0.0289
 3748SOL    HW222704   2.069   3.043   3.705  0.0075  0.0841 -0.1670
 3749SOL     OW22705   2.811   2.213  13.892 -0.1739  0.2074 -0.0908
 3749SOL    HW122706   2.798   2.152  13.819  2.0165  1.3785 -1.4398
 3749SOL    HW222707   2.842   2.288  13.841  1.3101  0.2052  0.8106
 3750SOL     OW22708   1.635   1.776  10.015 -0.0240  0.2244 -0.3191
 3750SOL    HW122709   1.677   1.739  10.092  0.5948  0.8898 -0.3257
 3750SOL    HW222710   1.710   1.769   9.955 -0.8264  0.2530 -1.3382
 3751SOL     OW22711   1.098   4.320   2.420 -0.3010 -0.2428  0.1310
 3751SOL    HW122712   1.073   4.409   2.397 -1.6364 -0.0591  2.3109
 3751SOL    HW222713   1.183   4.314   2.377 -1.1845  0.0917 -1.6481
 3752SOL     OW22714   4.120   0.937  15.191  0.5504  0.0125  0.2430
 3752SOL    HW122715   4.116   0.959  15.098  4.3818 -0.2774  0.0163
 3752SOL    HW222716   4.212   0.920  15.212  1.0646  2.5078  0.0707
 3753SOL     OW22717   4.227   2.619   0.108 -0.0651 -0.2960  0.2457
 3753SOL    HW122718   4.192   2.664   0.031  0.4727 -0.6734 -0.2172
 3753SOL    HW222719   4.274   2.676   0.168 -0.3223  0.3979 -0.2133
 3754SOL     OW22720   1.531   1.866  17.293  0.5305  0.1444 -0.2822
 3754SOL    HW122721   1.535   1.776  17.324  0.9814 -0.4643 -2.1287
 3754SOL    HW222722   1.576   1.901  17.370 -0.7401 -0.1566  0.6000
 3755SOL     OW22723   4.231   1.974   8.042  0.9762 -0.2957  0.2987
 3755SOL    HW122724   4.256   2.033   8.113  1.2088 -0.7466  0.5855
 3755SOL    HW222725   4.223   1.891   8.088  0.0358 -0.4588 -0.1490
 3756SOL     OW22726   3.835   1.858   7.327 -0.1791 -0.5499 -0.2475
 3756SOL    HW122727   3.895   1.784   7.329  0.0124 -0.4425 -1.7792
 3756SOL    HW222728   3.855   1.901   7.410  2.5822 -1.9047 -0.2379
 3757SOL     OW22729   2.578   2.598  17.158 -0.5748 -0.0449  0.7704
 3757SOL    HW122730   2.542   2.661  17.220 -2.6860  0.6362 -1.1433
 3757SOL    HW222731   2.631   2.550  17.222  1.4228 -0.0145 -0.8367
 3758SOL     OW22732   2.284   3.500  10.743  0.6896  0.0159  0.1108
 3758SOL    HW122733   2.203   3.506  10.793  0.1071 -0.8243 -0.7439
 3758SOL    HW222734   2.240   3.505  10.658  0.0701 -0.9906  0.3779
 3759SOL     OW22735   2.439   1.404   8.760  0.6276 -0.1485  0.3985
 3759SOL    HW122736   2.473   1.345   8.827 -0.3825 -0.3763  0.7206
 3759SOL    HW222737   2.414   1.341   8.692  3.4168 -1.4817  0.6370
 3760SOL     OW22738   0.303   4.373   7.070 -0.0532 -0.0660  0.2484
 3760SOL    HW122739   0.379   4.346   7.019  0.1127  2.1896 -0.6689
 3760SOL    HW222740   0.261   4.431   7.006 -0.7208  0.2095  0.9393
 3761SOL     OW22741   1.052   3.193  14.885  0.3883  0.3441 -0.2006
 3761SOL    HW122742   1.138   3.196  14.927 -0.2589  0.3439  1.1217
 3761SOL    HW222743   0.991   3.216  14.955 -0.6639 -2.5192 -0.1844
 3762SOL     OW22744   2.246   0.551   1.810 -0.2100  0.5834  0.1788
 3762SOL    HW122745   2.153   0.538   1.826 -0.3927  0.0184 -1.3244
 3762SOL    HW222746   2.291   0.494   1.873  3.4564  2.3557 -0.8373
 3763SOL     OW22747   0.579   2.119   2.412  0.5008  0.2799 -0.6009
 3763SOL    HW122748   0.583   2.189   2.477 -0.6927 -1.2115  1.0713
 3763SOL    HW222749   0.589   2.038   2.461  1.4038 -0.1559 -1.4970
 3764SOL     OW22750   1.732   0.198   6.462 -0.5814  0.0362  0.0443
 3764SOL    HW122751   1.726   0.116   6.412  0.6592 -0.3914  0.5829
 3764SOL    HW222752   1.825   0.189   6.486 -0.5545 -0.6578 -0.3077
 3765SOL     OW22753   2.447   1.357   2.340 -0.4038  0.6955 -0.7276
 3765SOL    HW122754   2.538   1.330   2.332 -0.8195 -0.6079 -1.0284
 3765SOL    HW222755   2.441   1.414   2.264 -2.5476  0.3906 -0.7900
 3766SOL     OW22756   0.632   4.038   5.502  0.3086 -0.6580 -0.5713
 3766SOL    HW122757   0.703   4.046   5.440  2.4141 -2.2631  1.6156
 3766SOL    HW222758   0.678   4.022   5.585 -2.2427 -1.6240  0.6811
 3767SOL     OW22759   1.937   2.428  14.092  0.5221 -0.2504  0.2495
 3767SOL    HW122760   1.852   2.384  14.091  1.0101 -1.1682 -0.8428
 3767SOL    HW222761   1.921   2.516  14.057  0.8018  0.6231  2.3205
 3768SOL     OW22762   3.085   3.484   7.262 -0.3713  0.6199 -0.7676
 3768SOL    HW122763   3.132   3.495   7.180  0.5501 -1.4015 -0.4909
 3768SOL    HW222764   3.084   3.573   7.298 -1.6096 -0.0692  0.9561
 3769SOL     OW22765   1.683   3.640   2.940  0.1405  0.5278 -0.5498
 3769SOL    HW122766   1.771   3.614   2.967  0.1591  0.7054 -0.4385
 3769SOL    HW222767   1.684   3.591   2.858 -0.1599  2.4043 -1.6908
 3770SOL     OW22768   4.136   3.074   1.347 -0.1650  0.3975 -0.5766
 3770SOL    HW122769   4.093   2.999   1.388 -0.1208  0.8407  0.2752
 3770SOL    HW222770   4.120   3.141   1.413 -0.1867 -0.7128  0.5340
 3771SOL     OW22771   3.289   3.505  11.225 -0.8757  0.4370  0.1882
 3771SOL    HW122772   3.248   3.418  11.222 -0.3237  0.1479  1.1235
 3771SOL    HW222773   3.245   3.537  11.303 -2.2730 -0.7515 -0.0935
 3772SOL     OW22774   0.357   4.588   2.884 -0.6665 -0.5791 -0.2937
 3772SOL    HW122775   0.289   4.655   2.875 -1.6303 -1.3886  1.0330
 3772SOL    HW222776   0.312   4.511   2.919 -1.4806 -0.8813 -1.9872
 3773SOL     OW22777   3.393   0.380   6.805 -0.1504 -0.3182 -0.5768
 3773SOL    HW122778   3.426   0.317   6.741  0.8219  0.3679 -0.7359
 3773SOL    HW222779   3.353   0.328   6.875 -0.3779  1.0135  0.2831
 3774SOL     OW22780   3.440   1.267   6.047 -0.0432 -0.9776 -0.0968
 3774SOL    HW122781   3.452   1.283   6.141  1.3950  0.5198 -0.5343
 3774SOL    HW222782   3.474   1.179   6.031  0.9662 -0.0982 -2.7183
 3775SOL     OW22783   2.210   2.618  13.953  0.1160  0.6785  0.1431
 3775SOL    HW122784   2.242   2.592  13.867 -1.7578 -1.9596  0.2789
 3775SOL    HW222785   2.124   2.652  13.929  0.8085  1.6313 -1.0158
 3776SOL     OW22786   2.164   1.769   2.655  0.3923  0.0859 -0.3880
 3776SOL    HW122787   2.182   1.682   2.619 -0.5336 -0.2057 -0.1335
 3776SOL    HW222788   2.095   1.809   2.602  0.0460  0.5061  0.3772
 3777SOL     OW22789   3.203   0.995   0.907 -0.1411 -0.3765  0.1103
 3777SOL    HW122790   3.190   0.913   0.955 -2.0029 -0.6997 -0.9480
 3777SOL    HW222791   3.282   1.029   0.949 -0.6027  2.5492 -1.3948
 3778SOL     OW22792   0.318   3.364   9.074  0.1554  0.1783  0.1122
 3778SOL    HW122793   0.308   3.376   9.169  0.7763  0.7562  0.1052
 3778SOL    HW222794   0.244   3.409   9.034  0.5263  1.9888  1.4176
 3779SOL     OW22795   1.029   0.121   1.576 -0.2898 -0.1673  0.3083
 3779SOL    HW122796   0.939   0.088   1.571  0.1500 -1.2618 -0.4116
 3779SOL    HW222797   1.014   0.212   1.600 -0.2568  0.0426 -0.4621
 3780SOL     OW22798   3.969   4.610   7.380 -0.3736 -0.6512 -0.0285
 3780SOL    HW122799   4.020   4.617   7.461  0.1296  0.5096 -0.4423
 3780SOL    HW222800   3.919   4.529   7.386  0.6728 -1.2203  0.9613
 3781SOL     OW22801   3.242   0.878   7.788  0.1669 -0.1143 -0.6283
 3781SOL    HW122802   3.183   0.815   7.829 -2.0590  3.2227  1.2563
 3781SOL    HW222803   3.286   0.823   7.722 -0.8426  2.0598 -3.1254
 3782SOL     OW22804   2.304   0.203   2.858 -0.0890  0.0926 -0.2547
 3782SOL    HW122805   2.299   0.224   2.951  1.0754 -0.2863 -0.1011
 3782SOL    HW222806   2.380   0.145   2.860 -1.3115 -1.4199  2.4413
 3783SOL     OW22807   2.776   1.934   6.104 -0.0789 -0.3680  0.0090
 3783SOL    HW122808   2.820   1.854   6.132  2.2190  1.2125  0.9093
 3783SOL    HW222809   2.794   1.921   6.011 -0.1725  1.2705 -0.2420
 3784SOL     OW22810   1.034   3.919  13.821  0.3436 -0.4664 -0.0139
 3784SOL    HW122811   1.043   3.825  13.839 -2.0496 -0.4411  1.2503
 3784SOL    HW222812   1.125   3.932  13.793  0.8175 -2.7630  0.4380
 3785SOL     OW22813   3.452   1.808  16.708  0.1160 -0.0917 -0.0365
 3785SOL    HW122814   3.374   1.776  16.662  0.8980 -2.7109  0.4189
 3785SOL    HW222815   3.483   1.876  16.650 -0.6798  0.4404  0.1603
 3786SOL     OW22816   2.698   3.507   0.293  0.1364  1.0818  0.1189
 3786SOL    HW122817   2.658   3.554   0.367  1.6804 -0.0799  1.6727
 3786SOL    HW222818   2.776   3.468   0.332 -0.7971  0.0001  0.9118
 3787SOL     OW22819   0.002   3.306   5.233 -0.0836  0.1925  0.4453
 3787SOL    HW122820   4.658   3.239   5.211  1.3737 -0.6611 -1.1777
 3787SOL    HW222821   4.674   3.380   5.197  1.4118  1.0799  0.2176
 3788SOL     OW22822   2.797   2.078   2.352  0.2198 -0.7476 -0.2737
 3788SOL    HW122823   2.779   2.172   2.352  0.0720 -0.7773 -0.6718
 3788SOL    HW222824   2.862   2.081   2.282 -0.3392 -0.9262 -0.8083
 3789SOL     OW22825   1.700   0.616   4.738  0.0290  0.1595 -0.2007
 3789SOL    HW122826   1.652   0.683   4.787  0.1524 -1.0992  1.6459
 3789SOL    HW222827   1.772   0.599   4.799  1.1976 -0.1841 -1.6976
 3790SOL     OW22828   2.327   3.394   0.326  0.0994  0.2181 -1.0294
 3790SOL    HW122829   2.422   3.389   0.320  0.2409  2.1676 -0.1131
 3790SOL    HW222830   2.311   3.380   0.419  0.1558  1.3978 -0.8435
 3791SOL     OW22831   2.634   3.829   9.643  0.0908  0.2309 -0.3445
 3791SOL    HW122832   2.676   3.751   9.680 -0.1996  0.8785  1.3519
 3791SOL    HW222833   2.636   3.900   9.708 -1.9292 -0.6882  0.7018
 3792SOL     OW22834   3.386   3.357   4.171 -0.2909 -0.1303  0.3188
 3792SOL    HW122835   3.357   3.445   4.196  1.9202  0.8888 -0.7299
 3792SOL    HW222836   3.341   3.359   4.087 -0.7135  1.6139  0.5746
 3793SOL     OW22837   3.674   2.888  12.899  0.3783 -0.3431 -0.6322
 3793SOL    HW122838   3.639   2.971  12.931  0.3792 -0.0704 -1.3423
 3793SOL    HW222839   3.763   2.915  12.875  0.8120 -1.6007 -0.4546
 3794SOL     OW22840   0.040   0.499   6.221  0.4749  0.8454  0.6564
 3794SOL    HW122841   0.111   0.559   6.246  0.7197 -0.0901  2.2232
 3794SOL    HW222842   4.711   0.560   6.167 -0.8770 -0.3155  0.5771
 3795SOL     OW22843   2.243   1.331   5.674 -0.4520  0.1553  0.5404
 3795SOL    HW122844   2.248   1.354   5.767 -0.5322 -1.8713  1.0569
 3795SOL    HW222845   2.294   1.250   5.675 -1.1337 -0.2944 -0.7842
 3796SOL     OW22846   3.857   2.145   3.161 -0.1802  0.2557  0.0125
 3796SOL    HW122847   3.857   2.070   3.221 -0.0149 -0.0123 -0.3223
 3796SOL    HW222848   3.949   2.170   3.169  0.2810 -1.5989  0.5545
 3797SOL     OW22849   0.809   2.741   8.676  0.3030  0.2298  0.1261
 3797SOL    HW122850   0.771   2.810   8.730 -1.9051 -0.2106 -0.8785
 3797SOL    HW222851   0.900   2.766   8.691  0.0433  0.1436  1.8641
 3798SOL     OW22852   2.940   1.587   4.721  0.1066 -0.6853  0.7865
 3798SOL    HW122853   2.992   1.541   4.656 -1.2570 -1.8222  0.4999
 3798SOL    HW222854   2.922   1.668   4.673  0.9490 -0.1349  1.3980
 3799SOL     OW22855   1.890   0.974  15.582 -0.2186 -0.0009  0.5163
 3799SOL    HW122856   1.844   0.892  15.565 -1.5158  0.3887  2.2080
 3799SOL    HW222857   1.824   1.000  15.646  0.0983  0.6591  0.5812
 3800SOL     OW22858   0.138   1.920   9.311  0.0557  0.2006  0.1738
 3800SOL    HW122859   0.098   1.954   9.391  0.0171 -0.3070  0.3703
 3800SOL    HW222860   0.060   1.880   9.273 -0.2224  0.3839  0.5485
 3801SOL     OW22861   1.239   2.375  12.600  0.2552 -0.4300 -0.4487
 3801SOL    HW122862   1.173   2.337  12.658  0.8226  0.5310  0.8409
 3801SOL    HW222863   1.324   2.333  12.616  1.4656  1.8469 -0.8018
 3802SOL     OW22864   2.216   2.944   2.052 -0.0106  0.0951  0.7658
 3802SOL    HW122865   2.213   2.958   2.147  0.3571  0.9489  0.6540
 3802SOL    HW222866   2.261   2.861   2.040  0.4262  0.6611 -1.4873
 3803SOL     OW22867   3.121   4.027   7.126 -0.3321 -0.0998 -0.6119
 3803SOL    HW122868   3.121   4.103   7.067 -2.0646 -0.9528 -1.7148
 3803SOL    HW222869   3.119   3.955   7.063 -0.5628 -1.7022  1.2163
 3804SOL     OW22870   2.375   0.870  16.381  0.2052 -0.1518 -0.4578
 3804SOL    HW122871   2.362   0.782  16.347  0.8863  0.1392 -1.4547
 3804SOL    HW222872   2.422   0.848  16.461 -1.3480  1.7575  0.9984
 3805SOL     OW22873   1.397   0.710   5.113 -0.0183  0.3523 -0.4531
 3805SOL    HW122874   1.346   0.653   5.056  0.0340 -0.3440  0.1944
 3805SOL    HW222875   1.413   0.644   5.181 -2.8305 -0.4175 -0.5307
 3806SOL     OW22876   2.775   0.721   3.949 -0.2568 -0.0644 -0.4875
 3806SOL    HW122877   2.801   0.641   3.994  0.7531 -0.0980 -1.1284
 3806SOL    HW222878   2.709   0.758   4.008  0.6395 -0.4963  0.7912
 3807SOL     OW22879   4.447   1.028   1.590 -0.1894  0.3069 -0.1057
 3807SOL    HW122880   4.409   1.116   1.587  1.0530  0.8936  1.2638
 3807SOL    HW222881   4.430   1.008   1.682 -1.0431  1.6226  0.0162
 3808SOL     OW22882   0.335   3.661   5.990 -0.6397 -0.3326 -0.1397
 3808SOL    HW122883   0.265   3.724   5.973 -0.4302  0.2871  1.2365
 3808SOL    HW222884   0.404   3.717   5.953  0.4028 -0.7817  1.1056
 3809SOL     OW22885   3.390   3.520   2.540 -0.1609  0.2377  0.3145
 3809SOL    HW122886   3.301   3.515   2.504  0.6683  1.5520 -1.8859
 3809SOL    HW222887   3.362   3.583   2.608  2.7547  0.8079  0.9581
 3810SOL     OW22888   1.252   1.460   4.814 -0.0366  0.0646  0.4676
 3810SOL    HW122889   1.330   1.444   4.867  0.7213 -1.1655 -1.0275
 3810SOL    HW222890   1.233   1.367   4.801 -2.0652  0.5429 -0.0459
 3811SOL     OW22891   3.900   2.313   1.972 -0.0197  0.3160 -0.0886
 3811SOL    HW122892   3.929   2.286   2.059 -1.3895  0.0955  0.2966
 3811SOL    HW222893   3.961   2.279   1.906 -0.3387  2.2463 -1.3845
 3812SOL     OW22894   2.841   4.568   4.669 -0.7399  0.3562  0.5938
 3812SOL    HW122895   2.934   4.561   4.693 -0.0215  1.1268 -1.9741
 3812SOL    HW222896   2.801   4.573   4.756  1.3491 -1.6659  1.6811
 3813SOL     OW22897   3.295   0.644   6.282 -0.2547  0.0230 -0.7483
 3813SOL    HW122898   3.202   0.621   6.274 -0.3808 -0.8406  3.1586
 3813SOL    HW222899   3.313   0.633   6.375 -0.4188 -1.6127 -0.9054
 3814SOL     OW22900   0.430   3.061   9.886 -0.4480  0.4690  0.0060
 3814SOL    HW122901   0.400   3.012   9.809 -2.7256  2.6606 -0.4930
 3814SOL    HW222902   0.417   3.151   9.858 -3.4822  0.6065  1.9126
 3815SOL     OW22903   3.382   0.212   7.788 -0.3869  0.0922 -0.3070
 3815SOL    HW122904   3.450   0.274   7.818 -0.5114  1.2261 -2.3748
 3815SOL    HW222905   3.354   0.180   7.874  0.6018 -2.0762 -0.8068
 3816SOL     OW22906   0.398   0.488  13.471 -0.0242  0.2269  0.1980
 3816SOL    HW122907   0.328   0.553  13.468 -1.0579 -0.8239  1.2601
 3816SOL    HW222908   0.407   0.483  13.567  2.1696  1.3435  0.0324
 3817SOL     OW22909   2.385   4.065   8.381 -0.3580 -0.4387  0.1696
 3817SOL    HW122910   2.424   3.984   8.415  0.3685 -0.7470 -1.3822
 3817SOL    HW222911   2.444   4.126   8.424 -1.1961 -0.3369  1.1854
 3818SOL     OW22912   1.760   3.128   5.882 -0.1425 -0.4643  0.2524
 3818SOL    HW122913   1.760   3.126   5.786 -1.9859  0.5636  0.2445
 3818SOL    HW222914   1.789   3.037   5.887  1.1605 -0.0841 -0.3474
 3819SOL     OW22915   4.183   1.560  16.029  0.0019 -0.2686  0.0486
 3819SOL    HW122916   4.215   1.560  15.939 -0.0330 -0.0173  0.0381
 3819SOL    HW222917   4.193   1.651  16.055 -1.5691 -0.7077  2.1731
 3820SOL     OW22918   2.565   0.384   6.475 -0.2131  0.2913 -0.7322
 3820SOL    HW122919   2.586   0.294   6.501  0.1032 -0.1852 -2.6454
 3820SOL    HW222920   2.516   0.412   6.552 -0.9694  0.5267 -1.3070
 3821SOL     OW22921   3.549   2.546  13.786 -0.0859  0.3290 -0.4611
 3821SOL    HW122922   3.562   2.628  13.739 -1.6604  0.4280 -0.7425
 3821SOL    HW222923   3.471   2.508  13.744  0.7618 -1.4872 -0.3800
 3822SOL     OW22924   1.224   0.680   3.792  0.0304  0.3680  0.3155
 3822SOL    HW122925   1.260   0.650   3.876 -1.3515  0.7485  1.0516
 3822SOL    HW222926   1.167   0.755   3.810 -2.6501 -0.8488 -3.1798
 3823SOL     OW22927   4.330   1.061   7.154 -0.7472  0.3666  0.4948
 3823SOL    HW122928   4.306   0.969   7.165 -0.6961  0.3848  0.7573
 3823SOL    HW222929   4.373   1.086   7.236 -0.1299  1.2672 -0.0936
 3824SOL     OW22930   1.847   3.004   4.996  0.1286 -0.0935  0.7734
 3824SOL    HW122931   1.865   3.047   4.912 -0.5049 -2.9982 -0.8566
 3824SOL    HW222932   1.936   2.978   5.019 -1.2699 -3.7644  1.9515
 3825SOL     OW22933   3.159   3.119   3.082 -0.2219  0.3012  0.1794
 3825SOL    HW122934   3.207   3.094   3.003 -2.1541  0.0990 -0.9332
 3825SOL    HW222935   3.205   3.201   3.100  0.1037 -0.0128  0.7799
 3826SOL     OW22936   2.931   4.585   3.136  0.6361 -0.0002  0.2506
 3826SOL    HW122937   2.952   4.551   3.049  1.4155 -2.5474  1.4268
 3826SOL    HW222938   3.004   4.644   3.156 -0.2306  1.5904 -1.2959
 3827SOL     OW22939   2.408   0.397   6.719  0.3219  0.2149 -0.0726
 3827SOL    HW122940   2.448   0.465   6.772 -1.8515 -0.0940  1.9480
 3827SOL    HW222941   2.419   0.324   6.780  0.7082 -0.1153 -0.5355
 3828SOL     OW22942   0.534   1.725   3.073 -0.0795  0.4518  0.3310
 3828SOL    HW122943   0.463   1.661   3.079 -1.3199  1.9763  1.7309
 3828SOL    HW222944   0.601   1.678   3.124  0.4025 -2.3615 -2.8564
 3829SOL     OW22945   0.479   0.530   2.632 -0.1990  0.2384  0.1513
 3829SOL    HW122946   0.484   0.458   2.695  1.5840 -0.9000 -1.2699
 3829SOL    HW222947   0.477   0.609   2.686  1.2592  0.7045 -0.4653
 3830SOL     OW22948   2.415   1.026   5.909  0.3094  0.3280  0.2083
 3830SOL    HW122949   2.459   0.964   5.852  1.3478  0.9909  0.2865
 3830SOL    HW222950   2.334   1.039   5.861  1.9011 -1.3334 -2.9150
 3831SOL     OW22951   4.655   0.047   4.880 -0.2036 -0.4428  0.2706
 3831SOL    HW122952   0.023   0.072   4.901 -0.8005  2.1512 -0.3122
 3831SOL    HW222953   4.611   0.122   4.841  0.4410 -0.2093  0.0063
 3832SOL     OW22954   3.055   0.444  14.731 -0.0325 -0.3967  0.4838
 3832SOL    HW122955   2.967   0.481  14.726 -0.0290 -0.4651 -0.0728
 3832SOL    HW222956   3.058   0.431  14.826  2.1052  0.3875  0.5219
 3833SOL     OW22957   2.732   4.700   4.466 -0.4564  0.1392  0.0858
 3833SOL    HW122958   2.780   4.667   4.542 -0.2110 -0.1328 -0.1901
 3833SOL    HW222959   2.654   4.645   4.467 -0.1569 -0.3061 -0.9358
 3834SOL     OW22960   1.850   1.866   4.889  0.2392  0.3679 -0.3541
 3834SOL    HW122961   1.908   1.829   4.822 -0.4713  0.8652 -1.2519
 3834SOL    HW222962   1.799   1.925   4.833 -0.3475  1.1123  0.9662
 3835SOL     OW22963   3.048   4.488   0.998 -0.4079  0.3144  0.4389
 3835SOL    HW122964   3.079   4.422   0.936  0.7834 -0.4167  1.8403
 3835SOL    HW222965   2.961   4.457   1.022  0.6706 -0.8579  2.7260
 3836SOL     OW22966   1.336   3.801  14.068  0.1042  0.2253 -0.2195
 3836SOL    HW122967   1.261   3.807  14.127 -0.0274  0.0011 -0.3653
 3836SOL    HW222968   1.308   3.858  13.996  0.8808 -0.3747 -0.9981
 3837SOL     OW22969   0.061   0.693   1.798  0.1731  0.8021  0.1087
 3837SOL    HW122970   0.104   0.610   1.775 -1.8066 -0.6139  1.5026
 3837SOL    HW222971   0.123   0.732   1.859  0.3920 -0.1526  0.5019
 3838SOL     OW22972   4.075   1.143   1.872 -0.1678 -0.4017  0.3386
 3838SOL    HW122973   4.105   1.179   1.788 -1.6251 -1.3312 -0.5650
 3838SOL    HW222974   3.980   1.151   1.862 -0.2495 -0.9732  0.7021
 3839SOL     OW22975   1.949   0.578  10.502  0.6021  0.4371  0.1709
 3839SOL    HW122976   1.885   0.506  10.506 -0.1428  1.0919  0.1350
 3839SOL    HW222977   1.885   0.646  10.480  0.2983 -0.3835 -1.5655
 3840SOL     OW22978   1.576   3.883   2.642  0.2004  0.4425  0.4711
 3840SOL    HW122979   1.498   3.832   2.620  1.3858 -1.9160  1.6783
 3840SOL    HW222980   1.651   3.826   2.628 -0.3821  0.2658 -1.8681
 3841SOL     OW22981   2.813   0.368  13.365  0.0457  0.1917  0.1730
 3841SOL    HW122982   2.892   0.402  13.406 -0.6217  1.9493  0.0491
 3841SOL    HW222983   2.797   0.433  13.296  0.4724  1.6986  1.5064
 3842SOL     OW22984   2.653   0.210   1.209  0.1587  0.3388 -0.0042
 3842SOL    HW122985   2.737   0.184   1.169  1.3554  0.2439  2.6047
 3842SOL    HW222986   2.619   0.250   1.129 -0.3946  0.0101  0.0645
 3843SOL     OW22987   0.098   0.655   6.729  0.5569  0.1236 -0.6075
 3843SOL    HW122988   0.013   0.618   6.706  1.4209 -1.3222 -1.5098
 3843SOL    HW222989   0.149   0.609   6.662  0.8924  0.9198 -0.8962
 3844SOL     OW22990   4.659   0.683   7.084  0.0541 -0.0099 -0.5528
 3844SOL    HW122991   0.017   0.632   7.102 -0.0888 -0.4039 -1.0405
 3844SOL    HW222992   4.635   0.692   7.176  1.3668  1.5655 -0.3760
 3845SOL     OW22993   2.724   1.299  15.211 -0.0323 -0.1340 -0.3426
 3845SOL    HW122994   2.636   1.272  15.187  0.7559 -1.6659 -1.5106
 3845SOL    HW222995   2.722   1.395  15.214 -1.8648 -0.2022  0.2779
 3846SOL     OW22996   2.633   3.269   5.014 -0.1229  0.0625  0.3521
 3846SOL    HW122997   2.546   3.242   5.042 -0.4109  0.0268 -0.5805
 3846SOL    HW222998   2.669   3.319   5.087  0.5327 -1.5261  1.1124
 3847SOL     OW22999   1.573   3.689  10.492  0.3355 -0.1727 -0.2360
 3847SOL    HW123000   1.550   3.649  10.576  3.0519 -2.8899 -0.7884
 3847SOL    HW223001   1.585   3.780  10.518  1.2608 -0.2895 -0.2662
 3848SOL     OW23002   3.086   0.822   0.530 -0.4735 -0.1448  0.3774
 3848SOL    HW123003   3.148   0.854   0.464 -1.2839 -1.5499 -1.0639
 3848SOL    HW223004   3.077   0.900   0.585 -0.7861  0.0704  0.0279
 3849SOL     OW23005   0.578   3.554   7.760 -0.4993 -0.1363 -0.1170
 3849SOL    HW123006   0.633   3.532   7.685  1.2020  2.5414  0.3447
 3849SOL    HW223007   0.645   3.521   7.820 -2.5618 -0.1469  2.1499
 3850SOL     OW23008   3.323   3.789   0.681 -0.5290  0.2370 -0.2541
 3850SOL    HW123009   3.401   3.741   0.708 -0.7465  0.5718  0.9775
 3850SOL    HW223010   3.261   3.716   0.681 -0.3213  0.0576 -2.0184
 3851SOL     OW23011   2.470   2.393   4.301  0.0330 -0.0157  0.3656
 3851SOL    HW123012   2.390   2.424   4.344  0.3043  1.2973 -0.0783
 3851SOL    HW223013   2.533   2.410   4.371  1.0415 -1.3287 -0.2321
 3852SOL     OW23014   3.342   2.063   7.994  0.2388  0.4615 -0.3298
 3852SOL    HW123015   3.421   2.017   8.023  0.6545  1.8960  0.7739
 3852SOL    HW223016   3.365   2.110   7.914  0.6476  0.3763 -0.2626
 3853SOL     OW23017   2.466   2.308   6.597  0.0503 -0.2883 -0.2077
 3853SOL    HW123018   2.503   2.231   6.639  1.5195  0.6999  0.3242
 3853SOL    HW223019   2.381   2.305   6.642  0.3335 -1.4890  0.2300
 3854SOL     OW23020   0.255   2.215   5.084 -0.1911 -0.5890  0.0927
 3854SOL    HW123021   0.244   2.160   5.161 -1.7611 -2.2233 -1.3101
 3854SOL    HW223022   0.166   2.252   5.081  1.0313  2.3913  0.1202
 3855SOL     OW23023   1.823   1.240  11.322  0.3623 -0.0204  0.8560
 3855SOL    HW123024   1.781   1.283  11.248  1.1928 -4.7785 -2.3298
 3855SOL    HW223025   1.868   1.169  11.278 -2.2661 -1.0024 -0.2341
 3856SOL     OW23026   3.727   4.680   1.609 -0.0726 -0.4164  0.3818
 3856SOL    HW123027   3.632   4.689   1.596 -0.0202 -1.8622 -1.0213
 3856SOL    HW223028   3.764   4.682   1.521 -1.4281 -0.0216 -0.1896
 3857SOL     OW23029   4.185   3.100  16.368 -0.4484 -0.4345  0.2729
 3857SOL    HW123030   4.191   3.122  16.461  4.6040 -0.2821 -0.0983
 3857SOL    HW223031   4.208   3.007  16.373  1.3445  0.0016  0.0508
 3858SOL     OW23032   4.053   3.656   4.553 -0.1515 -0.0007  0.2566
 3858SOL    HW123033   4.069   3.584   4.615 -2.3556  0.1871  1.0395
 3858SOL    HW223034   4.086   3.730   4.603 -1.3598  0.7257 -0.0287
 3859SOL     OW23035   1.286   4.039   1.119  0.2488  0.0211  0.0143
 3859SOL    HW123036   1.286   4.135   1.126 -0.6535  0.0235  0.0609
 3859SOL    HW223037   1.374   4.028   1.152 -0.1794  0.6337  1.3607
 3860SOL     OW23038   3.360   3.605   2.243 -0.4278  0.6275 -0.2579
 3860SOL    HW123039   3.316   3.524   2.271  2.5862 -1.7977 -2.5285
 3860SOL    HW223040   3.447   3.572   2.264 -0.9101 -0.4364  0.0877
 3861SOL     OW23041   0.721   2.797  17.232  0.4599  0.1606  0.4840
 3861SOL    HW123042   0.809   2.765  17.252  1.3734  2.5369  0.2087
 3861SOL    HW223043   0.740   2.874  17.180 -1.3120 -0.5877 -1.3011
 3862SOL     OW23044   1.861   4.508   4.130 -0.3512  0.4319 -0.2026
 3862SOL    HW123045   1.850   4.593   4.087 -0.5476  0.5684  0.1181
 3862SOL    HW223046   1.892   4.545   4.212 -2.7988  0.6180  0.6342
 3863SOL     OW23047   4.326   0.815   7.294 -0.4462 -0.0777 -0.4838
 3863SOL    HW123048   4.247   0.770   7.264  0.4695 -1.1028 -1.3500
 3863SOL    HW223049   4.286   0.841   7.378  0.8597  1.4016 -0.3220
 3864SOL     OW23050   0.807   3.312  14.533  0.4786 -0.7171 -0.3244
 3864SOL    HW123051   0.754   3.330  14.611 -0.2038 -3.1633 -0.2407
 3864SOL    HW223052   0.894   3.332  14.568 -0.0614  1.3562 -0.1400
 3865SOL     OW23053   0.210   2.594   3.762  0.0732 -0.0367 -1.0733
 3865SOL    HW123054   0.293   2.635   3.737  1.1947 -0.7099  1.5601
 3865SOL    HW223055   0.155   2.591   3.684 -1.5271  1.7077 -0.0323
 3866SOL     OW23056   1.552   2.030   3.908 -0.3942 -0.2205  0.2824
 3866SOL    HW123057   1.635   1.983   3.911 -0.4938 -0.3753  0.6567
 3866SOL    HW223058   1.510   1.991   3.985  0.8502 -0.2336  0.9606
 3867SOL     OW23059   0.732   0.412   6.444 -0.0376 -0.1354  0.0074
 3867SOL    HW123060   0.649   0.365   6.457  0.2906 -0.8938 -0.6466
 3867SOL    HW223061   0.793   0.339   6.439 -1.1020 -1.1025  0.9752
 3868SOL     OW23062   4.137   0.900  15.657  0.5113 -0.2803  0.5748
 3868SOL    HW123063   4.081   0.825  15.676  1.5349 -0.3607  3.3067
 3868SOL    HW223064   4.229   0.874  15.663  0.6326 -0.1092 -0.5434
 3869SOL     OW23065   0.774   0.440   2.520  0.1206  0.7863  0.0578
 3869SOL    HW123066   0.779   0.536   2.524  2.8807  0.6640 -0.2344
 3869SOL    HW223067   0.686   0.423   2.488  0.7960 -2.6351  0.0916
 3870SOL     OW23068   0.413   3.127   7.072  0.0158  0.0136 -0.0091
 3870SOL    HW123069   0.410   3.217   7.106 -1.1272 -0.8100  2.0917
 3870SOL    HW223070   0.499   3.105   7.107  1.2968 -1.1840 -3.9907
 3871SOL     OW23071   3.453   2.875  15.640 -0.1624 -0.1088  0.3255
 3871SOL    HW123072   3.480   2.784  15.628 -0.5464  0.2494 -3.3797
 3871SOL    HW223073   3.417   2.894  15.553 -1.0144 -1.1441  0.4480
 3872SOL     OW23074   2.404   0.985   2.284  0.1621 -0.0794 -0.0604
 3872SOL    HW123075   2.327   0.960   2.233  1.4094  1.6866 -2.8088
 3872SOL    HW223076   2.384   1.059   2.341  2.2139  2.3225 -2.5125
 3873SOL     OW23077   1.340   4.294   9.248 -0.4634 -0.2979 -0.3175
 3873SOL    HW123078   1.253   4.308   9.211  0.3663 -1.0564 -2.5635
 3873SOL    HW223079   1.360   4.387   9.262  2.9491 -0.9972 -0.6099
 3874SOL     OW23080   3.204   1.174  16.225  0.3520  0.2109 -0.2995
 3874SOL    HW123081   3.173   1.239  16.288  0.9758 -0.4395  0.6927
 3874SOL    HW223082   3.120   1.152  16.184 -0.0753 -2.6072  2.0346
 3875SOL     OW23083   3.718   3.327   8.750 -0.2707  0.0993  0.0612
 3875SOL    HW123084   3.694   3.237   8.728  1.7504 -0.9120  2.0413
 3875SOL    HW223085   3.811   3.321   8.774 -0.7191 -0.3085  1.6517
 3876SOL     OW23086   0.653   3.764   0.728 -0.3492 -0.2785  0.1423
 3876SOL    HW123087   0.670   3.703   0.657 -3.4021 -0.0726 -0.7536
 3876SOL    HW223088   0.733   3.762   0.781  0.6175 -1.4392 -1.3681
 3877SOL     OW23089   2.116   2.731  16.699  0.4995 -0.0720 -0.3207
 3877SOL    HW123090   2.161   2.646  16.699  0.7000  0.0357  1.0420
 3877SOL    HW223091   2.026   2.700  16.712  0.8090 -0.5720  0.6938
 3878SOL     OW23092   1.734   2.882  17.232  0.0334  0.0863  0.2912
 3878SOL    HW123093   1.763   2.973  17.227  0.9398 -0.2740 -0.8482
 3878SOL    HW223094   1.694   2.863  17.148 -0.4240  1.6460  0.1713
 3879SOL     OW23095   1.280   2.680   3.938 -0.1238  0.4417 -0.3166
 3879SOL    HW123096   1.239   2.710   4.019  0.0113 -3.2361  1.1298
 3879SOL    HW223097   1.337   2.751   3.908  0.0897 -0.2561 -1.5741
 3880SOL     OW23098   3.695   4.308   4.787  0.2509  0.6567 -0.3568
 3880SOL    HW123099   3.644   4.254   4.848 -1.5622  0.6391 -1.9035
 3880SOL    HW223100   3.624   4.363   4.756  0.8789  0.3204 -2.3477
 3881SOL     OW23101   3.834   3.060  14.162  0.1914 -0.5353  0.2881
 3881SOL    HW123102   3.826   2.966  14.146 -0.9065 -1.0138  3.7448
 3881SOL    HW223103   3.925   3.074  14.134 -0.3572 -1.7555 -2.0816
 3882SOL     OW23104   2.404   3.141  16.018 -0.1577  0.1025  0.0676
 3882SOL    HW123105   2.398   3.051  16.051  1.9273  0.0983  0.4209
 3882SOL    HW223106   2.452   3.191  16.084  0.7744  0.6525 -1.0399
 3883SOL     OW23107   1.189   0.483   4.921  0.0954 -0.1146 -0.5132
 3883SOL    HW123108   1.137   0.406   4.900  0.2130 -0.7917  1.6590
 3883SOL    HW223109   1.123   0.550   4.904  1.2178  1.4478  1.2468
 3884SOL     OW23110   3.894   1.726  15.860 -0.2321  0.9641  0.2387
 3884SOL    HW123111   3.832   1.744  15.790 -1.4939 -1.1122  0.8333
 3884SOL    HW223112   3.978   1.765  15.833 -0.2023 -0.5687 -1.8489
 3885SOL     OW23113   3.010   2.437   5.637  0.1688 -0.3672  0.1300
 3885SOL    HW123114   3.104   2.429   5.651 -0.0547 -2.6893  0.3573
 3885SOL    HW223115   2.983   2.345   5.625 -0.2555 -0.1969 -0.2313
 3886SOL     OW23116   0.411   0.980   0.225 -0.1503 -0.0007 -0.2204
 3886SOL    HW123117   0.328   1.026   0.240  0.9721  1.6706  0.9246
 3886SOL    HW223118   0.436   0.981   0.318 -2.4196  0.3257  0.4072
 3887SOL     OW23119   3.664   1.275   0.700  0.2165  0.0543  0.1543
 3887SOL    HW123120   3.701   1.354   0.659  0.8386 -0.1118  0.3971
 3887SOL    HW223121   3.596   1.299   0.763 -0.1741 -2.6474  0.7584
 3888SOL     OW23122   2.040   1.273   6.464 -0.0514  0.0476  0.0685
 3888SOL    HW123123   2.112   1.336   6.465  1.2518 -1.4135 -1.4036
 3888SOL    HW223124   1.978   1.298   6.532 -0.7873  0.2514 -0.6726
 3889SOL     OW23125   3.665   1.444   6.673  0.5744  0.4929 -0.1192
 3889SOL    HW123126   3.706   1.454   6.587 -0.7814  0.8304 -0.7193
 3889SOL    HW223127   3.676   1.530   6.713 -1.4041 -0.1033  1.7280
 3890SOL     OW23128   4.579   2.808   4.526 -0.0159 -0.7791 -0.1094
 3890SOL    HW123129   4.662   2.840   4.561 -0.3762  0.3107 -0.2645
 3890SOL    HW223130   4.613   2.771   4.444 -0.1628  1.0643 -1.0143
 3891SOL     OW23131   0.192   3.671   3.597  0.5181 -0.3309  0.2338
 3891SOL    HW123132   0.153   3.594   3.555  0.5542 -0.2159 -0.0081
 3891SOL    HW223133   0.199   3.746   3.539  0.6357 -2.4741 -2.5340
 3892SOL     OW23134   2.657   1.581   1.659  1.0405 -0.2086 -0.1936
 3892SOL    HW123135   2.739   1.627   1.680  1.5317 -0.1687 -2.1874
 3892SOL    HW223136   2.663   1.517   1.729  0.1783  0.1021  0.1627
 3893SOL     OW23137   4.614   1.015   6.622 -0.9442 -0.3855  0.0006
 3893SOL    HW123138   4.609   0.948   6.690 -3.1327 -0.2678 -0.0626
 3893SOL    HW223139   4.632   1.086   6.684  1.2595 -0.6314 -0.3413
 3894SOL     OW23140   2.667   2.024   1.618 -0.2595 -0.1241 -0.2114
 3894SOL    HW123141   2.691   2.072   1.697 -0.1320  1.8818 -1.4762
 3894SOL    HW223142   2.665   2.099   1.559  0.8152  0.2762  0.2768
 3895SOL     OW23143   4.654   0.229  17.255 -0.2771 -0.2811 -0.3669
 3895SOL    HW123144   4.690   0.193  17.336  0.0858  2.8503  0.8718
 3895SOL    HW223145   0.009   0.273  17.218 -1.6696  2.6241  0.2159
 3896SOL     OW23146   3.283   0.977  12.207 -0.1108  0.7618  0.4605
 3896SOL    HW123147   3.247   1.003  12.122 -0.5086 -0.6000  0.2246
 3896SOL    HW223148   3.241   1.053  12.247 -2.5293  0.7854 -2.1677
 3897SOL     OW23149   0.940   1.341   4.342 -0.8557 -0.5778  0.4128
 3897SOL    HW123150   0.975   1.389   4.267  0.2594 -1.0004  0.6619
 3897SOL    HW223151   0.957   1.249   4.322  1.4189  0.3564 -1.8625
 3898SOL     OW23152   4.008   2.188   7.393  1.1979  0.5558  0.2410
 3898SOL    HW123153   3.974   2.272   7.424  1.1224  0.5345  0.2155
 3898SOL    HW223154   4.053   2.166   7.475  1.6158  0.1134 -0.1023
 3899SOL     OW23155   0.928   4.124   2.446 -0.5629 -0.7339 -0.4714
 3899SOL    HW123156   1.003   4.181   2.431 -1.6467  0.9072  0.2961
 3899SOL    HW223157   0.893   4.104   2.359 -2.0286  1.2751 -0.3444
 3900SOL     OW23158   2.921   2.018   4.920  0.1058  0.1267 -0.7487
 3900SOL    HW123159   2.867   1.941   4.939 -0.0144  0.4210  0.1148
 3900SOL    HW223160   2.973   1.981   4.849 -0.8857  1.7647 -2.3553
 3901SOL     OW23161   2.081   2.968   8.187  0.0494  0.2128  0.0071
 3901SOL    HW123162   2.022   2.956   8.261 -0.0048 -0.7027 -0.1955
 3901SOL    HW223163   2.061   3.060   8.168 -0.9182  0.5038  2.3949
 3902SOL     OW23164   2.792   2.429   8.693 -0.0523 -1.1881  0.1576
 3902SOL    HW123165   2.782   2.429   8.597 -1.2303  4.3079  0.2699
 3902SOL    HW223166   2.823   2.339   8.699  1.9019 -0.8143 -3.7461
 3903SOL     OW23167   4.234   0.337   6.652 -0.2373 -0.6506  0.7680
 3903SOL    HW123168   4.239   0.316   6.558  0.5251 -0.7656  0.8419
 3903SOL    HW223169   4.206   0.429   6.644 -1.1330 -0.9831 -0.0231
 3904SOL     OW23170   2.278   3.924   5.070  0.2328 -0.8386  0.2274
 3904SOL    HW123171   2.301   4.016   5.059 -0.5752 -0.6076  0.4660
 3904SOL    HW223172   2.182   3.920   5.065  0.4072 -1.4898 -2.2881
 3905SOL     OW23173   0.160   2.739   4.466 -1.0080  0.1079  0.6126
 3905SOL    HW123174   0.224   2.803   4.435 -1.2100 -1.3119 -2.7379
 3905SOL    HW223175   0.111   2.730   4.384  0.8748 -0.0881 -0.4855
 3906SOL     OW23176   3.099   0.752  10.622 -0.1428 -0.3931  0.0747
 3906SOL    HW123177   3.065   0.730  10.709 -0.5724 -2.6670 -0.6441
 3906SOL    HW223178   3.185   0.791  10.636 -0.8091  1.4326 -0.9528
 3907SOL     OW23179   3.683   1.448  12.888  0.0237 -0.0632  0.0232
 3907SOL    HW123180   3.640   1.460  12.973  0.3067  1.2352 -0.0164
 3907SOL    HW223181   3.700   1.538  12.864  0.3157 -0.3867 -0.9727
 3908SOL     OW23182   1.391   3.182   9.016  0.0342  0.2919  1.0945
 3908SOL    HW123183   1.407   3.135   9.098 -1.3519 -2.2674 -0.1073
 3908SOL    HW223184   1.467   3.240   9.011 -0.9260  1.5900  1.2355
 3909SOL     OW23185   0.770   2.152   5.557 -0.1163 -0.0555  0.3949
 3909SOL    HW123186   0.680   2.161   5.526 -0.1056  2.3878  1.0476
 3909SOL    HW223187   0.818   2.209   5.496 -1.7205 -1.2499 -1.9747
 3910SOL     OW23188   0.611   3.587   4.988 -0.1009  0.2428 -0.1038
 3910SOL    HW123189   0.602   3.524   4.916  0.5839 -0.7955  0.7112
 3910SOL    HW223190   0.546   3.547   5.046  1.7265 -1.2266  0.9521
 3911SOL     OW23191   0.948   3.997   4.500  0.3124 -0.0417  0.1013
 3911SOL    HW123192   0.883   3.937   4.464 -0.9913  1.0360  0.6204
 3911SOL    HW223193   0.991   3.940   4.563  1.5225 -0.1237 -0.8017
 3912SOL     OW23194   4.401   1.442   7.338  0.4291  0.2217 -0.6797
 3912SOL    HW123195   4.308   1.464   7.336  0.3111 -0.1640  0.7646
 3912SOL    HW223196   4.435   1.531   7.326 -0.0803  0.7244  1.5487
 3913SOL     OW23197   2.073   2.561   4.117 -0.0565 -0.8061  0.3879
 3913SOL    HW123198   2.122   2.537   4.038  1.7660  0.7216  1.0434
 3913SOL    HW223199   1.990   2.516   4.105  0.0572 -0.2909 -2.1854
 3914SOL     OW23200   3.048   3.735   7.418 -0.4308 -0.0449 -0.3612
 3914SOL    HW123201   3.004   3.695   7.493  1.8778  0.1096  1.0695
 3914SOL    HW223202   3.140   3.732   7.444  0.3843 -2.3007 -3.5303
 3915SOL     OW23203   3.765   3.191   2.192  0.6324 -0.4498  0.2582
 3915SOL    HW123204   3.755   3.116   2.133 -1.7501  0.3769 -0.4151
 3915SOL    HW223205   3.681   3.235   2.180 -0.1558 -1.9234  0.3695
 3916SOL     OW23206   3.058   0.367   2.937  0.0082 -0.3437 -0.0102
 3916SOL    HW123207   2.998   0.428   2.980  2.5968  2.4313 -0.3239
 3916SOL    HW223208   3.137   0.407   2.973  0.5444 -0.7665 -0.7286
 3917SOL     OW23209   4.061   4.529   7.621 -0.1810  0.6605  0.0429
 3917SOL    HW123210   4.038   4.489   7.705  2.6495 -1.3030 -0.1460
 3917SOL    HW223211   4.088   4.618   7.645  1.7242 -0.2471  1.2359
 3918SOL     OW23212   4.308   2.140   6.617  0.2928 -0.1597  0.2942
 3918SOL    HW123213   4.305   2.227   6.575  2.0783  1.0553  2.6434
 3918SOL    HW223214   4.397   2.149   6.653  0.4720 -0.6976 -0.0132
 3919SOL     OW23215   1.178   1.075   8.530 -0.2264  0.0725 -0.6057
 3919SOL    HW123216   1.096   1.054   8.573  0.2858  1.7580  1.1969
 3919SOL    HW223217   1.192   1.158   8.575  2.2599 -1.2009  0.9528
 3920SOL     OW23218   3.102   3.684   9.445  0.3604  0.2587  0.4892
 3920SOL    HW123219   3.173   3.666   9.383  0.8022  2.5521  0.3235
 3920SOL    HW223220   3.092   3.602   9.491  1.3582 -0.2451 -0.1765
 3921SOL     OW23221   0.593   2.774   5.931 -0.1665  0.1379  0.7164
 3921SOL    HW123222   0.599   2.720   5.853 -3.8772 -0.4414  0.8513
 3921SOL    HW223223   0.581   2.865   5.905  0.3119  0.0552  0.2035
 3922SOL     OW23224   0.360   3.320   4.175 -0.5458 -0.1226  0.3225
 3922SOL    HW123225   0.422   3.364   4.116 -0.8667  0.1155  0.1558
 3922SOL    HW223226   0.293   3.387   4.160  0.3018  0.2832 -1.7647
 3923SOL     OW23227   2.496   3.760   6.632  0.2701 -0.2877 -0.1749
 3923SOL    HW123228   2.454   3.782   6.715 -0.4828  0.2493 -0.7006
 3923SOL    HW223229   2.431   3.764   6.562  0.0563  3.0396  0.2167
 3924SOL     OW23230   4.665   3.828   4.680  0.2041 -0.5306  0.7102
 3924SOL    HW123231   4.634   3.907   4.724 -1.7030 -0.8897 -0.0079
 3924SOL    HW223232   4.719   3.789   4.749 -1.6664 -0.8806  1.9972
 3925SOL     OW23233   2.393   3.773  17.028  0.5182  0.8005 -0.9283
 3925SOL    HW123234   2.441   3.735  17.102  2.0014  0.2700 -2.1637
 3925SOL    HW223235   2.328   3.704  17.017  1.8309 -0.7453  0.9103
 3926SOL     OW23236   4.054   4.449   2.010  0.0996 -0.0812 -0.2070
 3926SOL    HW123237   4.010   4.425   2.092  2.8536  0.1810  1.3681
 3926SOL    HW223238   3.983   4.442   1.947  2.0524  1.0627 -2.5088
 3927SOL     OW23239   3.453   4.374   0.272 -0.0812  0.0556  0.2588
 3927SOL    HW123240   3.430   4.282   0.255  0.6614  0.1687 -1.3746
 3927SOL    HW223241   3.542   4.360   0.304 -0.4583  0.8529  1.6701
 3928SOL     OW23242   1.587   1.317  13.600  0.2480  0.0722  0.0706
 3928SOL    HW123243   1.516   1.356  13.549 -0.2783 -0.4557  0.4006
 3928SOL    HW223244   1.541   1.276  13.673 -1.3924  1.4207 -0.2215
 3929SOL     OW23245   1.997   1.033   8.854 -0.3346 -0.1308 -0.4441
 3929SOL    HW123246   1.983   0.955   8.908 -0.2197 -0.3802 -0.7787
 3929SOL    HW223247   1.903   1.048   8.842 -0.6077 -1.8673 -0.4726
 3930SOL     OW23248   0.697   4.425  17.039  0.0643 -0.4649 -0.2247
 3930SOL    HW123249   0.711   4.331  17.039  1.3188 -0.2788 -0.1288
 3930SOL    HW223250   0.718   4.448  17.129 -0.3376  2.1968 -0.7853
 3931SOL     OW23251   3.241   1.195  16.797 -0.3616 -0.1466 -0.9691
 3931SOL    HW123252   3.283   1.239  16.723  1.9519 -1.4487 -0.4059
 3931SOL    HW223253   3.301   1.122  16.802 -0.3115 -0.0991 -0.8789
 3932SOL     OW23254   0.645   1.042  12.942  0.1585 -0.3976 -1.0123
 3932SOL    HW123255   0.623   1.051  12.849  0.9362  0.1947 -1.1376
 3932SOL    HW223256   0.571   1.064  12.998  1.7209 -0.1379  0.9628
 3933SOL     OW23257   0.710   4.044   8.348  0.3880 -0.4636 -0.3279
 3933SOL    HW123258   0.704   4.139   8.338 -1.8134 -0.7203 -1.6674
 3933SOL    HW223259   0.713   4.038   8.443 -1.2077 -2.6850 -0.4183
 3934SOL     OW23260   2.921   4.548   1.340 -0.2743 -0.3793  0.4390
 3934SOL    HW123261   2.894   4.621   1.395  1.2827  1.5686 -1.3980
 3934SOL    HW223262   3.007   4.582   1.314 -1.2132 -0.6265 -2.9620
 3935SOL     OW23263   3.133   3.632   0.339  0.2546  0.4740  0.3203
 3935SOL    HW123264   3.203   3.674   0.288  0.3568 -0.1302 -0.0425
 3935SOL    HW223265   3.082   3.711   0.355 -0.4521  0.0719  0.0509
 3936SOL     OW23266   0.201   2.772   2.987 -0.1361  0.5174 -0.6628
 3936SOL    HW123267   0.122   2.824   3.004 -1.0782 -1.4251  0.8429
 3936SOL    HW223268   0.164   2.687   2.964  0.7167 -0.1317  0.3910
 3937SOL     OW23269   2.467   0.801   3.458  0.1046  0.1903  0.0985
 3937SOL    HW123270   2.411   0.874   3.486  0.8989  1.0261 -0.5322
 3937SOL    HW223271   2.522   0.791   3.536 -0.3491 -1.4831  0.1969
 3938SOL     OW23272   3.640   1.649  15.238  0.4324  0.7922 -0.2748
 3938SOL    HW123273   3.688   1.599  15.172  0.2266 -1.8093  1.5567
 3938SOL    HW223274   3.707   1.700  15.283  0.9864 -0.4208  0.2832
 3939SOL     OW23275   3.369   1.409   2.028  0.1864  0.4067  0.2854
 3939SOL    HW123276   3.401   1.430   2.116  1.7311 -0.9934  0.0542
 3939SOL    HW223277   3.401   1.480   1.973 -0.4996  0.0916 -0.5190
 3940SOL     OW23278   0.736   0.242   1.311  0.3358  0.4520  0.0788
 3940SOL    HW123279   0.821   0.286   1.311  0.1293  0.8564 -0.5100
 3940SOL    HW223280   0.749   0.159   1.357 -0.7088  0.1157 -0.2291
 3941SOL     OW23281   0.979   0.636   5.075  0.6082 -0.2939  0.0549
 3941SOL    HW123282   0.918   0.564   5.059  1.1670 -0.7426 -0.0434
 3941SOL    HW223283   1.023   0.609   5.155 -2.4140 -0.2470  1.7463
 3942SOL     OW23284   3.852   3.835  11.624  0.5057 -0.2909  0.2087
 3942SOL    HW123285   3.761   3.804  11.626  0.0661  1.0497  0.8442
 3942SOL    HW223286   3.835   3.921  11.585  0.9319  0.2783  1.2877
 3943SOL     OW23287   0.919   0.801  12.822 -0.1136 -0.3054 -0.3811
 3943SOL    HW123288   0.878   0.840  12.744  0.5900  2.2586  0.5203
 3943SOL    HW223289   1.003   0.786  12.779 -0.0654 -1.8606  0.2850
 3944SOL     OW23290   4.685   1.141   1.891  0.0285 -0.0320  0.2113
 3944SOL    HW123291   4.679   1.118   1.798  3.6614  0.9468 -0.2498
 3944SOL    HW223292   0.059   1.141   1.898  0.1715 -0.0733 -1.7658
 3945SOL     OW23293   4.342   4.067   3.665 -0.8992 -0.5688  0.1724
 3945SOL    HW123294   4.386   4.112   3.592  0.6319  1.5668  2.4359
 3945SOL    HW223295   4.302   3.997   3.613  0.3524 -1.2262  0.0874
 3946SOL     OW23296   0.681   4.248  10.436 -0.1612 -0.4423  0.1070
 3946SOL    HW123297   0.749   4.293  10.386  2.1480 -1.8861  1.9346
 3946SOL    HW223298   0.629   4.325  10.459 -0.7670 -0.5804 -0.7907
 3947SOL     OW23299   3.172   1.869   5.591 -0.3506 -0.1318 -0.6413
 3947SOL    HW123300   3.207   1.781   5.573 -0.7997  0.0077 -2.1738
 3947SOL    HW223301   3.079   1.856   5.574 -0.4994 -0.8741  0.7064
 3948SOL     OW23302   3.424   2.055   5.412 -0.1266 -0.3765 -0.4831
 3948SOL    HW123303   3.502   2.040   5.358  0.9076  2.7839  0.1350
 3948SOL    HW223304   3.452   1.999   5.484 -0.2880 -0.0002 -0.1238
 3949SOL     OW23305   2.729   1.888   8.782 -0.1477 -0.5371 -0.1824
 3949SOL    HW123306   2.664   1.832   8.740 -3.4638  2.4907  0.9271
 3949SOL    HW223307   2.719   1.877   8.877 -1.3626  0.9757 -0.1391
 3950SOL     OW23308   0.590   1.531   1.093  0.4664 -0.7028  0.3422
 3950SOL    HW123309   0.523   1.580   1.141  0.9179 -0.2592  0.5281
 3950SOL    HW223310   0.591   1.459   1.156  1.8226 -1.3112 -0.3802
 3951SOL     OW23311   0.177   1.012   4.224 -0.3567 -0.0930  0.1822
 3951SOL    HW123312   0.141   0.956   4.156 -0.2484  1.3839 -1.0943
 3951SOL    HW223313   0.240   0.957   4.270 -1.1677 -1.2059 -0.0438
 3952SOL     OW23314   2.050   2.397  15.000 -0.0980 -0.0934 -0.1439
 3952SOL    HW123315   2.137   2.438  14.991  0.0850 -0.6554 -0.9676
 3952SOL    HW223316   2.063   2.354  15.084  2.3817  2.7277  0.9535
 3953SOL     OW23317   3.252   1.369   7.232 -0.1921 -0.1622 -0.0362
 3953SOL    HW123318   3.290   1.285   7.208 -0.5197 -0.3250  0.0187
 3953SOL    HW223319   3.267   1.420   7.153 -3.1254  0.9586  0.1268
 3954SOL     OW23320   1.208   4.076  16.257  0.1719  0.3360 -0.5057
 3954SOL    HW123321   1.196   4.131  16.180 -2.3615  2.0831  1.1505
 3954SOL    HW223322   1.119   4.058  16.285  0.0593  0.3695 -0.8418
 3955SOL     OW23323   2.566   2.755   6.266  0.4779  0.1604 -0.3173
 3955SOL    HW123324   2.558   2.850   6.261 -1.9784 -0.0630 -0.3674
 3955SOL    HW223325   2.495   2.721   6.212 -1.2734  0.9031  1.5309
 3956SOL     OW23326   1.245   0.969  13.073  0.6075  0.3343 -0.1058
 3956SOL    HW123327   1.198   1.017  13.141  1.4427 -1.0400  1.4361
 3956SOL    HW223328   1.287   1.033  13.016  2.6426 -1.7130 -0.8967
 3957SOL     OW23329   1.461   1.132   8.734  0.0310 -0.4642  0.6264
 3957SOL    HW123330   1.542   1.162   8.693 -1.8885  2.3297 -1.0707
 3957SOL    HW223331   1.397   1.202   8.720  1.0212  0.5602  1.2741
 3958SOL     OW23332   3.669   2.543   0.945  0.1447  0.1412  0.3764
 3958SOL    HW123333   3.716   2.624   0.926 -0.7128  0.0118 -2.2098
 3958SOL    HW223334   3.664   2.510   0.856  1.0339  0.8313  0.0670
 3959SOL     OW23335   2.331   1.430   2.561 -0.3521 -0.3258 -0.4618
 3959SOL    HW123336   2.368   1.406   2.476  3.1502 -0.5185  1.1398
 3959SOL    HW223337   2.253   1.472   2.524 -0.8803 -0.2303  0.7785
 3960SOL     OW23338   0.672   2.789   0.781 -0.0751  0.6060 -0.4661
 3960SOL    HW123339   0.640   2.703   0.810 -0.9823  0.6204 -1.4064
 3960SOL    HW223340   0.601   2.850   0.798 -0.3462  0.4096 -0.8781
 3961SOL     OW23341   4.335   0.147  15.511  0.4650  0.0267 -0.4406
 3961SOL    HW123342   4.346   0.196  15.430  0.1709  0.6392 -0.1166
 3961SOL    HW223343   4.328   0.054  15.489 -1.2707 -0.4684  2.1408
 3962SOL     OW23344   2.983   1.553   5.634 -0.0865 -0.0215 -0.2814
 3962SOL    HW123345   2.912   1.490   5.626  1.9059 -2.6050  2.8545
 3962SOL    HW223346   2.945   1.619   5.576 -1.9891 -0.5081  0.4009
 3963SOL     OW23347   1.238   1.209   4.437 -0.4863  0.1750  0.1152
 3963SOL    HW123348   1.225   1.167   4.522  0.9431  3.0818  1.7393
 3963SOL    HW223349   1.149   1.196   4.403 -1.0767  1.9662  1.0075
 3964SOL     OW23350   3.794   4.541   6.926  0.0878 -0.3965 -0.0001
 3964SOL    HW123351   3.737   4.479   6.971  0.6049 -0.3162  0.7668
 3964SOL    HW223352   3.876   4.519   6.971  0.1697 -0.4160 -0.1600
 3965SOL     OW23353   0.947   2.859   0.788  0.0647  0.0930  0.3384
 3965SOL    HW123354   0.858   2.827   0.798  0.1168 -0.2325 -0.2521
 3965SOL    HW223355   0.940   2.948   0.753 -1.6889 -0.5217 -0.8680
 3966SOL     OW23356   2.059   1.646   8.106 -0.0356 -0.2692 -0.2075
 3966SOL    HW123357   2.147   1.612   8.114 -0.0734 -0.6275 -1.3067
 3966SOL    HW223358   2.017   1.592   8.039  0.8310 -0.8703 -0.2526
 3967SOL     OW23359   3.307   2.452   3.754  0.3726 -0.4514  0.0090
 3967SOL    HW123360   3.212   2.444   3.765  0.7169 -0.2192  3.0579
 3967SOL    HW223361   3.310   2.390   3.680 -1.1367 -0.4107 -0.0923
 3968SOL     OW23362   1.108   2.003   3.551  0.1278 -0.0685 -0.8973
 3968SOL    HW123363   1.128   1.967   3.465  3.1048  0.3823 -0.4010
 3968SOL    HW223364   1.015   1.980   3.548  0.1745 -0.5530  1.1311
 3969SOL     OW23365   2.522   1.936  16.289  0.4635  0.0082 -0.0359
 3969SOL    HW123366   2.472   2.000  16.340 -0.3830  1.3289 -2.4763
 3969SOL    HW223367   2.598   1.918  16.343  1.3656  1.6429 -0.7353
 3970SOL     OW23368   0.186   0.038   0.414 -0.3308 -0.0715 -0.2969
 3970SOL    HW123369   0.212   4.672   0.385 -0.1266 -0.1520  0.1359
 3970SOL    HW223370   0.094   0.015   0.423 -0.0107 -1.2429 -0.0652
 3971SOL     OW23371   3.753   1.062  13.308  0.3501 -0.9996 -0.0235
 3971SOL    HW123372   3.749   0.969  13.330 -1.2715 -0.7046  0.9821
 3971SOL    HW223373   3.832   1.093  13.352 -0.7021  1.5527  0.0545
 3972SOL     OW23374   3.208   3.117  11.375  0.3324 -0.7921  0.1423
 3972SOL    HW123375   3.180   3.031  11.407  0.2523 -1.5803 -2.0322
 3972SOL    HW223376   3.156   3.144  11.300  1.2919  0.2856 -0.1197
 3973SOL     OW23377   2.387   2.774   0.174  0.5009  0.3502  0.2909
 3973SOL    HW123378   2.460   2.743   0.121  0.3512 -0.8325  0.7759
 3973SOL    HW223379   2.364   2.860   0.138 -0.4959 -0.7496 -1.7091
 3974SOL     OW23380   1.921   1.587   6.166 -0.4291 -0.1900  0.5325
 3974SOL    HW123381   1.893   1.625   6.250 -0.6343 -0.2419  0.4881
 3974SOL    HW223382   1.857   1.613   6.100  0.0669 -1.1544 -0.3129
 3975SOL     OW23383   1.616   2.240   7.947 -0.0324 -0.5996  0.1418
 3975SOL    HW123384   1.658   2.167   7.992 -0.5159 -0.6827  0.4550
 3975SOL    HW223385   1.595   2.301   8.018  3.0266  2.0344 -1.2395
 3976SOL     OW23386   0.625   0.778  14.619 -0.0192 -0.5815 -0.1273
 3976SOL    HW123387   0.684   0.709  14.588  0.6281  0.2248 -0.6829
 3976SOL    HW223388   0.568   0.716  14.665  1.1036 -1.7105 -0.2336
 3977SOL     OW23389   1.088   3.188   4.362  0.5845 -0.2897  0.0640
 3977SOL    HW123390   1.131   3.262   4.406 -1.9049  0.1016  1.9044
 3977SOL    HW223391   1.151   3.172   4.293 -0.6981  1.1992 -1.4563
 3978SOL     OW23392   1.638   1.157   7.941  0.3589  0.6254 -0.0996
 3978SOL    HW123393   1.604   1.116   8.020 -0.3022 -0.8088 -1.1307
 3978SOL    HW223394   1.628   1.249   7.967 -1.6767 -0.1468  1.8027
 3979SOL     OW23395   3.927   1.819   4.611 -0.7830  0.4839  0.0311
 3979SOL    HW123396   3.967   1.898   4.646 -0.0915  0.0406  0.2373
 3979SOL    HW223397   3.834   1.842   4.620 -1.4075 -1.0605 -2.3677
 3980SOL     OW23398   4.570   2.290   4.389 -0.5136 -0.1577 -0.0172
 3980SOL    HW123399   4.534   2.325   4.471  1.1575 -0.7873  0.9990
 3980SOL    HW223400   4.511   2.329   4.326 -1.4741  1.1941  1.7138
 3981SOL     OW23401   0.823   1.094  15.123  0.4178  0.2069  0.0055
 3981SOL    HW123402   0.773   1.117  15.200 -0.6108 -1.0763 -0.2852
 3981SOL    HW223403   0.816   1.163  15.056 -0.6656 -0.4944 -0.5960
 3982SOL     OW23404   4.671   0.180   3.491  0.5037 -0.1450  0.1243
 3982SOL    HW123405   4.669   0.267   3.531 -1.6733 -0.5403  0.9050
 3982SOL    HW223406   0.041   0.168   3.464  0.9686 -0.5435  1.9075
 3983SOL     OW23407   2.718   2.048   4.730 -0.1496  0.0292 -0.3826
 3983SOL    HW123408   2.766   2.041   4.813  1.3570 -2.9232 -1.4941
 3983SOL    HW223409   2.626   2.051   4.755  0.4448  2.0872  1.4575
 3984SOL     OW23410   3.958   4.511   6.001  0.2372 -0.1030  0.2737
 3984SOL    HW123411   3.907   4.560   6.065  0.7693  0.9242 -0.0797
 3984SOL    HW223412   3.971   4.421   6.029 -0.4004 -0.2515  0.0782
 3985SOL     OW23413   0.434   4.442  16.141 -0.1273 -0.0074  0.7564
 3985SOL    HW123414   0.407   4.386  16.213  0.7826 -1.1580  0.2017
 3985SOL    HW223415   0.527   4.421  16.139 -0.1493 -0.0927  0.5475
 3986SOL     OW23416   0.916   4.258   6.070 -0.2865  0.1788 -0.0243
 3986SOL    HW123417   0.920   4.353   6.077  3.3419  0.1261 -1.7835
 3986SOL    HW223418   0.968   4.230   6.146  1.1778  0.2415 -1.0260
 3987SOL     OW23419   2.223   1.541   3.827 -0.2066  0.3142  0.2950
 3987SOL    HW123420   2.219   1.499   3.741  2.8038  1.0733 -0.2009
 3987SOL    HW223421   2.309   1.581   3.829 -1.7211  3.5685  0.1823
 3988SOL     OW23422   0.250   2.187  10.827 -0.1505 -0.9206 -0.1829
 3988SOL    HW123423   0.321   2.247  10.851 -0.6589  0.9487 -3.3595
 3988SOL    HW223424   0.240   2.142  10.911  3.2593 -1.4989 -0.0784
 3989SOL     OW23425   2.941   1.166   3.108 -0.2469 -0.0057 -0.3253
 3989SOL    HW123426   2.897   1.138   3.189  1.8142  0.4888  0.9759
 3989SOL    HW223427   2.947   1.258   3.132 -0.2724 -0.0980  0.0408
 3990SOL     OW23428   2.305   2.709   5.821 -0.1366 -0.4008 -0.5081
 3990SOL    HW123429   2.345   2.719   5.735  2.0096 -2.6032  0.2375
 3990SOL    HW223430   2.358   2.771   5.872 -2.0756 -1.0629  2.3522
 3991SOL     OW23431   4.353   2.971   8.439  0.8415  0.1305 -0.1038
 3991SOL    HW123432   4.449   2.968   8.434  0.7654 -2.0806 -0.2694
 3991SOL    HW223433   4.323   2.947   8.351  2.7872  2.7575 -1.5136
 3992SOL     OW23434   0.549   1.239   4.905 -0.3372  0.4043  0.2365
 3992SOL    HW123435   0.562   1.334   4.903  2.2204  0.0788  1.0214
 3992SOL    HW223436   0.458   1.231   4.879 -0.1627 -1.1991  0.1477
 3993SOL     OW23437   0.685   3.296  16.120 -0.0336  0.7118  0.0667
 3993SOL    HW123438   0.594   3.301  16.149 -0.4246 -0.6087 -0.9229
 3993SOL    HW223439   0.685   3.224  16.057  2.2889  1.0785 -0.3607
 3994SOL     OW23440   1.799   1.399  15.544 -1.1103  0.2584 -0.6483
 3994SOL    HW123441   1.719   1.419  15.594  0.5940 -1.4598  2.7021
 3994SOL    HW223442   1.847   1.482  15.552  1.6104 -1.2737 -1.1638
 3995SOL     OW23443   0.227   3.734   7.407  0.4599 -0.1577  0.5758
 3995SOL    HW123444   0.322   3.732   7.394  0.6725 -0.6699  2.2595
 3995SOL    HW223445   0.222   3.827   7.428 -2.0395 -0.3021  0.5881
 3996SOL     OW23446   3.934   2.935   4.755 -0.1513  0.4234 -0.4493
 3996SOL    HW123447   3.928   2.973   4.667  0.3750  1.1922 -0.1555
 3996SOL    HW223448   3.965   2.846   4.738 -1.8509 -0.5285  1.5135
 3997SOL     OW23449   1.741   0.221  13.880 -0.1049  0.5845 -0.2397
 3997SOL    HW123450   1.722   0.228  13.974  4.4376  1.1947  0.6491
 3997SOL    HW223451   1.655   0.196  13.848 -0.9398  0.8823  1.7995
 3998SOL     OW23452   1.423   0.283  14.257  0.6541  0.3291  0.6620
 3998SOL    HW123453   1.370   0.362  14.267 -1.3882 -1.0905  1.1139
 3998SOL    HW223454   1.442   0.263  14.349  0.7260  1.3472  0.8705
 3999SOL     OW23455   2.050   2.239   4.210  0.7581 -0.1803  0.2467
 3999SOL    HW123456   2.054   2.324   4.254  1.4281 -0.1983  0.2293
 3999SOL    HW223457   1.958   2.215   4.209  0.6636  0.2483 -0.8503
 4000SOL     OW23458   4.594   3.550   2.966  0.5872  0.6571 -0.4536
 4000SOL    HW123459   4.545   3.468   2.974  1.1271  0.2409 -1.4710
 4000SOL    HW223460   4.683   3.518   2.981  1.0344  0.5973 -3.3527
 4001SOL     OW23461   2.833   2.853   7.368 -0.4081 -0.3397  0.1081
 4001SOL    HW123462   2.754   2.874   7.319 -0.6514 -0.2571  0.5384
 4001SOL    HW223463   2.810   2.798   7.442 -1.7272  2.3628  1.6895
 4002SOL     OW23464   1.934   4.422  14.508 -0.0204 -0.4555  0.1269
 4002SOL    HW123465   1.905   4.468  14.586  1.5442 -0.0340  0.4696
 4002SOL    HW223466   2.030   4.427  14.507 -0.1035  0.9491 -1.0016
 4003SOL     OW23467   2.838   4.251   5.888  0.6044  0.5134 -0.2294
 4003SOL    HW123468   2.845   4.161   5.858  1.2331  0.3791  0.3011
 4003SOL    HW223469   2.792   4.226   5.968  2.8018 -0.5149  0.7073
 4004SOL     OW23470   4.095   1.382   2.471  0.2329 -0.5741 -0.7869
 4004SOL    HW123471   4.177   1.398   2.423  1.6788 -3.2953  0.7815
 4004SOL    HW223472   4.032   1.416   2.408  0.8060  0.2277 -0.9374
 4005SOL     OW23473   0.584   3.609   9.599 -0.3626  0.0752  0.1042
 4005SOL    HW123474   0.490   3.600   9.614 -0.5225  0.6741 -0.5544
 4005SOL    HW223475   0.603   3.533   9.543 -1.7349 -2.7725  3.4968
 4006SOL     OW23476   3.046   4.714   5.511 -0.6323  0.1282  0.4409
 4006SOL    HW123477   3.104   4.639   5.498 -1.1556 -0.1658 -0.1935
 4006SOL    HW223478   3.090   0.045   5.444 -0.4368  1.9432  2.0075
 4007SOL     OW23479   1.566   2.104   5.573  0.5973 -0.3264 -0.1528
 4007SOL    HW123480   1.635   2.082   5.510 -1.5041  1.5585 -3.1414
 4007SOL    HW223481   1.510   2.027   5.559 -2.3788  1.9282 -0.6230
 4008SOL     OW23482   0.346   2.909   0.807  0.0711  0.3650  0.2287
 4008SOL    HW123483   0.301   2.959   0.739  0.8078  2.2261  1.1269
 4008SOL    HW223484   0.430   2.953   0.818  0.1510 -0.7648  4.0568
 4009SOL     OW23485   4.557   1.987  10.918  0.1750  0.4573 -0.1131
 4009SOL    HW123486   4.467   2.019  10.920  0.0694  0.1871 -0.8191
 4009SOL    HW223487   4.575   1.969  10.826  0.5934 -0.9117  0.2323
 4010SOL     OW23488   1.278   2.316   1.944 -0.1053  0.5751 -0.6776
 4010SOL    HW123489   1.283   2.394   2.000  1.9766  1.1089 -1.6021
 4010SOL    HW223490   1.235   2.359   1.870 -0.6557  2.0262  0.4838
 4011SOL     OW23491   3.079   2.925   6.619 -0.2813  0.2473  0.0942
 4011SOL    HW123492   3.090   2.937   6.714 -0.5979  0.4095  0.1098
 4011SOL    HW223493   3.047   3.012   6.598  1.7992  1.2093  0.9514
 4012SOL     OW23494   0.377   3.675   2.103 -0.2361 -0.4213 -0.0104
 4012SOL    HW123495   0.456   3.651   2.052 -0.1399  2.8713 -1.3946
 4012SOL    HW223496   0.316   3.630   2.045  0.6938  0.8850 -2.0298
 4013SOL     OW23497   0.276   1.038  12.712 -0.3134  0.4724 -0.0472
 4013SOL    HW123498   0.256   1.105  12.778  0.3272  0.9824 -0.3707
 4013SOL    HW223499   0.214   1.060  12.642 -0.5377 -0.9449 -0.3019
 4014SOL     OW23500   1.962   3.498   8.149  0.3367  0.0028 -0.1883
 4014SOL    HW123501   2.049   3.522   8.178 -0.2954  0.8306  0.9964
 4014SOL    HW223502   1.978   3.407   8.124 -0.1786 -0.2228  0.3102
 4015SOL     OW23503   0.243   2.719   5.109 -0.0430  0.5633  0.5928
 4015SOL    HW123504   0.306   2.648   5.099 -1.0260  0.0011 -1.5867
 4015SOL    HW223505   0.187   2.695   5.183 -0.0797  0.0721  0.4060
 4016SOL     OW23506   1.415   3.806  10.166  0.1797  0.0429 -0.3679
 4016SOL    HW123507   1.374   3.759  10.093 -2.6756  0.8139  0.7316
 4016SOL    HW223508   1.479   3.745  10.203  1.1842  0.7230 -0.9945
 4017SOL     OW23509   0.483   3.229  15.869 -0.5693 -0.2048  0.3781
 4017SOL    HW123510   0.464   3.307  15.816  0.2995 -0.1992  0.0877
 4017SOL    HW223511   0.555   3.187  15.823 -0.3784 -1.4065  1.7572
 4018SOL     OW23512   3.895   0.084   8.179 -0.5686  0.4679 -0.5789
 4018SOL    HW123513   3.920   4.713   8.168 -2.4617 -0.1641  0.4086
 4018SOL    HW223514   3.913   0.100   8.272  1.4759 -1.3660 -0.6372
 4019SOL     OW23515   0.710   2.317   8.858 -0.2542  0.6467 -0.8477
 4019SOL    HW123516   0.760   2.301   8.778  0.2983 -0.5506 -0.2734
 4019SOL    HW223517   0.701   2.412   8.864 -1.6752  0.3502  1.5095
 4020SOL     OW23518   1.315   1.326  12.623  0.2207 -0.0401  0.8793
 4020SOL    HW123519   1.337   1.386  12.551  1.9990 -0.1919  1.2994
 4020SOL    HW223520   1.402   1.327  12.664  0.7689 -1.5035 -0.2759
 4021SOL     OW23521   0.034   2.633   3.575 -0.1259 -0.4473 -0.6335
 4021SOL    HW123522   0.095   2.684   3.522 -0.5363 -0.1070 -0.7710
 4021SOL    HW223523   4.689   2.614   3.509 -1.2246 -1.5211  0.7621
 4022SOL     OW23524   1.076   1.042   8.280  0.2282  0.8397 -0.1369
 4022SOL    HW123525   1.074   1.136   8.299  0.0102  0.6324  0.8572
 4022SOL    HW223526   1.100   1.009   8.366  1.2621 -0.8867 -1.0957
 4023SOL     OW23527   0.674   2.479   4.515  0.1903  0.2928  0.0945
 4023SOL    HW123528   0.703   2.529   4.439  0.0959  0.1174 -0.0564
 4023SOL    HW223529   0.582   2.473   4.489  0.2574 -0.0594 -0.0709
 4024SOL     OW23530   4.523   1.354   2.262 -0.2616  0.0092 -0.3440
 4024SOL    HW123531   4.530   1.390   2.173 -0.1222  0.4424 -0.1571
 4024SOL    HW223532   4.523   1.259   2.250 -1.1192  0.1162 -1.2382
 4025SOL     OW23533   1.213   0.897  13.728 -0.1312  0.0040  0.2501
 4025SOL    HW123534   1.122   0.926  13.725  0.0451  0.6298  1.0593
 4025SOL    HW223535   1.201   0.803  13.713 -0.3309  0.0290  0.2547
 4026SOL     OW23536   4.383   3.727   7.011  0.6510  0.2845  0.2108
 4026SOL    HW123537   4.461   3.674   7.001  0.7643  0.3667  0.6636
 4026SOL    HW223538   4.393   3.749   7.104  0.0089  1.2357  0.0613
 4027SOL     OW23539   2.519   1.062   6.365  0.2340  0.2009  0.4571
 4027SOL    HW123540   2.454   1.039   6.431 -0.1049 -1.0773 -0.3163
 4027SOL    HW223541   2.495   1.008   6.290 -0.9848 -0.6984  1.5061
 4028SOL     OW23542   3.515   2.808   0.411 -0.7466  0.1319  0.4835
 4028SOL    HW123543   3.510   2.713   0.420  0.1694  0.1271  0.9192
 4028SOL    HW223544   3.450   2.812   0.340  0.9468 -2.0296 -1.1774
 4029SOL     OW23545   3.353   0.284   6.195  0.5238  0.1239  0.2666
 4029SOL    HW123546   3.393   0.198   6.201  2.6725  1.2493  1.9592
 4029SOL    HW223547   3.304   0.292   6.277 -1.0942  2.3725 -0.9051
 4030SOL     OW23548   2.890   0.575   7.030 -0.2337 -0.2675  0.0574
 4030SOL    HW123549   2.858   0.503   7.084  1.0627  0.5911  1.9913
 4030SOL    HW223550   2.981   0.552   7.013 -0.7526 -2.1385 -0.1870
 4031SOL     OW23551   1.494   4.099   6.420  0.0810  0.5284 -0.2210
 4031SOL    HW123552   1.488   4.014   6.375 -2.1104  1.0838 -0.9798
 4031SOL    HW223553   1.566   4.081   6.480  0.4073  0.4433 -0.6337
 4032SOL     OW23554   1.124   2.828   4.115 -0.3909  0.0388  0.2749
 4032SOL    HW123555   1.034   2.861   4.119  0.3906  2.1522  0.5627
 4032SOL    HW223556   1.173   2.910   4.105 -0.0341 -0.0952  0.9009
 4033SOL     OW23557   4.478   1.377   7.852  0.3458 -0.4448  0.4471
 4033SOL    HW123558   4.562   1.423   7.845  0.5311 -0.8067  0.3026
 4033SOL    HW223559   4.488   1.327   7.933 -0.7376 -1.6903 -0.1873
 4034SOL     OW23560   0.136   2.996   2.725  0.0695 -0.5511 -0.1568
 4034SOL    HW123561   0.204   3.043   2.775 -0.4007  0.3958 -0.4027
 4034SOL    HW223562   0.167   2.906   2.724  2.1335  0.1464  1.0561
 4035SOL     OW23563   1.164   2.587  14.922 -0.0263  0.2670 -0.1629
 4035SOL    HW123564   1.231   2.652  14.903 -0.8120  1.5684  1.5300
 4035SOL    HW223565   1.196   2.502  14.892 -1.1123 -0.2048 -0.0062
 4036SOL     OW23566   1.944   1.339   5.641 -0.3862  0.5645  0.6983
 4036SOL    HW123567   1.911   1.378   5.722 -1.9655 -3.1646  1.8428
 4036SOL    HW223568   2.039   1.355   5.639 -0.4276  0.7917  0.5213
 4037SOL     OW23569   2.657   1.862   7.370 -0.1784  0.1276  0.1797
 4037SOL    HW123570   2.721   1.920   7.329 -1.1307  0.4654 -0.8473
 4037SOL    HW223571   2.627   1.811   7.295  1.8159 -1.0927  0.2080
 4038SOL     OW23572   1.832   2.462  10.119 -0.1714 -0.0453  0.0706
 4038SOL    HW123573   1.789   2.414  10.190 -2.5273  1.4069 -0.3913
 4038SOL    HW223574   1.843   2.400  10.046 -1.8953  0.4644 -0.6242
 4039SOL     OW23575   2.405   3.819   4.022 -0.4436 -0.2018  0.3935
 4039SOL    HW123576   2.327   3.811   4.077 -0.2286  1.5844  0.9570
 4039SOL    HW223577   2.403   3.740   3.968 -1.0522  0.8812 -1.1477
 4040SOL     OW23578   3.332   2.794  13.890 -0.0710 -0.3039  0.3386
 4040SOL    HW123579   3.403   2.762  13.834  0.7028  0.7159  0.7414
 4040SOL    HW223580   3.380   2.854  13.946  0.0909  1.3983 -1.6312
 4041SOL     OW23581   0.353   1.406   1.812 -0.9588 -0.0154  0.2604
 4041SOL    HW123582   0.322   1.324   1.850  1.2779 -1.2606 -0.5980
 4041SOL    HW223583   0.272   1.441   1.776 -1.0995 -1.2251 -0.6188
 4042SOL     OW23584   2.335   1.472   6.374 -0.0113  0.1038  0.3318
 4042SOL    HW123585   2.300   1.500   6.458 -0.8678  0.0031  0.0113
 4042SOL    HW223586   2.290   1.522   6.305 -1.1233 -0.7158  0.4605
 4043SOL     OW23587   3.070   3.580   9.816 -0.2824  0.0110  0.2090
 4043SOL    HW123588   3.053   3.674   9.806 -3.0857 -0.6933 -1.4019
 4043SOL    HW223589   3.073   3.548   9.726  1.3712 -1.1406  0.6610
 4044SOL     OW23590   0.062   2.100   4.355  0.3828  0.5755 -0.3183
 4044SOL    HW123591   0.025   2.012   4.348  0.9952  0.3421 -0.6355
 4044SOL    HW223592   4.704   2.154   4.363  0.4380  0.4339  1.1713
 4045SOL     OW23593   3.572   1.380   7.853  0.3043  0.2509  0.0528
 4045SOL    HW123594   3.535   1.329   7.925 -0.5200  1.4221  0.4647
 4045SOL    HW223595   3.657   1.337   7.847  0.5811  0.6931  0.7873
 4046SOL     OW23596   0.665   3.304   5.115 -0.3108 -0.7499  0.3651
 4046SOL    HW123597   0.692   3.376   5.172 -0.5174 -0.3184 -0.0886
 4046SOL    HW223598   0.674   3.339   5.027  0.6408 -2.0949 -0.0777
 4047SOL     OW23599   0.449   1.379  16.012 -0.2432  0.2082 -0.0925
 4047SOL    HW123600   0.427   1.385  15.919  1.1982 -1.4339 -0.5359
 4047SOL    HW223601   0.425   1.292  16.042 -2.3482  0.3020 -1.5262
 4048SOL     OW23602   0.019   3.661  12.718 -0.1939  0.5016  0.0405
 4048SOL    HW123603   4.659   3.705  12.692  0.2822 -0.0742 -2.3793
 4048SOL    HW223604   0.017   3.692  12.809 -0.6339 -0.1346  0.2526
 4049SOL     OW23605   2.488   4.507   4.124  0.4877 -0.3829 -0.4482
 4049SOL    HW123606   2.428   4.580   4.110  1.5233 -0.0583 -3.3382
 4049SOL    HW223607   2.465   4.442   4.057  0.2597 -0.1480 -0.6014
 4050SOL     OW23608   3.226   3.087   8.466 -0.1327  0.2445 -0.2037
 4050SOL    HW123609   3.181   3.090   8.551 -2.6507 -0.8528 -1.5094
 4050SOL    HW223610   3.252   3.176   8.444  0.2451 -0.2589 -1.8201
 4051SOL     OW23611   4.612   2.241  13.380 -0.4774  0.1116 -0.1673
 4051SOL    HW123612   4.604   2.315  13.440  1.9873  1.1067 -1.0428
 4051SOL    HW223613   4.655   2.278  13.303 -0.4100  2.9863  1.2210
 4052SOL     OW23614   0.647   2.887   6.625 -0.0287 -0.3324  0.2596
 4052SOL    HW123615   0.629   2.793   6.631 -1.2102 -0.0976  0.2592
 4052SOL    HW223616   0.641   2.901   6.530 -0.6187 -0.2388  0.3116
 4053SOL     OW23617   3.758   3.407   4.546 -0.2343  0.0956 -0.0095
 4053SOL    HW123618   3.786   3.465   4.617  0.0467 -0.0151 -0.0283
 4053SOL    HW223619   3.665   3.388   4.560 -0.2674 -1.3804 -2.1586
 4054SOL     OW23620   3.753   0.053   6.416  0.4793 -0.9409  0.2115
 4054SOL    HW123621   3.820   0.122   6.412 -1.9342  1.4041  0.3169
 4054SOL    HW223622   3.720   0.070   6.504 -2.0115 -0.6651 -0.7709
 4055SOL     OW23623   0.213   1.815  15.923 -0.0079  0.6638  0.5257
 4055SOL    HW123624   0.283   1.757  15.954  0.1141  1.1068  1.0653
 4055SOL    HW223625   0.263   1.880  15.874 -0.7070  1.3890  0.7725
 4056SOL     OW23626   4.056   1.194   7.398  0.4580  0.3750  0.4080
 4056SOL    HW123627   4.012   1.109   7.398  0.2708  0.4742  0.4300
 4056SOL    HW223628   4.019   1.227   7.316 -1.8496  0.7258  1.6211
 4057SOL     OW23629   3.619   3.889   6.089 -0.3208 -0.4985 -0.2863
 4057SOL    HW123630   3.670   3.814   6.118 -1.0742 -0.2828  1.6025
 4057SOL    HW223631   3.637   3.947   6.163 -0.4867 -1.3991  0.4660
 4058SOL     OW23632   2.868   3.029   8.791  0.3513 -0.5681 -0.3881
 4058SOL    HW123633   2.840   3.108   8.746 -2.0431 -1.3089 -0.1837
 4058SOL    HW223634   2.927   2.993   8.724 -1.6199 -0.2724 -2.2763
 4059SOL     OW23635   2.078   1.726   7.374  0.0441 -0.4852 -0.3752
 4059SOL    HW123636   2.062   1.817   7.399  0.4173 -0.1598 -1.3379
 4059SOL    HW223637   2.168   1.725   7.406 -0.7438  1.5653  1.9514
 4060SOL     OW23638   3.278   3.993  17.004  0.3693  0.1467 -0.2814
 4060SOL    HW123639   3.367   3.963  16.983 -0.0028 -2.1322  1.4119
 4060SOL    HW223640   3.300   4.043  17.082  0.2318  0.5680 -0.5127
 4061SOL     OW23641   0.260   0.735   7.635 -0.1726 -0.3339 -0.1476
 4061SOL    HW123642   0.187   0.777   7.589 -0.6594  1.2244  2.0673
 4061SOL    HW223643   0.315   0.810   7.658 -0.3950 -1.1039  2.8942
 4062SOL     OW23644   0.710   0.551   3.395 -0.5994  0.2312 -0.4357
 4062SOL    HW123645   0.799   0.585   3.383 -0.3043  0.2613  1.8046
 4062SOL    HW223646   0.661   0.622   3.353  1.1684  1.6997 -0.0278
 4063SOL     OW23647   2.652   1.114   9.288 -0.2612  0.5717  0.0684
 4063SOL    HW123648   2.667   1.200   9.327 -1.8906  0.9563 -0.1519
 4063SOL    HW223649   2.738   1.105   9.247 -0.9026 -0.4100 -1.1083
 4064SOL     OW23650   0.131   3.772   6.163  0.0226 -0.2081 -0.1728
 4064SOL    HW123651   0.040   3.785   6.133 -0.5812  1.2690  2.2512
 4064SOL    HW223652   0.179   3.817   6.094  0.6860 -0.8206 -0.1029
 4065SOL     OW23653   0.317   2.625  17.123  0.4662 -0.2449 -0.4314
 4065SOL    HW123654   0.317   2.538  17.085 -2.1294  0.1410 -1.3208
 4065SOL    HW223655   0.223   2.644  17.130  0.8126  0.8652  1.2863
 4066SOL     OW23656   2.005   3.694   4.963  0.4209 -0.2210 -0.0619
 4066SOL    HW123657   1.975   3.605   4.985 -1.0652  0.6240  1.2748
 4066SOL    HW223658   1.933   3.738   5.007  1.7059  0.3191  1.4910
 4067SOL     OW23659   3.059   3.954   2.464 -0.4896  0.1332 -0.7919
 4067SOL    HW123660   3.119   3.886   2.493  0.1026  1.5061  1.2577
 4067SOL    HW223661   3.019   3.928   2.381 -1.7715  0.1058 -0.1765
 4068SOL     OW23662   2.199   1.109   7.220  0.7186 -0.2536 -0.0843
 4068SOL    HW123663   2.227   1.163   7.294 -0.4881  0.5838 -0.2298
 4068SOL    HW223664   2.237   1.166   7.153 -0.0736 -1.1477 -1.2952
 4069SOL     OW23665   4.549   1.392  11.643  0.2685  0.5149  0.5225
 4069SOL    HW123666   4.511   1.339  11.712  0.5908 -1.8652 -1.1129
 4069SOL    HW223667   4.547   1.334  11.567  0.0191  2.3334 -0.8547
 4070SOL     OW23668   0.224   0.904   3.083 -0.2616  0.5286  0.0428
 4070SOL    HW123669   0.225   0.809   3.070 -1.6342  0.3539  1.1892
 4070SOL    HW223670   0.132   0.928   3.073 -0.3960 -0.0101 -0.0424
 4071SOL     OW23671   1.632   4.411   7.005  0.0591 -0.0685  0.2334
 4071SOL    HW123672   1.558   4.380   7.057  0.3535  0.9185  1.2460
 4071SOL    HW223673   1.666   4.487   7.052 -0.2559  1.1718 -1.5375
 4072SOL     OW23674   2.985   3.631   3.084  0.0092 -0.2661 -0.2887
 4072SOL    HW123675   3.053   3.604   3.146  0.9211 -0.5464 -1.3989
 4072SOL    HW223676   2.951   3.698   3.142  0.0805 -0.4520 -0.0285
 4073SOL     OW23677   2.875   4.570   8.535 -0.7846 -0.1831  0.2120
 4073SOL    HW123678   2.932   4.497   8.557  0.1760  0.8583  1.2299
 4073SOL    HW223679   2.837   4.586   8.621 -0.0936 -1.4571  0.7506
 4074SOL     OW23680   4.157   3.365  11.494  0.4058 -0.1570 -0.2798
 4074SOL    HW123681   4.107   3.295  11.451 -1.1324  2.3545 -2.6072
 4074SOL    HW223682   4.214   3.316  11.553  1.0579 -0.5202 -1.2014
 4075SOL     OW23683   0.114   3.648   8.426  0.8930 -0.1326  0.1224
 4075SOL    HW123684   0.082   3.731   8.391 -1.9773 -0.8511  1.0413
 4075SOL    HW223685   0.181   3.684   8.483 -2.2059  3.6095  1.4699
 4076SOL     OW23686   3.080   2.083  11.028  0.8278 -0.4760 -0.4212
 4076SOL    HW123687   3.006   2.045  10.980  1.0519 -1.8067  0.2779
 4076SOL    HW223688   3.132   2.002  11.028 -0.5810 -1.3353  3.4752
 4077SOL     OW23689   1.177   1.200  13.406  0.4362 -0.3036  0.4439
 4077SOL    HW123690   1.224   1.119  13.429 -1.2073 -2.0107 -2.2769
 4077SOL    HW223691   1.201   1.268  13.469  0.2067 -1.5220  1.8582
 4078SOL     OW23692   3.145   0.575   0.400 -0.2164 -0.4274  0.1785
 4078SOL    HW123693   3.144   0.649   0.461  2.5668  0.1028 -0.4063
 4078SOL    HW223694   3.143   0.500   0.460  2.2231 -0.6063  0.0261
 4079SOL     OW23695   2.522   4.708   0.662  0.7077  0.0400  0.4631
 4079SOL    HW123696   2.491   4.618   0.651 -3.4049  1.5428 -0.3056
 4079SOL    HW223697   2.567   4.715   0.746  1.3835 -0.5211  0.1417
 4080SOL     OW23698   0.260   1.904   8.762  1.0515 -0.8366 -0.9042
 4080SOL    HW123699   0.305   1.975   8.717 -1.2346 -0.3123 -2.3447
 4080SOL    HW223700   0.291   1.820   8.728  3.1764 -1.3506  2.3104
 4081SOL     OW23701   0.738   3.462   9.190 -1.0997 -0.1440 -0.6561
 4081SOL    HW123702   0.804   3.439   9.255 -3.0382 -1.8727  0.7005
 4081SOL    HW223703   0.685   3.382   9.185  0.0043 -1.0815  2.6686
 4082SOL     OW23704   4.537   4.537   1.824  0.4552  0.2953 -0.1831
 4082SOL    HW123705   4.484   4.458   1.809  0.4040  0.2234  0.3834
 4082SOL    HW223706   4.475   4.605   1.796 -0.8591 -0.3939  1.0411
 4083SOL     OW23707   3.050   1.039   2.120 -0.6724 -0.5719 -0.1345
 4083SOL    HW123708   3.095   0.956   2.111  0.5492  0.1050 -0.2977
 4083SOL    HW223709   3.120   1.101   2.100 -3.5651  2.6331 -0.4068
 4084SOL     OW23710   0.929   3.902   7.611 -0.2133 -0.0848 -0.1826
 4084SOL    HW123711   0.873   3.829   7.586 -0.6199 -0.0986  0.7661
 4084SOL    HW223712   0.886   3.978   7.571 -1.3822 -0.9697 -0.5892
 4085SOL     OW23713   4.283   1.843  16.027  0.3800 -0.0704 -0.0448
 4085SOL    HW123714   4.371   1.874  16.006 -0.1209  1.0843 -0.4137
 4085SOL    HW223715   4.261   1.892  16.106  0.9889  0.9936 -0.5328
 4086SOL     OW23716   3.007   1.151   8.750  0.6720  0.5626  0.0013
 4086SOL    HW123717   2.914   1.143   8.730  0.4528  1.2725  0.7591
 4086SOL    HW223718   3.019   1.058   8.773  0.2035  0.0176 -1.9513
 4087SOL     OW23719   3.974   1.430   5.395  1.2534 -0.0141 -0.1372
 4087SOL    HW123720   4.067   1.432   5.417  1.1972  0.0916  0.0850
 4087SOL    HW223721   3.946   1.486   5.467  2.1834  1.0633 -0.6062
 4088SOL     OW23722   3.526   3.897   4.727 -0.3269 -0.1423 -0.4331
 4088SOL    HW123723   3.545   3.927   4.638  0.0543 -0.7222 -0.5455
 4088SOL    HW223724   3.462   3.966   4.742 -0.7375 -0.6732  0.2338
 4089SOL     OW23725   2.495   2.875  16.186  0.1580  0.7907  0.3644
 4089SOL    HW123726   2.438   2.833  16.250  4.2055 -0.6918  2.9707
 4089SOL    HW223727   2.490   2.965  16.218 -0.6371  0.4237  1.2720
 4090SOL     OW23728   0.726   3.554   7.531 -0.0151 -0.5001 -0.4514
 4090SOL    HW123729   0.777   3.590   7.458 -1.7695 -0.2287 -1.5289
 4090SOL    HW223730   0.785   3.480   7.545  0.0810 -0.6766 -1.7296
 4091SOL     OW23731   3.138   1.990  14.947  0.4954 -0.1355  0.4461
 4091SOL    HW123732   3.217   1.951  14.910  0.3111 -1.1035  1.0685
 4091SOL    HW223733   3.060   1.947  14.910 -0.0815  1.2468  0.0648
 4092SOL     OW23734   2.824   0.001  13.818 -0.3879  0.0178 -0.1058
 4092SOL    HW123735   2.768   4.679  13.881 -2.2148  0.6243 -1.3265
 4092SOL    HW223736   2.781   4.682  13.742 -1.8583 -0.4260  0.9746
 4093SOL     OW23737   4.540   4.504  15.257  0.2306  0.3619  0.2546
 4093SOL    HW123738   4.483   4.495  15.181  0.3156  0.9048  0.1212
 4093SOL    HW223739   4.566   4.412  15.260 -0.7401  0.1278  1.7368
 4094SOL     OW23740   2.455   4.047  16.959  0.6633  0.2762  0.1684
 4094SOL    HW123741   2.537   4.036  17.007  0.4810 -0.0210  0.4116
 4094SOL    HW223742   2.429   3.955  16.946  1.0615  0.3063 -0.8417
 4095SOL     OW23743   1.830   3.884   6.781  0.7651 -0.8838  0.2628
 4095SOL    HW123744   1.762   3.848   6.838 -0.0118 -1.3005 -0.9378
 4095SOL    HW223745   1.876   3.933   6.849  0.8045  1.1842 -1.2519
 4096SOL     OW23746   2.482   3.026  12.165  0.5526 -0.3646 -0.5702
 4096SOL    HW123747   2.530   2.971  12.228  1.1083  0.3199 -0.3892
 4096SOL    HW223748   2.403   3.047  12.215  0.3117 -4.0377  0.5971
 4097SOL     OW23749   2.710   0.848   2.768  0.5743 -0.1423 -0.1168
 4097SOL    HW123750   2.727   0.925   2.823 -2.9715 -1.5014  2.8735
 4097SOL    HW223751   2.759   0.867   2.688 -1.1325 -0.6308 -1.2916
 4098SOL     OW23752   2.327   0.015  11.225 -0.2157 -0.0829  0.2985
 4098SOL    HW123753   2.263   4.695  11.168 -0.7112 -1.4383  1.8134
 4098SOL    HW223754   2.349   4.660  11.279  0.0709  0.3575  0.8149
 4099SOL     OW23755   0.755   1.389   8.712  0.5473  0.2851  0.4662
 4099SOL    HW123756   0.788   1.458   8.769 -0.8220  0.3307  1.1983
 4099SOL    HW223757   0.772   1.424   8.624 -1.5136  0.1131  0.0133
 4100SOL     OW23758   0.147   3.647   3.173 -0.0226  0.0367  0.4897
 4100SOL    HW123759   0.183   3.583   3.235  0.3288  0.4991  0.7631
 4100SOL    HW223760   0.167   3.733   3.208  0.9143 -1.3397  3.3720
 4101SOL     OW23761   4.476   2.465   6.008 -0.4448  0.7400  0.1086
 4101SOL    HW123762   4.492   2.524   5.935  0.7055  0.4673  0.1415
 4101SOL    HW223763   4.556   2.469   6.060  0.7400 -1.7672 -1.4840
 4102SOL     OW23764   3.969   4.299  15.426  0.2889 -0.7778  0.2702
 4102SOL    HW123765   3.887   4.343  15.450 -0.0085 -1.7906  1.1022
 4102SOL    HW223766   4.015   4.369  15.380  2.3856 -2.0532  0.4449
 4103SOL     OW23767   1.026   1.284   9.250  0.3513  0.1487 -0.3243
 4103SOL    HW123768   1.064   1.243   9.328 -1.5683  0.5175  0.8103
 4103SOL    HW223769   1.107   1.302   9.203  0.5784 -0.7770 -0.2895
 4104SOL     OW23770   2.395   2.234  11.445 -0.9176 -0.5230 -0.0564
 4104SOL    HW123771   2.373   2.290  11.519  1.3723 -0.0213  0.2666
 4104SOL    HW223772   2.455   2.286  11.392 -0.3707 -0.3333  0.7454
 4105SOL     OW23773   2.079   4.424   5.194  0.0347  0.4996 -0.0981
 4105SOL    HW123774   2.101   4.496   5.254 -0.5814  0.4365  0.2056
 4105SOL    HW223775   1.993   4.401   5.230  0.2125 -2.0533 -1.3320
 4106SOL     OW23776   4.314   2.989   2.812  0.1436  0.0120 -0.3928
 4106SOL    HW123777   4.402   2.967   2.843  0.3061  0.8838 -0.2162
 4106SOL    HW223778   4.302   3.081   2.836 -2.9311 -0.6850  0.7385
 4107SOL     OW23779   4.226   0.017   3.605 -0.2882 -0.3851 -0.0529
 4107SOL    HW123780   4.317   0.017   3.577 -0.6161  0.4154 -1.0851
 4107SOL    HW223781   4.236   0.002   3.699  2.0121  0.6554 -0.1492
 4108SOL     OW23782   2.265   0.441   4.003  0.3910 -0.0022  0.4960
 4108SOL    HW123783   2.184   0.395   4.025  0.6142 -0.3928  0.5129
 4108SOL    HW223784   2.241   0.462   3.913  0.1546 -1.4206  0.2284
 4109SOL     OW23785   4.497   3.891   2.808 -0.1183  0.3425  0.1396
 4109SOL    HW123786   4.572   3.847   2.849 -0.5262  0.8452  1.4110
 4109SOL    HW223787   4.468   3.825   2.745  0.9705  1.1614 -1.2213
 4110SOL     OW23788   1.042   0.458  16.805 -0.1966  0.3208  0.2918
 4110SOL    HW123789   0.959   0.502  16.788 -0.6512 -0.3201  0.8451
 4110SOL    HW223790   1.105   0.482  16.736 -0.7834  0.8615 -0.0520
 4111SOL     OW23791   0.956   1.025   2.424 -0.0853 -0.0533 -0.4112
 4111SOL    HW123792   0.958   0.934   2.395  1.5262 -0.2043  0.1715
 4111SOL    HW223793   0.963   1.076   2.343 -1.1503  1.7641  0.6255
 4112SOL     OW23794   2.159   0.487   3.129 -0.2266  0.4636  0.0701
 4112SOL    HW123795   2.233   0.523   3.178 -0.7659 -0.4295  1.5665
 4112SOL    HW223796   2.172   0.396   3.156 -0.0428  0.9193  1.5423
 4113SOL     OW23797   1.381   4.247  13.137  0.8650 -0.1004 -0.0673
 4113SOL    HW123798   1.400   4.341  13.136 -3.7418  0.8297  0.0443
 4113SOL    HW223799   1.288   4.250  13.161  0.7956  0.4946 -0.4017
 4114SOL     OW23800   4.630   4.491   2.093 -0.7339  0.2081 -0.8980
 4114SOL    HW123801   4.586   4.483   2.008  1.3523 -1.1725 -1.8538
 4114SOL    HW223802   4.605   4.574   2.134  0.1407 -0.0417  0.1504
 4115SOL     OW23803   1.547   3.874   2.272  0.0158 -0.7405  0.0607
 4115SOL    HW123804   1.552   3.779   2.279 -0.2149 -0.7832 -0.3592
 4115SOL    HW223805   1.459   3.884   2.237  0.6750  1.6075 -0.9930
 4116SOL     OW23806   2.314   0.982   8.754 -0.4593  0.0127 -0.0720
 4116SOL    HW123807   2.343   0.974   8.845  0.3273  1.8180 -0.1727
 4116SOL    HW223808   2.228   0.939   8.752  0.3946 -1.4847 -3.2245
 4117SOL     OW23809   0.905   1.584   9.939  0.2819 -0.2505 -0.1426
 4117SOL    HW123810   0.947   1.498   9.944 -2.2096 -1.3580  1.6008
 4117SOL    HW223811   0.868   1.597  10.027 -1.7158  1.6096 -1.2694
 4118SOL     OW23812   2.713   4.407   0.674  0.1662 -0.0295  0.4236
 4118SOL    HW123813   2.679   4.432   0.759 -0.3819 -0.0498  0.2086
 4118SOL    HW223814   2.674   4.464   0.607  0.0082 -2.1400 -1.2716
 4119SOL     OW23815   2.895   0.533  12.915 -0.0357 -0.4067 -0.4834
 4119SOL    HW123816   2.898   0.466  12.847 -1.7627 -3.6033  2.5838
 4119SOL    HW223817   2.875   0.612  12.865 -0.7366  0.2073  0.7794
 4120SOL     OW23818   3.981   0.605   5.366  0.3810 -0.2028 -0.4807
 4120SOL    HW123819   3.934   0.544   5.423  2.9267 -1.5391  0.2106
 4120SOL    HW223820   3.957   0.582   5.276  1.6385  0.8128 -1.0848
 4121SOL     OW23821   3.827   2.989   3.643 -0.2847  0.6722 -0.2149
 4121SOL    HW123822   3.886   2.976   3.717 -0.0176  0.4069 -0.4776
 4121SOL    HW223823   3.829   2.898   3.614  0.5876  0.3618  0.8485
 4122SOL     OW23824   2.934   2.809   6.244 -0.3557 -0.2983 -0.0569
 4122SOL    HW123825   2.947   2.894   6.203 -0.9188  0.4094  1.2614
 4122SOL    HW223826   2.859   2.781   6.191 -2.0265  1.8780  1.2106
 4123SOL     OW23827   3.757   3.849  10.786  0.4127 -0.2014  0.6057
 4123SOL    HW123828   3.795   3.798  10.857  1.4379 -1.9822 -1.2154
 4123SOL    HW223829   3.737   3.931  10.831 -0.0340  0.8416 -1.4961
 4124SOL     OW23830   3.628   3.271   6.112  0.0884 -0.1009 -0.2175
 4124SOL    HW123831   3.709   3.228   6.137  0.0809  0.0141  0.0022
 4124SOL    HW223832   3.606   3.194   6.059  1.4532  0.9743 -2.3622
 4125SOL     OW23833   3.198   1.669  16.112  0.6911  0.2481 -0.4652
 4125SOL    HW123834   3.263   1.714  16.057  1.2449  0.2061  0.1579
 4125SOL    HW223835   3.161   1.619  16.039  1.1940  0.4586 -0.8673
 4126SOL     OW23836   4.575   2.710   0.788 -0.0489 -0.0612 -0.3091
 4126SOL    HW123837   4.571   2.715   0.693 -1.0292 -0.6255 -0.2960
 4126SOL    HW223838   4.633   2.785   0.803  0.9713 -0.5660 -1.6661
 4127SOL     OW23839   0.510   0.465   0.552  0.4295  0.1576 -0.2270
 4127SOL    HW123840   0.484   0.496   0.638 -0.8243 -0.6472 -0.3215
 4127SOL    HW223841   0.523   0.552   0.514 -0.5628  0.2460 -0.3441
 4128SOL     OW23842   1.237   4.157  10.538 -0.3347 -0.4010 -0.7347
 4128SOL    HW123843   1.253   4.096  10.610  2.0649  0.6071 -0.4043
 4128SOL    HW223844   1.256   4.104  10.461  2.5759 -0.3071 -0.0919
 4129SOL     OW23845   3.379   3.119   9.415  0.3409  0.6174  0.0465
 4129SOL    HW123846   3.388   3.214   9.403  1.8169  0.4291 -0.3208
 4129SOL    HW223847   3.436   3.109   9.491 -0.5324 -0.4637  0.5469
 4130SOL     OW23848   0.097   1.420  11.578 -1.0479  0.9494 -0.1314
 4130SOL    HW123849   0.006   1.419  11.606 -1.3767  3.3982 -1.0711
 4130SOL    HW223850   0.118   1.514  11.572 -0.4682  0.8877  0.7647
 4131SOL     OW23851   2.654   3.630   2.764  0.1905 -0.6558  0.5855
 4131SOL    HW123852   2.652   3.589   2.677 -0.4397 -3.3461  1.8565
 4131SOL    HW223853   2.726   3.583   2.805  0.5926  0.5753  1.2948
 4132SOL     OW23854   4.092   1.212   3.274  0.2347  0.7566  0.1939
 4132SOL    HW123855   4.174   1.261   3.274  0.2090  0.7694 -3.6815
 4132SOL    HW223856   4.122   1.121   3.279 -0.1677  0.7313  2.2147
 4133SOL     OW23857   2.856   0.922   9.006 -0.3620 -0.5476 -0.0853
 4133SOL    HW123858   2.794   0.984   9.044  0.3580 -0.5730  1.1512
 4133SOL    HW223859   2.806   0.879   8.937  2.1079 -2.3122 -0.8046
 4134SOL     OW23860   0.225   0.762  11.240  0.5487  0.0807 -0.4776
 4134SOL    HW123861   0.203   0.782  11.149 -1.3872 -0.5160 -0.1435
 4134SOL    HW223862   0.219   0.848  11.282  0.4280 -0.0827 -0.1568
 4135SOL     OW23863   2.732   3.868   3.346  0.5594 -0.0700  0.1569
 4135SOL    HW123864   2.738   3.934   3.415 -1.0582  0.4143 -0.1584
 4135SOL    HW223865   2.643   3.833   3.358  0.3073  0.3247 -0.5226
 4136SOL     OW23866   0.860   3.345   7.656  0.6322 -0.2142 -0.1110
 4136SOL    HW123867   0.919   3.272   7.637  0.6351  0.0513 -1.1323
 4136SOL    HW223868   0.831   3.318   7.743  1.0978 -1.0413 -0.2111
 4137SOL     OW23869   2.420   4.482   6.299  0.7008  0.3825  0.0020
 4137SOL    HW123870   2.513   4.487   6.275 -0.0209 -0.3574 -2.9374
 4137SOL    HW223871   2.427   4.412   6.363  1.2688 -1.0475 -1.6122
 4138SOL     OW23872   2.186   1.658   9.799 -0.1929  0.1326  0.0263
 4138SOL    HW123873   2.182   1.562   9.799 -0.0191  0.1239  0.6884
 4138SOL    HW223874   2.273   1.679   9.835 -0.5324  0.8500  0.4272
 4139SOL     OW23875   3.208   1.152   6.155  0.2270  0.2533 -0.3481
 4139SOL    HW123876   3.232   1.065   6.184  0.0039 -0.1003 -1.2342
 4139SOL    HW223877   3.270   1.165   6.083 -0.1878  2.4125 -0.3389
 4140SOL     OW23878   2.594   4.404   7.574  0.1662 -0.4382  0.1726
 4140SOL    HW123879   2.584   4.396   7.479  3.4660  0.3259 -0.2581
 4140SOL    HW223880   2.662   4.337   7.581 -1.4694 -1.8162  2.8456
 4141SOL     OW23881   0.911   1.155   3.274  0.2503  0.1581  0.4337
 4141SOL    HW123882   0.822   1.181   3.300  0.1270  1.7045 -1.5372
 4141SOL    HW223883   0.947   1.243   3.287  0.9600  0.0816 -1.0213
 4142SOL     OW23884   0.499   3.844   0.932 -0.6002 -0.2592  0.2971
 4142SOL    HW123885   0.538   3.930   0.952 -3.5768  1.0581  0.4839
 4142SOL    HW223886   0.536   3.822   0.846  0.1706  0.1501  0.5218
 4143SOL     OW23887   4.664   4.145   0.131  0.0187 -0.4498 -0.6509
 4143SOL    HW123888   4.678   4.219   0.072  0.7586 -0.0888 -0.0190
 4143SOL    HW223889   4.627   4.073   0.080  0.4652  1.4098 -3.5904
 4144SOL     OW23890   1.477   1.748   4.323 -0.5793  0.6143 -0.2388
 4144SOL    HW123891   1.557   1.782   4.363 -0.0586 -0.7926 -0.0705
 4144SOL    HW223892   1.452   1.683   4.389  0.4491 -0.6962 -1.1438
 4145SOL     OW23893   3.157   0.661   5.194 -0.4576 -0.0942 -0.1102
 4145SOL    HW123894   3.088   0.674   5.259  1.3930  2.4561  1.3124
 4145SOL    HW223895   3.191   0.573   5.207 -0.9339 -0.2148  0.3715
 4146SOL     OW23896   1.783   3.040   7.481 -0.2658  0.4918 -0.2004
 4146SOL    HW123897   1.703   3.087   7.457 -0.3172 -0.8321 -2.6654
 4146SOL    HW223898   1.831   3.098   7.539  0.8306  1.2330 -1.8369
 4147SOL     OW23899   1.080   0.141  16.728 -0.1847  0.6731 -0.6391
 4147SOL    HW123900   1.033   0.170  16.650 -2.3069  0.0855  0.4367
 4147SOL    HW223901   1.011   0.139  16.795  2.1380 -1.8183  1.6903
 4148SOL     OW23902   1.798   4.160  10.350  0.2615  0.1259 -0.0433
 4148SOL    HW123903   1.713   4.121  10.332  1.4318 -1.7662 -1.5227
 4148SOL    HW223904   1.856   4.115  10.289 -0.7621  1.2208 -1.8048
 4149SOL     OW23905   2.718   2.224   6.246  0.2368  0.3268  0.2730
 4149SOL    HW123906   2.679   2.139   6.267  1.0919  0.0813  0.8526
 4149SOL    HW223907   2.739   2.208   6.154 -2.8969 -3.2836  0.1736
 4150SOL     OW23908   1.643   3.851   4.681 -0.2322  0.3920  0.2190
 4150SOL    HW123909   1.708   3.835   4.750 -1.0605 -1.4151  0.5635
 4150SOL    HW223910   1.575   3.900   4.727 -0.6073  0.0683 -0.0020
 4151SOL     OW23911   0.430   1.485   6.081 -0.1024 -0.0996 -0.5933
 4151SOL    HW123912   0.480   1.423   6.028  0.4616  0.9060 -1.2452
 4151SOL    HW223913   0.439   1.571   6.040  1.5893  0.6187  1.2636
 4152SOL     OW23914   2.489   0.775   5.317  0.0816  0.0258  0.0857
 4152SOL    HW123915   2.497   0.680   5.308 -1.4053 -0.2721  1.9552
 4152SOL    HW223916   2.395   0.788   5.314  0.2457  0.8278 -1.4857
 4153SOL     OW23917   4.707   1.561   6.538 -0.5751  0.7499  0.4242
 4153SOL    HW123918   0.021   1.639   6.581  1.2928  0.6461 -0.9113
 4153SOL    HW223919   4.642   1.540   6.605 -0.0485 -2.5039 -0.0863
 4154SOL     OW23920   3.130   3.059   9.998 -0.0438 -0.3529  0.2551
 4154SOL    HW123921   3.065   2.994   9.971 -0.4974  0.6335 -1.0591
 4154SOL    HW223922   3.084   3.142  10.010  2.0142  1.2072 -2.6941
 4155SOL     OW23923   3.115   3.778   4.031 -0.1590 -0.1450  0.4623
 4155SOL    HW123924   3.031   3.823   4.020  0.1191  0.7382  1.8643
 4155SOL    HW223925   3.103   3.740   4.118  0.8290 -0.2386  0.5571
 4156SOL     OW23926   1.268   1.649   2.822 -0.4847  0.9069 -0.4596
 4156SOL    HW123927   1.284   1.679   2.733  1.8676 -0.4502 -0.5066
 4156SOL    HW223928   1.253   1.560   2.791 -0.6574  1.0710 -0.8406
 4157SOL     OW23929   1.953   1.199   7.867 -0.2409 -0.1016  0.0710
 4157SOL    HW123930   1.972   1.176   7.776 -2.0264 -1.7839  0.1104
 4157SOL    HW223931   1.924   1.113   7.897 -0.4777 -0.3398 -0.8397
 4158SOL     OW23932   4.351   3.256   8.295 -0.6673  0.2410 -0.2556
 4158SOL    HW123933   4.364   3.163   8.314 -0.3518  0.0060 -1.6096
 4158SOL    HW223934   4.256   3.268   8.293 -1.0097 -2.3372  0.1928
 4159SOL     OW23935   4.474   1.771  14.911 -0.3348 -0.1355 -0.0794
 4159SOL    HW123936   4.462   1.810  14.824  2.4570  0.6874 -0.1155
 4159SOL    HW223937   4.489   1.680  14.886  0.6575 -0.5633  2.0946
 4160SOL     OW23938   1.322   0.810  10.449  0.4051 -0.2677  0.0457
 4160SOL    HW123939   1.239   0.852  10.426  0.9871  1.2739  0.7947
 4160SOL    HW223940   1.293   0.731  10.495  1.7738 -1.0394 -0.4085
 4161SOL     OW23941   0.485   0.316   0.002 -0.0833 -0.0695 -0.3283
 4161SOL    HW123942   0.567   0.306   0.050 -0.7183  0.2936  0.8329
 4161SOL    HW223943   0.490   0.409  17.666  0.4053 -0.0727 -0.2327
 4162SOL     OW23944   2.892   3.321   4.597 -0.5958  0.4409 -0.1532
 4162SOL    HW123945   2.922   3.389   4.658  0.8125  1.4226 -1.9276
 4162SOL    HW223946   2.889   3.368   4.513  0.2917 -2.2895 -1.7326
 4163SOL     OW23947   3.607   0.948   3.398 -0.2045 -0.1179 -0.0769
 4163SOL    HW123948   3.582   0.994   3.318  1.4982 -1.5717 -1.4457
 4163SOL    HW223949   3.521   0.908   3.409 -0.2587  0.0239  0.0183
 4164SOL     OW23950   1.969   1.938   8.606 -0.2424  0.0434  0.1683
 4164SOL    HW123951   1.893   1.880   8.610 -2.1620  2.3614 -2.9622
 4164SOL    HW223952   2.011   1.927   8.691 -0.3496  1.1410  0.3588
 4165SOL     OW23953   1.428   1.762   6.913 -0.7528 -0.7045  0.2150
 4165SOL    HW123954   1.478   1.832   6.869 -1.0173  0.1725  1.3050
 4165SOL    HW223955   1.474   1.680   6.895 -1.6057 -1.4366  1.4400
 4166SOL     OW23956   1.387   0.998   1.788  0.6820 -0.5291  0.2211
 4166SOL    HW123957   1.478   1.014   1.763  0.5427 -2.6409 -1.6654
 4166SOL    HW223958   1.368   1.054   1.863 -2.6071 -2.0964  0.5585
 4167SOL     OW23959   3.654   1.770   4.377  0.4696 -0.4156 -0.2222
 4167SOL    HW123960   3.666   1.829   4.451 -0.5094 -1.4544  0.7826
 4167SOL    HW223961   3.561   1.786   4.360  0.2263 -0.8553  0.6392
 4168SOL     OW23962   4.141   3.604   7.185  0.1980 -0.1721 -0.2819
 4168SOL    HW123963   4.179   3.677   7.234  1.0952 -0.0136 -1.2185
 4168SOL    HW223964   4.207   3.539   7.208 -0.1885 -0.1064  1.0246
 4169SOL     OW23965   3.692   1.972   4.549  0.4802  0.4355 -0.1640
 4169SOL    HW123966   3.643   2.005   4.625  0.0952 -0.0710 -0.1890
 4169SOL    HW223967   3.733   2.050   4.512  1.2232 -0.1413 -0.5438
 4170SOL     OW23968   4.046   1.414  13.448 -0.1423 -0.2524 -0.5367
 4170SOL    HW123969   4.046   1.507  13.475 -1.1990  0.4097 -2.8995
 4170SOL    HW223970   3.967   1.385  13.494  0.3970  1.0308  1.2358
 4171SOL     OW23971   0.295   4.537  16.759 -0.1471 -0.0884 -0.2150
 4171SOL    HW123972   0.228   4.551  16.825 -0.3081  2.1749 -0.8517
 4171SOL    HW223973   0.364   4.495  16.810 -1.5580 -3.0932 -0.7781
 4172SOL     OW23974   1.508   1.602   4.903 -0.3311 -0.4441  0.2997
 4172SOL    HW123975   1.435   1.663   4.898 -1.2428 -1.6889 -1.6190
 4172SOL    HW223976   1.581   1.653   4.868  0.7630 -0.9165  1.8641
 4173SOL     OW23977   3.535   4.397  11.424 -0.2128 -0.2068  0.5891
 4173SOL    HW123978   3.532   4.355  11.338 -1.1390  2.4294 -0.6749
 4173SOL    HW223979   3.625   4.428  11.428 -0.2360 -0.1608  0.7607
 4174SOL     OW23980   0.533   1.540   8.120  0.3730 -0.5107 -0.1360
 4174SOL    HW123981   0.477   1.489   8.180 -0.2781 -1.4435 -1.5180
 4174SOL    HW223982   0.574   1.466   8.075  0.0099 -1.7774  1.6067
 4175SOL     OW23983   4.154   0.744   7.752 -0.1695 -0.1528  0.2066
 4175SOL    HW123984   4.221   0.738   7.820  0.0258 -0.5894 -0.0287
 4175SOL    HW223985   4.189   0.822   7.707  2.7215 -1.2074  0.6367
 4176SOL     OW23986   1.271   1.048   2.158  0.1992 -0.5241 -0.1946
 4176SOL    HW123987   1.308   1.090   2.080  0.0528  0.7277  0.4019
 4176SOL    HW223988   1.227   1.124   2.197 -0.3156 -1.6300  1.3684
 4177SOL     OW23989   0.771   1.814   0.471 -0.2623 -0.8081  0.1508
 4177SOL    HW123990   0.802   1.868   0.399  1.5068 -0.4232  1.2133
 4177SOL    HW223991   0.851   1.765   0.488  0.5732  0.3272 -0.5040
 4178SOL     OW23992   3.476   2.932   4.588  0.2933  0.3013 -0.0644
 4178SOL    HW123993   3.519   2.866   4.643  1.4062  1.8943  0.9854
 4178SOL    HW223994   3.548   2.962   4.533 -1.5290  0.3448 -2.4154
 4179SOL     OW23995   4.483   4.618   8.186  0.9870 -0.7808  0.3923
 4179SOL    HW123996   4.513   4.697   8.142  1.0216 -0.4555  0.9985
 4179SOL    HW223997   4.481   4.549   8.120 -0.1552  0.8137 -1.2495
 4180SOL     OW23998   0.468   1.391   0.538  0.7667 -0.2929  0.4797
 4180SOL    HW123999   0.396   1.339   0.503 -1.8632  2.1173  2.3174
 4180SOL    HW224000   0.546   1.340   0.518  0.3824 -0.4122 -0.7229
 4181SOL     OW24001   0.156   0.169   1.281  0.1978 -0.0409 -0.1362
 4181SOL    HW124002   0.169   0.230   1.208 -0.4725  1.9063  1.4042
 4181SOL    HW224003   0.183   0.096   1.225  1.6493  0.1741  0.2670
 4182SOL     OW24004   2.372   0.171  17.608  0.3635  0.5955 -0.3482
 4182SOL    HW124005   2.444   0.113  17.585  0.1234  0.4722 -0.7946
 4182SOL    HW224006   2.306   0.133  17.549 -0.5870  0.2430  0.9465
 4183SOL     OW24007   3.977   0.913  12.687  0.4231  0.2274  0.4110
 4183SOL    HW124008   3.943   0.843  12.742  1.8885  0.8642  2.1266
 4183SOL    HW224009   4.024   0.972  12.747 -0.7763  1.5845  0.0223
 4184SOL     OW24010   3.954   3.145   9.897  0.4000 -0.2382  0.2131
 4184SOL    HW124011   3.959   3.142   9.801  0.4685 -2.1125  0.2684
 4184SOL    HW224012   3.959   3.050   9.908  1.1374 -0.3989 -1.4251
 4185SOL     OW24013   3.796   2.583   8.026  0.2427 -0.0447 -0.2206
 4185SOL    HW124014   3.737   2.640   7.977  0.0621 -0.8690 -0.9712
 4185SOL    HW224015   3.858   2.644   8.066  0.3827 -0.8712  0.8178
 4186SOL     OW24016   1.620   3.746   7.587 -0.0329  0.2873  0.3503
 4186SOL    HW124017   1.564   3.726   7.512 -0.1016  2.1215 -0.0903
 4186SOL    HW224018   1.555   3.732   7.655  0.5622 -0.1637  0.8303
 4187SOL     OW24019   1.687   1.729  14.616 -0.1541  0.2328  0.1888
 4187SOL    HW124020   1.684   1.821  14.642 -0.0983  0.7787 -1.7428
 4187SOL    HW224021   1.777   1.719  14.582 -0.5922 -2.7253 -0.1262
 4188SOL     OW24022   3.374   2.923  17.335 -0.6261  0.1949 -0.0493
 4188SOL    HW124023   3.306   2.909  17.401  0.3238  0.8328  1.0564
 4188SOL    HW224024   3.343   2.860  17.269 -0.7367 -0.0028  0.1901
 4189SOL     OW24025   1.751   0.404   5.785  0.3175  0.3090  0.0835
 4189SOL    HW124026   1.807   0.405   5.862  0.3501  1.0278  0.0443
 4189SOL    HW224027   1.773   0.490   5.749 -1.7451  0.1676 -1.5098
 4190SOL     OW24028   2.443   2.900   2.525  0.6239  0.1254 -0.4549
 4190SOL    HW124029   2.518   2.958   2.536  2.2664 -1.7726 -1.7230
 4190SOL    HW224030   2.433   2.856   2.610  0.7166  3.6310  1.3529
 4191SOL     OW24031   3.126   3.251  17.054 -0.0006 -0.4762  0.4841
 4191SOL    HW124032   3.066   3.187  17.016  1.1469 -0.6744 -1.0121
 4191SOL    HW224033   3.152   3.206  17.133 -1.6874 -0.6548  0.9315
 4192SOL     OW24034   2.960   2.401   5.343  0.0646 -0.2119 -0.2337
 4192SOL    HW124035   3.030   2.396   5.408 -1.7571 -0.4329  1.7078
 4192SOL    HW224036   2.884   2.388   5.398 -0.8633  0.5792 -1.3147
 4193SOL     OW24037   3.340   1.678   2.460 -0.3052 -0.1857 -1.1700
 4193SOL    HW124038   3.409   1.676   2.527 -2.3115  0.3725  0.9413
 4193SOL    HW224039   3.287   1.600   2.474 -0.6572  0.2259 -0.1623
 4194SOL     OW24040   4.715   0.352  13.329 -0.2494 -0.4545  0.1301
 4194SOL    HW124041   4.670   0.274  13.362  0.7471 -1.7855 -1.6641
 4194SOL    HW224042   4.664   0.381  13.254 -0.4939 -0.9785  0.0955
 4195SOL     OW24043   2.621   1.621   6.358  0.6591 -0.0339 -0.1487
 4195SOL    HW124044   2.533   1.586   6.373  0.2638  1.3559  0.7855
 4195SOL    HW224045   2.634   1.582   6.272  0.3744 -1.4075  0.4119
 4196SOL     OW24046   1.766   3.623   4.072  0.5842 -0.0385 -0.0355
 4196SOL    HW124047   1.723   3.666   3.998 -0.9918 -0.8993  0.3899
 4196SOL    HW224048   1.722   3.680   4.136 -0.7168 -1.4127  0.3026
 4197SOL     OW24049   4.418   4.056  12.099  0.5568 -0.0387 -0.5636
 4197SOL    HW124050   4.469   4.037  12.177 -1.8304 -1.5319  0.6355
 4197SOL    HW224051   4.474   4.124  12.062  0.1857 -0.0012 -1.0557
 4198SOL     OW24052   2.407   3.707   2.296 -0.7739  0.0176  0.1333
 4198SOL    HW124053   2.408   3.778   2.232 -1.0324  1.5126  1.7843
 4198SOL    HW224054   2.386   3.753   2.377 -0.6043  0.3808 -0.0250
 4199SOL     OW24055   0.993   2.091   6.940 -0.0879  0.3666 -0.3817
 4199SOL    HW124056   0.962   2.004   6.963  2.0955 -0.3727 -0.2918
 4199SOL    HW224057   1.058   2.066   6.875  0.4551  0.4109  0.1360
 4200SOL     OW24058   0.686   1.615   7.811  0.6609 -0.4261 -0.0915
 4200SOL    HW124059   0.640   1.560   7.874 -0.2424  0.2027 -0.1968
 4200SOL    HW224060   0.623   1.688   7.812  0.6431 -0.4158 -1.9911
 4201SOL     OW24061   2.570   4.102  17.545 -0.1621  0.6222 -0.4217
 4201SOL    HW124062   2.514   4.091  17.468 -1.8534 -1.5795  1.1093
 4201SOL    HW224063   2.547   4.019  17.586 -0.1736  0.8209 -0.0220
 4202SOL     OW24064   1.932   0.320   8.999  0.2936 -0.1023  0.0618
 4202SOL    HW124065   1.926   0.224   9.006 -2.5049  0.2006  1.9548
 4202SOL    HW224066   2.006   0.346   8.944 -0.5201  2.3733  0.1321
 4203SOL     OW24067   1.309   3.213   7.962  0.0876  0.3193  0.1519
 4203SOL    HW124068   1.245   3.277   7.993 -1.4883 -0.8148 -0.8097
 4203SOL    HW224069   1.257   3.146   7.918 -0.0166 -0.3177  1.2485
 4204SOL     OW24070   3.310   3.922   0.421  0.4370 -0.0450 -0.8393
 4204SOL    HW124071   3.217   3.930   0.399  0.3077 -0.6170 -0.5023
 4204SOL    HW224072   3.291   3.870   0.499 -0.8832 -1.2244 -1.9381
 4205SOL     OW24073   3.704   3.069  14.990 -0.0846  0.1185 -0.3194
 4205SOL    HW124074   3.762   3.126  14.938 -2.2734  0.0975 -2.7678
 4205SOL    HW224075   3.706   2.998  14.926  1.0583 -0.6183  0.5473
 4206SOL     OW24076   0.844   3.902   2.694 -0.1263 -0.0483  0.1421
 4206SOL    HW124077   0.917   3.918   2.754  0.1291 -0.0262 -0.1740
 4206SOL    HW224078   0.811   3.988   2.669 -0.3158  0.3506  1.7652
 4207SOL     OW24079   1.462   0.972   6.873  0.1105  0.9028 -0.2332
 4207SOL    HW124080   1.435   1.060   6.848  0.1459  0.6977 -1.0013
 4207SOL    HW224081   1.544   0.980   6.923 -0.1536  1.8698  0.0431
 4208SOL     OW24082   4.386   4.070   1.522 -0.0647 -0.0153  0.2476
 4208SOL    HW124083   4.375   4.008   1.594  2.9885  1.2989  1.8454
 4208SOL    HW224084   4.449   4.131   1.560  1.0288 -0.9857  0.0018
 4209SOL     OW24085   1.191   1.322  11.970 -0.3848 -0.1611  0.2020
 4209SOL    HW124086   1.144   1.384  11.913  1.5617  1.6194  0.5298
 4209SOL    HW224087   1.143   1.241  11.954 -0.2178 -0.0654 -0.7895
 4210SOL     OW24088   3.831   0.404   0.291 -0.0123 -0.2727 -0.3801
 4210SOL    HW124089   3.870   0.475   0.239 -0.8850 -1.5436 -2.7680
 4210SOL    HW224090   3.746   0.389   0.250 -0.1941  1.4083 -0.6148
 4211SOL     OW24091   1.433   1.877  14.401 -0.1131 -0.6866 -0.1110
 4211SOL    HW124092   1.391   1.915  14.324  0.7673  3.4371  1.4535
 4211SOL    HW224093   1.488   1.804  14.371  0.4117 -0.1306 -0.5118
 4212SOL     OW24094   4.696   1.167  14.824 -0.4758  0.9010 -0.6305
 4212SOL    HW124095   4.637   1.142  14.753 -0.8954 -0.0593  0.0474
 4212SOL    HW224096   0.056   1.156  14.774 -1.4314 -1.5757 -1.6300
 4213SOL     OW24097   1.805   0.455   7.873 -0.0597 -0.2268  0.3547
 4213SOL    HW124098   1.745   0.516   7.830 -0.6038 -0.2091  1.1476
 4213SOL    HW224099   1.871   0.455   7.804 -0.3177 -0.8290  0.1047
 4214SOL     OW24100   4.429   0.440   3.690  0.4529 -0.1246 -0.9174
 4214SOL    HW124101   4.404   0.513   3.747  0.7822  0.1779 -1.1606
 4214SOL    HW224102   4.365   0.372   3.712 -1.0109  1.3503 -0.5703
 4215SOL     OW24103   0.001   3.078   4.547  0.4608  0.1110 -0.1136
 4215SOL    HW124104   4.713   3.078   4.642  3.2939  0.4235  0.1488
 4215SOL    HW224105   0.084   3.031   4.548  1.1010  1.2443 -0.6541
 4216SOL     OW24106   1.344   0.564   1.634  0.0682 -0.1444 -0.4590
 4216SOL    HW124107   1.336   0.549   1.728 -1.0181 -0.8702 -0.6707
 4216SOL    HW224108   1.338   0.657   1.612  0.8591  0.4521  1.8205
 4217SOL     OW24109   4.063   0.641  15.801  0.2540  0.3323  0.4411
 4217SOL    HW124110   3.972   0.615  15.783 -0.1383  1.7343  0.3516
 4217SOL    HW224111   4.049   0.682  15.886 -1.1893 -1.5305  1.1136
 4218SOL     OW24112   2.982   3.735  10.482  0.1733 -0.3121  0.4453
 4218SOL    HW124113   3.068   3.725  10.441  0.4096  0.2760  0.8012
 4218SOL    HW224114   2.992   3.674  10.555 -0.8714  1.0980  1.7553
 4219SOL     OW24115   4.284   4.065   0.233  0.1865  0.0380 -0.0099
 4219SOL    HW124116   4.301   4.116   0.154  2.5403 -0.0369  0.4667
 4219SOL    HW224117   4.335   3.987   0.210  0.4542  0.0064  0.6777
 4220SOL     OW24118   2.582   1.465   2.994 -0.2240  0.2353 -0.2708
 4220SOL    HW124119   2.509   1.411   2.965  1.8040 -2.2682 -0.6654
 4220SOL    HW224120   2.647   1.445   2.927  1.4497  1.5441  0.9786
 4221SOL     OW24121   3.107   1.155   2.729  0.0655 -0.3808 -0.5167
 4221SOL    HW124122   3.079   1.137   2.639  0.5157  0.2156 -0.7754
 4221SOL    HW224123   3.086   1.247   2.744  1.3514 -0.4338  1.4985
 4222SOL     OW24124   3.064   1.197  15.316 -0.4434  0.1373 -0.1877
 4222SOL    HW124125   3.020   1.170  15.236 -0.0403 -0.3683 -0.2365
 4222SOL    HW224126   3.085   1.284  15.281  0.5219 -0.8256 -1.9780
 4223SOL     OW24127   1.333   1.993   6.522 -0.2066  0.0043 -0.4182
 4223SOL    HW124128   1.405   1.996   6.585  0.5714 -1.8113 -1.2178
 4223SOL    HW224129   1.380   2.028   6.446  2.4663 -1.9961  0.3436
 4224SOL     OW24130   2.483   2.112  16.511  0.2497  0.2052  0.3806
 4224SOL    HW124131   2.402   2.103  16.560 -0.4553  0.9556 -0.6394
 4224SOL    HW224132   2.521   2.192  16.548 -0.2391 -0.2472  1.8357
 4225SOL     OW24133   3.944   2.927  12.916  0.4026 -0.2685  0.4117
 4225SOL    HW124134   3.968   2.834  12.913 -2.1167 -0.9530  1.7368
 4225SOL    HW224135   4.010   2.960  12.855  1.1532  0.1044  1.4149
 4226SOL     OW24136   3.251   2.497   9.053  0.4274 -0.1677 -0.3794
 4226SOL    HW124137   3.288   2.455   8.975  2.1785  1.8540 -0.6559
 4226SOL    HW224138   3.161   2.466   9.054  0.3315 -0.0955 -4.0203
 4227SOL     OW24139   3.618   1.052  14.477  0.0203 -0.2014 -0.1820
 4227SOL    HW124140   3.565   1.125  14.446 -1.1915 -0.9406  0.1133
 4227SOL    HW224141   3.658   1.008  14.402 -0.3171 -0.3264 -0.2871
 4228SOL     OW24142   2.921   0.639   5.755  0.2313  0.0957  0.5263
 4228SOL    HW124143   2.869   0.592   5.690 -0.9373  1.1585  0.6870
 4228SOL    HW224144   2.890   0.597   5.835 -1.9903  0.6845 -0.0244
 4229SOL     OW24145   4.354   4.452   3.489  0.1349  0.0041 -0.7196
 4229SOL    HW124146   4.397   4.535   3.507 -0.1651 -0.4715  2.2612
 4229SOL    HW224147   4.392   4.434   3.403 -0.3427  2.2780 -1.3975
 4230SOL     OW24148   4.277   2.973  16.738 -0.0881 -0.4358 -0.3721
 4230SOL    HW124149   4.273   2.932  16.652  1.4951 -0.1391 -0.5830
 4230SOL    HW224150   4.235   3.056  16.713  0.5113 -0.0772 -0.1778
 4231SOL     OW24151   3.260   3.180  17.670  0.1634 -0.3095  0.2129
 4231SOL    HW124152   3.250   3.248   0.050  1.9166  1.4661 -1.3090
 4231SOL    HW224153   3.286   3.227  17.591  2.0901 -1.4069  0.1908
 4232SOL     OW24154   4.462   0.011   6.900  0.2855  0.6672 -0.6237
 4232SOL    HW124155   4.418   4.682   6.831 -0.0869  0.4135 -0.2024
 4232SOL    HW224156   4.458   0.096   6.857 -2.0986  1.2237  0.7087
 4233SOL     OW24157   2.685   0.916   6.105  0.2013 -0.6999  0.2939
 4233SOL    HW124158   2.598   0.887   6.078 -0.8762  1.6567  1.2090
 4233SOL    HW224159   2.723   0.829   6.116  0.9446 -0.5172 -0.9231
 4234SOL     OW24160   3.283   3.394   3.138 -0.3020  0.1022  0.0645
 4234SOL    HW124161   3.210   3.417   3.196  1.0815 -2.1906  2.7284
 4234SOL    HW224162   3.338   3.348   3.201  0.4534  1.3946  0.3507
 4235SOL     OW24163   3.214   1.874   1.532  0.2742 -0.1354  0.1283
 4235SOL    HW124164   3.124   1.906   1.534 -1.2397 -4.2732 -2.3570
 4235SOL    HW224165   3.260   1.958   1.541  0.6425  0.0755 -3.7792
 4236SOL     OW24166   0.417   1.141   0.776 -0.0595 -0.3600  0.2569
 4236SOL    HW124167   0.477   1.209   0.806 -0.6667 -1.2493  3.5192
 4236SOL    HW224168   0.331   1.184   0.781  0.2572  0.2370  0.5126
 4237SOL     OW24169   2.852   4.205   8.172 -0.1924  0.6110  0.6669
 4237SOL    HW124170   2.876   4.288   8.213 -0.0699  1.2201 -0.6454
 4237SOL    HW224171   2.768   4.230   8.134  0.0626 -0.1924 -0.4256
 4238SOL     OW24172   1.688   2.404   5.428 -0.4449 -0.0480  0.2401
 4238SOL    HW124173   1.618   2.452   5.383  1.2933  1.6148 -0.7271
 4238SOL    HW224174   1.634   2.362   5.494  3.0919 -2.5681  1.5215
 4239SOL     OW24175   0.408   2.247   4.401  0.2053 -0.0488  0.2252
 4239SOL    HW124176   0.348   2.268   4.472  0.3256 -1.4097  0.7227
 4239SOL    HW224177   0.371   2.309   4.338  1.2934 -1.8211 -2.1984
 4240SOL     OW24178   4.443   2.269  11.853  0.1123  0.1852  0.2789
 4240SOL    HW124179   4.367   2.241  11.904  1.5322 -1.4361  1.5496
 4240SOL    HW224180   4.485   2.340  11.902  0.8587  1.1605 -1.7664
 4241SOL     OW24181   0.813   0.828   5.411  0.1003  0.2439  0.4392
 4241SOL    HW124182   0.810   0.821   5.316  0.9345 -2.6434  0.6360
 4241SOL    HW224183   0.830   0.920   5.432  1.2395 -0.0145  0.6621
 4242SOL     OW24184   3.188   4.500  15.540 -0.1728 -0.2321 -0.0197
 4242SOL    HW124185   3.229   4.504  15.627 -1.8531  0.8848  0.6954
 4242SOL    HW224186   3.129   4.574  15.551 -0.7724 -0.8885  1.1500
 4243SOL     OW24187   1.730   1.778   2.400 -0.1054 -0.7335 -0.3215
 4243SOL    HW124188   1.752   1.768   2.307  0.3227 -1.5846 -0.1256
 4243SOL    HW224189   1.639   1.747   2.392 -0.1591  0.0090 -2.6632
 4244SOL     OW24190   2.470   1.567   2.100  0.2935 -0.0847 -0.1648
 4244SOL    HW124191   2.463   1.503   2.029  1.1684  1.4341 -1.6367
 4244SOL    HW224192   2.540   1.625   2.070  0.8564 -0.7864 -0.2260
 4245SOL     OW24193   4.548   0.116   9.737  0.2029 -0.4315  0.2401
 4245SOL    HW124194   4.537   0.192   9.794 -1.4016 -0.2435 -0.3097
 4245SOL    HW224195   4.560   0.152   9.650 -0.7669  3.8724  1.9086
 4246SOL     OW24196   1.006   4.581   2.413 -0.2715  0.0161  0.2193
 4246SOL    HW124197   1.021   4.634   2.334  2.7209 -0.4035  0.5274
 4246SOL    HW224198   0.917   4.608   2.435 -0.4498  0.8789 -1.5075
 4247SOL     OW24199   1.106   0.721   7.946 -0.5952  0.1532  0.2357
 4247SOL    HW124200   1.090   0.812   7.971  1.3533 -0.1160  2.4323
 4247SOL    HW224201   1.076   0.676   8.025  0.6544  1.7165  1.6057
 4248SOL     OW24202   0.298   4.332   4.828 -0.1795 -0.0447  0.8757
 4248SOL    HW124203   0.224   4.390   4.812  0.9570  0.6894 -1.6746
 4248SOL    HW224204   0.368   4.397   4.839 -0.2089  0.2862 -0.8977
 4249SOL     OW24205   0.745   1.881  17.131  0.0746  0.2247  0.3220
 4249SOL    HW124206   0.780   1.958  17.087 -1.2480  0.1336 -0.8865
 4249SOL    HW224207   0.709   1.920  17.211 -2.1044 -1.3411  0.1016
 4250SOL     OW24208   3.199   0.593  11.289  0.0076 -0.6781  0.1161
 4250SOL    HW124209   3.276   0.628  11.245 -1.6760  0.1758 -2.1879
 4250SOL    HW224210   3.137   0.641  11.234  1.0312 -0.0429 -0.4891
 4251SOL     OW24211   0.431   0.228   8.854  0.4488  0.9167  0.4239
 4251SOL    HW124212   0.337   0.238   8.840  0.3385  0.3667  0.7850
 4251SOL    HW224213   0.460   0.238   8.763  1.7401  0.0326  0.7265
 4252SOL     OW24214   1.243   0.346   7.769 -0.2131  0.0634 -0.5394
 4252SOL    HW124215   1.188   0.420   7.745 -1.5793 -0.2308  1.6325
 4252SOL    HW224216   1.318   0.347   7.710  1.0299 -1.7429  1.0331
 4253SOL     OW24217   3.693   2.558   5.336  0.6088  0.5120 -0.2878
 4253SOL    HW124218   3.617   2.569   5.394  0.7627  3.0136 -0.5850
 4253SOL    HW224219   3.643   2.539   5.257 -0.0935  0.9231  0.0536
 4254SOL     OW24220   0.093   1.679  14.684  0.0907 -0.0687 -0.1080
 4254SOL    HW124221   0.113   1.675  14.778  2.0265  0.0886 -0.5133
 4254SOL    HW224222   0.032   1.606  14.679  1.7884 -1.4403 -0.5461
 4255SOL     OW24223   0.632   1.896  12.351  0.3958  0.8002 -0.8157
 4255SOL    HW124224   0.683   1.836  12.405  0.2402 -1.2390 -2.9340
 4255SOL    HW224225   0.692   1.957  12.308  1.9704 -0.9113 -1.0335
 4256SOL     OW24226   0.729   1.965   4.530  0.2246  0.1244 -0.8650
 4256SOL    HW124227   0.689   2.005   4.453 -0.3289  3.4702  1.1515
 4256SOL    HW224228   0.783   2.034   4.568 -0.0438  0.1542 -0.5362
 4257SOL     OW24229   2.975   0.346  15.963 -0.5883 -0.6815 -0.1137
 4257SOL    HW124230   3.056   0.356  15.914 -0.5834 -1.9618 -0.3561
 4257SOL    HW224231   2.952   0.438  15.979  0.6441 -0.6022  1.1957
 4258SOL     OW24232   2.267   2.562   6.226 -0.2100  0.2181  0.1784
 4258SOL    HW124233   2.331   2.500   6.263 -1.3969 -0.6878  0.7189
 4258SOL    HW224234   2.189   2.522   6.265 -1.5612  0.4129 -2.3223
 4259SOL     OW24235   3.016   2.600   8.347  0.1616 -0.1916 -0.0942
 4259SOL    HW124236   3.024   2.695   8.356 -0.9709 -0.0597 -0.4477
 4259SOL    HW224237   3.098   2.569   8.385  0.0900  1.0700  1.0786
 4260SOL     OW24238   1.957   0.347   3.982 -0.1527 -0.2694 -0.0524
 4260SOL    HW124239   1.864   0.359   3.966 -0.0364  0.0412 -0.4812
 4260SOL    HW224240   1.966   0.397   4.064 -2.2269 -1.7718  1.0848
 4261SOL     OW24241   4.465   0.272   6.804  0.8307 -0.1051  0.3210
 4261SOL    HW124242   4.479   0.350   6.857  1.5477 -2.2516  3.2594
 4261SOL    HW224243   4.381   0.276   6.759 -0.5226 -3.5312  2.5282
 4262SOL     OW24244   2.640   4.368   3.821 -0.3452  0.5170 -0.4096
 4262SOL    HW124245   2.549   4.371   3.849  0.1429  0.5077  1.1845
 4262SOL    HW224246   2.624   4.420   3.743  0.3073 -0.8669 -1.4656
 4263SOL     OW24247   2.518   2.129   9.608 -0.7040  0.3841 -0.2450
 4263SOL    HW124248   2.470   2.182   9.545 -0.6381  1.1237  0.3265
 4263SOL    HW224249   2.551   2.055   9.557  1.2529  1.4598 -0.5423
 4264SOL     OW24250   4.575   1.048   6.282  0.2899  0.0023  0.2644
 4264SOL    HW124251   4.645   1.068   6.345  0.1230  1.0359  0.1244
 4264SOL    HW224252   4.612   0.970   6.239  0.3544 -0.9825  2.1301
 4265SOL     OW24253   2.525   1.576   8.413 -0.3723  0.1196  0.1823
 4265SOL    HW124254   2.550   1.589   8.504 -0.2689  1.4670 -0.0482
 4265SOL    HW224255   2.563   1.488   8.406  1.1040  0.7776 -0.1290
 4266SOL     OW24256   3.321   2.984   1.403 -0.6247 -0.5052  0.2673
 4266SOL    HW124257   3.241   3.035   1.394 -1.2226 -1.5538 -0.4274
 4266SOL    HW224258   3.296   2.952   1.490 -1.4553 -1.4891 -0.3292
 4267SOL     OW24259   1.211   1.988  16.394  0.1296  0.4229  0.4200
 4267SOL    HW124260   1.219   1.896  16.419  3.1143  0.5702 -0.0080
 4267SOL    HW224261   1.151   2.012  16.464 -0.4384 -1.2720  0.5104
 4268SOL     OW24262   0.812   1.000   4.570 -0.2217  0.2417 -0.0043
 4268SOL    HW124263   0.902   1.016   4.599 -0.5483 -0.5920  1.4835
 4268SOL    HW224264   0.779   0.952   4.646  0.7799  1.0738  0.9447
 4269SOL     OW24265   2.933   2.437   1.428 -0.5105  0.5149 -0.6512
 4269SOL    HW124266   2.921   2.457   1.335 -1.1748  0.0237 -0.6713
 4269SOL    HW224267   2.965   2.350   1.407  1.2459  0.8378  0.7890
 4270SOL     OW24268   1.404   3.138  12.676 -0.1162  0.2113  0.5037
 4270SOL    HW124269   1.489   3.177  12.654 -0.6189  0.1457 -1.6298
 4270SOL    HW224270   1.393   3.058  12.625 -0.2541  0.4038  0.2273
 4271SOL     OW24271   4.522   0.687   1.825 -0.0728  0.1011 -0.0562
 4271SOL    HW124272   4.612   0.704   1.799  0.5132  0.6015  2.3462
 4271SOL    HW224273   4.523   0.591   1.818  0.8985  0.0748  0.4552
 4272SOL     OW24274   3.728   1.132   8.664  0.7683  0.0173  0.4624
 4272SOL    HW124275   3.746   1.138   8.758 -2.6047 -0.5593  1.1439
 4272SOL    HW224276   3.784   1.060   8.634 -1.5456 -1.0609 -1.2912
 4273SOL     OW24277   3.093   3.264   2.783  0.1207 -0.2795 -0.5448
 4273SOL    HW124278   3.071   3.274   2.690 -0.8035  2.2615 -0.0615
 4273SOL    HW224279   3.170   3.208   2.785  0.4976  0.2613  0.2942
 4274SOL     OW24280   4.144   0.385   7.912 -0.4440  0.3951 -0.0412
 4274SOL    HW124281   4.172   0.380   7.821 -1.3320  0.1053 -0.2951
 4274SOL    HW224282   4.052   0.407   7.897 -1.2452 -2.3817  0.7756
 4275SOL     OW24283   2.500   0.700  17.049  0.4137  0.2148  0.2027
 4275SOL    HW124284   2.573   0.684  17.109 -0.4948  0.1240  1.2964
 4275SOL    HW224285   2.461   0.771  17.102  0.7236  0.3351  0.2687
 4276SOL     OW24286   2.614   2.113   7.917 -0.5651 -0.3300 -0.5017
 4276SOL    HW124287   2.676   2.154   7.977  0.8333 -1.0895 -1.4160
 4276SOL    HW224288   2.562   2.189   7.892 -0.2226  0.5257  1.3691
 4277SOL     OW24289   3.667   0.353   3.274  0.3759  0.6466 -0.2262
 4277SOL    HW124290   3.575   0.325   3.277  0.7018 -0.4953 -1.0014
 4277SOL    HW224291   3.693   0.307   3.354  1.4744 -0.1583 -1.0589
 4278SOL     OW24292   4.607   0.112  13.436  0.4378 -0.0585  0.6455
 4278SOL    HW124293   4.584   0.019  13.432  0.1582  0.0062  0.7455
 4278SOL    HW224294   4.664   0.116  13.359 -0.7017  2.5436 -0.0642
 4279SOL     OW24295   2.709   0.724  10.139 -0.0891 -0.4116 -0.0384
 4279SOL    HW124296   2.652   0.731  10.216 -0.5583 -1.7774 -0.2542
 4279SOL    HW224297   2.795   0.704  10.175 -1.0852 -0.2390  2.4303
 4280SOL     OW24298   0.641   1.219   9.382 -0.0387  0.1205 -0.2514
 4280SOL    HW124299   0.693   1.239   9.460  0.5335  0.1760 -0.6403
 4280SOL    HW224300   0.687   1.261   9.309 -0.0186  0.8946  0.2118
 4281SOL     OW24301   0.649   1.460  14.987  0.8702  0.1414 -0.3606
 4281SOL    HW124302   0.744   1.470  14.995  0.8312  0.6734 -0.5322
 4281SOL    HW224303   0.639   1.495  14.898  0.3765  3.2686  0.9201
 4282SOL     OW24304   1.036   0.714   7.106  0.0443  0.6795 -0.3747
 4282SOL    HW124305   0.960   0.766   7.079 -2.1631 -3.2280 -1.6968
 4282SOL    HW224306   1.093   0.779   7.147 -0.6537  0.8304  0.3673
 4283SOL     OW24307   0.717   2.262   5.817 -0.4190  0.0041  0.0541
 4283SOL    HW124308   0.773   2.197   5.861 -0.3153  0.2887  0.3389
 4283SOL    HW224309   0.731   2.239   5.725  1.5401  1.0398  0.0931
 4284SOL     OW24310   4.151   4.227  12.374  0.2675 -0.5520 -0.2375
 4284SOL    HW124311   4.193   4.229  12.288 -0.4294 -0.7914 -0.5736
 4284SOL    HW224312   4.130   4.135  12.389 -0.6064 -0.1443  0.9715
 4285SOL     OW24313   3.148   4.703   8.510  0.8417  0.5147 -0.0729
 4285SOL    HW124314   3.182   4.624   8.468  2.1142  0.3968  1.1657
 4285SOL    HW224315   3.055   4.688   8.495  1.3438 -0.7615 -1.9004
 4286SOL     OW24316   2.866   2.730   8.048 -0.4205 -0.5991 -0.1134
 4286SOL    HW124317   2.794   2.785   8.079  1.4426  2.5525 -1.3394
 4286SOL    HW224318   2.817   2.648   8.039 -1.5142  0.3344 -2.8267
 4287SOL     OW24319   1.133   3.678  15.560  0.1336 -0.4136  0.0261
 4287SOL    HW124320   1.042   3.662  15.536 -0.0646 -1.3476  1.4329
 4287SOL    HW224321   1.158   3.642  15.476 -0.0110 -1.4314  0.4207
 4288SOL     OW24322   4.133   2.534  15.919  0.3902 -0.3240  0.2356
 4288SOL    HW124323   4.104   2.622  15.896  3.0171  0.0069 -1.8640
 4288SOL    HW224324   4.096   2.483  15.846  0.1104  0.2520 -0.0334
 4289SOL     OW24325   2.711   4.076   7.783 -0.4713  0.3892 -0.1809
 4289SOL    HW124326   2.728   4.167   7.807 -1.4901  0.4139  0.4476
 4289SOL    HW224327   2.619   4.076   7.810 -0.5591 -0.1873 -0.4790
 4290SOL     OW24328   2.449   3.429   3.156  0.0705  0.2860 -0.1582
 4290SOL    HW124329   2.476   3.483   3.083 -0.0543  2.7524  1.6271
 4290SOL    HW224330   2.524   3.368   3.155  0.2372  0.4942 -0.3368
 4291SOL     OW24331   1.731   1.914   5.969  0.3087  0.4833  0.6956
 4291SOL    HW124332   1.638   1.928   5.984  0.4451  3.2302 -0.9885
 4291SOL    HW224333   1.758   1.998   5.930  0.9427  0.6385  1.4616
 4292SOL     OW24334   0.431   0.074   6.904 -0.4792 -0.1022  0.1818
 4292SOL    HW124335   0.454   0.163   6.930 -1.4284  0.0894  0.3577
 4292SOL    HW224336   0.392   0.043   6.985  1.4073 -1.4357  0.5891
 4293SOL     OW24337   1.679   2.226   2.939 -0.5557 -0.4252  0.2700
 4293SOL    HW124338   1.704   2.205   3.029 -0.1996  1.1463  0.5334
 4293SOL    HW224339   1.765   2.241   2.901 -0.6374 -2.5512 -0.7713
 4294SOL     OW24340   2.151   2.844   8.483 -0.2114 -0.0015 -0.5709
 4294SOL    HW124341   2.178   2.891   8.562 -1.0934  0.3941 -0.5116
 4294SOL    HW224342   2.068   2.885   8.462 -0.0305  1.6706  1.9485
 4295SOL     OW24343   4.009   0.651   4.688  0.1090 -0.0917 -0.0821
 4295SOL    HW124344   4.022   0.567   4.731  2.4615  1.3735  2.0618
 4295SOL    HW224345   3.994   0.634   4.595 -0.2844 -0.3215  0.0239
 4296SOL     OW24346   0.052   2.020   6.646  0.0600 -0.6356 -0.3273
 4296SOL    HW124347   0.032   1.930   6.671  1.2591 -0.6676  0.5209
 4296SOL    HW224348   0.057   2.007   6.551 -1.0040 -2.0674 -0.1981
 4297SOL     OW24349   4.360   0.659  15.965 -0.0785 -0.1055 -0.5218
 4297SOL    HW124350   4.272   0.688  15.987 -0.6205 -1.7392 -0.5633
 4297SOL    HW224351   4.356   0.667  15.869 -1.4873  3.2210 -0.1829
 4298SOL     OW24352   1.506   3.452  10.795 -0.2677 -0.1820 -0.2651
 4298SOL    HW124353   1.561   3.530  10.804 -0.3220 -0.1244 -0.4262
 4298SOL    HW224354   1.569   3.401  10.744  1.8552  0.4756  1.6847
 4299SOL     OW24355   0.879   0.855   6.936  0.4919  0.3005 -0.5961
 4299SOL    HW124356   0.850   0.841   6.846  1.9436 -3.6486 -0.4822
 4299SOL    HW224357   0.954   0.910   6.913 -0.8892  2.1912 -0.5159
 4300SOL     OW24358   3.229   0.079  12.473 -0.2066 -0.3483 -0.5369
 4300SOL    HW124359   3.206   0.117  12.558 -0.9938 -1.7157 -0.1370
 4300SOL    HW224360   3.321   0.107  12.473 -0.1121 -0.6548 -0.2702
 4301SOL     OW24361   4.277   4.561   0.672  0.0577  0.1060 -0.2789
 4301SOL    HW124362   4.215   4.591   0.738 -1.0690 -0.9409 -0.8650
 4301SOL    HW224363   4.272   4.642   0.621 -1.5414 -0.5474 -1.1669
 4302SOL     OW24364   3.374   2.967  10.091  0.1160  0.4958 -0.1674
 4302SOL    HW124365   3.331   2.883  10.076  0.9948 -0.0261  0.2207
 4302SOL    HW224366   3.310   3.020  10.045  0.0992  1.5671  1.1173
 4303SOL     OW24367   1.124   2.712   4.645  0.6294  0.3776 -0.2449
 4303SOL    HW124368   1.144   2.699   4.552 -3.4470 -0.9105 -0.9150
 4303SOL    HW224369   1.101   2.804   4.633 -0.1213  0.3648  1.0988
 4304SOL     OW24370   1.996   0.779   9.000 -0.0788 -0.2215  0.3026
 4304SOL    HW124371   2.046   0.727   8.937 -1.3895 -0.5793 -0.4467
 4304SOL    HW224372   1.911   0.734   8.994 -1.0261  1.3804  1.4952
 4305SOL     OW24373   2.772   2.986   8.436  0.2061  0.0095 -0.2997
 4305SOL    HW124374   2.855   2.943   8.454 -0.0370 -0.8478 -1.2148
 4305SOL    HW224375   2.739   2.925   8.369 -0.5418  0.6413 -0.5104
 4306SOL     OW24376   0.205   3.457  14.756  0.2540  0.1719 -0.4850
 4306SOL    HW124377   0.207   3.534  14.698 -2.0064  0.1088 -0.6494
 4306SOL    HW224378   0.182   3.391  14.690  1.2754  0.6528 -1.3302
 4307SOL     OW24379   0.616   2.716   7.408 -0.5044 -0.2554 -0.2635
 4307SOL    HW124380   0.590   2.716   7.500 -3.4867 -1.2048 -1.1154
 4307SOL    HW224381   0.538   2.678   7.367  0.9691 -2.0348 -1.4512
 4308SOL     OW24382   0.263   1.443   6.653  0.3695 -0.0262 -0.5080
 4308SOL    HW124383   0.186   1.448   6.595  0.2188 -0.2950 -0.3283
 4308SOL    HW224384   0.287   1.536   6.657  2.8555 -0.7355  0.5300
 4309SOL     OW24385   1.815   3.324   9.947  0.1099 -0.1115 -0.3405
 4309SOL    HW124386   1.789   3.406   9.906  1.1709 -0.3460 -1.4933
 4309SOL    HW224387   1.903   3.352   9.970  0.6699 -2.2034  0.0670
 4310SOL     OW24388   3.026   1.311   7.383 -1.0267  0.3019 -0.3171
 4310SOL    HW124389   3.017   1.257   7.305 -0.7858 -0.2662  0.0423
 4310SOL    HW224390   3.118   1.338   7.380 -0.4647 -1.5900  0.0663
 4311SOL     OW24391   2.759   1.487   9.575 -0.1472 -0.1744 -0.1225
 4311SOL    HW124392   2.780   1.409   9.627 -2.8374 -1.0604 -0.3607
 4311SOL    HW224393   2.824   1.550   9.607  0.5068  0.3698 -2.4919
 4312SOL     OW24394   1.874   0.225   3.487  0.4396 -0.2384  0.7620
 4312SOL    HW124395   1.791   0.270   3.479  1.3866  1.7439  2.2320
 4312SOL    HW224396   1.916   0.301   3.447 -1.1016  0.9016  1.3108
 4313SOL     OW24397   3.294   3.035   5.007  0.2809 -0.4459  0.4459
 4313SOL    HW124398   3.277   2.996   5.093  0.9864  1.0926  1.2888
 4313SOL    HW224399   3.204   3.061   4.992 -0.0088 -1.6432  0.1664
 4314SOL     OW24400   0.331   3.448   7.718 -0.4755 -0.0598 -0.0171
 4314SOL    HW124401   0.408   3.488   7.758 -1.4268  2.7694 -0.9795
 4314SOL    HW224402   0.306   3.382   7.783  1.0148 -0.2454  0.3586
 4315SOL     OW24403   0.253   3.486   1.960  0.4963 -0.1513  0.1654
 4315SOL    HW124404   0.252   3.513   1.868  0.5404 -0.3443  0.1082
 4315SOL    HW224405   0.235   3.393   1.946 -1.6732  0.6924 -2.6195
 4316SOL     OW24406   1.118   2.248  13.484  0.0465 -0.6847  0.4922
 4316SOL    HW124407   1.176   2.265  13.558  0.1160  1.4838 -0.0402
 4316SOL    HW224408   1.084   2.165  13.517  0.6203 -0.0192  2.7594
 4317SOL     OW24409   1.676   2.171  11.351 -0.5612  0.1255  0.2815
 4317SOL    HW124410   1.755   2.192  11.302  0.4128 -2.6373  0.6782
 4317SOL    HW224411   1.615   2.184  11.278  0.2215 -1.1305 -0.6070
 4318SOL     OW24412   2.744   3.346  17.017 -0.4212 -0.6045  0.6069
 4318SOL    HW124413   2.704   3.319  16.934  2.8098  1.2313 -1.5923
 4318SOL    HW224414   2.770   3.436  16.997 -0.5047 -0.7343 -0.1129
 4319SOL     OW24415   2.969   1.057   6.736 -0.5833  0.1246 -0.2463
 4319SOL    HW124416   2.910   1.061   6.812  1.3329 -0.3885  1.2670
 4319SOL    HW224417   2.999   0.967   6.743 -0.6795 -0.0365 -1.8691
 4320SOL     OW24418   4.188   1.256   6.599 -0.2750 -0.4274  0.1379
 4320SOL    HW124419   4.202   1.325   6.664  0.7239  0.1373 -0.6781
 4320SOL    HW224420   4.114   1.205   6.631  0.0912 -0.9989  0.0688
 4321SOL     OW24421   2.682   4.636   3.215  0.1249 -0.0229  0.1100
 4321SOL    HW124422   2.770   4.623   3.180  0.2495  1.3747 -0.0637
 4321SOL    HW224423   2.643   4.548   3.218  2.6027 -1.1106  0.9675
 4322SOL     OW24424   3.676   3.207   6.903  0.1333 -0.6787  0.4458
 4322SOL    HW124425   3.716   3.205   6.816 -0.3699  2.6956  0.1680
 4322SOL    HW224426   3.593   3.192   6.857  1.3781  0.8639 -2.2507
 4323SOL     OW24427   3.445   3.813   7.253 -0.1783  0.2966 -0.4961
 4323SOL    HW124428   3.507   3.747   7.221  1.5031  1.4530  0.4017
 4323SOL    HW224429   3.422   3.766   7.334 -1.3253 -1.2419 -1.7101
 4324SOL     OW24430   2.463   1.584   4.129  0.2512 -0.2527 -0.2001
 4324SOL    HW124431   2.544   1.533   4.132  0.3642 -0.1349 -1.1439
 4324SOL    HW224432   2.471   1.612   4.037 -2.1651 -0.0878 -0.3570
 4325SOL     OW24433   2.071   2.695  15.205 -0.7042 -0.0056 -0.2668
 4325SOL    HW124434   2.102   2.753  15.136  1.5907  1.9642  2.4209
 4325SOL    HW224435   2.142   2.720  15.265 -0.1855  2.7723 -2.0701
 4326SOL     OW24436   0.971   2.425   8.377  0.0385 -0.7097  0.6858
 4326SOL    HW124437   1.032   2.401   8.447  0.4257 -1.4023  0.0945
 4326SOL    HW224438   0.996   2.365   8.307  0.9629  1.5724 -0.9251
 4327SOL     OW24439   4.580   3.412  14.919 -0.3888 -0.4786 -1.1527
 4327SOL    HW124440   4.536   3.386  15.000 -1.2927  1.7186 -0.9318
 4327SOL    HW224441   4.501   3.448  14.877 -0.9803  0.4130  0.7268
 4328SOL     OW24442   0.819   3.564   4.251  0.0676  0.1057 -0.0908
 4328SOL    HW124443   0.836   3.511   4.173 -0.0346  1.1201 -0.8103
 4328SOL    HW224444   0.828   3.497   4.318  0.6575  1.0002  0.7311
 4329SOL     OW24445   2.631   2.157   0.721 -0.5059  0.3244 -0.2744
 4329SOL    HW124446   2.566   2.113   0.666  0.7506 -0.0650 -1.4397
 4329SOL    HW224447   2.711   2.105   0.713  0.1299  1.4765 -1.3346
 4330SOL     OW24448   4.226   2.401  12.115  0.3832  0.2658 -0.2855
 4330SOL    HW124449   4.241   2.469  12.180 -1.5308  0.4768 -0.0811
 4330SOL    HW224450   4.219   2.455  12.036 -1.9455  1.3488  0.6735
 4331SOL     OW24451   0.688   4.519   0.392 -0.0846 -0.4573  0.2538
 4331SOL    HW124452   0.716   4.449   0.333 -1.4753  0.0177 -0.9761
 4331SOL    HW224453   0.608   4.480   0.428  0.1376 -0.0304  1.2068
 4332SOL     OW24454   3.459   2.541   6.494  0.4618 -0.6588  0.1974
 4332SOL    HW124455   3.481   2.627   6.460  0.7138 -0.6107  0.4812
 4332SOL    HW224456   3.403   2.519   6.419 -0.5683 -0.1408  0.8132
 4333SOL     OW24457   1.916   0.104  14.228  0.1850  0.2941  0.0202
 4333SOL    HW124458   1.834   0.151  14.211 -0.5064 -0.2898  1.6944
 4333SOL    HW224459   1.933   0.133  14.318  0.4766  0.1326  0.0153
 4334SOL     OW24460   1.405   0.173   1.569  0.5511 -0.2762  0.2372
 4334SOL    HW124461   1.324   0.127   1.592  1.2304 -2.2024 -1.1621
 4334SOL    HW224462   1.472   0.104   1.575  1.3163  0.5753  1.3980
 4335SOL     OW24463   0.832   4.378   2.776 -0.4803  0.2712 -0.3830
 4335SOL    HW124464   0.767   4.445   2.798  0.2941  1.7319 -2.6021
 4335SOL    HW224465   0.824   4.361   2.682  0.5606  0.1310 -0.4429
 4336SOL     OW24466   3.803   3.702  14.596 -0.2535 -0.0929  0.5763
 4336SOL    HW124467   3.843   3.697  14.683 -0.9213 -0.4814  0.8566
 4336SOL    HW224468   3.817   3.609  14.579 -0.4260 -0.1134  0.5486
 4337SOL     OW24469   2.683   0.920   6.960  0.2143 -0.2102 -0.0575
 4337SOL    HW124470   2.676   0.829   6.931 -1.2820  0.6108 -2.3051
 4337SOL    HW224471   2.594   0.939   6.991  0.1927  2.4114 -1.7115
 4338SOL     OW24472   2.272   3.205   1.053  0.0180  0.1858  0.1317
 4338SOL    HW124473   2.192   3.204   1.000  2.7161  2.1872 -4.0064
 4338SOL    HW224474   2.243   3.236   1.138  2.6094  1.5549  0.5013
 4339SOL     OW24475   1.877   1.150  11.578 -0.1784 -0.1107  0.4503
 4339SOL    HW124476   1.872   1.054  11.577 -0.6280 -0.1391  3.6480
 4339SOL    HW224477   1.863   1.180  11.488 -0.6269 -2.4026 -0.2554
 4340SOL     OW24478   0.682   3.364  14.803  0.3850  0.2224  0.3471
 4340SOL    HW124479   0.757   3.406  14.845 -0.5060  0.7959  1.3561
 4340SOL    HW224480   0.707   3.272  14.817 -2.8341 -0.7496 -0.2215
 4341SOL     OW24481   2.407   1.096   2.878  0.2267 -0.5711  0.1562
 4341SOL    HW124482   2.429   1.166   2.817  0.4430  0.5253  1.4741
 4341SOL    HW224483   2.406   1.138   2.964  0.3885 -0.5748  0.1602
 4342SOL     OW24484   4.597   2.148   6.065  0.1233 -0.3533 -0.5656
 4342SOL    HW124485   4.555   2.202   5.998 -0.9702 -0.6000 -0.0710
 4342SOL    HW224486   4.533   2.149   6.136  1.7245  0.2160  0.8769
 4343SOL     OW24487   0.106   3.388  15.001 -0.0166  0.1283  0.3564
 4343SOL    HW124488   0.138   3.430  14.921 -1.9017 -1.4143 -1.2260
 4343SOL    HW224489   0.017   3.424  15.001  0.4581  1.2676  0.4481
 4344SOL     OW24490   2.677   3.183   8.572 -0.4419 -0.0253 -0.0406
 4344SOL    HW124491   2.619   3.138   8.633  1.0045 -1.3269  0.3787
 4344SOL    HW224492   2.719   3.111   8.525 -1.6345 -0.7209 -0.0226
 4345SOL     OW24493   3.963   1.074   6.750 -0.4022  0.2160  0.3491
 4345SOL    HW124494   4.004   1.058   6.835  0.1801 -0.0234  0.0175
 4345SOL    HW224495   3.874   1.103   6.769 -0.1029  1.6016 -0.3948
 4346SOL     OW24496   3.927   1.841   3.153 -0.3803  0.6002  0.1005
 4346SOL    HW124497   3.993   1.793   3.204  0.4038  1.9157  0.3388
 4346SOL    HW224498   3.870   1.766   3.137 -0.2729  0.4170  0.5560
 4347SOL     OW24499   2.645   4.016   8.705 -0.5638  0.1661  0.1706
 4347SOL    HW124500   2.672   4.095   8.658 -0.7766 -1.3325 -2.4473
 4347SOL    HW224501   2.550   4.010   8.696 -0.5943  0.9901 -0.0634
 4348SOL     OW24502   0.634   2.330   7.600 -0.0462 -0.3303 -0.2950
 4348SOL    HW124503   0.625   2.376   7.684 -0.0582 -1.8548  0.5433
 4348SOL    HW224504   0.695   2.260   7.623 -0.4860 -0.4532  0.4849
 4349SOL     OW24505   1.630   2.244   2.154 -0.3884  0.0656  0.1302
 4349SOL    HW124506   1.684   2.288   2.088  0.3960 -2.3052 -0.8377
 4349SOL    HW224507   1.606   2.165   2.105 -2.0784 -0.7554  2.2927
 4350SOL     OW24508   2.093   0.460   1.560  0.3224  0.2119 -0.2468
 4350SOL    HW124509   2.116   0.377   1.604  0.4127  2.2461  3.5577
 4350SOL    HW224510   2.152   0.524   1.600  3.3919 -2.1580 -0.8911
 4351SOL     OW24511   1.781   2.683   8.463 -0.1142  0.9335  0.4432
 4351SOL    HW124512   1.795   2.716   8.374  0.0201  0.6287  0.3504
 4351SOL    HW224513   1.843   2.610   8.461  1.6012  2.4232 -1.2035
 4352SOL     OW24514   1.389   0.058   9.492  0.3525 -0.3596 -0.0066
 4352SOL    HW124515   1.408   0.148   9.518 -0.5618 -0.4842  1.0944
 4352SOL    HW224516   1.328   0.031   9.560 -0.5933  0.2483 -0.6183
 4353SOL     OW24517   0.122   2.595   4.709  0.2191 -0.2759 -0.5065
 4353SOL    HW124518   0.196   2.535   4.713  1.4985  1.2521 -0.9228
 4353SOL    HW224519   0.141   2.634   4.624 -0.2390 -0.5544 -0.7373
 4354SOL     OW24520   0.589   0.404   1.765  0.3426 -0.1125 -0.7159
 4354SOL    HW124521   0.647   0.349   1.818 -0.4866 -1.3807 -1.1243
 4354SOL    HW224522   0.649   0.445   1.703  1.3793 -0.8881 -0.2280
 4355SOL     OW24523   1.735   2.108  13.658  0.6807 -0.1469  0.1764
 4355SOL    HW124524   1.778   2.179  13.704 -0.3219 -1.1492  2.6936
 4355SOL    HW224525   1.709   2.046  13.727 -0.0382 -2.5198 -2.2102
 4356SOL     OW24526   0.422   3.823   3.971 -0.3718  0.0273  0.4466
 4356SOL    HW124527   0.475   3.902   3.981  1.6633 -1.0985 -1.2294
 4356SOL    HW224528   0.333   3.854   3.953 -1.3220 -2.4551  0.8632
 4357SOL     OW24529   4.361   1.043   6.521  0.5552 -0.6317  1.1016
 4357SOL    HW124530   4.349   1.101   6.596  1.0741  0.7542  0.1066
 4357SOL    HW224531   4.456   1.031   6.525  1.0680  2.8413 -0.7796
 4358SOL     OW24532   0.926   1.203  12.851  0.4772 -1.1231 -0.1000
 4358SOL    HW124533   0.861   1.132  12.850  2.1928 -2.6720 -0.6224
 4358SOL    HW224534   0.996   1.168  12.796  1.3230 -1.1434  0.9928
 4359SOL     OW24535   1.661   2.466   2.693  0.2246  0.5318 -0.9252
 4359SOL    HW124536   1.740   2.416   2.716  0.1782  1.6700  1.7016
 4359SOL    HW224537   1.646   2.433   2.605  1.7023 -0.2164 -0.9085
 4360SOL     OW24538   2.389   2.954  15.296  0.2553 -0.2650  0.5086
 4360SOL    HW124539   2.333   2.895  15.347  0.0584 -0.5737 -0.0634
 4360SOL    HW224540   2.382   3.036  15.345  1.2984 -0.4419  0.9674
 4361SOL     OW24541   2.862   0.888   7.256  0.2805  0.4501  0.1573
 4361SOL    HW124542   2.844   0.794   7.255  0.0263  0.5052 -0.6022
 4361SOL    HW224543   2.773   0.920   7.265  0.7329  2.3713 -2.2384
 4362SOL     OW24544   3.018   0.985  14.100 -0.0362  0.9302 -0.1558
 4362SOL    HW124545   3.002   0.900  14.140 -3.4406  1.0732 -1.1941
 4362SOL    HW224546   3.108   1.000  14.130  0.4201 -2.4080  0.1148
 4363SOL     OW24547   1.624   1.652   8.211  0.1490 -0.0811  0.1798
 4363SOL    HW124548   1.565   1.663   8.286  0.2934  1.9295  0.0075
 4363SOL    HW224549   1.578   1.706   8.148  0.9996 -1.1413 -1.3406
 4364SOL     OW24550   2.737   2.626   7.569  0.0107 -0.7531 -0.3727
 4364SOL    HW124551   2.764   2.677   7.646 -2.4916 -0.1088  0.0672
 4364SOL    HW224552   2.647   2.600   7.587 -0.4500  0.3910 -1.0498
 4365SOL     OW24553   2.239   4.061   0.055 -0.3982  0.8734  0.1499
 4365SOL    HW124554   2.198   4.116  17.675 -2.6371  1.0178  1.6276
 4365SOL    HW224555   2.257   3.981   0.006 -3.0440 -0.0482  0.6708
 4366SOL     OW24556   0.086   4.284  17.220 -0.1624 -0.0081 -0.0504
 4366SOL    HW124557   0.144   4.351  17.257 -1.5284  0.3162  1.5604
 4366SOL    HW224558   0.113   4.213  17.278 -0.2821  0.4795  0.6136
 4367SOL     OW24559   2.253   1.067  10.527  0.0960  0.3681 -0.5617
 4367SOL    HW124560   2.287   0.980  10.507  0.6273  0.8621 -1.8241
 4367SOL    HW224561   2.186   1.077  10.459  0.9847 -1.7009 -1.7523
 4368SOL     OW24562   0.355   3.776   8.539 -0.1924  0.0053  0.2130
 4368SOL    HW124563   0.394   3.740   8.619 -1.1392 -1.6971 -0.0947
 4368SOL    HW224564   0.276   3.817   8.573  0.2230  0.6814  0.3505
 4369SOL     OW24565   4.456   2.003   8.826 -0.2401 -0.4378  0.2217
 4369SOL    HW124566   4.549   2.020   8.842 -0.4458 -1.4210  2.4075
 4369SOL    HW224567   4.430   1.934   8.888  0.9423  0.9279  2.2275
 4370SOL     OW24568   2.505   2.833   7.866 -0.7399  0.6091  0.4062
 4370SOL    HW124569   2.597   2.811   7.848 -0.8288 -0.1023  0.8430
 4370SOL    HW224570   2.516   2.890   7.942  0.5444  0.3306  0.4247
 4371SOL     OW24571   3.145   3.996   8.633  0.4221  1.0249  0.1426
 4371SOL    HW124572   3.071   3.997   8.694  0.6545 -0.4086  0.4361
 4371SOL    HW224573   3.100   4.002   8.549 -0.8980 -2.9458  0.5549
 4372SOL     OW24574   0.415   2.581   7.295 -0.4171 -0.2740 -0.3474
 4372SOL    HW124575   0.361   2.629   7.232  2.7474 -1.4028 -3.9016
 4372SOL    HW224576   0.360   2.507   7.322  0.4489 -0.4753  0.8522
 4373SOL     OW24577   0.351   1.178  13.041 -0.6191 -0.1643 -0.6339
 4373SOL    HW124578   0.383   1.191  12.952 -0.2619 -0.0335 -0.4868
 4373SOL    HW224579   0.311   1.265  13.050  1.3540  0.6759 -0.0000
 4374SOL     OW24580   0.211   4.155   6.246  0.5750  0.4500 -0.0605
 4374SOL    HW124581   0.260   4.080   6.213  1.5610  0.7511  0.7159
 4374SOL    HW224582   0.137   4.112   6.288  1.8836 -2.0385 -0.3381
 4375SOL     OW24583   1.849   3.790   3.645 -0.0301  0.2160 -0.1362
 4375SOL    HW124584   1.915   3.829   3.588  1.5861 -0.7273  1.0619
 4375SOL    HW224585   1.904   3.737   3.703  0.6190  0.3330 -0.6418
 4376SOL     OW24586   0.674   0.129   6.409 -0.3391 -0.0509  0.2133
 4376SOL    HW124587   0.601   0.180   6.374  0.0873 -0.1973 -0.9079
 4376SOL    HW224588   0.641   0.099   6.494  0.3738 -0.3007  0.4054
 4377SOL     OW24589   2.349   2.577   7.814  0.0270 -0.4172  0.3731
 4377SOL    HW124590   2.418   2.640   7.835  0.8538 -1.2786  0.2193
 4377SOL    HW224591   2.276   2.622   7.857  0.5130 -1.5457  2.3651
 4378SOL     OW24592   3.807   1.014   1.847 -0.3661  0.1537  0.2840
 4378SOL    HW124593   3.818   0.919   1.856  1.8311  0.3344 -0.5588
 4378SOL    HW224594   3.717   1.013   1.815 -0.2844 -0.9021  0.0813
 4379SOL     OW24595   3.272   4.184   8.777 -0.0866 -0.0164  0.2593
 4379SOL    HW124596   3.214   4.123   8.732  2.0860 -3.0076  1.4936
 4379SOL    HW224597   3.218   4.213   8.850  1.1154  0.6929  0.8589
 4380SOL     OW24598   0.591   1.729   0.821  0.0116 -0.1846  1.1698
 4380SOL    HW124599   0.609   1.812   0.776 -0.1727 -1.1563 -0.7038
 4380SOL    HW224600   0.672   1.712   0.869 -0.6082 -0.5867  2.0808
 4381SOL     OW24601   4.690   0.180   0.062 -0.1007 -0.7084 -0.7160
 4381SOL    HW124602   0.060   0.210   0.068 -0.0203 -1.3464  1.4298
 4381SOL    HW224603   4.664   0.187   0.154  0.4268  0.2994 -0.6418
 4382SOL     OW24604   3.251   0.983   2.432 -0.4139  0.5250  0.2410
 4382SOL    HW124605   3.236   0.890   2.416 -1.9372  0.9484 -0.8546
 4382SOL    HW224606   3.164   1.021   2.417 -1.3502 -1.1841  1.4616
 4383SOL     OW24607   1.107   1.983   9.625 -0.4395 -0.6368 -0.0070
 4383SOL    HW124608   1.063   2.064   9.651  0.4274 -0.2086  0.1360
 4383SOL    HW224609   1.071   1.915   9.681 -0.0733  1.9614  3.3587
 4384SOL     OW24610   1.754   2.514   9.138  0.5754  0.4622  0.1315
 4384SOL    HW124611   1.669   2.555   9.121  1.6010  1.1776 -3.0865
 4384SOL    HW224612   1.802   2.553   9.065  1.4597  4.2647  2.7406
 4385SOL     OW24613   2.434   1.069   1.725  0.5669 -0.2105 -0.1371
 4385SOL    HW124614   2.359   1.019   1.692  1.1058 -1.2184  0.1874
 4385SOL    HW224615   2.434   1.154   1.679 -2.6096  0.3268  0.8555
 4386SOL     OW24616   3.532   1.813   9.921 -0.0893  0.4587  0.2354
 4386SOL    HW124617   3.449   1.839   9.880 -0.6223 -0.2984  0.8323
 4386SOL    HW224618   3.538   1.886   9.983 -0.5183 -0.1502  0.9885
 4387SOL     OW24619   4.532   1.510  12.073  0.0208  0.0377  0.0762
 4387SOL    HW124620   4.568   1.424  12.050 -2.0328 -0.6249 -0.6486
 4387SOL    HW224621   4.556   1.560  11.995 -1.5577 -0.4888 -0.7427
 4388SOL     OW24622   3.238   4.604   1.381 -0.1043 -0.2975  0.2846
 4388SOL    HW124623   3.331   4.590   1.396  0.6281  3.1023 -1.2924
 4388SOL    HW224624   3.252   4.656   1.302  2.6811 -1.4095  0.0466
 4389SOL     OW24625   1.107   3.200   7.152  0.1112 -0.3356 -0.2391
 4389SOL    HW124626   1.065   3.270   7.202  2.8154  2.8809 -2.5793
 4389SOL    HW224627   1.030   3.155   7.117  1.2671 -2.4464 -0.1158
 4390SOL     OW24628   2.282   2.602   6.818 -0.5375 -0.0299 -0.1812
 4390SOL    HW124629   2.217   2.599   6.748 -1.6680  1.4594  0.7970
 4390SOL    HW224630   2.231   2.667   6.866 -0.1465  0.5276 -0.5274
 4391SOL     OW24631   2.164   0.485   4.849  0.0135 -0.4666  0.5701
 4391SOL    HW124632   2.081   0.439   4.861 -0.6809  0.3335 -1.1873
 4391SOL    HW224633   2.149   0.567   4.897 -1.3234 -0.2458 -0.2103
 4392SOL     OW24634   4.283   1.702   6.733  0.6304  0.6990  0.2036
 4392SOL    HW124635   4.215   1.767   6.752  0.9848  1.0009  0.4454
 4392SOL    HW224636   4.278   1.629   6.795 -2.4305  0.6970 -0.0281
 4393SOL     OW24637   4.662   0.782   6.489  0.3908  0.3364  0.4178
 4393SOL    HW124638   4.653   0.867   6.532 -2.2228 -0.6591  1.8292
 4393SOL    HW224639   4.580   0.735   6.508  1.3380 -1.1158  0.9072
 4394SOL     OW24640   2.193   2.478   3.520 -0.6588  0.2659  0.2387
 4394SOL    HW124641   2.273   2.510   3.561 -0.3946 -0.0517 -0.0309
 4394SOL    HW224642   2.226   2.465   3.431 -3.6149  0.2108 -0.8617
 4395SOL     OW24643   1.240   2.120  15.543  0.0654  1.0139  0.1935
 4395SOL    HW124644   1.236   2.153  15.633 -2.2187 -1.6618  1.0588
 4395SOL    HW224645   1.203   2.198  15.502 -1.1739  0.1371 -0.3515
 4396SOL     OW24646   4.211   3.328  16.827 -0.1047  0.4580 -0.7033
 4396SOL    HW124647   4.165   3.289  16.901 -0.2702  0.0271 -1.0315
 4396SOL    HW224648   4.298   3.348  16.861 -0.0274  0.5578 -0.9532
 4397SOL     OW24649   4.403   0.736  14.538  0.7708 -0.2299 -0.2948
 4397SOL    HW124650   4.446   0.821  14.527 -1.4588  0.9136 -0.3902
 4397SOL    HW224651   4.381   0.750  14.630 -2.9742  1.1951 -1.3875
 4398SOL     OW24652   3.688   1.547   6.362 -0.2278  0.2280 -0.3194
 4398SOL    HW124653   3.764   1.499   6.330 -1.3119 -0.3721 -1.9949
 4398SOL    HW224654   3.624   1.476   6.356 -0.6986  0.6249 -0.0112
 4399SOL     OW24655   4.584   0.968   7.860 -0.3819  0.2020  0.0712
 4399SOL    HW124656   4.562   1.000   7.947 -1.3217 -1.6703  0.5079
 4399SOL    HW224657   4.656   0.908   7.880  1.5126  3.0165  1.7440
 4400SOL     OW24658   3.345   4.497  15.027  0.2160 -0.1485 -0.3974
 4400SOL    HW124659   3.391   4.520  15.107 -1.7758  2.4526  0.0143
 4400SOL    HW224660   3.281   4.434  15.060  0.3468  0.8950  1.8092
 4401SOL     OW24661   1.293   2.331  13.673 -0.4481 -0.2107  0.3608
 4401SOL    HW124662   1.271   2.358  13.762 -0.4727  2.6753 -0.5117
 4401SOL    HW224663   1.363   2.394  13.655 -2.4689  1.3638 -2.1051
 4402SOL     OW24664   1.350   0.817   0.475  0.4965 -0.2028  0.2504
 4402SOL    HW124665   1.446   0.820   0.478  0.5195 -0.7052  0.0649
 4402SOL    HW224666   1.334   0.825   0.569  1.5560  0.5930  0.3594
 4403SOL     OW24667   2.976   3.296   7.012 -0.1670 -0.2370  0.2727
 4403SOL    HW124668   3.048   3.360   7.015  0.5261 -1.0331  0.6462
 4403SOL    HW224669   2.954   3.299   7.105  1.1743  0.3108  0.5874
 4404SOL     OW24670   4.116   2.516   5.775 -0.1797 -0.5304 -0.6867
 4404SOL    HW124671   4.089   2.439   5.726  1.7429 -1.9498  0.4728
 4404SOL    HW224672   4.047   2.509   5.841  0.2984  2.5670  0.1504
 4405SOL     OW24673   3.978   0.699  16.490 -0.0561  0.2163  0.2227
 4405SOL    HW124674   3.956   0.725  16.580 -0.1919  1.3811 -0.1468
 4405SOL    HW224675   3.892   0.663  16.465  1.5173 -1.5198 -2.7095
 4406SOL     OW24676   1.626   2.778   3.413 -0.1980  0.2911 -0.2126
 4406SOL    HW124677   1.611   2.716   3.342  1.4778 -2.7195  2.0381
 4406SOL    HW224678   1.703   2.827   3.384  0.1230 -0.0763  0.0160
 4407SOL     OW24679   0.081   3.576   7.694 -1.0229 -0.6182 -0.4787
 4407SOL    HW124680   0.058   3.665   7.668 -0.8179 -0.0804  1.2412
 4407SOL    HW224681   0.174   3.583   7.712 -1.1130 -0.5552 -0.0530
 4408SOL     OW24682   0.418   3.988   6.120  0.0202  0.3078 -0.0747
 4408SOL    HW124683   0.479   3.918   6.097 -0.1678  0.0313  0.2581
 4408SOL    HW224684   0.411   4.032   6.035  1.9222 -0.3171 -0.5629
 4409SOL     OW24685   4.304   3.953   4.557 -0.1693  0.8021 -0.5271
 4409SOL    HW124686   4.248   3.933   4.631 -1.3645  3.4206 -0.7218
 4409SOL    HW224687   4.342   3.868   4.533 -1.8395  0.4429 -1.8811
 4410SOL     OW24688   4.632   0.870   1.486  0.0196 -0.2906  0.1888
 4410SOL    HW124689   4.708   0.928   1.496 -1.2430  1.0719  1.9808
 4410SOL    HW224690   4.578   0.903   1.558 -0.6588  0.5968 -0.7484
 4411SOL     OW24691   3.169   2.053   0.229  0.1068  0.2957  0.1051
 4411SOL    HW124692   3.191   2.142   0.200  0.6131  0.3496  0.6469
 4411SOL    HW224693   3.077   2.054   0.202  0.6932  0.6611 -1.8733
 4412SOL     OW24694   0.604   0.704   0.412  0.1037 -0.1274 -0.0677
 4412SOL    HW124695   0.690   0.711   0.453  0.6016  1.7445 -1.4820
 4412SOL    HW224696   0.623   0.710   0.319  0.2819 -0.3844 -0.0484
 4413SOL     OW24697   1.648   0.590   1.394 -1.2595 -0.2191 -0.0369
 4413SOL    HW124698   1.641   0.514   1.450 -1.3031 -0.3671 -0.2427
 4413SOL    HW224699   1.585   0.643   1.442 -1.0292 -1.0810  1.1989
 4414SOL     OW24700   2.695   2.887   6.737  0.1608 -0.0922 -0.7256
 4414SOL    HW124701   2.768   2.826   6.744 -1.1243 -1.7207 -1.5693
 4414SOL    HW224702   2.731   2.966   6.778 -0.1739  0.2484 -1.0952
 4415SOL     OW24703   2.737   1.444   1.885 -0.3944 -0.2891 -0.1857
 4415SOL    HW124704   2.817   1.391   1.895 -1.3935 -1.6872  0.3619
 4415SOL    HW224705   2.665   1.388   1.913 -0.0696 -1.6461 -2.0791
 4416SOL     OW24706   1.852   4.536   3.503  0.0416 -0.4476  1.0537
 4416SOL    HW124707   1.852   4.498   3.591  1.8040  0.1262  1.3010
 4416SOL    HW224708   1.769   4.583   3.497 -0.8006 -1.8739  1.5047
 4417SOL     OW24709   3.860   1.345   2.191  0.1770 -0.1989 -0.5050
 4417SOL    HW124710   3.782   1.290   2.205 -0.5791  0.7666 -0.9075
 4417SOL    HW224711   3.920   1.272   2.175 -1.3369 -2.7941  5.4637
 4418SOL     OW24712   1.086   3.797  14.213  0.9547  0.4983  0.0114
 4418SOL    HW124713   1.044   3.873  14.173  0.7435  0.8357  0.8722
 4418SOL    HW224714   1.008   3.754  14.247  0.2897  1.5834 -0.1313
 4419SOL     OW24715   2.505   0.456   2.379  0.5024 -0.1229  0.4351
 4419SOL    HW124716   2.413   0.460   2.405  0.7026  1.0124  0.9632
 4419SOL    HW224717   2.548   0.459   2.464 -0.2413 -2.1449  0.8787
 4420SOL     OW24718   2.491   2.370  14.464 -0.2046  0.1329 -0.1030
 4420SOL    HW124719   2.506   2.303  14.531  0.2336 -0.6075 -0.9470
 4420SOL    HW224720   2.580   2.380  14.431  0.2390 -0.7430  0.8368
 4421SOL     OW24721   3.446   3.630  10.571 -0.2437  0.3327  0.3695
 4421SOL    HW124722   3.507   3.622  10.497  0.6553  1.0207  1.0349
 4421SOL    HW224723   3.508   3.650  10.641 -2.5308  0.0023  2.4479
 4422SOL     OW24724   2.735   4.140  15.175 -0.7177  0.4454 -0.0162
 4422SOL    HW124725   2.677   4.107  15.243  0.1485 -4.2867 -1.6138
 4422SOL    HW224726   2.782   4.215  15.212  0.0841  0.1079 -0.3467
 4423SOL     OW24727   2.951   4.178   7.307  0.3508 -0.4653 -0.4642
 4423SOL    HW124728   2.912   4.096   7.336 -0.2283 -0.7013 -1.8834
 4423SOL    HW224729   3.036   4.152   7.272 -0.4628  0.0620 -2.8642
 4424SOL     OW24730   3.882   4.256  12.437  0.2724 -0.0371  0.6097
 4424SOL    HW124731   3.871   4.173  12.482 -0.8793 -0.0212  0.3649
 4424SOL    HW224732   3.974   4.258  12.409  0.4503 -0.3084  1.1711
 4425SOL     OW24733   2.260   2.208   0.058 -0.7155 -0.2231 -0.0126
 4425SOL    HW124734   2.245   2.298   0.085 -2.5146 -0.1136 -1.3371
 4425SOL    HW224735   2.197   2.199  17.673 -1.0790  0.5786  0.2082
 4426SOL     OW24736   2.177   0.216   1.701  0.2024  0.4397  0.3926
 4426SOL    HW124737   2.258   0.221   1.752 -1.2562 -0.4139  2.7959
 4426SOL    HW224738   2.176   0.123   1.678 -0.8640  0.0602  1.9629
 4427SOL     OW24739   3.791   3.746   7.843  0.2220 -0.1329 -0.0847
 4427SOL    HW124740   3.793   3.840   7.825 -0.2703  0.1902  1.6248
 4427SOL    HW224741   3.777   3.754   7.937 -0.0933 -1.8981  0.0080
 4428SOL     OW24742   2.757   2.724   2.873  0.1246 -0.1422  0.1848
 4428SOL    HW124743   2.797   2.743   2.788 -1.0472  1.4187 -0.0317
 4428SOL    HW224744   2.840   2.710   2.918 -0.4936 -0.4160  1.2296
 4429SOL     OW24745   0.798   3.694   7.299  0.0451 -0.4167 -0.4092
 4429SOL    HW124746   0.856   3.762   7.333 -0.2915 -1.2501  1.8521
 4429SOL    HW224747   0.746   3.743   7.235  0.9706  0.5574 -0.4057
 4430SOL     OW24748   3.687   3.092   4.784 -0.3299  0.8188 -0.1840
 4430SOL    HW124749   3.737   3.098   4.702 -0.8843  0.9572 -0.5109
 4430SOL    HW224750   3.708   3.007   4.822 -3.0728  1.5497  2.9847
 4431SOL     OW24751   2.516   1.032   5.440 -0.1126 -0.1689 -0.1765
 4431SOL    HW124752   2.602   1.038   5.480 -0.7378  2.0091  0.8636
 4431SOL    HW224753   2.501   0.938   5.440  0.7613 -0.3180 -3.0930
 4432SOL     OW24754   3.827   3.269  11.776  0.3980 -0.0448 -0.7399
 4432SOL    HW124755   3.749   3.252  11.829  1.2462  2.5301  1.3577
 4432SOL    HW224756   3.838   3.362  11.795 -1.6249 -0.1124  0.6691
 4433SOL     OW24757   4.154   1.919  15.799  0.1907 -0.1183 -0.6931
 4433SOL    HW124758   4.084   1.978  15.826  1.0490  0.4911  0.2299
 4433SOL    HW224759   4.195   1.886  15.879 -1.0126 -0.2350 -0.1263
 4434SOL     OW24760   0.482   3.084  12.910 -0.1052  0.1570 -0.4556
 4434SOL    HW124761   0.539   3.009  12.894 -1.0584 -0.7744  0.5088
 4434SOL    HW224762   0.399   3.044  12.883  0.7572 -1.8796 -0.0943
 4435SOL     OW24763   1.494   0.796   4.463 -0.5037  0.1412  0.0379
 4435SOL    HW124764   1.407   0.809   4.501 -1.5484 -1.9596 -1.5681
 4435SOL    HW224765   1.509   0.701   4.459  3.3202  0.7167  0.8820
 4436SOL     OW24766   1.149   2.351   4.724 -0.7235  0.3286 -0.0820
 4436SOL    HW124767   1.165   2.434   4.769 -1.8461  0.1261  0.6866
 4436SOL    HW224768   1.093   2.380   4.652 -0.3952  2.3205  0.4722
 4437SOL     OW24769   0.739   4.563   5.534  0.1893  0.0719  0.2529
 4437SOL    HW124770   0.800   4.504   5.490 -1.1422 -1.4372  0.4166
 4437SOL    HW224771   0.799   4.592   5.602 -0.4051 -1.4220  1.4205
 4438SOL     OW24772   0.311   1.836   5.470 -0.3046  0.0840  0.2634
 4438SOL    HW124773   0.342   1.780   5.398 -3.9241  0.8437 -1.9094
 4438SOL    HW224774   0.241   1.780   5.505  1.0233 -1.1689  0.8960
 4439SOL     OW24775   4.219   1.451   6.880  0.1689  0.2678  0.6901
 4439SOL    HW124776   4.149   1.470   6.942 -1.1676 -0.9942 -0.4527
 4439SOL    HW224777   4.290   1.442   6.944  0.2553  1.2463  0.7408
 4440SOL     OW24778   2.077   0.756   8.647  0.3184  0.0735 -0.0436
 4440SOL    HW124779   2.145   0.776   8.582  2.0436 -1.1145  1.4217
 4440SOL    HW224780   2.002   0.797   8.603 -1.5510 -0.7981  2.3951
 4441SOL     OW24781   2.649   0.515   3.298 -0.6371 -0.1917  0.1348
 4441SOL    HW124782   2.659   0.519   3.393 -3.7209  0.5264  0.4167
 4441SOL    HW224783   2.738   0.517   3.261 -0.7522 -0.0061 -0.1312
 4442SOL     OW24784   4.107   0.953  14.912  0.3333  0.5354 -0.5792
 4442SOL    HW124785   4.170   0.979  14.845  1.3672 -2.7966 -0.8691
 4442SOL    HW224786   4.089   0.869  14.871  1.0044  0.3150 -0.4167
 4443SOL     OW24787   1.972   1.115   9.624  0.5771  0.0417  0.1030
 4443SOL    HW124788   1.937   1.166   9.697  0.0904  0.3318 -0.3399
 4443SOL    HW224789   2.063   1.119   9.654  1.0934  2.9891 -1.8595
 4444SOL     OW24790   4.284   3.542  17.425 -0.3086  0.1973  0.4278
 4444SOL    HW124791   4.264   3.504  17.340 -1.6430 -2.5772  1.9695
 4444SOL    HW224792   4.201   3.539  17.474  1.2730  0.6332  3.1688
 4445SOL     OW24793   2.082   2.924  17.414 -0.4330 -0.3915 -0.4632
 4445SOL    HW124794   2.015   2.924  17.483 -1.4623  1.9048 -1.4332
 4445SOL    HW224795   2.161   2.962  17.453  0.4491 -2.6282 -0.0850
 4446SOL     OW24796   4.407   1.202   6.141 -0.5880  0.3023 -0.7198
 4446SOL    HW124797   4.450   1.161   6.217 -1.6425  0.2454 -0.1505
 4446SOL    HW224798   4.467   1.274   6.120 -0.8161  0.2069 -1.6744
 4447SOL     OW24799   1.002   3.055   8.927  0.0103 -0.6256  0.2227
 4447SOL    HW124800   1.037   3.073   9.014 -3.1122  0.9847  1.1346
 4447SOL    HW224801   1.035   3.134   8.885 -0.6956 -1.9454 -2.7957
 4448SOL     OW24802   1.999   3.866   7.354  0.6289  0.3398  0.6571
 4448SOL    HW124803   1.958   3.782   7.332  0.2322  0.3897  1.1840
 4448SOL    HW224804   2.075   3.869   7.297  0.2991  0.2855  0.2142
 4449SOL     OW24805   0.065   1.708   5.221 -0.2200 -0.2696 -0.2421
 4449SOL    HW124806   0.008   1.731   5.147  0.9147 -2.4418 -1.7605
 4449SOL    HW224807   0.070   1.613   5.211 -1.9880 -0.3519 -0.5141
 4450SOL     OW24808   1.404   1.673   9.032  0.2158  0.0100  0.4484
 4450SOL    HW124809   1.477   1.613   9.044 -0.2632 -0.6208  0.1754
 4450SOL    HW224810   1.392   1.710   9.120  0.0324 -2.6558  1.5251
 4451SOL     OW24811   4.349   0.333   9.282 -0.1520  0.0477  0.5410
 4451SOL    HW124812   4.442   0.337   9.257  0.1572  1.1091  1.8709
 4451SOL    HW224813   4.350   0.254   9.336 -1.0721 -0.3105  0.0323
 4452SOL     OW24814   3.230   2.078   5.035 -0.8238  0.1841 -0.2339
 4452SOL    HW124815   3.215   2.144   4.967  0.6879 -0.2827 -0.9942
 4452SOL    HW224816   3.158   2.116   5.086 -1.0194  0.3955 -0.6635
 4453SOL     OW24817   1.012   1.979   8.936  0.0283 -0.0532  0.5656
 4453SOL    HW124818   1.049   1.947   9.018  0.6423 -0.7386  0.0177
 4453SOL    HW224819   0.932   1.930   8.952 -0.3735  0.6027  0.5653
 4454SOL     OW24820   3.627   2.516  10.230  0.0606  0.1875 -0.2943
 4454SOL    HW124821   3.662   2.604  10.214  0.0700  0.3956  0.8503
 4454SOL    HW224822   3.594   2.499  10.142 -0.0554 -0.6057 -0.0949
 4455SOL     OW24823   0.390   3.010   3.276 -0.3111  0.1421  0.1374
 4455SOL    HW124824   0.429   3.015   3.363 -1.4426 -0.2293  0.6724
 4455SOL    HW224825   0.330   3.084   3.276 -0.9082 -0.3521 -1.5444
 4456SOL     OW24826   1.060   0.509   9.369  0.0460 -0.0031 -0.4148
 4456SOL    HW124827   1.003   0.470   9.303 -2.0239  3.2710 -0.5909
 4456SOL    HW224828   1.133   0.547   9.320  0.9197  0.0238  0.9219
 4457SOL     OW24829   2.077   3.699   2.275  0.0578 -0.1234  0.4790
 4457SOL    HW124830   2.065   3.708   2.181  1.9064 -0.7879  0.1803
 4457SOL    HW224831   2.148   3.762   2.288  1.1407 -1.0814 -0.8168
 4458SOL     OW24832   2.459   3.437   5.674 -0.5287 -0.3074  0.1975
 4458SOL    HW124833   2.549   3.450   5.646 -0.2722 -1.5609  0.4488
 4458SOL    HW224834   2.412   3.484   5.604  0.0543  2.7762  1.8863
 4459SOL     OW24835   1.148   4.373   4.992 -0.8429  0.6025  0.0808
 4459SOL    HW124836   1.163   4.386   4.899  0.9186  0.1810  0.2951
 4459SOL    HW224837   1.063   4.413   5.010 -0.9228  1.4506 -2.2444
 4460SOL     OW24838   2.183   1.429   9.649 -0.2493  0.0029  0.1257
 4460SOL    HW124839   2.244   1.393   9.585 -0.4860 -0.4519  0.1558
 4460SOL    HW224840   2.105   1.453   9.600 -0.4480  1.6687  1.2394
 4461SOL     OW24841   1.385   3.290  11.009 -0.0967  0.3631  0.6595
 4461SOL    HW124842   1.407   3.329  10.925 -2.1233 -1.4632 -0.7315
 4461SOL    HW224843   1.403   3.360  11.071 -1.6134  0.7399  0.6859
 4462SOL     OW24844   4.085   4.367   3.898  0.3353  0.2270 -0.0927
 4462SOL    HW124845   4.166   4.349   3.851  1.4303  2.0593  1.0975
 4462SOL    HW224846   4.047   4.443   3.856  0.5696 -0.0231 -0.7516
 4463SOL     OW24847   4.247   3.643   6.590 -0.1623 -0.2757 -0.4043
 4463SOL    HW124848   4.258   3.737   6.603  0.1278  0.0938 -3.4621
 4463SOL    HW224849   4.248   3.614   6.682  0.9394  1.6287  0.1787
 4464SOL     OW24850   0.274   1.552   2.335 -0.3499  0.4312 -0.7182
 4464SOL    HW124851   0.184   1.519   2.334 -0.4951  0.7723  1.4639
 4464SOL    HW224852   0.261   1.643   2.308  1.5827  0.8703 -0.1001
 4465SOL     OW24853   3.005   3.840  16.498 -0.3591 -0.3917 -0.5538
 4465SOL    HW124854   2.991   3.867  16.407 -1.7462  1.9133  0.3482
 4465SOL    HW224855   3.069   3.771  16.478  1.6206  1.6888 -1.3343
 4466SOL     OW24856   4.607   1.730   6.297 -0.4016 -0.4596 -0.1502
 4466SOL    HW124857   4.656   1.648   6.301  1.1244  0.4957  0.6139
 4466SOL    HW224858   4.535   1.703   6.354 -1.6108  0.5234 -1.2023
 4467SOL     OW24859   2.969   1.828  12.620  0.0194  0.6571 -0.1726
 4467SOL    HW124860   2.952   1.735  12.634  2.5826  0.0146 -1.3405
 4467SOL    HW224861   2.878   1.855  12.634  0.0662  1.4882 -1.4899
 4468SOL     OW24862   2.764   2.973   3.482  0.4962 -0.0741  0.0999
 4468SOL    HW124863   2.835   2.938   3.535  0.6107  1.6239  1.0710
 4468SOL    HW224864   2.806   3.046   3.437 -0.5566  1.3190  1.3841
 4469SOL     OW24865   1.822   2.097   0.860  0.2363  0.0475 -0.0065
 4469SOL    HW124866   1.782   2.167   0.808 -0.6508 -0.1382  0.4166
 4469SOL    HW224867   1.906   2.074   0.822 -0.9095 -2.8451 -0.7921
 4470SOL     OW24868   0.359   3.052  11.273  0.0895  0.2011 -0.1850
 4470SOL    HW124869   0.346   3.145  11.254  2.1439  0.8101  1.4280
 4470SOL    HW224870   0.306   3.017  11.201  0.3402 -0.9485  0.1923
 4471SOL     OW24871   2.559   0.438   8.125  0.1843  0.9478  0.0013
 4471SOL    HW124872   2.587   0.495   8.196  0.1584  0.0772  0.7036
 4471SOL    HW224873   2.645   0.427   8.084 -0.1651 -0.0235 -0.4694
 4472SOL     OW24874   2.019   0.005   8.320  0.1088  0.0824  0.2936
 4472SOL    HW124875   2.110   0.032   8.333 -0.1740  1.8800 -1.4939
 4472SOL    HW224876   1.977   0.063   8.384 -1.3233  0.2438 -0.8044
 4473SOL     OW24877   0.168   4.498   3.657 -0.0908 -0.4668  0.2581
 4473SOL    HW124878   0.073   4.492   3.668 -0.1619  1.3842  0.5741
 4473SOL    HW224879   0.173   4.474   3.564 -0.5709  1.4142 -0.2453
 4474SOL     OW24880   1.362   4.025   9.292  0.8836 -0.1008 -0.4529
 4474SOL    HW124881   1.411   4.024   9.209  2.6861  2.5239  0.5570
 4474SOL    HW224882   1.333   4.116   9.286  0.3724 -0.1770  1.0247
 4475SOL     OW24883   3.366   4.557  15.315 -0.7640  0.0394 -0.6353
 4475SOL    HW124884   3.316   4.530  15.392  1.9709 -0.9545  0.8109
 4475SOL    HW224885   3.323   4.639  15.294  2.2530  1.4377 -1.3237
 4476SOL     OW24886   1.736   0.316  10.693 -0.2819  0.0357 -0.3874
 4476SOL    HW124887   1.739   0.362  10.610 -1.0966 -0.2758 -0.5860
 4476SOL    HW224888   1.718   0.388  10.754  0.2571  0.4246 -0.6869
 4477SOL     OW24889   2.240   1.748   2.135  0.0109 -0.2750  0.0585
 4477SOL    HW124890   2.198   1.669   2.169  0.7068  0.5129  2.6906
 4477SOL    HW224891   2.329   1.730   2.162 -0.6132 -1.0374  1.6007
 4478SOL     OW24892   0.058   3.809   2.133  0.3543  0.3173 -0.1112
 4478SOL    HW124893   0.073   3.716   2.153  1.7560  0.7443  0.8212
 4478SOL    HW224894   0.067   3.845   2.221 -1.1007 -0.5629  0.3925
 4479SOL     OW24895   4.028   0.386   4.750 -0.0893  0.4454 -0.7360
 4479SOL    HW124896   4.095   0.357   4.811 -1.4641 -0.4143  0.3793
 4479SOL    HW224897   4.019   0.309   4.693  2.2687 -0.7624  0.5718
 4480SOL     OW24898   0.373   3.075   2.837  0.5233  0.7004 -0.1373
 4480SOL    HW124899   0.469   3.073   2.833  0.4596 -1.0238 -0.6964
 4480SOL    HW224900   0.353   3.143   2.902  0.1292  2.7152 -2.3892
 4481SOL     OW24901   0.058   4.204   4.392  0.5164  0.2681  0.7593
 4481SOL    HW124902   4.705   4.203   4.452  0.2545 -0.3888  0.4276
 4481SOL    HW224903   0.095   4.121   4.422  2.5798  0.6052 -0.8565
 4482SOL     OW24904   4.286   2.416  12.769 -0.2480  0.4765 -0.1975
 4482SOL    HW124905   4.197   2.408  12.804  0.2527 -1.7336  0.5627
 4482SOL    HW224906   4.326   2.483  12.823 -1.0930  0.3908  0.5414
 4483SOL     OW24907   2.666   3.385  11.657  0.0802  0.4552  0.0587
 4483SOL    HW124908   2.621   3.401  11.574 -1.6834  0.7490  1.0807
 4483SOL    HW224909   2.682   3.291  11.646  0.5527  0.4227  1.0430
 4484SOL     OW24910   4.162   3.811  11.319 -0.3463 -0.3738  0.3949
 4484SOL    HW124911   4.187   3.837  11.230 -2.2427  3.1262  0.8736
 4484SOL    HW224912   4.158   3.716  11.315 -0.4927 -0.3570  0.1495
 4485SOL     OW24913   4.353   2.582   1.046 -0.0704 -0.2820 -0.0460
 4485SOL    HW124914   4.342   2.494   1.010 -0.5711 -0.6453  0.9854
 4485SOL    HW224915   4.306   2.570   1.128  1.1727 -0.5177  0.6273
 4486SOL     OW24916   0.486   0.266   4.931  0.2593 -0.2086 -0.0419
 4486SOL    HW124917   0.488   0.265   4.835  1.5665 -3.4139  0.0150
 4486SOL    HW224918   0.476   0.173   4.948 -1.4776 -0.0819 -0.3683
 4487SOL     OW24919   2.324   3.457   4.185  0.4959 -0.1387  0.0327
 4487SOL    HW124920   2.322   3.365   4.212 -2.5895 -0.1853 -0.4407
 4487SOL    HW224921   2.355   3.490   4.270 -0.6368  0.1397  0.3303
 4488SOL     OW24922   1.889   4.165  12.494 -0.2370  0.1691 -0.4481
 4488SOL    HW124923   1.903   4.228  12.565  0.5683  0.2517 -0.6718
 4488SOL    HW224924   1.825   4.106  12.534  0.3853  0.6178  1.2073
 4489SOL     OW24925   3.604   4.423  15.242 -0.0845  0.4496 -0.0137
 4489SOL    HW124926   3.646   4.383  15.318  0.8950 -0.9099 -1.2702
 4489SOL    HW224927   3.526   4.470  15.271 -0.3560 -0.2583  0.3949
 4490SOL     OW24928   2.552   2.322   3.670 -0.2775  0.3272  0.1245
 4490SOL    HW124929   2.529   2.235   3.636  0.9163 -0.7368  1.9675
 4490SOL    HW224930   2.586   2.289   3.754  1.9345  0.2078 -0.8026
 4491SOL     OW24931   2.892   3.423   1.630 -0.0434  0.6343 -0.3777
 4491SOL    HW124932   2.936   3.422   1.715 -1.0718 -1.0230  0.1445
 4491SOL    HW224933   2.818   3.478   1.657  0.4885  2.2238 -2.1633
 4492SOL     OW24934   3.274   0.645  16.736  0.1298 -0.1325  0.1561
 4492SOL    HW124935   3.286   0.554  16.762  2.1920 -0.1207 -0.6940
 4492SOL    HW224936   3.333   0.649  16.660 -1.7465  1.4923 -1.1935
 4493SOL     OW24937   1.502   2.782   5.637  0.3910  0.5595  0.3462
 4493SOL    HW124938   1.475   2.864   5.679 -2.9721 -0.3087 -0.1002
 4493SOL    HW224939   1.474   2.720   5.704 -1.5068  2.3462  1.2225
 4494SOL     OW24940   1.360   2.038   7.011  0.0880 -0.1681 -0.1214
 4494SOL    HW124941   1.277   1.991   7.015  0.8926 -1.7643 -2.4048
 4494SOL    HW224942   1.406   1.985   6.946 -2.4920 -1.7288 -0.6652
 4495SOL     OW24943   3.902   0.198   8.857  0.5393 -0.3337  0.0190
 4495SOL    HW124944   3.808   0.212   8.868  0.1583 -3.3505  0.6707
 4495SOL    HW224945   3.910   0.103   8.854  1.4258 -0.2869  0.9884
 4496SOL     OW24946   4.583   1.782  13.257 -0.0093  0.2010 -0.4175
 4496SOL    HW124947   4.576   1.688  13.270  0.5593 -0.1178 -2.4065
 4496SOL    HW224948   4.497   1.823  13.268  0.2842  1.0780 -1.3347
 4497SOL     OW24949   4.485   0.308  12.838  0.5249  0.2268  0.6686
 4497SOL    HW124950   4.556   0.273  12.784 -1.2537 -3.5028  0.7579
 4497SOL    HW224951   4.499   0.260  12.919 -2.1155 -1.5588  0.0421
 4498SOL     OW24952   2.441   2.798   6.702  0.2396  0.1560  0.0777
 4498SOL    HW124953   2.534   2.818   6.710 -0.1881  1.2532  2.4602
 4498SOL    HW224954   2.419   2.720   6.754  0.5781  0.1471  0.2070
 4499SOL     OW24955   2.945   0.763  14.250 -0.3808  0.3186 -0.0456
 4499SOL    HW124956   2.884   0.732  14.182 -0.5097 -0.5703  0.4693
 4499SOL    HW224957   2.989   0.679  14.264  1.7691  1.1114 -2.1891
 4500SOL     OW24958   3.520   2.928   2.251 -0.0468  0.2971 -0.6106
 4500SOL    HW124959   3.528   2.882   2.167 -0.1144 -0.0365 -0.4363
 4500SOL    HW224960   3.604   2.945   2.294 -1.1430  0.9459  1.2653
 4501SOL     OW24961   2.306   2.775   9.775 -0.4444  0.2361  0.0435
 4501SOL    HW124962   2.378   2.724   9.811 -0.1474 -0.1484 -1.1004
 4501SOL    HW224963   2.354   2.852   9.743  0.9039 -1.2947 -1.5685
 4502SOL     OW24964   1.413   1.919  15.546 -0.4038 -0.2706 -0.3823
 4502SOL    HW124965   1.374   2.005  15.537  1.1342  0.3036 -1.4953
 4502SOL    HW224966   1.367   1.881  15.471 -1.9686  2.0759 -0.5825
 4503SOL     OW24967   1.005   4.281   5.552  0.0572  0.1578 -0.1733
 4503SOL    HW124968   1.046   4.199   5.579  0.1660  0.1934 -0.2332
 4503SOL    HW224969   1.037   4.327   5.629  0.0214  0.3288 -0.2598
 4504SOL     OW24970   2.660   2.375   0.511 -0.1339 -0.4625 -0.4786
 4504SOL    HW124971   2.585   2.332   0.551 -0.4489  0.2764 -0.2689
 4504SOL    HW224972   2.632   2.375   0.420  0.2700  0.9413 -0.6103
 4505SOL     OW24973   1.527   3.930   3.316  0.0817  0.2843 -0.1629
 4505SOL    HW124974   1.467   3.900   3.384 -0.5007 -0.5581 -1.0471
 4505SOL    HW224975   1.562   3.843   3.296  1.6761  0.9509 -0.2499
 4506SOL     OW24976   3.804   4.120  15.636  0.3966  0.1493 -0.1649
 4506SOL    HW124977   3.827   4.109  15.728  0.5857  2.0065  0.0041
 4506SOL    HW224978   3.830   4.031  15.609  2.2117  1.2969 -2.2324
 4507SOL     OW24979   1.747   2.806   5.157  0.3357 -0.6657  0.0407
 4507SOL    HW124980   1.706   2.730   5.117 -1.1231  0.5431 -0.7606
 4507SOL    HW224981   1.785   2.851   5.081  1.4801 -3.1770 -0.8951
 4508SOL     OW24982   2.418   3.032   9.671  0.3226 -0.2361 -0.3766
 4508SOL    HW124983   2.401   3.086   9.748 -1.1205 -2.9603  1.2350
 4508SOL    HW224984   2.453   3.103   9.618 -2.3247  0.1672 -1.6092
 4509SOL     OW24985   3.750   3.305  17.597 -0.1655 -0.5313 -0.3442
 4509SOL    HW124986   3.663   3.291  17.634 -1.5959  1.3743 -2.9998
 4509SOL    HW224987   3.732   3.390  17.557  0.0997 -0.9685 -1.3910
 4510SOL     OW24988   2.470   1.674   1.128  0.4354  0.3161  0.3316
 4510SOL    HW124989   2.555   1.633   1.112  0.1756 -0.3430  0.6518
 4510SOL    HW224990   2.496   1.766   1.135  3.1371 -0.5765  1.9498
 4511SOL     OW24991   0.924   1.568   4.517  0.0519 -0.1245  0.3066
 4511SOL    HW124992   0.937   1.518   4.437  0.1595  0.3792  0.0090
 4511SOL    HW224993   0.832   1.593   4.508 -0.7889 -2.9531  0.9297
 4512SOL     OW24994   3.495   4.420   3.890  0.0377  0.7275 -0.8470
 4512SOL    HW124995   3.423   4.475   3.860 -0.9634 -0.5663 -0.8583
 4512SOL    HW224996   3.500   4.364   3.812  1.5714  1.0260 -0.9599
 4513SOL     OW24997   0.575   2.585  11.451 -0.1602  0.4093 -0.0423
 4513SOL    HW124998   0.520   2.623  11.382 -0.7124  0.3752  0.3742
 4513SOL    HW224999   0.602   2.505  11.406 -1.2178 -0.6133  1.1144
 4514SOL     OW25000   3.569   1.706  16.467  0.0114 -0.0154  0.0931
 4514SOL    HW125001   3.486   1.689  16.424 -0.3300  0.9692  0.3682
 4514SOL    HW225002   3.613   1.622  16.455 -1.6473 -0.6231 -1.6260
 4515SOL     OW25003   2.305   3.542   3.359 -0.3492  0.0901 -0.1305
 4515SOL    HW125004   2.355   3.500   3.289 -1.2821 -1.2916  0.0396
 4515SOL    HW225005   2.293   3.475   3.426  0.9318  1.1694  1.1698
 4516SOL     OW25006   0.308   0.407   0.313 -1.0064 -0.1873  0.9832
 4516SOL    HW125007   0.391   0.385   0.354 -0.5382 -0.3063 -0.0221
 4516SOL    HW225008   0.305   0.503   0.312  2.5472 -0.0898  1.3337
 4517SOL     OW25009   1.606   3.568  17.090 -0.4031  0.0757 -0.0378
 4517SOL    HW125010   1.638   3.609  17.009 -0.3634 -0.7901 -0.4668
 4517SOL    HW225011   1.595   3.482  17.049  1.2832 -0.7123  1.2005
 4518SOL     OW25012   3.521   1.422   4.516 -0.0377 -0.2203 -0.6558
 4518SOL    HW125013   3.459   1.434   4.444 -1.9062  3.6554  1.6307
 4518SOL    HW225014   3.598   1.426   4.460  0.2599 -0.8541 -0.2957
 4519SOL     OW25015   0.410   4.630  15.952 -0.4522  0.0320  0.1418
 4519SOL    HW125016   0.458   4.589  15.881  0.7045  0.3587  0.7347
 4519SOL    HW225017   0.410   4.561  16.018  1.8645  0.7527  0.8772
 4520SOL     OW25018   1.966   2.946  11.717  0.3189  0.3681  0.7072
 4520SOL    HW125019   1.913   2.993  11.652 -3.6653 -2.8952  1.6042
 4520SOL    HW225020   2.021   3.016  11.753  1.9416 -0.1800 -0.7034
 4521SOL     OW25021   2.417   0.544  10.176 -0.5331  0.3937 -0.2741
 4521SOL    HW125022   2.353   0.556  10.246  1.9776 -0.9225  2.2475
 4521SOL    HW225023   2.382   0.606  10.112 -1.0300  0.0420 -0.3393
 4522SOL     OW25024   1.260   1.954   2.527 -0.0941  0.3034 -0.1670
 4522SOL    HW125025   1.201   1.979   2.455 -1.5768  0.8803  1.2457
 4522SOL    HW225026   1.249   2.037   2.573  0.5331  1.4184 -2.0365
 4523SOL     OW25027   2.665   3.019   5.318 -0.3932  0.3718  0.0221
 4523SOL    HW125028   2.752   2.979   5.323 -0.6173 -0.0895  0.2536
 4523SOL    HW225029   2.687   3.111   5.304  0.3447  0.4799  1.8306
 4524SOL     OW25030   3.491   1.676  12.686  0.8969  0.0677  0.0001
 4524SOL    HW125031   3.534   1.692  12.769  0.5487 -0.0610  0.2074
 4524SOL    HW225032   3.565   1.680  12.625  0.3991 -1.0484 -0.6999
 4525SOL     OW25033   2.201   2.338   5.569 -0.3657  0.9456  0.7546
 4525SOL    HW125034   2.268   2.387   5.521 -0.9407  0.1852 -0.8360
 4525SOL    HW225035   2.125   2.370   5.520 -0.2148  0.7083  0.3652
 4526SOL     OW25036   3.479   3.804   4.997 -0.5057 -0.2318  0.3206
 4526SOL    HW125037   3.568   3.806   5.034 -0.4232  1.8647 -0.0029
 4526SOL    HW225038   3.492   3.835   4.907  3.0239 -0.8759  0.5957
 4527SOL     OW25039   1.568   2.517   7.783  0.1461 -0.1757 -0.7773
 4527SOL    HW125040   1.476   2.498   7.800  0.2315 -0.1193 -0.2450
 4527SOL    HW225041   1.614   2.442   7.823  1.2132  0.2660 -1.1859
 4528SOL     OW25042   1.476   3.836   6.326  0.0554  0.1439 -0.4558
 4528SOL    HW125043   1.476   3.774   6.399 -2.2900  0.0898 -0.5047
 4528SOL    HW225044   1.553   3.809   6.275 -0.3363 -1.0103 -0.4460
 4529SOL     OW25045   3.559   0.451  17.280  0.5575  0.5426  0.0433
 4529SOL    HW125046   3.537   0.534  17.324 -1.2653 -0.1426  0.4225
 4529SOL    HW225047   3.490   0.399  17.321  1.5495 -0.8067 -0.0128
 4530SOL     OW25048   4.334   2.893  10.782 -0.6298  0.2952  0.2282
 4530SOL    HW125049   4.381   2.951  10.842  0.9081 -0.9121  0.1746
 4530SOL    HW225050   4.253   2.881  10.831  0.4458  0.1066  1.9572
 4531SOL     OW25051   2.955   3.343   3.752 -0.2298  0.9550  0.3182
 4531SOL    HW125052   2.937   3.318   3.661 -0.4390 -0.5568  0.7676
 4531SOL    HW225053   2.881   3.388   3.792  0.2604  0.1688  2.1139
 4532SOL     OW25054   3.013   2.210  11.269  0.3792 -0.9123 -0.6331
 4532SOL    HW125055   3.042   2.138  11.325 -1.1543 -1.8346 -1.0464
 4532SOL    HW225056   3.057   2.175  11.191 -1.6235 -1.7483 -1.3848
 4533SOL     OW25057   1.374   4.377   5.849  0.2409 -0.2584  0.4837
 4533SOL    HW125058   1.394   4.437   5.920  0.1886  0.4861 -0.1301
 4533SOL    HW225059   1.328   4.316   5.906 -0.0384 -1.6610 -1.2421
 4534SOL     OW25060   3.223   2.706   6.799 -0.2869 -0.2293 -0.4551
 4534SOL    HW125061   3.228   2.610   6.800  2.6423 -0.0962 -0.9058
 4534SOL    HW225062   3.163   2.718   6.873 -0.2839  0.2660 -0.5377
 4535SOL     OW25063   3.432   2.662   1.489  0.0470  0.2932 -0.1843
 4535SOL    HW125064   3.346   2.690   1.459  0.6152  1.3038 -0.8803
 4535SOL    HW225065   3.479   2.616   1.420  1.7270 -2.0570  2.5159
 4536SOL     OW25066   3.960   1.060   5.995 -0.4813 -0.3686  0.2409
 4536SOL    HW125067   3.954   0.993   6.063  4.1714  0.9116  1.9395
 4536SOL    HW225068   3.871   1.090   5.979 -0.0567  0.7125 -0.1241
 4537SOL     OW25069   0.548   1.267   5.512 -0.1923 -0.2050 -0.2041
 4537SOL    HW125070   0.584   1.292   5.597 -1.0814  0.5551 -0.0610
 4537SOL    HW225071   0.525   1.352   5.476 -1.0609  0.0351  0.9409
 4538SOL     OW25072   0.586   2.087   0.409 -0.2976 -0.6573 -0.4320
 4538SOL    HW125073   0.629   2.121   0.330 -0.0509 -2.4985 -1.0729
 4538SOL    HW225074   0.527   2.024   0.368 -0.8048 -0.2662 -0.3186
 4539SOL     OW25075   3.907   2.818   6.819  0.3628 -0.0535 -0.3543
 4539SOL    HW125076   3.815   2.845   6.810 -0.0258 -0.9924  0.8249
 4539SOL    HW225077   3.917   2.806   6.914 -0.8680 -1.5130 -0.4053
 4540SOL     OW25078   2.046   3.448   4.017 -0.6005  0.9098  0.0178
 4540SOL    HW125079   2.122   3.424   4.070 -1.4999 -1.4875  0.2128
 4540SOL    HW225080   2.014   3.513   4.078 -0.3906  0.0018  1.0966
 4541SOL     OW25081   0.203   0.072   3.348 -0.0868  0.1873  0.0302
 4541SOL    HW125082   0.166   0.142   3.293  1.0509  0.6356 -0.1541
 4541SOL    HW225083   0.272   0.037   3.292  0.1347 -1.7882  1.5487
 4542SOL     OW25084   3.848   2.720   2.138 -0.1805  0.6458 -0.1820
 4542SOL    HW125085   3.848   2.806   2.097  3.9997  1.8882  2.3890
 4542SOL    HW225086   3.809   2.658   2.076 -0.5447 -0.1604  0.8474
 4543SOL     OW25087   0.500   0.681   6.473  0.0992  0.5341 -0.1276
 4543SOL    HW125088   0.539   0.762   6.439  2.8601 -0.8596 -0.3143
 4543SOL    HW225089   0.562   0.666   6.544 -0.1849  0.1343  0.0363
 4544SOL     OW25090   0.737   4.083   6.588 -0.0775 -0.6280  0.4090
 4544SOL    HW125091   0.746   4.167   6.543 -2.7782 -0.4995  0.0992
 4544SOL    HW225092   0.658   4.041   6.553 -0.2739 -0.4212  0.6059
 4545SOL     OW25093   1.315   2.916  12.557 -0.6266  0.0214 -0.6893
 4545SOL    HW125094   1.352   2.829  12.570 -0.0419  0.2946 -0.5445
 4545SOL    HW225095   1.260   2.904  12.479 -0.3952  0.9794 -1.0046
 4546SOL     OW25096   1.970   2.566   9.668 -0.1404  0.2383 -0.0691
 4546SOL    HW125097   1.883   2.529   9.681 -0.5749  1.1422 -0.4438
 4546SOL    HW225098   2.007   2.496   9.614 -0.5169 -0.3695  0.4606
 4547SOL     OW25099   2.927   2.866   2.206  0.1009  0.5260  0.1657
 4547SOL    HW125100   2.933   2.829   2.294 -0.5778 -0.3881 -0.1677
 4547SOL    HW225101   2.850   2.813   2.184  0.2650  0.2278  0.3143
 4548SOL     OW25102   2.095   2.868   5.092 -0.0435  0.2825 -0.1223
 4548SOL    HW125103   2.164   2.802   5.103 -0.1817  0.1270 -0.1917
 4548SOL    HW225104   2.140   2.927   5.030 -1.3914  0.8820 -0.5166
 4549SOL     OW25105   1.611   3.727  12.704  0.3315  0.5144 -0.1773
 4549SOL    HW125106   1.675   3.680  12.650  0.0446  0.2546 -0.2913
 4549SOL    HW225107   1.540   3.740  12.642  0.4923  0.1276 -0.4465
 4550SOL     OW25108   1.095   3.532   3.394  0.4198  0.8573 -0.1084
 4550SOL    HW125109   1.190   3.536   3.388  0.4043 -0.1456 -0.9770
 4550SOL    HW225110   1.071   3.500   3.307  2.8703  1.7274 -1.0882
 4551SOL     OW25111   3.502   3.288   4.621 -0.5417  0.1743  0.2651
 4551SOL    HW125112   3.513   3.199   4.656  0.7940 -0.5920 -2.0709
 4551SOL    HW225113   3.414   3.285   4.583 -0.5608  0.2569  0.3029
 4552SOL     OW25114   1.674   3.026  14.851  0.3836  0.5971 -0.4795
 4552SOL    HW125115   1.618   3.002  14.925 -0.5136  0.0435 -1.3375
 4552SOL    HW225116   1.661   2.962  14.782 -1.0044  1.0185 -0.6089
 4553SOL     OW25117   0.813   3.166   4.253  0.1598  0.4068 -0.8311
 4553SOL    HW125118   0.906   3.187   4.268 -0.6267  2.5539  1.0287
 4553SOL    HW225119   0.819   3.121   4.168 -1.0117  0.6795 -1.0505
 4554SOL     OW25120   1.369   1.540  11.955  0.0897  0.2056 -0.9488
 4554SOL    HW125121   1.333   1.451  11.962 -0.5058  0.3542 -2.0227
 4554SOL    HW225122   1.298   1.575  11.901  0.2328 -1.7173 -2.4110
 4555SOL     OW25123   0.449   1.885   3.936  0.8172  0.2577 -0.2978
 4555SOL    HW125124   0.472   1.806   3.887 -3.4294  0.5142 -2.6500
 4555SOL    HW225125   0.532   1.930   3.953  0.0122  0.7365  2.4746
 4556SOL     OW25126   0.674   0.805   6.130 -0.0772  0.1636  0.1765
 4556SOL    HW125127   0.590   0.850   6.142  0.1655  0.9403 -1.0796
 4556SOL    HW225128   0.661   0.786   6.037 -1.5958  0.6595  0.2928
 4557SOL     OW25129   1.067   2.071   3.105  0.0154 -0.2681  0.2439
 4557SOL    HW125130   1.142   2.128   3.091  0.3901 -0.6820  0.5471
 4557SOL    HW225131   1.014   2.140   3.144 -0.0070 -1.3702  2.1563
 4558SOL     OW25132   0.092   3.704  16.668  0.1529 -0.0840  0.4517
 4558SOL    HW125133   0.130   3.657  16.593 -0.5844 -2.2306  1.4080
 4558SOL    HW225134   0.114   3.792  16.640 -0.4499 -0.1238 -0.1558
 4559SOL     OW25135   2.469   0.092   3.330 -0.5756  0.4454  0.0586
 4559SOL    HW125136   2.541   0.032   3.311  0.6830  2.3425 -1.2138
 4559SOL    HW225137   2.497   0.115   3.418 -0.4956  1.6845 -0.2961
 4560SOL     OW25138   1.501   2.087   2.807  0.6083 -0.2134 -0.4611
 4560SOL    HW125139   1.502   2.027   2.881  0.1597  1.5063  0.9530
 4560SOL    HW225140   1.568   2.152   2.832 -1.9728  2.8771 -1.5455
 4561SOL     OW25141   3.701   0.631   5.614  0.2972  0.3190  0.1470
 4561SOL    HW125142   3.772   0.570   5.594 -1.2548 -1.1155 -0.9162
 4561SOL    HW225143   3.620   0.608   5.570  1.7431 -1.9370 -1.3182
 4562SOL     OW25144   1.098   4.207   6.261  0.3804  0.5608 -0.3546
 4562SOL    HW125145   1.053   4.158   6.330  1.6253 -1.0588 -0.7104
 4562SOL    HW225146   1.177   4.243   6.300 -0.2754 -1.0721  2.4738
 4563SOL     OW25147   4.628   0.362   4.753  0.2143  0.1474 -0.0421
 4563SOL    HW125148   4.699   0.370   4.690 -0.1246 -0.6200 -0.5149
 4563SOL    HW225149   4.559   0.402   4.700 -0.6563 -1.1771  0.0805
 4564SOL     OW25150   4.714   3.431  12.921 -0.8409  0.1714  0.4449
 4564SOL    HW125151   4.619   3.421  12.913 -0.8498  0.0727  0.6583
 4564SOL    HW225152   0.016   3.488  12.848 -1.4857 -0.7615 -0.4850
 4565SOL     OW25153   2.369   4.012   6.332 -0.2378 -0.1099  0.1759
 4565SOL    HW125154   2.347   3.933   6.283  0.3436 -1.2330  1.7425
 4565SOL    HW225155   2.300   4.075   6.309  1.3684  1.9213  0.9314
 4566SOL     OW25156   3.270   1.486  11.209 -0.5450  0.2941  0.2806
 4566SOL    HW125157   3.300   1.492  11.118 -0.2201 -0.9879  0.2930
 4566SOL    HW225158   3.312   1.403  11.231 -1.5335  0.6180  3.3383
 4567SOL     OW25159   3.348   0.336   5.911 -0.2482  0.6714  0.1550
 4567SOL    HW125160   3.345   0.314   6.004  0.1547 -2.2630 -0.5478
 4567SOL    HW225161   3.277   0.283   5.876  1.6975 -1.7120 -0.1939
 4568SOL     OW25162   2.960   0.814   9.491 -0.4281  0.0295  0.7837
 4568SOL    HW125163   3.005   0.877   9.434  0.0216  0.7354  1.9148
 4568SOL    HW225164   2.977   0.727   9.454 -1.1161  0.7593 -1.2600
 4569SOL     OW25165   2.550   1.656   6.810  0.2104  0.4341 -0.3456
 4569SOL    HW125166   2.623   1.717   6.814 -1.1491  1.9084  1.3561
 4569SOL    HW225167   2.585   1.567   6.820 -2.7348 -0.5250  1.2780
 4570SOL     OW25168   2.288   2.688   5.134 -0.0498 -0.5989  0.4471
 4570SOL    HW125169   2.364   2.701   5.191 -0.3409  0.4913  0.5778
 4570SOL    HW225170   2.285   2.592   5.134 -2.6360 -0.5246 -0.2661
 4571SOL     OW25171   1.948   3.410   6.304 -0.2737  0.2837 -0.2383
 4571SOL    HW125172   1.954   3.391   6.210 -2.5431 -0.8931 -0.1436
 4571SOL    HW225173   1.856   3.384   6.314 -0.4509  1.9822  2.5274
 4572SOL     OW25174   4.340   1.303   5.055 -0.2498  0.8041  0.1289
 4572SOL    HW125175   4.321   1.292   5.148 -0.2648 -1.1109 -0.1107
 4572SOL    HW225176   4.434   1.285   5.051 -0.5504 -1.0095  1.3776
 4573SOL     OW25177   0.913   2.511   2.778 -0.0833 -0.1661  0.6655
 4573SOL    HW125178   0.965   2.446   2.827 -0.1453  0.5819  1.7243
 4573SOL    HW225179   0.838   2.461   2.748  0.6017  0.5203 -2.1326
 4574SOL     OW25180   1.576   3.995  10.275 -0.9607  0.5572  0.2057
 4574SOL    HW125181   1.530   3.946  10.207 -0.5265  0.2560  0.1228
 4574SOL    HW225182   1.516   3.979  10.347 -0.3465 -2.0831  0.1649
 4575SOL     OW25183   1.937   0.602   2.983  0.3883 -0.3942 -0.1148
 4575SOL    HW125184   1.954   0.625   2.892 -0.0515 -0.8901 -0.3239
 4575SOL    HW225185   2.016   0.562   3.018  2.1754  0.3410 -3.2880
 4576SOL     OW25186   3.701   4.503   6.665  0.4742  0.2545 -0.2281
 4576SOL    HW125187   3.704   4.533   6.756 -1.0434 -0.5825  0.0934
 4576SOL    HW225188   3.793   4.509   6.640  0.6814  1.4933  0.8277
 4577SOL     OW25189   0.072   3.168   3.994  0.1266 -0.0945 -0.1697
 4577SOL    HW125190   0.046   3.260   4.006  1.0448  0.0566  0.6604
 4577SOL    HW225191   0.048   3.116   4.071  1.1070 -0.1605  0.0954
 4578SOL     OW25192   0.231   2.550   9.542 -0.0748 -0.4586  0.0060
 4578SOL    HW125193   0.144   2.535   9.507  0.0393 -1.0769 -0.0118
 4578SOL    HW225194   0.255   2.468   9.585  1.5364  0.2162  0.4072
 4579SOL     OW25195   3.574   2.952   7.073 -0.0708 -0.1178  0.4334
 4579SOL    HW125196   3.497   2.915   7.114 -0.1017  0.2996  0.7504
 4579SOL    HW225197   3.600   3.016   7.140 -1.1183 -0.8711  1.5456
 4580SOL     OW25198   2.213   3.316   4.669 -0.0118  0.2493 -0.0708
 4580SOL    HW125199   2.136   3.307   4.726 -0.1402  1.0063 -0.1315
 4580SOL    HW225200   2.180   3.254   4.603  1.2649  0.1951 -0.6528
 4581SOL     OW25201   3.748   2.859  14.774 -0.1280 -0.0225  0.5120
 4581SOL    HW125202   3.734   2.895  14.686  1.1896  0.7047  0.5918
 4581SOL    HW225203   3.692   2.783  14.790  0.6406 -0.6775  0.1073
 4582SOL     OW25204   4.365   2.214   5.668 -0.4799 -0.5167 -0.4967
 4582SOL    HW125205   4.420   2.286   5.637 -0.9368  0.2749  0.5582
 4582SOL    HW225206   4.417   2.143   5.630  0.9459  0.0027  0.4990
 4583SOL     OW25207   0.546   1.520   4.912 -0.8187 -0.2595  0.3430
 4583SOL    HW125208   0.460   1.551   4.938 -0.4893  0.8096  0.1437
 4583SOL    HW225209   0.600   1.587   4.954 -0.0968 -1.0234  0.6366
 4584SOL     OW25210   4.391   2.858   1.953  0.2271 -0.0817  0.0137
 4584SOL    HW125211   4.393   2.952   1.936 -2.3718  0.1688  1.1503
 4584SOL    HW225212   4.318   2.847   2.014 -2.1341 -0.6014 -2.8811
 4585SOL     OW25213   4.025   2.682   4.721 -0.8891 -0.2775 -0.5777
 4585SOL    HW125214   4.121   2.691   4.713 -0.9059  0.8961  0.4953
 4585SOL    HW225215   4.016   2.619   4.792 -0.9095  0.9538  0.5062
 4586SOL     OW25216   0.903   2.864   8.396 -0.0890  0.5073 -0.3014
 4586SOL    HW125217   0.872   2.789   8.345 -1.8501  0.1092  1.3598
 4586SOL    HW225218   0.832   2.926   8.379  0.2847  1.8784  3.1216
 4587SOL     OW25219   2.482   1.638   3.847 -0.2190 -0.0649  0.1598
 4587SOL    HW125220   2.525   1.553   3.835  1.4191  0.8297 -0.4524
 4587SOL    HW225221   2.542   1.700   3.805  0.4304 -1.6071 -1.1929
 4588SOL     OW25222   2.928   1.325   5.177  0.4327  0.0900  0.0878
 4588SOL    HW125223   2.967   1.363   5.098  1.4315 -2.1706 -0.5298
 4588SOL    HW225224   2.891   1.245   5.138 -3.8022  0.9911  2.3433
 4589SOL     OW25225   2.491   4.559  14.789 -0.5592  0.2488 -0.2204
 4589SOL    HW125226   2.529   4.608  14.862  0.6939 -0.6578 -0.2771
 4589SOL    HW225227   2.416   4.618  14.776 -1.0219 -0.4794 -0.8821
 4590SOL     OW25228   3.850   4.053   3.270 -1.0982 -0.1828 -0.3961
 4590SOL    HW125229   3.873   4.144   3.250 -1.5715  0.1412  0.5432
 4590SOL    HW225230   3.929   4.016   3.230 -1.2563 -1.0874  0.1353
 4591SOL     OW25231   1.859   1.626   7.603  0.1958 -0.5912  0.6296
 4591SOL    HW125232   1.943   1.668   7.619  0.3512  0.1417 -1.9882
 4591SOL    HW225233   1.900   1.572   7.535 -0.4570 -0.1690 -0.1092
 4592SOL     OW25234   1.368   3.713   2.677  0.4159  0.3015 -0.3415
 4592SOL    HW125235   1.408   3.626   2.683  1.4881  0.9324  1.9314
 4592SOL    HW225236   1.316   3.715   2.597 -1.6451  2.0143  1.0569
 4593SOL     OW25237   1.442   0.374   4.875  0.0099  0.3084  0.1230
 4593SOL    HW125238   1.359   0.422   4.881 -1.2192 -1.6383 -0.9398
 4593SOL    HW225239   1.491   0.419   4.943  0.2821  3.3053 -2.0297
 4594SOL     OW25240   3.735   2.334  15.664  0.0370  0.7262  0.0340
 4594SOL    HW125241   3.682   2.393  15.610 -1.9046 -1.6008 -0.5992
 4594SOL    HW225242   3.689   2.344  15.747  1.1434  0.8703  0.6234
 4595SOL     OW25243   2.491   4.582   1.729  0.0520  0.4143 -0.4619
 4595SOL    HW125244   2.520   4.493   1.708  0.9946  0.4686  0.6126
 4595SOL    HW225245   2.578   4.623   1.726  0.2835 -0.1561 -1.6649
 4596SOL     OW25246   1.745   2.498  13.099 -0.3931 -0.2567  0.0439
 4596SOL    HW125247   1.801   2.508  13.022 -0.4869  1.8646  0.2504
 4596SOL    HW225248   1.675   2.444  13.064  1.2421 -1.4835 -1.3340
 4597SOL     OW25249   2.656   2.145   9.245 -0.3586 -0.1194  0.1192
 4597SOL    HW125250   2.628   2.236   9.259 -2.0013 -0.0321 -3.7314
 4597SOL    HW225251   2.617   2.093   9.315 -0.9787  1.8679  1.2644
 4598SOL     OW25252   2.639   0.662   4.798  0.0966 -0.2818 -0.4081
 4598SOL    HW125253   2.606   0.667   4.888  1.1935 -5.1366  0.2533
 4598SOL    HW225254   2.612   0.743   4.756  1.4284 -0.0077 -0.7462
 4599SOL     OW25255   1.703   2.207  17.417  0.0508 -0.0381  0.3706
 4599SOL    HW125256   1.644   2.247  17.481 -0.9784  0.4079 -0.8616
 4599SOL    HW225257   1.706   2.117  17.450  0.5267  0.5435  1.9291
 4600SOL     OW25258   3.965   4.654   3.455  0.1325  0.0750 -0.3442
 4600SOL    HW125259   4.034   4.694   3.509 -0.7017  0.4844  0.4224
 4600SOL    HW225260   3.905   4.634   3.527  0.4994 -1.8377 -0.5788
 4601SOL     OW25261   1.091   2.185   7.174 -0.0434  0.2884  0.6592
 4601SOL    HW125262   1.010   2.230   7.199 -0.7167 -0.9782  0.7669
 4601SOL    HW225263   1.060   2.153   7.089  3.4215 -1.7815  0.1699
 4602SOL     OW25264   0.377   1.085   4.009  0.0294  0.4556  0.4455
 4602SOL    HW125265   0.394   0.991   4.012 -0.7781  0.3144  0.2942
 4602SOL    HW225266   0.463   1.124   3.989  1.2662 -1.6918  1.5679
 4603SOL     OW25267   4.425   0.413   2.192 -1.2314 -0.9101 -0.0550
 4603SOL    HW125268   4.363   0.347   2.222 -0.6886 -0.0766  2.8602
 4603SOL    HW225269   4.397   0.417   2.100  0.5374  0.5440 -0.5402
 4604SOL     OW25270   3.458   0.398   7.554  0.1227 -0.0750 -0.2034
 4604SOL    HW125271   3.402   0.438   7.621  0.6448 -3.8394  2.4651
 4604SOL    HW225272   3.424   0.310   7.563  1.3602 -0.7355 -1.8954
 4605SOL     OW25273   3.179   3.340  10.519 -0.5415 -0.4968  0.2908
 4605SOL    HW125274   3.117   3.410  10.537  1.1486  1.5387 -1.7029
 4605SOL    HW225275   3.129   3.262  10.541 -1.4629  0.0425  0.1079
 4606SOL     OW25276   4.456   0.911  10.051 -0.1666 -0.4633  0.0408
 4606SOL    HW125277   4.491   0.822  10.057 -2.8468 -1.3375  2.6243
 4606SOL    HW225278   4.435   0.916   9.958 -0.0199 -1.8746 -0.0679
 4607SOL     OW25279   0.659   0.036   9.697  0.4328  0.2078 -0.0590
 4607SOL    HW125280   0.740   4.717   9.730  0.9107 -0.2562 -1.7735
 4607SOL    HW225281   0.636   0.085   9.776 -0.4880  1.7929 -1.3340
 4608SOL     OW25282   0.691   3.939   0.453 -0.1714  0.3524  0.6422
 4608SOL    HW125283   0.641   3.904   0.527  0.4570  0.8899  1.3194
 4608SOL    HW225284   0.622   3.978   0.400 -1.5388 -3.8019 -0.5965
 4609SOL     OW25285   2.051   0.389   8.086  0.0506  0.4335  0.1385
 4609SOL    HW125286   2.093   0.399   8.171 -0.9765 -0.2065  0.7231
 4609SOL    HW225287   1.962   0.417   8.108 -0.3176 -0.7409  0.1588
 4610SOL     OW25288   0.348   4.215   4.262  0.8361 -0.2774 -0.3304
 4610SOL    HW125289   0.331   4.267   4.341 -0.5618 -1.6003  0.2290
 4610SOL    HW225290   0.338   4.286   4.199  2.6806 -0.6050 -0.9765
 4611SOL     OW25291   4.656   0.506   4.964  0.0472  0.4846 -0.2097
 4611SOL    HW125292   4.639   0.455   4.885  1.6384 -1.5010  0.7216
 4611SOL    HW225293   0.024   0.539   4.954 -0.3792  1.0758 -1.9125
 4612SOL     OW25294   1.405   3.238   9.899  0.3824 -0.6055  0.0836
 4612SOL    HW125295   1.413   3.213   9.807 -0.7607 -0.5285 -0.0404
 4612SOL    HW225296   1.478   3.186   9.934 -0.2183 -2.5855 -1.6703
 4613SOL     OW25297   0.221   3.558   0.244 -0.4809 -0.2647 -0.4604
 4613SOL    HW125298   0.188   3.479   0.285  1.0631 -0.2523  0.8132
 4613SOL    HW225299   0.208   3.618   0.317  0.4374  0.0287 -0.5343
 4614SOL     OW25300   2.209   1.848   5.542 -0.5792  0.3046  0.3947
 4614SOL    HW125301   2.223   1.787   5.614 -0.8641 -0.5929 -0.3076
 4614SOL    HW225302   2.134   1.896   5.579 -0.9170 -0.7394  1.0683
 4615SOL     OW25303   3.520   3.884   2.478 -0.2447  0.1287 -0.3275
 4615SOL    HW125304   3.565   3.801   2.459 -0.7265 -0.4397  0.9792
 4615SOL    HW225305   3.548   3.881   2.570  0.0694  0.5078 -0.4106
 4616SOL     OW25306   4.403   1.471   2.627 -0.0810 -0.0210 -0.2848
 4616SOL    HW125307   4.389   1.499   2.537 -0.0189 -2.7359 -1.1516
 4616SOL    HW225308   4.487   1.427   2.611  1.3962  2.2975  1.1022
 4617SOL     OW25309   3.283   4.566   3.835  0.3852 -0.9220 -0.2484
 4617SOL    HW125310   3.236   4.532   3.912  0.8534  1.1950  0.9702
 4617SOL    HW225311   3.215   4.593   3.774 -0.1240 -1.0273  0.2685
 4618SOL     OW25312   1.647   3.847   7.867  0.9118  0.1392  0.0783
 4618SOL    HW125313   1.565   3.798   7.858  1.0318  0.3317 -2.1041
 4618SOL    HW225314   1.668   3.835   7.960  0.5498 -0.0447  0.1341
 4619SOL     OW25315   2.437   3.000   7.043 -0.5122 -0.1378  0.0440
 4619SOL    HW125316   2.343   2.999   7.055 -0.3240  1.4382  1.5550
 4619SOL    HW225317   2.446   2.999   6.947  0.6039  0.3331  0.1395
 4620SOL     OW25318   1.645   1.461   5.525 -0.0713  0.2753  0.3068
 4620SOL    HW125319   1.735   1.434   5.541 -0.2446 -2.6103 -3.6683
 4620SOL    HW225320   1.602   1.394   5.578  1.2365  0.7649  1.9679
 4621SOL     OW25321   0.533   0.425   2.991  0.0928  0.3999 -0.1912
 4621SOL    HW125322   0.551   0.415   3.085 -0.9034 -0.8071 -0.1296
 4621SOL    HW225323   0.498   0.337   2.977  0.2501  0.6056 -1.9312
 4622SOL     OW25324   1.538   2.813  11.228  0.3393 -0.3141 -0.1746
 4622SOL    HW125325   1.568   2.754  11.297 -1.7638  0.6629  1.5941
 4622SOL    HW225326   1.487   2.744  11.185 -1.4975  0.8199  0.1789
 4623SOL     OW25327   2.334   0.025   3.825 -0.2775 -0.4204 -0.1682
 4623SOL    HW125328   2.269   0.011   3.893 -0.9959  0.5965 -0.6494
 4623SOL    HW225329   2.273   0.076   3.773 -0.0292  0.1013  0.0459
 4624SOL     OW25330   1.206   2.710   8.766  0.1903  0.1812 -0.0782
 4624SOL    HW125331   1.230   2.760   8.845  1.2152 -1.9114  0.9342
 4624SOL    HW225332   1.182   2.782   8.707  0.5673  0.3534 -0.0238
 4625SOL     OW25333   0.158   3.903  17.644 -1.0857 -0.1034 -0.9045
 4625SOL    HW125334   0.190   3.972  17.587  2.5721 -1.0471  0.0401
 4625SOL    HW225335   0.067   3.931  17.658 -0.7798  0.7923 -0.7418
 4626SOL     OW25336   4.256   0.587   5.770  0.7215  0.1823 -0.4067
 4626SOL    HW125337   4.349   0.570   5.759  0.9952  1.2194  0.3699
 4626SOL    HW225338   4.262   0.662   5.829  1.8622 -0.6826  0.5529
 4627SOL     OW25339   0.785   1.119   1.740 -0.0080 -0.1637 -0.3357
 4627SOL    HW125340   0.777   1.213   1.725  2.7072  0.0964 -0.1935
 4627SOL    HW225341   0.694   1.094   1.753 -0.5389  2.9018  1.7624
 4628SOL     OW25342   4.266   2.844   0.287 -0.2689 -0.1153 -0.7969
 4628SOL    HW125343   4.237   2.785   0.356 -1.0159 -0.5494 -1.4838
 4628SOL    HW225344   4.298   2.907   0.351  2.4008  0.4177 -2.6196
 4629SOL     OW25345   3.030   1.154   2.410 -0.0490  0.1849  0.2545
 4629SOL    HW125346   2.999   1.244   2.421 -1.3259 -0.4832  2.1017
 4629SOL    HW225347   3.063   1.166   2.321  1.3764  0.3250  0.8038
 4630SOL     OW25348   3.243   1.852   5.235 -0.6297 -0.0758  0.1350
 4630SOL    HW125349   3.270   1.835   5.325  1.0075  1.3179 -0.1088
 4630SOL    HW225350   3.297   1.928   5.213  0.2718 -0.6685  0.3100
 4631SOL     OW25351   1.391   2.942   3.285 -0.4086 -0.0510  0.1905
 4631SOL    HW125352   1.377   2.876   3.217 -0.4166  2.0561 -1.8743
 4631SOL    HW225353   1.307   2.985   3.269 -0.0306  0.3638 -0.7211
 4632SOL     OW25354   2.692   1.370   5.754  0.0591  0.0804  0.2289
 4632SOL    HW125355   2.617   1.336   5.803 -1.0753  1.3705 -0.5965
 4632SOL    HW225356   2.704   1.453   5.801  0.9357 -0.2173  0.5371
 4633SOL     OW25357   3.633   1.743  14.605  0.0134  0.3849  0.1919
 4633SOL    HW125358   3.639   1.666  14.548 -1.0754 -0.4733  1.2325
 4633SOL    HW225359   3.613   1.703  14.690 -3.6728 -0.8286 -1.2407
 4634SOL     OW25360   3.542   2.029   8.720 -0.4196 -0.0406  0.0606
 4634SOL    HW125361   3.466   1.979   8.748 -0.1147 -0.4503  0.1524
 4634SOL    HW225362   3.614   1.966   8.723  1.1364  1.5878 -2.1909
 4635SOL     OW25363   0.230   0.969  14.930 -0.1510 -0.0369  0.3337
 4635SOL    HW125364   0.324   0.949  14.933 -0.2201 -0.3763  0.2075
 4635SOL    HW225365   0.227   1.052  14.883 -0.3141 -0.4363 -0.3475
 4636SOL     OW25366   4.335   1.481  13.385 -0.8593  0.2164  0.0119
 4636SOL    HW125367   4.265   1.490  13.320 -0.4008  0.7821 -0.4056
 4636SOL    HW225368   4.291   1.473  13.470 -0.6342 -0.4531  0.0650
 4637SOL     OW25369   4.220   4.225   2.136  0.5808  0.2415 -0.3233
 4637SOL    HW125370   4.154   4.252   2.072  0.7719  0.9127 -0.2400
 4637SOL    HW225371   4.297   4.199   2.086  0.4082 -2.0443  0.6399
 4638SOL     OW25372   2.964   0.231   7.797 -0.2471  0.1577 -0.2477
 4638SOL    HW125373   2.882   0.186   7.818  1.1106 -1.5052  1.4554
 4638SOL    HW225374   3.031   0.190   7.852 -0.5762  0.6154  0.4913
 4639SOL     OW25375   4.353   1.393  14.221  0.0452  0.4410  0.1133
 4639SOL    HW125376   4.436   1.362  14.185  0.2598  0.8081  0.2995
 4639SOL    HW225377   4.321   1.432  14.140 -0.5759 -0.6251 -0.1538
 4640SOL     OW25378   3.337   3.519   0.468 -0.0266 -0.3296  0.2312
 4640SOL    HW125379   3.246   3.534   0.441 -0.0145  0.2647  0.5151
 4640SOL    HW225380   3.382   3.585   0.415 -1.8937 -0.0334 -0.9753
 4641SOL     OW25381   1.919   2.147   9.154  0.2869 -0.4043 -0.1676
 4641SOL    HW125382   1.903   2.053   9.146 -2.2675  0.0482 -0.4247
 4641SOL    HW225383   1.829   2.174   9.132  0.6159  0.7671 -0.0579
 4642SOL     OW25384   3.134   2.188   3.030 -0.8249  0.1322  0.1189
 4642SOL    HW125385   3.127   2.267   2.976  2.0572  1.0077  0.9989
 4642SOL    HW225386   3.088   2.211   3.110 -1.4652  0.4771 -0.3517
 4643SOL     OW25387   2.428   4.261  16.519 -0.6430  0.3025  0.2559
 4643SOL    HW125388   2.506   4.284  16.569 -1.3210 -0.6929  1.7706
 4643SOL    HW225389   2.409   4.178  16.564  1.4646  0.0837  0.7188
 4644SOL     OW25390   4.465   2.306  16.582 -0.1466  0.2022  0.3192
 4644SOL    HW125391   4.436   2.239  16.645  2.3637 -0.3484  0.8669
 4644SOL    HW225392   4.528   2.251  16.535 -1.1380 -0.3540 -0.3720
 4645SOL     OW25393   4.112   3.482   4.340  0.2836  0.6504  0.2583
 4645SOL    HW125394   4.078   3.532   4.415  0.3248  2.0087 -0.6320
 4645SOL    HW225395   4.202   3.511   4.328  1.0770 -2.6991 -1.9100
 4646SOL     OW25396   1.496   1.357  10.743  0.4198 -0.1439  0.5997
 4646SOL    HW125397   1.463   1.300  10.813 -0.2652 -1.5229 -0.8325
 4646SOL    HW225398   1.453   1.437  10.770 -0.5197  0.6761 -3.3097
 4647SOL     OW25399   3.303   2.571   1.030  0.0181  0.6565  0.3807
 4647SOL    HW125400   3.256   2.503   1.078 -0.3436 -0.1647 -1.1350
 4647SOL    HW225401   3.324   2.517   0.953  1.4460  0.0551  1.1703
 4648SOL     OW25402   2.322   4.459   7.706  0.3120 -0.4574  0.2562
 4648SOL    HW125403   2.242   4.484   7.661  0.0365  0.3990  1.2439
 4648SOL    HW225404   2.319   4.364   7.695  0.2902 -0.4642  0.3261
 4649SOL     OW25405   1.893   3.882   2.525  0.4704 -0.3196 -0.2244
 4649SOL    HW125406   1.944   3.831   2.588 -1.7101 -1.1971  0.7965
 4649SOL    HW225407   1.944   3.963   2.532 -0.6576  0.2675  1.1004
 4650SOL     OW25408   0.060   2.939   1.242 -0.2383 -0.4534 -0.0547
 4650SOL    HW125409   0.109   2.857   1.239 -1.3986 -1.0936 -1.4355
 4650SOL    HW225410   4.705   2.922   1.185  1.3985  1.5904 -2.8764
 4651SOL     OW25411   0.874   2.718   6.891  0.3632 -0.3242 -0.3945
 4651SOL    HW125412   0.784   2.718   6.922  1.5237  0.5369  2.8949
 4651SOL    HW225413   0.858   2.665   6.812  1.5324 -0.2382 -0.6853
 4652SOL     OW25414   2.848   1.878   2.005 -0.4655 -0.2149 -0.9390
 4652SOL    HW125415   2.925   1.863   2.059 -0.6824  0.5152 -0.4414
 4652SOL    HW225416   2.878   1.957   1.961 -1.6457  0.2368 -0.9184
 4653SOL     OW25417   4.527   0.339   9.871  0.3289  0.1444 -0.4863
 4653SOL    HW125418   4.458   0.369   9.812 -0.0644  0.9039  0.3569
 4653SOL    HW225419   4.489   0.362   9.956  0.9698 -1.3341  0.2036
 4654SOL     OW25420   1.290   4.565   3.974  0.0687  0.5172  0.0552
 4654SOL    HW125421   1.365   4.523   3.932 -1.1221 -1.6585  0.1182
 4654SOL    HW225422   1.268   4.498   4.039 -2.1903  1.7070  0.5026
 4655SOL     OW25423   2.218   2.207   3.302  0.0090 -0.5811 -0.1422
 4655SOL    HW125424   2.123   2.198   3.309 -0.2759  2.5460 -0.0351
 4655SOL    HW225425   2.232   2.286   3.250  0.5763  0.2305  1.2188
 4656SOL     OW25426   2.472   3.578  17.202 -0.2313  0.6224  0.6109
 4656SOL    HW125427   2.414   3.531  17.262 -1.7527  1.2235 -0.3905
 4656SOL    HW225428   2.549   3.524  17.217 -0.7763 -0.6015 -1.0898
 4657SOL     OW25429   3.327   2.386  15.049  0.0500 -0.2986 -0.0050
 4657SOL    HW125430   3.338   2.473  15.089  0.5700 -0.2127 -0.3362
 4657SOL    HW225431   3.269   2.345  15.113  0.9586 -2.4435 -0.5646
 4658SOL     OW25432   2.553   0.020   7.063  0.0854  0.5542  0.2656
 4658SOL    HW125433   2.623   0.025   7.127  1.3167 -1.4810 -0.9149
 4658SOL    HW225434   2.496   4.671   7.095  1.2261 -1.9834 -3.1316
 4659SOL     OW25435   0.932   0.178   5.145  0.1104 -0.0963 -0.2424
 4659SOL    HW125436   1.009   0.124   5.132  0.9055  1.3865 -1.7104
 4659SOL    HW225437   0.968   0.233   5.215 -2.1051  1.4737 -0.3399
 4660SOL     OW25438   3.430   3.479   4.844 -0.5964 -0.3343 -0.0490
 4660SOL    HW125439   3.508   3.525   4.812 -0.3356 -0.5674  0.2512
 4660SOL    HW225440   3.472   3.393   4.843  0.9962  0.4316  0.7451
 4661SOL     OW25441   2.093   0.363   5.141 -0.3092  0.1937  0.0692
 4661SOL    HW125442   2.029   0.428   5.169  1.3072  0.3232  3.5171
 4661SOL    HW225443   2.043   0.282   5.133 -1.4283  1.1765 -2.8371
 4662SOL     OW25444   4.215   4.446   4.517 -0.0046 -0.8455  0.1598
 4662SOL    HW125445   4.121   4.450   4.498  0.2493 -2.1971 -1.4094
 4662SOL    HW225446   4.248   4.531   4.488  0.9276 -0.6716  1.7011
 4663SOL     OW25447   4.321   1.513   8.247  0.5923  0.1955  0.2768
 4663SOL    HW125448   4.280   1.546   8.167  0.2916 -1.8749 -0.4228
 4663SOL    HW225449   4.265   1.540   8.319 -0.4278 -1.2881  0.0515
 4664SOL     OW25450   3.105   2.616   0.294 -0.6361 -0.1847 -0.1898
 4664SOL    HW125451   3.103   2.701   0.338 -2.0222 -0.8736  1.0729
 4664SOL    HW225452   3.033   2.571   0.339 -1.3449 -0.2249 -1.3428
 4665SOL     OW25453   0.637   3.668  10.492 -0.0288  0.3531 -0.2673
 4665SOL    HW125454   0.686   3.589  10.468 -2.7696 -1.7876  1.2324
 4665SOL    HW225455   0.673   3.704  10.574  1.2027  0.1663 -0.7180
 4666SOL     OW25456   3.937   1.974   1.808  0.1804 -0.2197 -0.0806
 4666SOL    HW125457   3.963   1.948   1.720 -0.0911 -1.8452  0.3161
 4666SOL    HW225458   4.002   2.038   1.838 -0.7239  0.2779  0.8020
 4667SOL     OW25459   4.464   3.539   6.424 -0.0236  0.3478 -0.7159
 4667SOL    HW125460   4.389   3.551   6.482 -0.6304  1.0566 -1.6569
 4667SOL    HW225461   4.424   3.572   6.344  0.3717  2.0640 -0.1998
 4668SOL     OW25462   3.142   0.286   4.427 -0.0977  0.0240 -0.2866
 4668SOL    HW125463   3.100   0.372   4.420 -2.2892 -1.0445 -0.3116
 4668SOL    HW225464   3.063   0.242   4.457 -0.0348 -1.4058 -2.2602
 4669SOL     OW25465   1.817   2.503   1.272  0.0741 -0.4580  0.0539
 4669SOL    HW125466   1.834   2.477   1.181  0.3194  1.4512 -0.4550
 4669SOL    HW225467   1.759   2.432   1.299  0.7003 -0.2625  1.8790
 4670SOL     OW25468   0.327   1.680   8.643 -0.0346  0.1268  0.1831
 4670SOL    HW125469   0.395   1.660   8.580  0.1712 -0.1150  0.4848
 4670SOL    HW225470   0.357   1.635   8.722 -0.5186  2.5534  1.7491
 4671SOL     OW25471   0.261   0.712   3.629  0.2091 -0.3179 -0.3121
 4671SOL    HW125472   0.269   0.616   3.624  1.3595 -0.2898  0.8869
 4671SOL    HW225473   0.329   0.744   3.688 -1.2595  1.0295  0.6234
 4672SOL     OW25474   1.359   1.570   6.563 -0.3620  0.2137  0.1216
 4672SOL    HW125475   1.279   1.611   6.530  0.6699  1.4540 -0.8173
 4672SOL    HW225476   1.326   1.542   6.649  0.4898 -0.7068  0.1511
 4673SOL     OW25477   4.191   3.238  14.665  0.8268  0.3761  0.4396
 4673SOL    HW125478   4.280   3.217  14.691  0.5238  0.0046  1.1599
 4673SOL    HW225479   4.173   3.160  14.612  1.5439  0.6615 -0.2211
 4674SOL     OW25480   3.968   3.016   2.237 -0.0833 -0.1502  0.1064
 4674SOL    HW125481   3.893   3.069   2.212 -1.6527 -1.4215  2.1424
 4674SOL    HW225482   3.915   2.949   2.279 -0.5682  0.7201  0.8567
 4675SOL     OW25483   2.144   2.578   8.834  0.4781 -0.4317  0.7241
 4675SOL    HW125484   2.226   2.620   8.862  0.1258  3.6950 -4.4349
 4675SOL    HW225485   2.118   2.539   8.918  0.9856  0.0614  1.1192
 4676SOL     OW25486   3.363   1.670   0.437  0.3333  0.0629  0.0879
 4676SOL    HW125487   3.295   1.737   0.429 -0.5068 -0.6704  1.0920
 4676SOL    HW225488   3.423   1.718   0.493  0.7242  0.5556 -0.7626
 4677SOL     OW25489   0.913   1.859   7.218  0.2734 -0.6213  0.3922
 4677SOL    HW125490   0.821   1.854   7.193  0.7123  0.9174 -1.5608
 4677SOL    HW225491   0.909   1.927   7.285 -2.5418 -2.4327  2.0367
 4678SOL     OW25492   1.513   2.910   2.968  0.2735 -0.8482 -0.7715
 4678SOL    HW125493   1.591   2.855   2.977  1.1754  0.6722  0.6453
 4678SOL    HW225494   1.446   2.848   2.995 -0.3224  1.2025  2.4345
 4679SOL     OW25495   1.803   1.348   0.477  0.3819 -0.4164 -0.2963
 4679SOL    HW125496   1.884   1.300   0.462 -1.6350 -3.7961 -0.2360
 4679SOL    HW225497   1.832   1.432   0.442 -0.2441  0.0028  0.1687
 4680SOL     OW25498   0.571   3.223  12.537  0.3672 -0.0788 -0.6851
 4680SOL    HW125499   0.497   3.179  12.580 -0.6184  1.5926 -0.6719
 4680SOL    HW225500   0.641   3.159  12.547  2.8780  2.6679 -0.6759
 4681SOL     OW25501   3.198   3.708   6.458  0.2197 -0.2908  0.0474
 4681SOL    HW125502   3.203   3.653   6.379 -0.4973 -0.6653  0.2685
 4681SOL    HW225503   3.240   3.646   6.518 -1.5176 -2.9163 -1.4586
 4682SOL     OW25504   3.084   4.688   5.973 -0.1310 -0.1039 -0.5285
 4682SOL    HW125505   3.140   4.669   6.048 -1.8957 -2.5934  0.1448
 4682SOL    HW225506   3.050   4.599   5.959  0.1156 -0.0938 -1.2254
 4683SOL     OW25507   3.230   3.190   3.973  0.1615  0.0981  0.3311
 4683SOL    HW125508   3.286   3.112   3.977  1.3370  0.9810  1.2063
 4683SOL    HW225509   3.157   3.168   4.030  0.6290 -1.5640  0.2891
 4684SOL     OW25510   1.364   0.097   5.030  0.3245  0.6995  0.0350
 4684SOL    HW125511   1.346   0.188   5.009 -0.5125  0.1933 -1.4108
 4684SOL    HW225512   1.293   0.071   5.089  0.9602 -1.4272 -0.1399
 4685SOL     OW25513   2.280   0.628   7.384  0.1369 -0.4829 -0.4033
 4685SOL    HW125514   2.267   0.718   7.354 -0.2316 -0.1151  0.8661
 4685SOL    HW225515   2.360   0.644   7.434  0.3100 -0.2321 -0.7561
 4686SOL     OW25516   4.431   2.532   5.696  0.3826 -0.1101 -0.5072
 4686SOL    HW125517   4.428   2.511   5.603  0.3152  1.0285 -0.7677
 4686SOL    HW225518   4.353   2.493   5.733  0.6286  0.4403  0.5878
 4687SOL     OW25519   4.494   3.528   3.232 -0.8264 -0.1077  0.5384
 4687SOL    HW125520   4.521   3.581   3.157 -0.0922  0.8328  1.4774
 4687SOL    HW225521   4.462   3.452   3.182 -0.2568 -0.1352  0.2210
 4688SOL     OW25522   3.576   4.575   7.644  0.0558  0.3061  0.5549
 4688SOL    HW125523   3.633   4.599   7.716  1.4242  1.3527 -0.8776
 4688SOL    HW225524   3.496   4.609   7.684  0.1587  1.7782 -0.4923
 4689SOL     OW25525   2.080   0.440   7.380 -0.1766  0.0446 -0.3699
 4689SOL    HW125526   2.154   0.498   7.399 -0.0438 -0.1780 -0.1992
 4689SOL    HW225527   2.009   0.503   7.389 -2.8640 -2.9509 -0.7127
 4690SOL     OW25528   3.303   0.863   5.436  0.0035 -0.1786 -0.4604
 4690SOL    HW125529   3.229   0.816   5.475 -0.3796  0.9526  0.1584
 4690SOL    HW225530   3.278   0.953   5.454 -0.5346 -0.6555  1.1381
 4691SOL     OW25531   4.636   2.657   0.153  0.4383  0.0364 -0.2977
 4691SOL    HW125532   4.636   2.606   0.072  0.4957  0.5100 -0.5954
 4691SOL    HW225533   4.625   2.585   0.215  2.5450  3.4077  4.0214
 4692SOL     OW25534   3.332   2.256  10.286 -0.4302  0.3464  0.2237
 4692SOL    HW125535   3.409   2.217  10.245  0.7206  0.2587  2.4476
 4692SOL    HW225536   3.373   2.322  10.341  0.4969  0.5898 -0.7697
 4693SOL     OW25537   3.153   4.137  16.815 -0.2270 -0.1185  0.8130
 4693SOL    HW125538   3.193   4.072  16.873 -2.0642 -1.8603  0.1229
 4693SOL    HW225539   3.185   4.217  16.858  1.3825  0.3833 -1.2918
 4694SOL     OW25540   0.952   0.380   8.079 -0.1493 -0.3914  0.2258
 4694SOL    HW125541   0.998   0.308   8.035  0.8044  0.2721  0.1528
 4694SOL    HW225542   0.903   0.397   7.999 -0.3128  0.4129  0.5045
 4695SOL     OW25543   2.438   0.128  13.757 -0.0543 -0.6228  0.9293
 4695SOL    HW125544   2.372   0.185  13.718 -0.9590 -0.2267  3.0363
 4695SOL    HW225545   2.507   0.140  13.691 -0.0089 -1.3859  0.8348
 4696SOL     OW25546   3.217   3.534   5.878  0.4362 -0.1246  0.0018
 4696SOL    HW125547   3.254   3.498   5.797 -0.4456 -2.9780  0.8800
 4696SOL    HW225548   3.155   3.463   5.893  0.5391  0.1795  1.8507
 4697SOL     OW25549   3.017   3.178   0.667 -0.2721  0.1686 -0.0721
 4697SOL    HW125550   3.038   3.162   0.759  2.3355  1.1624 -0.5095
 4697SOL    HW225551   2.922   3.193   0.676  0.2699  0.1906  5.6992
 4698SOL     OW25552   2.866   0.407  10.809  0.0509  0.4125 -0.2804
 4698SOL    HW125553   2.907   0.367  10.732  0.7449 -0.8878  0.7665
 4698SOL    HW225554   2.871   0.325  10.858 -1.5794  0.7269  0.3928
 4699SOL     OW25555   0.867   1.486   5.583 -0.2139 -0.2910 -0.3603
 4699SOL    HW125556   0.857   1.462   5.675  1.4664  1.0553  0.1571
 4699SOL    HW225557   0.947   1.538   5.573 -0.5784  0.2149 -0.6587
 4700SOL     OW25558   0.803   1.586   6.581  0.0776 -0.1191 -0.3095
 4700SOL    HW125559   0.782   1.575   6.674 -0.6091 -1.3519 -0.6063
 4700SOL    HW225560   0.749   1.665   6.572 -0.6397 -0.1873  3.2263
 4701SOL     OW25561   2.542   0.489   5.268 -0.2616 -0.2512 -0.0625
 4701SOL    HW125562   2.596   0.414   5.241 -0.0139 -0.3086  0.6086
 4701SOL    HW225563   2.464   0.473   5.215 -1.1827 -0.0722  1.2413
 4702SOL     OW25564   1.866   0.842   1.820 -0.5052  0.2465 -0.6998
 4702SOL    HW125565   1.879   0.852   1.725 -0.7559 -2.0492 -0.9781
 4702SOL    HW225566   1.892   0.927   1.855  0.1024 -0.6950  1.1419
 4703SOL     OW25567   2.895   1.960  17.010  0.0710  0.3974  0.4317
 4703SOL    HW125568   2.957   2.031  17.029  1.9997 -1.3042  0.5257
 4703SOL    HW225569   2.943   1.879  17.030  1.0543  0.5167 -1.4442
 4704SOL     OW25570   1.793   1.586  14.288  0.0479  0.3442  0.2490
 4704SOL    HW125571   1.781   1.592  14.383 -0.4150 -1.9328  0.3209
 4704SOL    HW225572   1.727   1.650  14.262  0.3300  1.4062  2.0820
 4705SOL     OW25573   3.725   0.867  13.053 -0.5727  0.0354 -0.8170
 4705SOL    HW125574   3.756   0.815  12.979 -2.0651  1.1783 -2.2402
 4705SOL    HW225575   3.793   0.848  13.118  0.6530  0.5048 -1.9632
 4706SOL     OW25576   3.355   3.188   5.340 -0.1897  0.1142 -0.2868
 4706SOL    HW125577   3.297   3.209   5.267 -0.0705 -1.1960 -0.7409
 4706SOL    HW225578   3.437   3.182   5.291  0.0329 -1.6922  0.3275
 4707SOL     OW25579   0.115   2.743  13.190 -0.0199 -0.7204 -0.0091
 4707SOL    HW125580   0.205   2.712  13.199  0.0317 -0.7482 -0.6207
 4707SOL    HW225581   0.103   2.771  13.099 -0.3032 -0.8203 -0.0048
 4708SOL     OW25582   3.047   1.776   4.297  0.1417  0.1271 -0.4673
 4708SOL    HW125583   3.009   1.767   4.385  1.2194  5.4304  0.5136
 4708SOL    HW225584   2.993   1.846   4.260 -0.1486  1.6014  2.6782
 4709SOL     OW25585   2.501   4.567   9.578 -0.0286 -0.5386 -0.4068
 4709SOL    HW125586   2.581   4.599   9.535  0.9393  0.5984  2.1962
 4709SOL    HW225587   2.515   4.473   9.592 -0.5400 -0.3726  1.2884
 4710SOL     OW25588   1.163   3.393   2.721 -0.3185  0.0134  0.4044
 4710SOL    HW125589   1.233   3.442   2.765 -2.0791  2.7036  0.1994
 4710SOL    HW225590   1.211   3.312   2.703 -1.5561 -1.1964  2.4448
 4711SOL     OW25591   4.520   3.367   7.644  0.0437 -0.6225 -0.4032
 4711SOL    HW125592   4.536   3.274   7.657  0.8135 -0.4435 -0.0806
 4711SOL    HW225593   4.546   3.387   7.554 -1.2080  1.4336 -0.3077
 4712SOL     OW25594   2.329   3.184  12.998 -0.0666  0.0986 -0.2259
 4712SOL    HW125595   2.261   3.251  12.994  2.5055  2.7673  0.5183
 4712SOL    HW225596   2.285   3.114  12.949 -1.5018 -0.1302  1.3855
 4713SOL     OW25597   1.466   2.699   4.326  0.4720  0.3390  0.0639
 4713SOL    HW125598   1.478   2.751   4.247 -1.8234 -0.4999 -0.8367
 4713SOL    HW225599   1.538   2.637   4.322  1.8278  1.9878 -1.3145
 4714SOL     OW25600   3.661   3.386  15.159 -0.3790  0.0813  0.0376
 4714SOL    HW125601   3.715   3.381  15.079  0.0944  0.1374  0.3517
 4714SOL    HW225602   3.676   3.297  15.189  0.5978 -0.4194 -1.9407
 4715SOL     OW25603   1.946   0.653  10.176 -0.1264 -0.3251 -0.0630
 4715SOL    HW125604   1.959   0.632  10.083  2.2034 -0.9319  0.4006
 4715SOL    HW225605   1.868   0.600  10.190 -1.2507  1.3143 -0.1738
 4716SOL     OW25606   1.264   1.051   6.587  0.2595  0.7272  0.5073
 4716SOL    HW125607   1.284   1.058   6.494 -0.2817  1.2906  0.4314
 4716SOL    HW225608   1.322   1.116   6.627  0.5193  2.8539 -3.2720
 4717SOL     OW25609   3.525   2.027   3.583  0.1354  0.8273 -0.4829
 4717SOL    HW125610   3.613   2.061   3.565  0.3192  1.2518  1.2344
 4717SOL    HW225611   3.511   1.956   3.520 -0.0749  0.7700 -0.3709
 4718SOL     OW25612   0.810   1.148   5.455  0.1346  0.4347 -0.1443
 4718SOL    HW125613   0.781   1.142   5.546  0.3397  0.7121 -0.0610
 4718SOL    HW225614   0.731   1.166   5.404  0.0421 -1.3646 -0.6390
 4719SOL     OW25615   2.353   3.338   1.975  0.2181  0.6114 -0.2830
 4719SOL    HW125616   2.308   3.406   2.024  2.6217  2.3261 -0.4320
 4719SOL    HW225617   2.421   3.391   1.933  1.3155 -0.6480 -0.1250
 4720SOL     OW25618   2.852   1.364  12.963  0.3512  0.5070 -0.1958
 4720SOL    HW125619   2.880   1.447  12.925 -0.3352  0.4171 -0.8947
 4720SOL    HW225620   2.846   1.310  12.884  0.3507 -0.8127  0.7056
 4721SOL     OW25621   4.686   3.615   2.553  0.0467  0.1108  0.7385
 4721SOL    HW125622   4.627   3.544   2.578 -1.4228  0.6400 -1.1912
 4721SOL    HW225623   0.046   3.566   2.539 -1.1427 -2.5474  3.1508
 4722SOL     OW25624   1.895   1.097   3.503  0.1596 -0.2261 -0.3958
 4722SOL    HW125625   1.817   1.057   3.463  0.8095 -0.1577 -1.7254
 4722SOL    HW225626   1.917   1.180   3.461 -1.5884  0.8627  0.8535
 4723SOL     OW25627   0.222   4.381   8.468 -0.2645 -0.2210 -0.1455
 4723SOL    HW125628   0.280   4.332   8.410  1.5913  0.7968  0.8375
 4723SOL    HW225629   0.142   4.381   8.416 -1.3689  0.7021  1.5637
 4724SOL     OW25630   1.268   1.633  12.784 -0.2394 -0.2142 -0.5338
 4724SOL    HW125631   1.216   1.553  12.791 -1.0990  0.2475 -1.6431
 4724SOL    HW225632   1.191   1.689  12.784 -1.5783 -2.0512  0.3758
 4725SOL     OW25633   4.339   2.066  11.566  0.3717 -0.2797  0.5918
 4725SOL    HW125634   4.256   2.049  11.522  0.3925 -0.7308  0.7275
 4725SOL    HW225635   4.305   2.052  11.655 -0.5912  1.6052  0.5160
 4726SOL     OW25636   2.190   4.461   6.778 -0.1715  0.3191  0.9688
 4726SOL    HW125637   2.191   4.553   6.801  0.5230  0.1705  1.5231
 4726SOL    HW225638   2.116   4.428   6.828 -0.6304 -1.0200 -0.5858
 4727SOL     OW25639   0.404   3.623   3.761 -0.1144  0.1326 -0.5163
 4727SOL    HW125640   0.350   3.643   3.686 -1.0612 -2.0728 -0.4121
 4727SOL    HW225641   0.415   3.708   3.803  0.4968 -0.0786 -0.2379
 4728SOL     OW25642   0.475   0.984   3.015 -0.1718  0.4255  0.5302
 4728SOL    HW125643   0.387   0.948   3.026 -0.2320  1.1195  2.4063
 4728SOL    HW225644   0.473   1.012   2.924 -0.4275 -0.5374  0.2453
 4729SOL     OW25645   3.635   0.292   4.079 -0.2031 -0.3422 -0.1141
 4729SOL    HW125646   3.624   0.372   4.131 -1.1776 -0.2785 -0.4264
 4729SOL    HW225647   3.708   0.255   4.129  0.1065 -0.2924 -0.5275
 4730SOL     OW25648   4.625   4.583   7.045 -0.2714  0.0360 -0.1035
 4730SOL    HW125649   4.703   4.566   6.992 -0.9291 -0.3607 -0.9599
 4730SOL    HW225650   4.571   4.633   6.984  1.6767  3.0273  0.6676
 4731SOL     OW25651   3.306   4.244   7.742 -0.0709  0.4293  0.1186
 4731SOL    HW125652   3.377   4.279   7.796 -0.7320 -1.1092  2.0183
 4731SOL    HW225653   3.229   4.274   7.790  1.2391  1.2673  1.7120
 4732SOL     OW25654   0.635   0.261   6.085 -0.0522  0.1412  0.3880
 4732SOL    HW125655   0.571   0.307   6.138 -1.2588 -0.1702 -0.7977
 4732SOL    HW225656   0.674   0.337   6.043 -0.6647 -1.0066 -2.2559
 4733SOL     OW25657   1.303   4.263   6.833  0.1052  0.0365  0.1477
 4733SOL    HW125658   1.257   4.185   6.862  1.2843 -0.9837 -0.6981
 4733SOL    HW225659   1.316   4.309   6.915  1.8978  0.0816 -0.1614
 4734SOL     OW25660   3.869   1.499   8.017  0.1454  0.1417 -0.2672
 4734SOL    HW125661   3.838   1.586   7.992  2.7096  1.1675  0.1527
 4734SOL    HW225662   3.826   1.488   8.102  2.2172  1.5686  0.9456
 4735SOL     OW25663   3.399   2.794   5.920  0.1704 -0.0777  0.0911
 4735SOL    HW125664   3.324   2.743   5.952  2.7825 -3.1056  1.3929
 4735SOL    HW225665   3.349   2.860   5.872 -0.5638 -2.4728 -2.4233
 4736SOL     OW25666   1.123   2.478   4.324  0.3332  0.3078 -0.1133
 4736SOL    HW125667   1.070   2.435   4.257  0.1480 -1.3403  1.1053
 4736SOL    HW225668   1.205   2.437   4.297 -0.4375 -2.0515  1.0954
 4737SOL     OW25669   3.575   2.154   0.423  0.0593 -0.6242  0.5534
 4737SOL    HW125670   3.529   2.204   0.356  1.8418 -0.7830 -0.8293
 4737SOL    HW225671   3.623   2.109   0.353  1.1253  1.8682 -0.3163
 4738SOL     OW25672   3.975   1.146   8.081  0.0001 -0.2998 -0.2846
 4738SOL    HW125673   4.028   1.070   8.102  0.2395 -0.0455  0.0379
 4738SOL    HW225674   4.049   1.207   8.082  0.6824 -1.1494  0.5501
 4739SOL     OW25675   4.171   2.403   4.485  0.3740  0.0350  0.4853
 4739SOL    HW125676   4.112   2.354   4.543 -1.2855  0.7363 -0.6148
 4739SOL    HW225677   4.249   2.349   4.499  0.6623 -0.1307 -1.7679
 4740SOL     OW25678   2.222   0.653   4.600 -0.6195 -0.4417  0.0850
 4740SOL    HW125679   2.261   0.717   4.660 -0.7006 -0.3323  0.0196
 4740SOL    HW225680   2.200   0.576   4.653  2.2400 -0.8942  0.6297
 4741SOL     OW25681   3.993   4.269  11.204  0.0609 -0.1123 -0.2308
 4741SOL    HW125682   3.998   4.251  11.297  0.9386  0.5649 -0.1461
 4741SOL    HW225683   4.016   4.362  11.201 -1.9540  0.3692 -1.0294
 4742SOL     OW25684   4.281   4.574   7.049  0.5436  0.4220 -0.0672
 4742SOL    HW125685   4.354   4.623   7.010  0.0505  0.7556 -0.5766
 4742SOL    HW225686   4.321   4.547   7.131  0.0989 -1.2706 -0.3990
 4743SOL     OW25687   0.456   3.827   3.559  0.4768 -0.5789 -0.2489
 4743SOL    HW125688   0.495   3.788   3.481  1.5387  0.3212 -0.1539
 4743SOL    HW225689   0.365   3.845   3.536  0.7632  0.2987 -0.6718
 4744SOL     OW25690   3.072   3.014  15.317  0.1675 -0.0186 -0.2160
 4744SOL    HW125691   3.042   2.964  15.241 -2.3827 -0.2398  0.9498
 4744SOL    HW225692   3.138   3.066  15.272 -1.0541  2.6860  1.1098
 4745SOL     OW25693   1.412   3.325   9.620 -0.1371  0.0900 -0.3646
 4745SOL    HW125694   1.434   3.418   9.628 -1.7920  0.5867 -1.3973
 4745SOL    HW225695   1.503   3.296   9.628  0.7491  3.4539  1.8211
 4746SOL     OW25696   3.489   1.529   2.254 -0.1546  0.0118 -0.2801
 4746SOL    HW125697   3.527   1.489   2.332  0.3542  0.2755 -0.3935
 4746SOL    HW225698   3.439   1.605   2.285  0.2060  0.3064 -0.4147
 4747SOL     OW25699   2.467   0.980   0.715 -0.4749 -0.0026 -0.3033
 4747SOL    HW125700   2.545   0.945   0.671 -0.1084 -0.9006  1.0553
 4747SOL    HW225701   2.448   0.922   0.788 -1.2082 -2.1136 -2.1651
 4748SOL     OW25702   2.237   0.901   1.578  0.0924  0.7662  0.3951
 4748SOL    HW125703   2.245   0.813   1.543 -0.6295  0.9822 -0.3157
 4748SOL    HW225704   2.174   0.943   1.518 -1.8003 -1.2916  0.9468
 4749SOL     OW25705   3.221   2.966   0.171  0.2905  0.0189 -0.0093
 4749SOL    HW125706   3.279   3.023   0.121  1.2124 -0.3228  0.6699
 4749SOL    HW225707   3.282   2.980   0.244  0.8396 -2.8277  0.0748
 4750SOL     OW25708   0.197   3.306   2.289 -0.1490 -0.0245 -0.0051
 4750SOL    HW125709   0.241   3.263   2.363 -0.3570  2.3543  1.5006
 4750SOL    HW225710   0.219   3.240   2.223  0.0521 -0.0729  0.1102
 4751SOL     OW25711   4.625   1.958   7.749 -0.0106  0.0792 -0.4999
 4751SOL    HW125712   4.631   2.034   7.691  1.4579 -1.2881 -2.1655
 4751SOL    HW225713   4.531   1.959   7.764  0.4423 -1.6415  2.6351
 4752SOL     OW25714   4.410   3.537  12.744 -0.0595  0.4947  0.7704
 4752SOL    HW125715   4.420   3.631  12.755  1.6733  0.6436 -2.0740
 4752SOL    HW225716   4.395   3.503  12.833 -0.8225 -0.8207  0.1332
 4753SOL     OW25717   1.017   1.848   4.255  0.3584  0.2086 -0.2277
 4753SOL    HW125718   1.017   1.908   4.330 -1.6698  0.8156 -0.7240
 4753SOL    HW225719   1.107   1.814   4.261  0.5110  0.2809 -2.2217
 4754SOL     OW25720   3.346   0.313   0.684 -0.5319 -0.0314 -0.4978
 4754SOL    HW125721   3.251   0.323   0.674 -0.8153  0.0821  2.4126
 4754SOL    HW225722   3.369   0.284   0.596  3.4096 -1.1123  0.9189
 4755SOL     OW25723   4.652   4.660   3.789 -0.1031 -0.1286 -0.2207
 4755SOL    HW125724   4.641   0.006   3.856 -0.4458 -0.4813  0.0775
 4755SOL    HW225725   4.637   4.579   3.838 -0.2100  0.8113  1.2842
 4756SOL     OW25726   4.424   1.980   3.754  0.4363  0.2270  0.1217
 4756SOL    HW125727   4.503   1.931   3.773  1.0081  1.4702  0.9914
 4756SOL    HW225728   4.366   1.907   3.733 -1.0376  1.6861 -0.8832
 4757SOL     OW25729   2.805   2.053  10.451  0.0479 -0.6399 -0.7778
 4757SOL    HW125730   2.745   2.084  10.384  0.0128 -0.5329 -0.6971
 4757SOL    HW225731   2.892   2.080  10.422 -0.5816 -0.2527 -2.2968
 4758SOL     OW25732   1.670   1.993   1.969  0.1498 -0.1884 -0.1463
 4758SOL    HW125733   1.743   2.041   1.931  0.2036 -0.7520 -0.7418
 4758SOL    HW225734   1.603   2.048   1.928  0.5662  0.4453  0.0291
 4759SOL     OW25735   4.277   4.487   5.811 -0.2433  0.3738 -0.0643
 4759SOL    HW125736   4.314   4.399   5.812 -0.1432  0.4149 -0.2106
 4759SOL    HW225737   4.196   4.465   5.764 -0.7215 -1.2335  1.4909
 4760SOL     OW25738   1.072   0.845   2.109 -0.0410  0.5170 -0.8827
 4760SOL    HW125739   1.163   0.871   2.123 -0.2306  0.5561  0.2334
 4760SOL    HW225740   1.072   0.771   2.047  0.6143 -0.1273 -0.1224
 4761SOL     OW25741   1.141   2.359  13.051 -0.2765 -0.2641  0.1179
 4761SOL    HW125742   1.177   2.356  13.139 -0.9924 -1.8984  0.3597
 4761SOL    HW225743   1.214   2.357  12.990  0.0421 -1.4193  0.5408
 4762SOL     OW25744   3.277   1.858   6.274 -0.3629  0.2005 -0.0638
 4762SOL    HW125745   3.341   1.902   6.218 -1.2662  0.8212 -0.6027
 4762SOL    HW225746   3.200   1.913   6.260  0.2112  0.5992 -1.6649
 4763SOL     OW25747   3.900   0.513   7.396  0.2002  0.2981 -0.4611
 4763SOL    HW125748   3.868   0.453   7.329  0.3682 -0.6603  0.3287
 4763SOL    HW225749   3.843   0.493   7.470  0.6401  1.5277  0.2080
 4764SOL     OW25750   3.055   3.477  10.217  0.2794 -0.5416 -0.1917
 4764SOL    HW125751   3.032   3.400  10.269 -1.5720  0.6500  0.7286
 4764SOL    HW225752   3.124   3.519  10.269 -0.0003 -0.6489  0.2615
 4765SOL     OW25753   0.807   0.518   7.060  0.3000  0.0697  0.3142
 4765SOL    HW125754   0.870   0.506   7.132  0.8687 -3.3527 -0.7363
 4765SOL    HW225755   0.859   0.554   6.987  1.3864 -1.0336  0.5316
 4766SOL     OW25756   0.509   4.400   5.244 -0.8788 -0.2144 -0.2416
 4766SOL    HW125757   0.499   4.493   5.223 -0.9484 -0.4938 -1.4927
 4766SOL    HW225758   0.438   4.372   5.186  0.0811 -0.2965 -1.3968
 4767SOL     OW25759   0.400   1.961   4.351  0.4489  0.7296 -0.7016
 4767SOL    HW125760   0.405   2.055   4.369  0.2120  0.1635  2.2424
 4767SOL    HW225761   0.331   1.965   4.284 -0.1947 -0.0646 -0.0863
 4768SOL     OW25762   3.685   4.463   2.068 -0.1700 -0.6520 -0.3230
 4768SOL    HW125763   3.595   4.450   2.099 -0.1461  0.2302  0.1340
 4768SOL    HW225764   3.738   4.438   2.144 -1.4008  0.1557  0.8018
 4769SOL     OW25765   2.675   0.047   9.424  0.3788  0.5735 -0.4682
 4769SOL    HW125766   2.623   0.110   9.473 -1.1130 -0.3961 -0.8348
 4769SOL    HW225767   2.676   0.081   9.334  0.7825 -1.4060 -1.2240
 4770SOL     OW25768   4.471   1.397   9.499  0.0924 -0.7132 -0.1363
 4770SOL    HW125769   4.387   1.354   9.482 -0.7482  0.9411 -0.1837
 4770SOL    HW225770   4.496   1.354   9.580 -0.3291  0.1127  0.4423
 4771SOL     OW25771   2.618   3.907   0.727  0.0054  0.6837 -0.4863
 4771SOL    HW125772   2.600   3.956   0.807  0.2442 -0.0604  0.0200
 4771SOL    HW225773   2.648   3.978   0.669 -0.3385  1.3654  0.1676
 4772SOL     OW25774   3.523   3.604   1.524  0.5024  0.2476 -0.6446
 4772SOL    HW125775   3.501   3.526   1.474 -1.3901 -0.8107  1.8761
 4772SOL    HW225776   3.518   3.566   1.612  3.1177  1.4931  0.0476
 4773SOL     OW25777   3.033   3.807   1.118 -0.0794  0.8275  0.1442
 4773SOL    HW125778   3.094   3.778   1.186 -0.2562 -0.4139 -0.2307
 4773SOL    HW225779   2.966   3.739   1.125  0.4713 -0.0208 -3.0025
 4774SOL     OW25780   4.205   2.911  10.538 -0.2767 -0.7090 -0.2869
 4774SOL    HW125781   4.162   2.996  10.533  0.5292 -0.4298 -2.6102
 4774SOL    HW225782   4.240   2.915  10.627 -1.2412  1.3864 -0.0096
 4775SOL     OW25783   0.870   4.390   5.364 -0.1290 -0.3962 -0.5559
 4775SOL    HW125784   0.861   4.318   5.301 -3.8973 -0.2776 -0.1731
 4775SOL    HW225785   0.914   4.334   5.428 -2.5921 -0.1891  1.3308
 4776SOL     OW25786   0.974   4.350   8.986 -0.1777  0.3463  0.0268
 4776SOL    HW125787   0.982   4.278   8.924  0.0778 -0.7389  1.3307
 4776SOL    HW225788   0.945   4.306   9.066 -0.8174  1.6633  0.5177
 4777SOL     OW25789   4.171   0.809   4.314  0.2819 -0.7727  0.3321
 4777SOL    HW125790   4.163   0.752   4.390 -2.2699 -2.5224 -1.2467
 4777SOL    HW225791   4.091   0.861   4.320  1.8274  1.6818 -0.2821
 4778SOL     OW25792   2.216   2.970   6.696  0.6082  0.5448 -0.5739
 4778SOL    HW125793   2.134   2.934   6.662  0.7954 -0.5587  0.1611
 4778SOL    HW225794   2.273   2.893   6.698 -0.7405 -0.3938  1.8054
 4779SOL     OW25795   2.800   4.264   2.908  0.8054 -0.0200  0.2279
 4779SOL    HW125796   2.798   4.271   3.004 -1.2657 -2.3167  0.3414
 4779SOL    HW225797   2.868   4.326   2.882 -0.8273  0.8656 -1.9454
 4780SOL     OW25798   2.560   0.959   4.056 -0.0240 -0.0725 -0.1117
 4780SOL    HW125799   2.471   0.927   4.044  0.0436 -0.1058 -0.5409
 4780SOL    HW225800   2.601   0.900   4.119 -1.0948  1.0225  1.6144
 4781SOL     OW25801   3.259   0.290  13.422 -0.6981  0.2499  0.5344
 4781SOL    HW125802   3.297   0.377  13.410  2.8433 -1.6166 -1.8224
 4781SOL    HW225803   3.304   0.263  13.502 -1.0450 -0.3367  0.5337
 4782SOL     OW25804   1.041   3.229   8.342 -0.4583 -0.0512 -0.3315
 4782SOL    HW125805   1.041   3.196   8.432 -1.3466  2.6684  0.6418
 4782SOL    HW225806   1.134   3.244   8.323 -0.4642 -0.7872 -0.9531
 4783SOL     OW25807   4.205   4.667   2.066  0.6297 -0.4252 -0.0779
 4783SOL    HW125808   4.132   4.608   2.046 -1.5408  1.6131  1.8083
 4783SOL    HW225809   4.247   4.684   1.981 -2.4285  1.9464 -1.1268
 4784SOL     OW25810   3.123   2.751   9.637 -0.0088  0.3446 -0.9023
 4784SOL    HW125811   3.097   2.662   9.614 -1.1533  0.5964 -0.5745
 4784SOL    HW225812   3.178   2.767   9.560  0.8587  2.4685  0.1683
 4785SOL     OW25813   3.516   2.292   8.606  0.0707  0.1568 -0.5080
 4785SOL    HW125814   3.512   2.213   8.659  0.2438  0.7981  0.4543
 4785SOL    HW225815   3.492   2.256   8.520 -3.1871  0.8923  0.0965
 4786SOL     OW25816   1.692   4.014   7.524 -0.6753  0.0765 -0.6378
 4786SOL    HW125817   1.686   3.925   7.559  2.2776  0.7287  1.5503
 4786SOL    HW225818   1.643   4.060   7.592  0.3596  0.0455  0.1478
 4787SOL     OW25819   3.444   4.651   4.559 -0.4700 -0.0188  0.2123
 4787SOL    HW125820   3.381   4.706   4.512 -1.3266  0.1076  1.4875
 4787SOL    HW225821   3.505   4.716   4.592 -0.8011  0.5714 -0.3520
 4788SOL     OW25822   2.016   3.453   5.345 -0.6588  0.5677  0.1125
 4788SOL    HW125823   1.935   3.419   5.384 -1.1320 -0.9588 -2.2047
 4788SOL    HW225824   2.087   3.401   5.383  1.2544  0.4947 -3.4887
 4789SOL     OW25825   2.817   0.917   8.203  0.3888 -0.2840 -0.1408
 4789SOL    HW125826   2.733   0.942   8.165  1.2601  3.0309  0.1266
 4789SOL    HW225827   2.873   0.963   8.141 -0.0459  0.4681  0.0250
 4790SOL     OW25828   0.815   2.821   4.543 -0.3707 -0.1955  0.0743
 4790SOL    HW125829   0.808   2.773   4.461  2.0098  0.6205 -0.6049
 4790SOL    HW225830   0.890   2.878   4.529 -1.6864  1.7299  0.7676
 4791SOL     OW25831   1.452   4.675   8.975  0.6986  0.1196  0.5717
 4791SOL    HW125832   1.474   4.684   9.067  1.7180  1.8239  0.1724
 4791SOL    HW225833   1.513   0.014   8.932  0.7860  0.7353  1.5520
 4792SOL     OW25834   1.792   4.528  16.696  0.2112 -0.0085  0.2472
 4792SOL    HW125835   1.720   4.483  16.651  0.7329  0.3499 -0.9620
 4792SOL    HW225836   1.734   4.597  16.729  0.8400 -0.1589  1.6439
 4793SOL     OW25837   0.870   2.949   7.797 -0.3593 -0.3033  0.0946
 4793SOL    HW125838   0.887   2.910   7.882  0.4865 -1.0151 -0.3974
 4793SOL    HW225839   0.877   2.864   7.753 -0.4809 -0.1702 -0.1813
 4794SOL     OW25840   1.648   3.003   2.735 -0.0739 -0.1547 -0.3613
 4794SOL    HW125841   1.613   2.985   2.822  3.9498  0.2515  1.3396
 4794SOL    HW225842   1.645   2.914   2.700  0.3489 -0.6839  0.9462
 4795SOL     OW25843   0.052   0.313   0.328  0.1355  0.2278 -0.6819
 4795SOL    HW125844   0.109   0.390   0.323 -0.5420  0.6745 -1.4985
 4795SOL    HW225845   0.115   0.255   0.373 -0.3583  0.3977  0.2226
 4796SOL     OW25846   3.385   2.112   1.536  0.8141 -0.0358 -0.1117
 4796SOL    HW125847   3.477   2.111   1.509  0.7276 -0.6243 -0.3938
 4796SOL    HW225848   3.391   2.182   1.601  0.9944 -0.7319  0.6253
 4797SOL     OW25849   0.731   4.203   2.973 -0.3207  0.3083 -0.4851
 4797SOL    HW125850   0.750   4.263   2.900  3.3123  0.3721  0.5122
 4797SOL    HW225851   0.802   4.221   3.034 -3.0742  0.1317  2.7885
 4798SOL     OW25852   1.178   3.330   6.224  0.2049  0.0654  0.2321
 4798SOL    HW125853   1.165   3.349   6.317 -0.8118 -0.5495  0.2191
 4798SOL    HW225854   1.109   3.376   6.176  0.7672  0.8060  0.1445
 4799SOL     OW25855   1.940   1.218   4.508  0.0798  0.6245  0.3634
 4799SOL    HW125856   2.012   1.161   4.536 -1.4161 -0.8677  1.1504
 4799SOL    HW225857   1.892   1.154   4.455  1.6169 -0.6970  0.5633
 4800SOL     OW25858   1.832   1.654   9.212  0.0192  0.1323  0.5347
 4800SOL    HW125859   1.910   1.628   9.261  1.2402  0.5782 -1.2019
 4800SOL    HW225860   1.766   1.598   9.253  0.2427  0.5614  1.4729
 4801SOL     OW25861   2.203   3.573   3.684 -0.3676  0.2020 -0.4778
 4801SOL    HW125862   2.125   3.618   3.717 -1.5127 -0.7281 -1.9132
 4801SOL    HW225863   2.247   3.573   3.769  0.8964 -0.1668 -1.1290
 4802SOL     OW25864   0.325   2.002   3.703 -0.1065 -0.1410  0.7830
 4802SOL    HW125865   0.363   1.970   3.785 -0.5127  0.1592  1.0902
 4802SOL    HW225866   0.262   1.932   3.687 -0.6298  0.1927  1.3636
 4803SOL     OW25867   2.146   1.277   3.065  0.1514 -0.7906 -1.0402
 4803SOL    HW125868   2.179   1.321   2.986  0.9616 -0.8566 -0.7360
 4803SOL    HW225869   2.054   1.305   3.059  0.6574  0.8584 -1.1197
 4804SOL     OW25870   2.443   1.405   9.822 -0.2304  0.1527  0.0687
 4804SOL    HW125871   2.438   1.501   9.825  0.1985  0.0348  4.1882
 4804SOL    HW225872   2.412   1.385   9.910 -2.2694 -0.0672 -0.6829
 4805SOL     OW25873   3.143   2.705  14.059  0.7789  0.2323  0.1029
 4805SOL    HW125874   3.211   2.716  13.992  0.9880 -0.8061  0.1490
 4805SOL    HW225875   3.152   2.792  14.098 -1.6665  0.6562 -0.2897
 4806SOL     OW25876   0.434   1.133   4.466  0.4446 -0.4540 -0.5784
 4806SOL    HW125877   0.425   1.044   4.430 -0.7232 -0.3014 -0.6802
 4806SOL    HW225878   0.525   1.150   4.445  1.0276  0.8120  3.1020
 4807SOL     OW25879   0.181   4.182  16.782  0.3198  0.2445 -0.2126
 4807SOL    HW125880   0.099   4.145  16.751 -0.9138  3.2321 -0.4737
 4807SOL    HW225881   0.164   4.249  16.847 -1.6204  1.3582 -1.9034
 4808SOL     OW25882   3.157   1.266   4.379 -0.4004  0.0858  0.5369
 4808SOL    HW125883   3.209   1.187   4.396 -3.4402 -2.3292 -1.4426
 4808SOL    HW225884   3.226   1.316   4.336  1.0142 -2.1336  0.1744
 4809SOL     OW25885   3.984   0.753  10.439  0.2008 -0.4475 -0.3809
 4809SOL    HW125886   3.957   0.843  10.420  0.2786 -0.3461 -0.0092
 4809SOL    HW225887   3.991   0.754  10.534  0.5204 -1.3556 -0.3990
 4810SOL     OW25888   3.565   2.626  15.594 -0.3741  0.2194 -0.1508
 4810SOL    HW125889   3.592   2.624  15.502 -3.2853  0.0540 -1.0115
 4810SOL    HW225890   3.494   2.562  15.604  1.1746 -1.6422 -1.1600
 4811SOL     OW25891   0.192   3.631  10.409  0.0649 -0.0567  0.5595
 4811SOL    HW125892   0.110   3.654  10.453  0.2012 -0.1907  0.8770
 4811SOL    HW225893   0.171   3.652  10.318 -3.0355  0.0411  1.2854
 4812SOL     OW25894   1.072   1.632   5.306  0.3619 -0.3759 -0.3849
 4812SOL    HW125895   1.085   1.550   5.353 -1.4922 -0.2719  0.3130
 4812SOL    HW225896   1.162   1.661   5.290  0.1284  1.3477  1.3505
 4813SOL     OW25897   1.107   3.155  14.006 -0.0405  0.0982 -0.2695
 4813SOL    HW125898   1.127   3.067  14.039  0.8286  0.5172  0.3504
 4813SOL    HW225899   1.152   3.212  14.069  0.3847 -3.1362  2.3806
 4814SOL     OW25900   3.471   3.302   2.280 -0.3608 -0.3297 -0.7982
 4814SOL    HW125901   3.496   3.215   2.311  1.6963  1.0788  1.4139
 4814SOL    HW225902   3.375   3.301   2.277 -0.3918 -0.8063  0.6137
 4815SOL     OW25903   3.289   0.974  14.113 -0.1125  0.2230 -0.3211
 4815SOL    HW125904   3.372   1.022  14.109 -0.7327  1.5728  2.2703
 4815SOL    HW225905   3.316   0.896  14.066 -1.1947 -0.9616  1.0366
 4816SOL     OW25906   3.539   1.274   6.316 -0.6603 -0.0673  0.0230
 4816SOL    HW125907   3.472   1.268   6.384 -1.3830 -1.5893 -0.8304
 4816SOL    HW225908   3.608   1.235   6.371  1.1611 -2.6379 -4.1196
 4817SOL     OW25909   0.769   3.564   7.005 -0.6503 -0.1215 -0.4203
 4817SOL    HW125910   0.733   3.545   6.918  3.4972 -0.8053 -2.0182
 4817SOL    HW225911   0.759   3.659   7.014  0.3332  0.3064 -3.6926
 4818SOL     OW25912   4.013   3.820   5.375  0.6180 -0.4007 -0.6511
 4818SOL    HW125913   3.948   3.852   5.437  1.0705 -0.7529  0.0101
 4818SOL    HW225914   4.017   3.902   5.326  1.0809  0.0651  0.1549
 4819SOL     OW25915   4.431   4.338   3.232  0.6205  0.7418  0.0412
 4819SOL    HW125916   4.370   4.290   3.177  0.0502  1.3408  0.1518
 4819SOL    HW225917   4.480   4.373   3.158  0.3192 -3.0927 -1.9662
 4820SOL     OW25918   2.858   3.958   7.452  0.7384 -0.1532 -0.1327
 4820SOL    HW125919   2.919   3.887   7.434  1.3834  0.2790  0.3540
 4820SOL    HW225920   2.783   3.916   7.493 -0.3460  0.7489 -1.2040
 4821SOL     OW25921   4.480   4.367   4.391  0.2119 -0.0239 -0.5878
 4821SOL    HW125922   4.388   4.354   4.370 -0.4054  4.5369 -0.7793
 4821SOL    HW225923   4.514   4.365   4.301  2.2125 -3.7542  0.2616
 4822SOL     OW25924   3.413   3.762  12.893 -0.8207  0.2049  0.6952
 4822SOL    HW125925   3.426   3.771  12.799 -2.1273  4.3937  0.9153
 4822SOL    HW225926   3.349   3.691  12.890 -0.4258 -0.1166  0.0014
 4823SOL     OW25927   4.446   3.108   6.783 -0.0660 -0.1476 -0.8834
 4823SOL    HW125928   4.509   3.108   6.711 -0.5041  1.0753 -1.2555
 4823SOL    HW225929   4.422   3.015   6.791  0.9832 -0.2791  0.7487
 4824SOL     OW25930   2.375   0.179  14.331  0.4205  0.2850  0.6802
 4824SOL    HW125931   2.324   0.100  14.309  1.2906  0.4765 -1.9550
 4824SOL    HW225932   2.313   0.251  14.347  0.6322  0.3773  1.0934
 4825SOL     OW25933   2.804   0.126   8.390  0.0386 -0.0760 -0.6661
 4825SOL    HW125934   2.753   0.059   8.434 -0.5074  1.2790  0.7567
 4825SOL    HW225935   2.733   0.175   8.349 -1.2917 -1.2094  0.3239
 4826SOL     OW25936   3.018   0.140  17.547  0.1082  0.5069  0.3011
 4826SOL    HW125937   3.095   0.185  17.512 -0.8184  0.0779 -2.3517
 4826SOL    HW225938   3.061   0.089  17.615  0.6783  0.2793 -0.2347
 4827SOL     OW25939   4.297   3.576   5.508  0.9620 -0.2352  0.1323
 4827SOL    HW125940   4.355   3.552   5.436  3.5440  0.4476  1.9781
 4827SOL    HW225941   4.280   3.487   5.539 -1.6805  0.0378 -0.4919
 4828SOL     OW25942   1.001   2.318   2.032  0.3648 -0.3162  0.6118
 4828SOL    HW125943   1.097   2.323   2.032  0.3011  0.7681 -3.3364
 4828SOL    HW225944   0.971   2.364   2.111  1.4492 -3.5426  2.8850
 4829SOL     OW25945   0.321   4.442   4.134 -0.1204 -0.8864  0.1706
 4829SOL    HW125946   0.302   4.524   4.089  0.9009 -1.7013 -1.7900
 4829SOL    HW225947   0.256   4.454   4.203 -2.0260  2.0780 -2.1505
 4830SOL     OW25948   2.336   0.254  13.455 -0.7063  0.3707 -0.3064
 4830SOL    HW125949   2.365   0.191  13.389  0.7729 -0.1491  0.8358
 4830SOL    HW225950   2.416   0.305  13.468  1.2086 -2.6527 -0.3002
 4831SOL     OW25951   4.276   2.770   4.647 -0.2770 -0.2076 -0.4195
 4831SOL    HW125952   4.324   2.849   4.622 -1.6317  0.9602  0.6518
 4831SOL    HW225953   4.339   2.722   4.701 -1.6177 -0.3946  0.9511
 4832SOL     OW25954   2.857   0.495   5.154 -0.1291  0.1229 -0.2585
 4832SOL    HW125955   2.781   0.447   5.119  0.0081  2.2736 -3.5268
 4832SOL    HW225956   2.880   0.545   5.076 -1.0822 -1.0516 -1.3068
 4833SOL     OW25957   3.889   1.813  13.697  0.3683  0.1323 -0.4512
 4833SOL    HW125958   3.891   1.905  13.671  1.7636 -0.0096 -0.8524
 4833SOL    HW225959   3.840   1.815  13.780  1.7619 -1.2934  0.4020
 4834SOL     OW25960   1.187   3.400   4.497  0.2054  0.3223  0.3604
 4834SOL    HW125961   1.112   3.459   4.511 -0.1825  0.4175 -2.0571
 4834SOL    HW225962   1.258   3.462   4.515 -0.1226  0.6290  0.6075
 4835SOL     OW25963   1.501   1.315   7.003 -0.4230  0.4487  0.3050
 4835SOL    HW125964   1.521   1.275   7.087 -1.1387  0.0245  0.2691
 4835SOL    HW225965   1.545   1.400   7.006 -0.8632  0.7091 -0.5336
 4836SOL     OW25966   0.459   0.522   8.573  0.0189 -0.0868 -0.2851
 4836SOL    HW125967   0.483   0.541   8.664  0.1553  1.2489 -0.5992
 4836SOL    HW225968   0.394   0.586   8.545 -1.0655 -0.8821  0.4040
 4837SOL     OW25969   2.051   2.651   5.936 -0.1922 -0.2179 -0.7132
 4837SOL    HW125970   2.057   2.587   6.007  3.6932  1.2934  0.3022
 4837SOL    HW225971   2.137   2.665   5.898  0.8232 -0.5486  1.4757
 4838SOL     OW25972   3.499   1.957   5.644  0.0172  0.3938  0.3639
 4838SOL    HW125973   3.405   1.940   5.644 -0.1585  1.3889 -0.8401
 4838SOL    HW225974   3.528   1.926   5.730 -0.0763 -0.6128  0.0243
 4839SOL     OW25975   1.416   1.457   6.275  0.0620 -0.1436 -0.6935
 4839SOL    HW125976   1.465   1.454   6.357  0.6918 -1.2343 -1.1129
 4839SOL    HW225977   1.340   1.404   6.298 -0.3090  0.2447 -1.0114
 4840SOL     OW25978   1.082   0.623   1.935 -0.3443 -0.0848 -0.6791
 4840SOL    HW125979   1.049   0.667   1.858 -0.9179 -0.0135 -0.3914
 4840SOL    HW225980   1.176   0.619   1.916  0.1707  0.9112  1.6263
 4841SOL     OW25981   3.748   1.122   8.939 -0.3115 -0.3752  0.6668
 4841SOL    HW125982   3.684   1.118   9.009  0.2785  1.2355  1.2932
 4841SOL    HW225983   3.820   1.148   8.996  1.1686 -2.9111 -0.0333
 4842SOL     OW25984   0.252   1.868   2.558 -0.1525 -0.0486 -0.0193
 4842SOL    HW125985   0.279   1.909   2.476  2.9153 -1.0118  0.5071
 4842SOL    HW225986   0.157   1.877   2.562 -0.2570 -0.0378 -2.6991
 4843SOL     OW25987   2.843   1.739   6.477 -0.2826 -0.1768  0.4118
 4843SOL    HW125988   2.913   1.687   6.436 -1.2678 -1.2400  0.0923
 4843SOL    HW225989   2.765   1.695   6.445 -1.0397 -0.0785  2.1450
 4844SOL     OW25990   0.330   4.366  11.424  0.5093 -0.2126  0.3525
 4844SOL    HW125991   0.325   4.364  11.519 -3.0960  1.2298  0.1922
 4844SOL    HW225992   0.250   4.319  11.401  0.9149 -0.2280 -1.0284
 4845SOL     OW25993   1.608   3.889  10.928 -0.3559  0.8869 -1.1237
 4845SOL    HW125994   1.669   3.907  10.999  0.7806  0.6279 -2.0368
 4845SOL    HW225995   1.542   3.952  10.957  0.1501  0.6376  0.5570
 4846SOL     OW25996   3.069   1.408   8.655  1.0134 -0.6210 -0.0120
 4846SOL    HW125997   3.116   1.405   8.572 -0.4575  4.3847 -1.0149
 4846SOL    HW225998   3.046   1.316   8.664  1.5802 -0.8227 -0.6003
 4847SOL     OW25999   3.422   2.330   1.703 -0.3381 -0.8840  0.4720
 4847SOL    HW126000   3.513   2.356   1.720 -0.4596 -1.4959  2.0524
 4847SOL    HW226001   3.378   2.410   1.732  0.5919 -0.5926  1.0917
 4848SOL     OW26002   1.427   0.408   6.818  0.3139 -0.6520  1.0569
 4848SOL    HW126003   1.429   0.501   6.840  1.0580 -0.4917  0.3603
 4848SOL    HW226004   1.486   0.400   6.742  1.3863 -0.8793  1.9172
 4849SOL     OW26005   4.483   2.233  11.261  0.1397  0.4584 -0.2511
 4849SOL    HW126006   4.494   2.309  11.319  1.1051  0.7862 -0.8687
 4849SOL    HW226007   4.526   2.260  11.181 -0.9544  2.7233 -0.0673
 4850SOL     OW26008   4.480   2.175   3.967 -0.9172 -0.4813  0.2396
 4850SOL    HW126009   4.527   2.248   3.926  0.5146 -0.5297  1.8172
 4850SOL    HW226010   4.454   2.118   3.894 -1.4887 -0.4532  0.4205
 4851SOL     OW26011   1.513   1.313  14.622  0.2236 -0.3328 -0.3163
 4851SOL    HW126012   1.499   1.386  14.562  1.9061 -0.3821 -0.7489
 4851SOL    HW226013   1.546   1.250  14.558 -0.3488  0.7044 -1.6258
 4852SOL     OW26014   2.886   2.351   7.183  0.3255  0.0871 -0.3767
 4852SOL    HW126015   2.934   2.292   7.240  0.9368  0.1704 -0.8035
 4852SOL    HW226016   2.881   2.426   7.242 -2.7138 -1.7861  1.7667
 4853SOL     OW26017   3.134   0.328   7.611  0.4905  0.4923 -0.1884
 4853SOL    HW126018   3.204   0.263   7.614  0.6071  0.5493 -1.6757
 4853SOL    HW226019   3.077   0.302   7.683  0.9770  3.4370  1.2523
 4854SOL     OW26020   3.897   2.059   8.528 -0.8009 -0.1551  0.1014
 4854SOL    HW126021   3.821   2.057   8.471 -0.9242 -2.4765  0.3280
 4854SOL    HW226022   3.931   1.969   8.532  0.9566  0.4639 -1.1561
 4855SOL     OW26023   4.534   2.994   2.465 -0.7564 -0.0430 -0.0150
 4855SOL    HW126024   4.616   3.037   2.489 -1.5022  1.2519  0.2259
 4855SOL    HW226025   4.571   2.905   2.467 -1.7455 -0.5017 -2.2210
 4856SOL     OW26026   1.361   4.567   9.304  0.4086 -0.6550  0.0692
 4856SOL    HW126027   1.360   4.622   9.383 -0.3286  0.7458 -0.9297
 4856SOL    HW226028   1.451   4.580   9.273  1.1173 -1.1375  1.8557
 4857SOL     OW26029   4.120   4.694  15.922  0.0555  0.5085  0.1265
 4857SOL    HW126030   4.166   0.029  15.860  1.9740 -1.0781  0.0847
 4857SOL    HW226031   4.176   4.684  16.000 -0.0644 -1.0956  0.0120
 4858SOL     OW26032   4.230   2.269   4.167  0.4274  0.0313 -0.1887
 4858SOL    HW126033   4.227   2.175   4.185 -1.8508 -0.0420 -0.9543
 4858SOL    HW226034   4.136   2.281   4.153  1.0179  2.2425 -2.2637
 4859SOL     OW26035   4.346   4.090   3.966  0.0285  0.0032  0.5338
 4859SOL    HW126036   4.393   4.011   3.993  0.3718  0.2594  0.6896
 4859SOL    HW226037   4.323   4.085   3.873  0.4174 -0.1278  0.4458
 4860SOL     OW26038   1.307   1.784   9.300 -0.7296 -0.6899  0.0917
 4860SOL    HW126039   1.294   1.690   9.313 -0.3549 -0.6986  0.3952
 4860SOL    HW226040   1.316   1.814   9.391  1.8487 -0.2966 -0.2962
 4861SOL     OW26041   1.209   3.246   1.293  0.1092 -0.0547  0.3735
 4861SOL    HW126042   1.302   3.230   1.304 -0.0465  0.1016  1.9582
 4861SOL    HW226043   1.179   3.236   1.384 -0.0152 -0.2820  0.3073
 4862SOL     OW26044   1.901   0.473  17.356 -0.5260  0.3349  0.5802
 4862SOL    HW126045   1.902   0.551  17.300 -1.9529 -0.6795 -0.8560
 4862SOL    HW226046   1.863   0.408  17.296 -1.5194  0.6580  0.8712
 4863SOL     OW26047   3.732   2.522  12.480 -0.1017 -0.5595  0.0034
 4863SOL    HW126048   3.727   2.602  12.533 -1.4359  0.5509 -1.8154
 4863SOL    HW226049   3.644   2.490  12.502 -0.6508  0.0934 -1.2199
 4864SOL     OW26050   3.576   3.031  17.198 -0.5324 -0.1437 -0.6609
 4864SOL    HW126051   3.495   3.014  17.248  0.3302  1.7103  1.3360
 4864SOL    HW226052   3.557   3.106  17.142 -0.0210 -1.0909 -2.1162
 4865SOL     OW26053   2.096   1.888   3.155  0.2247 -0.1171 -0.5764
 4865SOL    HW126054   2.173   1.886   3.211 -0.0912 -3.8237 -0.2594
 4865SOL    HW226055   2.081   1.794   3.141 -1.6684 -0.1755  1.8720
 4866SOL     OW26056   0.553   2.680  10.196  0.0052  0.4784 -0.1048
 4866SOL    HW126057   0.591   2.600  10.233 -0.3540  0.6888  0.7263
 4866SOL    HW226058   0.495   2.708  10.267 -0.1173  1.5207 -0.6244
 4867SOL     OW26059   4.606   4.248   0.387 -0.8833  0.4029 -0.0728
 4867SOL    HW126060   4.525   4.202   0.410 -0.6158 -0.2716 -0.4705
 4867SOL    HW226061   4.627   4.221   0.298  0.5332  0.0807  0.3639
 4868SOL     OW26062   0.221   3.211   1.907  0.6505 -0.3015 -0.2388
 4868SOL    HW126063   0.266   3.127   1.916 -1.5110 -1.4309  0.2451
 4868SOL    HW226064   0.135   3.180   1.877  0.5329 -1.0206  0.8235
 4869SOL     OW26065   4.214   4.440   7.960  0.1007  0.0894  0.3350
 4869SOL    HW126066   4.162   4.469   8.035 -0.9474 -0.2599 -0.2650
 4869SOL    HW226067   4.266   4.519   7.945  0.1983 -0.0228  0.0791
 4870SOL     OW26068   2.643   4.456  13.146  0.3657  0.0486  0.4678
 4870SOL    HW126069   2.691   4.490  13.071  2.3720  0.4500  1.9383
 4870SOL    HW226070   2.718   4.412  13.185 -0.0997  0.7542  2.1761
 4871SOL     OW26071   0.161   4.057  14.679  0.1464 -0.0100 -0.0890
 4871SOL    HW126072   0.254   4.079  14.678 -0.0299  0.7504  0.7156
 4871SOL    HW226073   0.135   4.059  14.771  2.8489 -2.5177  0.7349
 4872SOL     OW26074   4.391   1.304   9.772 -0.2762  0.3403 -0.3239
 4872SOL    HW126075   4.380   1.270   9.861 -0.4193 -0.9124 -0.8268
 4872SOL    HW226076   4.477   1.268   9.754  1.0480  2.5384  1.4624
 4873SOL     OW26077   4.262   0.063   0.513  0.0691  0.0788 -0.1240
 4873SOL    HW126078   4.245   0.006   0.439 -2.6397 -1.4081  1.6313
 4873SOL    HW226079   4.328   0.123   0.479 -2.1888  1.8780 -1.3853
 4874SOL     OW26080   1.149   0.732   1.371  0.2329  0.5108 -0.8163
 4874SOL    HW126081   1.139   0.825   1.351  2.7204  0.6082 -1.5811
 4874SOL    HW226082   1.190   0.730   1.457 -0.3508  2.1829 -0.5130
 4875SOL     OW26083   1.908   1.154   7.132  0.3767  0.0529  0.0183
 4875SOL    HW126084   1.993   1.124   7.165 -0.0267  1.5465  2.4471
 4875SOL    HW226085   1.873   1.211   7.201 -1.6988 -1.0184 -0.1577
 4876SOL     OW26086   2.057   2.746   6.588 -0.0575  0.6267 -0.1178
 4876SOL    HW126087   2.052   2.651   6.578  0.0365  0.7744 -1.6212
 4876SOL    HW226088   2.000   2.777   6.518  2.1282  1.1903 -1.6647
 4877SOL     OW26089   0.480   0.570   4.041  0.2892 -0.1393  0.2074
 4877SOL    HW126090   0.414   0.508   4.012 -0.5534  0.8627 -0.0293
 4877SOL    HW226091   0.463   0.575   4.135 -0.8856 -1.5548  0.0543
 4878SOL     OW26092   1.319   1.731  16.477  0.1914  0.2036 -0.2332
 4878SOL    HW126093   1.332   1.696  16.389  0.4849  1.4382 -0.6733
 4878SOL    HW226094   1.242   1.690  16.518  0.2175  0.6756  0.2848
 4879SOL     OW26095   1.224   0.745  12.833 -0.1662 -0.1472  0.8938
 4879SOL    HW126096   1.216   0.816  12.897 -0.2031  2.5655 -2.1178
 4879SOL    HW226097   1.317   0.728  12.846  0.3806  0.6581 -1.7736
 4880SOL     OW26098   2.762   0.093   7.233 -0.4108  0.2469  0.1750
 4880SOL    HW126099   2.736   0.185   7.237 -2.1301 -0.2112 -0.2337
 4880SOL    HW226100   2.857   0.091   7.227 -0.4587 -0.5414 -0.3170
 4881SOL     OW26101   0.768   3.258   7.885 -0.0137 -0.4857 -0.5487
 4881SOL    HW126102   0.811   3.287   7.965  1.5816  0.1882 -1.6504
 4881SOL    HW226103   0.691   3.218   7.924  0.6350  0.1855  1.4083
 4882SOL     OW26104   0.202   0.946  17.115  0.2562  0.1864  0.0818
 4882SOL    HW126105   0.131   0.889  17.086  0.6687  0.1699 -0.9012
 4882SOL    HW226106   0.272   0.895  17.073 -1.3426 -0.9610 -1.1681
 4883SOL     OW26107   3.452   0.600   7.161 -0.0833 -0.1861 -0.2426
 4883SOL    HW126108   3.547   0.602   7.162 -0.0737 -0.4741 -0.4436
 4883SOL    HW226109   3.430   0.678   7.212  2.0403  0.6346 -0.6152
 4884SOL     OW26110   0.365   1.956   2.779  0.3172 -0.0910  0.1564
 4884SOL    HW126111   0.320   1.929   2.699  0.4560 -0.1993  0.1150
 4884SOL    HW226112   0.372   2.050   2.767  0.4809 -0.1663 -0.3266
 4885SOL     OW26113   1.385   1.226   2.424 -0.1338 -0.3216  0.0033
 4885SOL    HW126114   1.318   1.230   2.492  0.1873  0.4344  0.2707
 4885SOL    HW226115   1.334   1.258   2.349  1.5716  0.4301 -0.8459
 4886SOL     OW26116   2.902   0.808   3.723 -0.3999 -0.7003 -0.4050
 4886SOL    HW126117   2.842   0.763   3.784  0.3192  0.8156  1.4230
 4886SOL    HW226118   2.865   0.896   3.713 -1.2937 -1.1162 -0.7575
 4887SOL     OW26119   3.681   2.908  17.447  0.2035  0.5172  0.0581
 4887SOL    HW126120   3.656   2.818  17.469 -0.6814  1.2860  2.2244
 4887SOL    HW226121   3.598   2.940  17.412  0.3580  1.5677  0.6610
 4888SOL     OW26122   3.263   2.845   9.422  0.0957 -0.6209 -0.0424
 4888SOL    HW126123   3.325   2.774   9.406  0.6460 -0.2425  0.4412
 4888SOL    HW226124   3.297   2.922   9.376  1.6641 -1.4012 -0.1957
 4889SOL     OW26125   3.624   0.165   8.827 -0.1767  0.1194  0.1050
 4889SOL    HW126126   3.548   0.106   8.826  1.3143 -1.7225 -3.2684
 4889SOL    HW226127   3.608   0.227   8.757 -2.0331 -0.8338 -0.3318
 4890SOL     OW26128   4.057   0.539   2.446  0.3185 -0.6294 -0.3150
 4890SOL    HW126129   4.139   0.551   2.494  0.3797 -2.9045  0.1511
 4890SOL    HW226130   4.047   0.446   2.467 -0.1041 -0.9836 -2.0147
 4891SOL     OW26131   0.873   0.228   8.674  0.1627 -0.8740  0.3113
 4891SOL    HW126132   0.875   0.282   8.595  0.5391 -1.2635  0.0526
 4891SOL    HW226133   0.812   0.164   8.638 -2.2226  1.5004  0.1578
 4892SOL     OW26134   4.373   4.637   7.562  0.6354 -0.2558 -0.0589
 4892SOL    HW126135   4.311   4.570   7.532  1.3479 -1.3477  0.9600
 4892SOL    HW226136   4.401   4.683   7.482 -0.4290  0.3501 -0.0800
 4893SOL     OW26137   4.350   4.692   2.604 -0.1495 -0.4806 -0.0490
 4893SOL    HW126138   4.345   4.600   2.630 -0.0127 -1.1477 -2.3086
 4893SOL    HW226139   4.342   4.683   2.509  0.1789  0.9872 -0.2030
 4894SOL     OW26140   1.309   4.255   3.900  0.2855  0.3755 -0.1503
 4894SOL    HW126141   1.277   4.281   3.986  3.0640  1.4630  0.5237
 4894SOL    HW226142   1.396   4.293   3.896  0.0269  1.1778  1.8767
 4895SOL     OW26143   1.838   0.294  16.897 -0.1519  0.7809  0.3908
 4895SOL    HW126144   1.882   0.349  16.833 -0.2267 -0.6320 -0.8702
 4895SOL    HW226145   1.788   0.240  16.836  0.5242  1.1725 -0.5157
 4896SOL     OW26146   1.017   4.374  17.210 -0.4787  0.7707  0.5243
 4896SOL    HW126147   0.952   4.317  17.170 -0.1588 -0.9689  2.4868
 4896SOL    HW226148   0.991   4.354  17.300  0.0671 -0.7445  0.3489
 4897SOL     OW26149   3.953   1.039  10.419 -0.1220  0.4729  0.3665
 4897SOL    HW126150   3.910   1.015  10.337  1.3623 -0.5832 -0.1147
 4897SOL    HW226151   4.043   1.054  10.390  0.0517 -1.2835  0.0201
 4898SOL     OW26152   4.383   2.690   1.713 -0.6310 -0.0304 -0.0630
 4898SOL    HW126153   4.392   2.613   1.769  0.8394  2.0348  2.5175
 4898SOL    HW226154   4.397   2.762   1.775 -1.8229  0.7151 -0.6495
 4899SOL     OW26155   2.437   2.003   0.089 -0.2731  0.3550 -0.1415
 4899SOL    HW126156   2.492   2.025   0.013 -0.6417 -4.8357 -1.9187
 4899SOL    HW226157   2.369   2.070   0.083 -1.0588 -0.4851 -0.5856
 4900SOL     OW26158   4.166   1.518  15.635 -0.1161  0.1772 -0.0124
 4900SOL    HW126159   4.152   1.610  15.614  0.0307 -0.3953 -2.7043
 4900SOL    HW226160   4.235   1.528  15.701  0.5225  0.4541 -0.7234
 4901SOL     OW26161   1.242   2.346   8.469  0.7912  0.2814  0.4597
 4901SOL    HW126162   1.195   2.310   8.544 -0.9418 -0.7266 -1.1024
 4901SOL    HW226163   1.293   2.420   8.502  2.2020 -1.1431  1.4878
 4902SOL     OW26164   3.324   3.568   4.302  0.6811  0.2761 -0.0137
 4902SOL    HW126165   3.320   3.580   4.397 -0.1870  2.2245 -0.3022
 4902SOL    HW226166   3.297   3.653   4.270  0.6596 -1.4409 -4.5754
 4903SOL     OW26167   0.611   0.048   6.655 -0.6307 -0.1344 -0.1846
 4903SOL    HW126168   0.537   0.013   6.704  0.3212  0.9773  2.0611
 4903SOL    HW226169   0.683   0.055   6.717 -1.5116 -0.2981  0.8660
 4904SOL     OW26170   0.549   3.577   2.599  0.0088  0.1697  0.2200
 4904SOL    HW126171   0.524   3.535   2.517  3.4177 -2.1816  0.4048
 4904SOL    HW226172   0.641   3.596   2.583 -0.5465  2.7711  0.1820
 4905SOL     OW26173   3.152   2.294   4.854  0.4820  0.0696 -0.4714
 4905SOL    HW126174   3.082   2.359   4.839  2.0027  2.1465  1.4945
 4905SOL    HW226175   3.235   2.342   4.857  1.3315 -1.4854  0.3858
 4906SOL     OW26176   2.028   2.347   5.028  0.8393  0.3153 -0.9618
 4906SOL    HW126177   1.982   2.308   5.102  1.4943 -2.9957 -2.2825
 4906SOL    HW226178   1.952   2.366   4.973  0.2996  1.2505  0.1199
 4907SOL     OW26179   2.140   4.517   3.995 -0.1695 -0.6529  0.1408
 4907SOL    HW126180   2.100   4.600   4.022 -1.2705 -1.8124  2.0474
 4907SOL    HW226181   2.097   4.503   3.910 -1.3609  1.3331  0.4037
 4908SOL     OW26182   0.718   2.243   0.747 -0.3046  0.4555  0.0176
 4908SOL    HW126183   0.623   2.251   0.733 -0.3458  3.9885  2.1321
 4908SOL    HW226184   0.710   2.187   0.825  0.7207 -0.8978 -0.8638
 4909SOL     OW26185   1.230   4.098   2.076  0.4418 -0.0068 -0.2262
 4909SOL    HW126186   1.262   4.171   2.024  0.3650  0.1783 -0.0105
 4909SOL    HW226187   1.261   4.125   2.163  0.5626 -0.1827 -0.2122
 4910SOL     OW26188   1.298   2.772   7.331 -0.4424  0.0340  0.2214
 4910SOL    HW126189   1.293   2.682   7.363  1.6492 -0.4434 -0.7728
 4910SOL    HW226190   1.212   2.795   7.294 -1.0798  3.1969  3.6896
 4911SOL     OW26191   3.394   2.037  10.514  0.5238  0.0822  0.3753
 4911SOL    HW126192   3.471   2.027  10.570  0.8877 -0.9206 -0.3017
 4911SOL    HW226193   3.353   2.105  10.566  2.2925  0.5961  1.0988
 4912SOL     OW26194   4.590   1.228   4.986  0.1661 -0.7683  0.4739
 4912SOL    HW126195   4.560   1.138   4.991 -2.2571  0.0728  0.9556
 4912SOL    HW226196   4.683   1.215   4.967  0.2662 -0.6126  0.8496
 4913SOL     OW26197   3.623   0.496   5.032 -0.1550 -0.1793  0.1150
 4913SOL    HW126198   3.555   0.561   5.049  1.6953  1.6097  0.6786
 4913SOL    HW226199   3.574   0.418   5.057 -4.1623  1.7374 -1.7642
 4914SOL     OW26200   0.211   2.996  12.849  0.1289 -0.0374 -0.1252
 4914SOL    HW126201   0.219   3.090  12.867  1.6523 -0.1049 -0.4297
 4914SOL    HW226202   0.118   2.990  12.871  0.3192  0.2612  0.7784
 4915SOL     OW26203   2.463   0.775   0.903  0.3972 -0.1198 -0.1253
 4915SOL    HW126204   2.411   0.775   0.984  2.0367  2.8150  0.8939
 4915SOL    HW226205   2.551   0.795   0.934  1.2227 -0.5651 -2.1950
 4916SOL     OW26206   1.620   3.456   6.773  0.4558 -0.4194  0.5768
 4916SOL    HW126207   1.636   3.464   6.679 -1.2680 -2.7881  0.0517
 4916SOL    HW226208   1.691   3.501   6.818 -0.3442  0.5072  0.9273
 4917SOL     OW26209   1.193   2.954   8.104  0.0254 -0.6340 -0.2030
 4917SOL    HW126210   1.144   2.938   8.023 -4.4150  1.5562  2.0895
 4917SOL    HW226211   1.151   3.031   8.142 -1.3679 -1.1559 -0.7039
 4918SOL     OW26212   1.838   1.245   4.212  0.0422  0.5391 -0.0353
 4918SOL    HW126213   1.860   1.305   4.141 -0.2596  0.6605 -0.0274
 4918SOL    HW226214   1.847   1.316   4.276 -2.3533  0.0986  0.7944
 4919SOL     OW26215   2.507   2.311   8.938 -0.2987  0.2878 -0.5406
 4919SOL    HW126216   2.543   2.268   9.016 -0.7113 -1.1876 -1.1619
 4919SOL    HW226217   2.552   2.256   8.873 -1.5489  0.1879 -1.3230
 4920SOL     OW26218   4.652   4.538   4.505  0.4759  0.8382 -0.5897
 4920SOL    HW126219   4.595   4.478   4.458 -2.2485  1.9097  1.3284
 4920SOL    HW226220   4.590   4.606   4.533  0.3466  0.3608  0.2633
 4921SOL     OW26221   3.060   2.263  11.804  0.3647 -0.5622  0.2222
 4921SOL    HW126222   3.105   2.292  11.884  3.4346  1.7701 -2.3861
 4921SOL    HW226223   3.080   2.171  11.786  0.5335 -0.7723  1.4207
 4922SOL     OW26224   3.914   4.707  11.715  0.1623  0.3507  0.8766
 4922SOL    HW126225   3.972   4.692  11.790 -0.7367  0.8771  1.6824
 4922SOL    HW226226   3.841   0.024  11.763 -1.8684 -0.1248 -1.8449
 4923SOL     OW26227   3.451   2.271   8.156 -0.5737  0.0242  0.6811
 4923SOL    HW126228   3.396   2.201   8.189 -1.9148  0.8786  0.2628
 4923SOL    HW226229   3.481   2.227   8.077 -0.3991 -0.4379  1.0087
 4924SOL     OW26230   4.440   2.767  13.172  0.1537  0.1313 -0.0299
 4924SOL    HW126231   4.357   2.805  13.142 -0.4839 -0.7495  0.6200
 4924SOL    HW226232   4.489   2.849  13.177  1.4146 -0.6798  0.8709
 4925SOL     OW26233   0.892   1.545   8.942 -0.0713  0.0208  0.7248
 4925SOL    HW126234   0.928   1.544   9.030  2.4945  3.3845 -0.2608
 4925SOL    HW226235   0.955   1.483   8.906 -0.4941  0.2719 -0.4692
 4926SOL     OW26236   0.048   4.480   4.773  0.1355 -0.2872  0.3095
 4926SOL    HW126237   0.084   4.568   4.761 -4.9739  1.8910  0.8353
 4926SOL    HW226238   4.713   4.483   4.696  0.0530  1.0429  0.4221
 4927SOL     OW26239   1.921   1.985   2.760 -0.5270  0.1643 -0.3131
 4927SOL    HW126240   1.855   1.923   2.729 -1.6414  0.6918  0.9850
 4927SOL    HW226241   1.900   1.992   2.854  2.1175  1.0132  0.2089
 4928SOL     OW26242   4.591   1.657   7.640  0.0596 -0.3494 -0.0180
 4928SOL    HW126243   4.596   1.744   7.601 -0.9672  0.5300  1.7741
 4928SOL    HW226244   4.675   1.639   7.681  0.0491  0.1313  0.2120
 4929SOL     OW26245   3.439   3.705  14.733 -0.3220  0.0501 -0.2927
 4929SOL    HW126246   3.438   3.656  14.650 -0.6923  0.1211 -0.3308
 4929SOL    HW226247   3.505   3.654  14.779  0.7075  0.5889 -1.1453
 4930SOL     OW26248   4.419   0.692   6.513 -0.0354  0.2630  0.3088
 4930SOL    HW126249   4.399   0.678   6.421 -1.1706  3.3047  0.0921
 4930SOL    HW226250   4.336   0.719   6.553  0.5909  0.7333  1.3003
 4931SOL     OW26251   0.002   2.975   3.795  0.2723 -0.0086 -0.0716
 4931SOL    HW126252   0.024   3.035   3.866 -0.8331  2.4294 -1.7834
 4931SOL    HW226253   0.077   2.986   3.735  1.0883  0.0087  0.9479
 4932SOL     OW26254   0.416   3.587   2.834 -0.8165  0.3256 -0.3930
 4932SOL    HW126255   0.459   3.592   2.748 -2.9270  0.5788 -1.4198
 4932SOL    HW226256   0.495   3.556   2.878  0.0283 -1.1033 -2.8913
 4933SOL     OW26257   4.402   1.728   7.356 -0.0231  0.5178 -0.1463
 4933SOL    HW126258   4.363   1.810   7.386 -3.2933 -1.2772  0.4438
 4933SOL    HW226259   4.494   1.752   7.367  0.0442  0.3276 -0.3068
 4934SOL     OW26260   4.052   4.646  14.660  0.8046 -0.1122 -0.3301
 4934SOL    HW126261   4.035   4.580  14.594 -0.7686 -0.9297  0.8929
 4934SOL    HW226262   3.990   4.610  14.723  2.2026 -2.1611 -0.1415
 4935SOL     OW26263   1.048   0.589   0.717 -0.5016 -0.0763  0.4068
 4935SOL    HW126264   1.013   0.556   0.635 -0.3662 -1.5195  0.9342
 4935SOL    HW226265   1.077   0.517   0.773  2.6143  1.0865  0.2895
 4936SOL     OW26266   3.508   0.217   8.315  0.2688 -0.6268 -0.4381
 4936SOL    HW126267   3.568   0.290   8.322 -2.3794  1.5289 -0.1204
 4936SOL    HW226268   3.495   0.184   8.404 -0.1890 -3.6783 -1.6156
 4937SOL     OW26269   0.661   1.948   1.389 -0.1099 -0.4183  0.6196
 4937SOL    HW126270   0.610   1.945   1.308  0.5909 -0.9826  0.1953
 4937SOL    HW226271   0.629   1.865   1.425  0.6326 -0.5440  0.9908
 4938SOL     OW26272   2.746   2.200  16.157 -0.7729  0.4518 -0.2572
 4938SOL    HW126273   2.678   2.265  16.138 -1.4279  0.1487  1.0289
 4938SOL    HW226274   2.716   2.120  16.113 -0.0916  0.6934 -1.1515
 4939SOL     OW26275   2.119   0.525   2.215  0.4900 -0.2002 -0.2271
 4939SOL    HW126276   2.208   0.530   2.180  0.6994 -0.2029  0.3024
 4939SOL    HW226277   2.146   0.517   2.306  0.5417 -0.5929 -0.2785
 4940SOL     OW26278   1.434   1.883   8.527  0.0538  0.3612 -0.0938
 4940SOL    HW126279   1.415   1.851   8.616  0.4055 -0.8483 -0.4481
 4940SOL    HW226280   1.374   1.957   8.532  0.3019  0.7145 -2.2847
 4941SOL     OW26281   4.115   3.782  11.607 -0.0234  0.2956  0.2749
 4941SOL    HW126282   4.137   3.796  11.515 -1.7628 -0.1032 -0.1909
 4941SOL    HW226283   4.021   3.798  11.609  0.3919  2.8060  0.2943
 4942SOL     OW26284   1.681   3.526   9.783  0.9060  0.1393  0.6873
 4942SOL    HW126285   1.683   3.488   9.695  1.1034  0.4188  0.5712
 4942SOL    HW226286   1.589   3.555   9.786  0.2853 -1.7159 -0.3677
 4943SOL     OW26287   1.585   0.391   6.569  0.2937 -0.4972  0.1754
 4943SOL    HW126288   1.616   0.447   6.498  2.2155 -2.3959 -0.4750
 4943SOL    HW226289   1.641   0.315   6.555 -0.0096 -0.5912 -0.5174
 4944SOL     OW26290   0.605   1.389   2.982 -0.1210  0.1717  0.1305
 4944SOL    HW126291   0.689   1.345   2.977  0.9884  1.8578  4.4085
 4944SOL    HW226292   0.556   1.355   2.907  0.8056 -1.7809  0.4238
 4945SOL     OW26293   2.069   2.607   8.583 -0.1490  0.2226  0.0033
 4945SOL    HW126294   2.093   2.599   8.675 -3.1094  1.0842  0.8608
 4945SOL    HW226295   2.115   2.687   8.558 -2.4357  0.8395 -2.2239
 4946SOL     OW26296   2.235   3.797   6.537  0.3607  0.5424  0.1764
 4946SOL    HW126297   2.230   3.873   6.596  1.7610  1.2838 -0.6565
 4946SOL    HW226298   2.173   3.742   6.585  0.4751  0.5747  0.3586
 4947SOL     OW26299   2.982   4.423  14.183  0.0464  0.2500 -0.1574
 4947SOL    HW126300   3.077   4.426  14.195 -0.2624  0.5109  2.2401
 4947SOL    HW226301   2.953   4.417  14.274 -0.2887 -0.7049 -0.3325
 4948SOL     OW26302   2.725   0.838  13.136 -0.4441 -0.0936  0.0725
 4948SOL    HW126303   2.757   0.918  13.095  1.3747 -0.3486  1.0012
 4948SOL    HW226304   2.635   0.870  13.146 -0.6681 -0.7447  0.1115
 4949SOL     OW26305   4.005   2.234   5.262  0.8873 -0.0230  0.1686
 4949SOL    HW126306   4.000   2.139   5.260  0.5935  0.0527 -2.1580
 4949SOL    HW226307   3.928   2.262   5.312  0.6874 -1.0832  0.4438
 4950SOL     OW26308   0.213   0.299   8.655  0.0074 -0.3720 -0.1161
 4950SOL    HW126309   0.158   0.244   8.711 -1.1265 -0.1237 -0.9866
 4950SOL    HW226310   0.167   0.378   8.686  1.7380  0.7751 -0.4335
 4951SOL     OW26311   4.357   2.082   9.946  0.4085  0.3036  0.3415
 4951SOL    HW126312   4.450   2.096   9.925  0.2039 -0.6163 -1.2313
 4951SOL    HW226313   4.315   2.149   9.891  1.3960  0.6436 -0.0058
 4952SOL     OW26314   4.665   0.696   0.249 -0.0147 -0.1241  0.0268
 4952SOL    HW126315   0.012   0.630   0.232 -0.2378 -0.9577  2.2903
 4952SOL    HW226316   0.003   0.766   0.276 -0.6175  0.0164  0.9843
 4953SOL     OW26317   1.368   0.707   5.937 -0.4534 -0.4468  1.1448
 4953SOL    HW126318   1.348   0.694   6.030  0.2229  0.5610  1.4268
 4953SOL    HW226319   1.427   0.633   5.921 -0.6052 -0.7583  1.9942
 4954SOL     OW26320   1.978   3.621   0.283 -0.4954  0.1809  0.1967
 4954SOL    HW126321   1.978   3.631   0.378  0.1475  1.1263  0.0906
 4954SOL    HW226322   1.936   3.704   0.260 -1.2425  0.2826  1.9296
 4955SOL     OW26323   2.514   2.479   4.031 -0.5044 -0.1736  0.2556
 4955SOL    HW126324   2.470   2.401   3.996  0.1270 -1.4704  2.3294
 4955SOL    HW226325   2.499   2.462   4.125 -1.4241  2.9454  0.6617
 4956SOL     OW26326   2.369   3.247   2.809 -0.2064  0.2321 -0.5215
 4956SOL    HW126327   2.295   3.189   2.828  0.4698  0.3138  2.2315
 4956SOL    HW226328   2.322   3.315   2.761  0.4874  0.0368 -1.4927
 4957SOL     OW26329   2.249   2.531   0.012  0.0034  0.1681 -0.3825
 4957SOL    HW126330   2.221   2.573  17.618  2.3226 -0.4157 -1.4817
 4957SOL    HW226331   2.279   2.603   0.068 -0.6947 -0.6149  0.9859
 4958SOL     OW26332   2.301   0.291   7.599 -0.2295 -0.1793  0.2054
 4958SOL    HW126333   2.344   0.292   7.513 -1.1412 -3.3171 -0.3129
 4958SOL    HW226334   2.247   0.212   7.591  1.3998 -1.2780 -0.1976
 4959SOL     OW26335   4.642   2.231  10.981  0.2573  0.0450 -0.0607
 4959SOL    HW126336   0.005   2.199  11.014  0.0920 -0.7594 -0.4063
 4959SOL    HW226337   4.602   2.151  10.946  0.4825 -0.4038  0.6979
 4960SOL     OW26338   2.657   1.839   7.906 -0.1799 -0.2318  0.6442
 4960SOL    HW126339   2.677   1.810   7.995 -2.1112  1.4177  1.6300
 4960SOL    HW226340   2.653   1.934   7.921  1.5130  0.0367 -0.6292
 4961SOL     OW26341   2.454   4.707  14.533 -0.0970  0.7063 -0.2869
 4961SOL    HW126342   2.407   0.019  14.609  0.3040  2.3927 -0.7615
 4961SOL    HW226343   2.439   0.055  14.468 -0.8444  1.3824  0.6069
 4962SOL     OW26344   3.630   1.538  11.879  0.1812  0.0204 -0.0452
 4962SOL    HW126345   3.628   1.446  11.904  2.1464 -0.5377 -1.9252
 4962SOL    HW226346   3.543   1.550  11.841 -0.1432 -2.3471 -0.0463
 4963SOL     OW26347   4.000   2.898  12.611 -0.1850 -0.2739 -0.2993
 4963SOL    HW126348   4.064   2.925  12.544  2.2809 -0.6507  1.8903
 4963SOL    HW226349   4.036   2.812  12.633 -0.2434 -0.9725 -2.8855
 4964SOL     OW26350   1.311   2.932   4.972  0.0103  0.5318  0.1742
 4964SOL    HW126351   1.384   2.992   4.983 -0.3995  1.0563  0.0529
 4964SOL    HW226352   1.308   2.930   4.877 -1.7735  0.4409  0.2319
 4965SOL     OW26353   0.537   0.812   9.082  0.0211  0.7800 -0.0862
 4965SOL    HW126354   0.529   0.875   9.154  1.0876 -0.6503  1.2632
 4965SOL    HW226355   0.632   0.801   9.082 -0.3220 -1.9572  2.5995
 4966SOL     OW26356   0.514   1.259   0.214 -0.9691 -0.3046  0.2282
 4966SOL    HW126357   0.442   1.278   0.274 -2.0927  0.2608 -1.2959
 4966SOL    HW226358   0.496   1.176   0.169 -3.9688 -1.5021  3.6253
 4967SOL     OW26359   1.542   2.657   9.060 -0.3222  0.3294 -0.2284
 4967SOL    HW126360   1.527   2.632   8.969  0.4568 -0.0616 -0.2438
 4967SOL    HW226361   1.515   2.749   9.060 -1.9161 -0.1251  0.5060
 4968SOL     OW26362   2.677   1.183   2.502  0.6429  0.2041  0.2357
 4968SOL    HW126363   2.714   1.099   2.475 -0.2405  0.0738 -0.5630
 4968SOL    HW226364   2.706   1.242   2.433 -0.9399  0.2663 -0.3730
 4969SOL     OW26365   0.553   3.016   3.481  0.1698 -0.0948 -0.5115
 4969SOL    HW126366   0.530   3.069   3.557  0.3206  1.2450 -1.4021
 4969SOL    HW226367   0.648   3.004   3.491 -0.1236 -0.7065  1.5128
 4970SOL     OW26368   1.809   2.993   5.646 -0.2417 -0.0784  0.5366
 4970SOL    HW126369   1.900   3.015   5.626  0.4704 -1.9044  1.7866
 4970SOL    HW226370   1.801   2.902   5.619  1.1489  0.1166 -0.5167
 4971SOL     OW26371   3.226   1.220   7.007 -0.1083 -0.1653 -0.0699
 4971SOL    HW126372   3.196   1.257   6.923  0.5517  0.8872  0.1584
 4971SOL    HW226373   3.141   1.195   7.043  0.8076 -1.8105  0.9231
 4972SOL     OW26374   0.587   2.253   9.092 -0.2415  0.4547 -0.1301
 4972SOL    HW126375   0.627   2.288   9.012 -2.1798 -1.9620 -2.1627
 4972SOL    HW226376   0.507   2.304   9.102 -1.9547 -1.6296 -3.4250
 4973SOL     OW26377   3.765   2.500  12.803  0.4112 -0.0463  0.3143
 4973SOL    HW126378   3.766   2.404  12.812 -1.3591 -0.0726  0.2300
 4973SOL    HW226379   3.685   2.515  12.753  0.0828  1.1206  1.1985
 4974SOL     OW26380   3.265   0.690   0.725  0.1301  0.5364 -0.5886
 4974SOL    HW126381   3.324   0.762   0.746  0.7595 -0.3743  0.8045
 4974SOL    HW226382   3.208   0.738   0.666  1.4096  0.8080 -1.5788
 4975SOL     OW26383   3.790   3.620   0.776 -0.0149  0.1592  0.7360
 4975SOL    HW126384   3.859   3.686   0.784  0.7457 -0.5931  0.4040
 4975SOL    HW226385   3.801   3.564   0.852 -1.5599 -0.0173  0.8239
 4976SOL     OW26386   0.559   0.011   5.998  0.2387 -0.4314 -0.3788
 4976SOL    HW126387   0.589   0.101   6.011  1.9815 -0.9840 -0.4921
 4976SOL    HW226388   0.591   4.688   6.077 -0.0878 -1.3020 -0.7372
 4977SOL     OW26389   2.124   1.646   1.686 -0.1163 -0.1236 -0.4547
 4977SOL    HW126390   2.151   1.706   1.755  3.2354 -0.4075 -1.5450
 4977SOL    HW226391   2.206   1.644   1.637 -0.5715 -2.2580 -1.1485
 4978SOL     OW26392   3.008   4.093   1.349  0.1364 -0.2310 -0.6232
 4978SOL    HW126393   3.057   4.013   1.371  2.2193  1.2056 -0.0750
 4978SOL    HW226394   3.060   4.159   1.395  1.7088 -0.5547 -1.9387
 4979SOL     OW26395   4.710   1.993  13.436 -0.1911  0.1494  0.1140
 4979SOL    HW126396   4.693   1.924  13.372  0.7471 -0.2701  0.3219
 4979SOL    HW226397   4.674   2.076  13.405  1.5193  0.3057 -1.3706
 4980SOL     OW26398   3.538   3.137   9.042  0.1524  0.2836  0.4049
 4980SOL    HW126399   3.629   3.105   9.036  0.0019 -0.1117  0.2298
 4980SOL    HW226400   3.486   3.059   9.063 -1.4974  0.9337 -1.3583
 4981SOL     OW26401   0.150   3.388   5.428  0.1480 -0.0156  0.0065
 4981SOL    HW126402   0.225   3.438   5.395 -0.5684 -0.2632 -1.9511
 4981SOL    HW226403   0.102   3.363   5.349 -1.5760  1.4670  0.5846
 4982SOL     OW26404   0.091   0.533   0.046  0.1791 -0.3452 -0.2209
 4982SOL    HW126405   0.121   0.445   0.070  0.8256 -0.2727 -0.7567
 4982SOL    HW226406   0.065   0.510  17.643 -0.7955  0.8875 -0.2543
 4983SOL     OW26407   2.784   1.964   4.287  0.6290 -0.3325 -0.1268
 4983SOL    HW126408   2.722   1.899   4.321  2.0775 -1.9267 -0.5495
 4983SOL    HW226409   2.729   2.037   4.259  0.1937 -0.0186  1.5611
 4984SOL     OW26410   3.954   1.691   7.669  0.7405 -0.1253 -0.1521
 4984SOL    HW126411   3.873   1.641   7.677  0.7962 -0.3544 -1.0425
 4984SOL    HW226412   3.919   1.780   7.673  0.8115 -0.0716 -0.6557
 4985SOL     OW26413   0.256   0.860   4.679 -0.0365 -0.1065 -0.0862
 4985SOL    HW126414   0.338   0.827   4.716  0.2526  1.1536  0.4133
 4985SOL    HW226415   0.232   0.790   4.619 -0.3629 -0.4882  0.4829
 4986SOL     OW26416   3.672   0.883   6.146  0.0792 -0.3212  0.0135
 4986SOL    HW126417   3.722   0.888   6.227  1.1711  3.3456 -0.8818
 4986SOL    HW226418   3.677   0.793   6.115  1.9763 -0.2701  0.1852
 4987SOL     OW26419   1.858   0.196  12.232 -0.2658 -0.2844  0.4484
 4987SOL    HW126420   1.812   0.112  12.233 -0.9032  0.0748  1.0980
 4987SOL    HW226421   1.942   0.170  12.194 -0.7921 -0.3500 -0.6538
 4988SOL     OW26422   1.399   3.328   5.724 -0.4161  0.0955  0.2292
 4988SOL    HW126423   1.386   3.399   5.661 -1.1970  0.6305  0.9881
 4988SOL    HW226424   1.455   3.370   5.789 -1.1981  0.1376  0.8852
 4989SOL     OW26425   4.697   0.325   2.238  0.4362 -0.3014 -0.1127
 4989SOL    HW126426   4.605   0.346   2.220  0.8559  1.9978  0.4287
 4989SOL    HW226427   0.020   0.390   2.183 -0.4550  1.3293  1.1219
 4990SOL     OW26428   3.827   0.951   0.917 -0.3244  1.1391 -0.8635
 4990SOL    HW126429   3.855   0.935   0.827 -2.2355 -0.4692 -1.1617
 4990SOL    HW226430   3.872   0.879   0.961 -2.6634  0.8426  1.0797
 4991SOL     OW26431   2.651   1.506   6.133  0.1166 -0.6826  0.2830
 4991SOL    HW126432   2.644   1.414   6.110 -3.6900 -0.1329 -0.8006
 4991SOL    HW226433   2.696   1.540   6.056 -0.6982 -3.4946 -1.4086
 4992SOL     OW26434   3.925   4.617   5.443  0.7103  0.2583  0.0813
 4992SOL    HW126435   3.914   4.534   5.491 -0.6445  0.6134  0.4108
 4992SOL    HW226436   3.874   4.671   5.504 -1.3592 -0.3990 -1.0672
 4993SOL     OW26437   3.524   2.892   7.932 -0.1743 -0.2016 -0.7675
 4993SOL    HW126438   3.449   2.936   7.970  1.1793 -1.4793  3.4057
 4993SOL    HW226439   3.586   2.914   8.002 -2.0720 -0.4949  1.0024
 4994SOL     OW26440   3.162   0.671  17.423 -0.7542  0.6923  0.1738
 4994SOL    HW126441   3.125   0.738  17.480 -1.5474 -0.0573  0.5514
 4994SOL    HW226442   3.138   0.705  17.337  0.0057  1.0940  0.1261
 4995SOL     OW26443   0.241   2.270   6.263 -0.0573 -0.0159  0.0744
 4995SOL    HW126444   0.233   2.362   6.237 -0.1572 -0.2817 -0.8339
 4995SOL    HW226445   0.165   2.252   6.320  1.1545  0.2938  1.7842
 4996SOL     OW26446   3.981   1.529  14.666  0.0125 -0.0760 -0.3474
 4996SOL    HW126447   3.934   1.588  14.726 -0.6354 -1.7947  0.8358
 4996SOL    HW226448   4.067   1.533  14.707 -0.2815  0.2043  0.2371
 4997SOL     OW26449   4.338   1.366   3.294 -0.2319  0.1821 -0.4065
 4997SOL    HW126450   4.377   1.376   3.208 -1.3047 -0.9978 -1.0225
 4997SOL    HW226451   4.413   1.342   3.349 -0.8107 -1.9820 -0.5908
 4998SOL     OW26452   3.065   3.092   1.316  0.0598  0.0657 -0.6455
 4998SOL    HW126453   3.013   3.060   1.390  1.9407 -0.1360  0.6008
 4998SOL    HW226454   3.059   3.187   1.323 -3.3804 -0.2606  1.0077
 4999SOL     OW26455   2.107   2.784   6.921 -0.0246 -0.1197 -0.0895
 4999SOL    HW126456   2.136   2.725   6.990  0.7247  0.3523 -0.0027
 4999SOL    HW226457   2.119   2.870   6.963  0.2007 -0.0747 -0.2438
 5000SOL     OW26458   3.648   3.640   1.160 -0.0907 -0.1872 -0.2881
 5000SOL    HW126459   3.600   3.558   1.176 -2.6826  1.6468  1.2248
 5000SOL    HW226460   3.601   3.690   1.094  1.4846  1.1851 -0.3509
 5001SOL     OW26461   4.424   3.495  15.193 -0.3931  0.1808  0.3014
 5001SOL    HW126462   4.427   3.502  15.288 -0.7482 -2.7753  0.5173
 5001SOL    HW226463   4.507   3.539  15.178  0.4130 -1.6141 -0.4502
 5002SOL     OW26464   0.394   3.479  15.185 -0.1221 -0.4728 -0.6146
 5002SOL    HW126465   0.434   3.489  15.099 -0.6963 -1.3177 -0.9845
 5002SOL    HW226466   0.367   3.388  15.174 -0.7658  0.0679 -3.3247
 5003SOL     OW26467   1.739   2.775   7.112  0.2306  0.0582  0.1911
 5003SOL    HW126468   1.789   2.776   7.194  1.6710 -1.7269 -0.6608
 5003SOL    HW226469   1.655   2.741   7.142  0.7701  0.0118  1.6746
 5004SOL     OW26470   3.393   0.173   3.061 -0.5228 -0.3239 -0.1927
 5004SOL    HW126471   3.469   0.118   3.046 -1.1178 -0.5381 -2.4561
 5004SOL    HW226472   3.321   0.113   3.041 -0.8809  0.4615 -1.3045
 5005SOL     OW26473   2.968   4.420  13.609  0.3398  0.3433 -0.4451
 5005SOL    HW126474   2.884   4.465  13.608  0.4449  0.4796 -2.7712
 5005SOL    HW226475   2.932   4.332  13.620 -1.2116  1.2917  2.0203
 5006SOL     OW26476   0.310   0.931  17.552 -0.1851 -0.2488 -0.2599
 5006SOL    HW126477   0.278   0.884  17.628  1.3718 -2.6798 -1.0987
 5006SOL    HW226478   0.290   1.024  17.561  0.3014 -0.4346  2.8062
 5007SOL     OW26479   4.036   4.000   7.393  0.0950 -0.1518 -0.0182
 5007SOL    HW126480   3.948   3.967   7.374 -0.9997  0.8851  3.3479
 5007SOL    HW226481   4.072   4.038   7.313 -1.1092  0.5807 -0.2065
 5008SOL     OW26482   3.642   3.276   6.413  0.3721 -0.7179 -0.1144
 5008SOL    HW126483   3.561   3.266   6.463  0.2510 -1.9746 -0.5417
 5008SOL    HW226484   3.619   3.344   6.350  0.5524  1.5944  2.3302
 5009SOL     OW26485   1.233   2.882   6.268  0.1366  1.0249 -0.1027
 5009SOL    HW126486   1.291   2.818   6.308  0.7242  0.3516 -1.9914
 5009SOL    HW226487   1.153   2.829   6.266  1.4406 -0.8732 -1.9369
 5010SOL     OW26488   1.958   3.577   1.282  0.4640  0.3014 -0.0163
 5010SOL    HW126489   1.864   3.565   1.298  1.0510 -3.9150  0.1068
 5010SOL    HW226490   1.986   3.632   1.355  0.0043  1.3692 -0.6356
 5011SOL     OW26491   0.302   0.485   7.403  0.2508  0.3313 -0.6766
 5011SOL    HW126492   0.379   0.431   7.385 -1.2715 -2.6512  1.7581
 5011SOL    HW226493   0.324   0.536   7.480 -0.2276  0.2494 -0.4835
 5012SOL     OW26494   2.052   4.629   6.513  0.0390  0.0585 -0.0855
 5012SOL    HW126495   2.053   4.704   6.453 -1.7730  1.6318  1.8841
 5012SOL    HW226496   2.142   4.637   6.542  0.2431  1.1656 -1.0094
 5013SOL     OW26497   2.048   3.844  10.389 -0.0872  0.6079 -0.1026
 5013SOL    HW126498   2.062   3.918  10.331  1.9386  0.3688  0.0665
 5013SOL    HW226499   1.984   3.870  10.455 -0.9692 -3.8526  0.7857
 5014SOL     OW26500   4.579   0.721   7.383  0.5841 -0.5677 -0.4583
 5014SOL    HW126501   4.631   0.758   7.454  0.7774 -1.9774  0.1360
 5014SOL    HW226502   4.509   0.787   7.383 -1.1898 -2.4404  1.0320
 5015SOL     OW26503   3.241   4.389   3.028  0.1222 -0.0564  0.0058
 5015SOL    HW126504   3.242   4.304   3.072 -2.2711 -0.1176 -0.0261
 5015SOL    HW226505   3.323   4.383   2.980 -0.4939 -2.2339 -0.7791
 5016SOL     OW26506   4.419   0.021   5.848  0.2139  0.1558  0.4334
 5016SOL    HW126507   4.495   4.708   5.802 -0.6912  1.0043 -1.7050
 5016SOL    HW226508   4.350   4.677   5.833  1.2239 -0.2594 -2.4310
 5017SOL     OW26509   3.077   4.380  12.388 -0.5796 -0.4965  0.3828
 5017SOL    HW126510   3.024   4.382  12.467 -2.4369  0.9453 -0.9181
 5017SOL    HW226511   3.018   4.384  12.313 -1.2204 -0.3923  0.9009
 5018SOL     OW26512   4.240   1.886  10.731 -0.0849 -0.2086  0.0227
 5018SOL    HW126513   4.222   1.961  10.788  1.7890 -0.5378  1.0487
 5018SOL    HW226514   4.171   1.828  10.763  1.5707 -0.9268  2.3107
 5019SOL     OW26515   1.313   0.322   8.981  0.1064  0.6893 -0.5351
 5019SOL    HW126516   1.306   0.273   9.063 -3.7659  2.7092  0.3769
 5019SOL    HW226517   1.225   0.361   8.979  0.3643  1.2581 -0.7926
 5020SOL     OW26518   0.784   4.708   8.072 -0.5298 -0.2674 -0.6101
 5020SOL    HW126519   0.848   4.670   8.132  0.3545  2.8338  0.4337
 5020SOL    HW226520   0.701   4.697   8.119  0.6642 -0.2023  1.4971
 5021SOL     OW26521   0.188   3.640  13.177 -0.2985  0.5153  0.4401
 5021SOL    HW126522   0.224   3.720  13.138  0.0257  0.0496 -0.2070
 5021SOL    HW226523   0.219   3.656  13.267  0.2949  2.7773 -0.1670
 5022SOL     OW26524   3.767   0.842   3.131  0.4921  0.4051 -0.0388
 5022SOL    HW126525   3.727   0.804   3.209  1.2673 -0.7141 -0.1969
 5022SOL    HW226526   3.832   0.776   3.107  1.1049  1.3006 -0.8412
 5023SOL     OW26527   0.399   2.934   5.073 -0.1146  0.3159  0.0850
 5023SOL    HW126528   0.400   2.935   5.169  0.7412 -0.9738  0.0814
 5023SOL    HW226529   0.336   2.863   5.064  0.4392 -0.4003  1.9918
 5024SOL     OW26530   4.440   4.157   2.751 -0.6669  0.4606  0.5263
 5024SOL    HW126531   4.431   4.090   2.683  0.1581 -1.1372  2.0023
 5024SOL    HW226532   4.474   4.096   2.816  1.1177  0.6411 -0.2511
 5025SOL     OW26533   1.352   2.935   0.545 -0.1276  0.3740 -0.4912
 5025SOL    HW126534   1.292   3.006   0.568  0.4457  1.3703 -2.0277
 5025SOL    HW226535   1.331   2.868   0.609 -0.9266  1.2817  0.2024
 5026SOL     OW26536   0.488   2.199   5.480  0.3924 -0.2914  0.3437
 5026SOL    HW126537   0.484   2.197   5.384  1.4154 -0.4224  0.2979
 5026SOL    HW226538   0.435   2.273   5.508  0.2443 -0.4147  0.3936
 5027SOL     OW26539   1.668   3.116  11.878 -0.4395 -0.3311  0.2060
 5027SOL    HW126540   1.736   3.063  11.920 -1.0591  0.7184  2.5061
 5027SOL    HW226541   1.667   3.195  11.933  3.5913  0.0976 -0.3183
 5028SOL     OW26542   1.503   2.125   4.937 -0.6223  0.6609  0.4177
 5028SOL    HW126543   1.474   2.215   4.920 -0.8447  0.5416  0.1810
 5028SOL    HW226544   1.487   2.107   5.030 -1.8467  1.3702  0.3442
 5029SOL     OW26545   0.666   3.238   2.582 -0.0919 -0.2780 -0.2116
 5029SOL    HW126546   0.758   3.246   2.554 -0.2218  0.6205 -0.3706
 5029SOL    HW226547   0.671   3.221   2.676  1.9683  1.4853  0.0168
 5030SOL     OW26548   0.456   3.960   8.359 -0.1892 -0.5217  0.2263
 5030SOL    HW126549   0.452   3.877   8.407 -0.7198 -0.2611  0.6352
 5030SOL    HW226550   0.550   3.976   8.351  0.0093 -1.7622  0.0374
 5031SOL     OW26551   0.991   3.995   4.143 -0.2998  0.5209 -0.4555
 5031SOL    HW126552   0.901   3.968   4.159 -0.0583  1.0464  1.8951
 5031SOL    HW226553   1.042   3.941   4.205  1.6798  3.4834  0.4966
 5032SOL     OW26554   2.382   0.935  15.016 -0.0256 -0.1155  0.0589
 5032SOL    HW126555   2.314   0.969  14.957  1.2291  0.0598 -1.2781
 5032SOL    HW226556   2.331   0.934  15.097  1.8169  0.2141  1.2033
 5033SOL     OW26557   4.507   1.330   4.398  0.2797  0.5325 -0.0399
 5033SOL    HW126558   4.518   1.319   4.304  0.9721  3.2404 -0.2997
 5033SOL    HW226559   4.554   1.250   4.420 -2.0701 -0.5685  0.8807
 5034SOL     OW26560   3.958   0.317   3.786 -0.3470  0.1602  0.4964
 5034SOL    HW126561   3.864   0.321   3.803 -0.6449  0.2935 -1.2536
 5034SOL    HW226562   3.952   0.247   3.722  0.8933 -1.0331  1.6921
 5035SOL     OW26563   2.844   2.054   6.539  0.2517  0.2923 -0.0321
 5035SOL    HW126564   2.842   1.963   6.570 -1.0234  0.1451 -0.5374
 5035SOL    HW226565   2.792   2.039   6.460 -1.8420  0.2693  1.3620
 5036SOL     OW26566   2.433   4.431   8.649 -0.1056  0.5708  0.1758
 5036SOL    HW126567   2.418   4.337   8.636 -2.2886  0.8912  0.4490
 5036SOL    HW226568   2.451   4.428   8.743  1.5315  0.2417 -0.1389
 5037SOL     OW26569   3.343   1.062   7.929  0.1424 -0.2314 -0.8718
 5037SOL    HW126570   3.412   1.076   7.864  0.8672 -2.3196 -0.5521
 5037SOL    HW226571   3.279   1.021   7.871 -0.3963 -1.3318  0.5002
 5038SOL     OW26572   1.118   4.160  15.681 -0.1835  0.1305 -0.1656
 5038SOL    HW126573   1.153   4.144  15.768  1.2018 -0.7246 -0.8907
 5038SOL    HW226574   1.032   4.188  15.715 -0.5506  1.4916 -2.1785
 5039SOL     OW26575   3.448   1.080   8.696  0.1330 -0.0741 -0.0603
 5039SOL    HW126576   3.442   1.002   8.751  2.0094 -1.1830 -1.4434
 5039SOL    HW226577   3.541   1.087   8.678  0.0570  1.7865  0.3081
 5040SOL     OW26578   0.907   0.604   1.349 -0.5366 -0.3081 -0.1646
 5040SOL    HW126579   0.994   0.643   1.350  0.1343 -1.8069  0.4143
 5040SOL    HW226580   0.856   0.669   1.299  1.0263  0.0876 -1.2420
 5041SOL     OW26581   0.310   4.328  12.481 -0.1542  0.0424 -0.0572
 5041SOL    HW126582   0.313   4.343  12.386  2.2262  1.2430  0.2050
 5041SOL    HW226583   0.383   4.382  12.511 -0.6508  1.1469 -0.8525
 5042SOL     OW26584   0.719   0.731   8.625 -0.2438  0.6170 -0.6865
 5042SOL    HW126585   0.661   0.685   8.686  2.1683 -0.8384  0.4682
 5042SOL    HW226586   0.664   0.790   8.573  2.2597  1.4683 -2.3632
 5043SOL     OW26587   0.071   2.199   9.139  0.2549  0.9360 -0.1678
 5043SOL    HW126588   0.048   2.109   9.162  1.7366  0.7446  0.5720
 5043SOL    HW226589   4.718   2.224   9.084 -1.2736  0.5868  1.7109
 5044SOL     OW26590   3.071   4.564   0.401 -0.0712 -0.1135 -0.3725
 5044SOL    HW126591   3.159   4.537   0.377 -0.6325 -2.0762 -0.2082
 5044SOL    HW226592   3.028   4.567   0.316  0.4166  0.9398 -0.5852
 5045SOL     OW26593   4.081   1.318   8.532 -0.3448 -0.2167  0.1037
 5045SOL    HW126594   4.038   1.246   8.577  1.5629 -1.7523 -0.5282
 5045SOL    HW226595   4.016   1.320   8.462  0.9663 -1.7763 -1.1614
 5046SOL     OW26596   0.622   1.795   8.339  0.5932  0.6800 -0.0091
 5046SOL    HW126597   0.645   1.810   8.248  2.5464 -1.7727  0.1072
 5046SOL    HW226598   0.640   1.880   8.379 -0.6568  0.3421  1.3063
 5047SOL     OW26599   3.319   0.183   6.995 -0.3469 -0.5157 -0.1314
 5047SOL    HW126600   3.393   0.122   7.002 -1.5907 -1.4899  4.2290
 5047SOL    HW226601   3.323   0.231   7.078  0.4108 -2.8818  1.2068
 5048SOL     OW26602   2.408   1.214   4.109  0.4356  0.1745 -0.0612
 5048SOL    HW126603   2.359   1.134   4.090 -0.2604  0.5117  0.3300
 5048SOL    HW226604   2.497   1.191   4.082  0.6042 -0.9802  1.4841
 5049SOL     OW26605   4.325   3.594   4.136  0.8538 -0.3530  0.3885
 5049SOL    HW126606   4.412   3.628   4.156  0.6456 -0.6506  1.8751
 5049SOL    HW226607   4.272   3.654   4.189  0.4753  0.5468 -1.0323
 5050SOL     OW26608   3.614   3.343   0.823 -0.0556 -0.0124 -0.1858
 5050SOL    HW126609   3.555   3.357   0.749 -0.5932  0.6117  0.3649
 5050SOL    HW226610   3.635   3.250   0.812  0.6342  0.0767  0.3710
 5051SOL     OW26611   4.218   1.045   3.633  0.2686  0.6819 -0.1278
 5051SOL    HW126612   4.240   1.033   3.540  1.8435 -1.3976  0.5119
 5051SOL    HW226613   4.297   1.009   3.672  0.3571  2.8793  1.7385
 5052SOL     OW26614   4.039   2.142   3.561  0.1711 -0.0977 -0.0524
 5052SOL    HW126615   3.944   2.144   3.575  0.2484 -0.3487  0.5283
 5052SOL    HW226616   4.076   2.088   3.631  0.3490  1.9624  1.4475
 5053SOL     OW26617   2.590   1.486   8.074 -0.3605 -0.3333 -0.2200
 5053SOL    HW126618   2.650   1.412   8.081  2.0657  1.4696 -1.7211
 5053SOL    HW226619   2.557   1.478   7.985  1.2488 -0.8272 -0.7813
 5054SOL     OW26620   3.288   2.943   9.772  0.2470 -0.2998 -0.0305
 5054SOL    HW126621   3.262   2.873   9.712  0.9511 -1.7001  1.3049
 5054SOL    HW226622   3.206   2.993   9.774  1.4164  1.6481 -0.8240
 5055SOL     OW26623   4.672   3.774   8.084  0.1985 -0.4043  0.3341
 5055SOL    HW126624   0.027   3.742   8.034 -0.4993 -1.7654  0.1150
 5055SOL    HW226625   4.703   3.838   8.147  0.3091 -1.9992  1.9108
 5056SOL     OW26626   0.903   4.208  16.204  0.0351 -0.4892 -0.7513
 5056SOL    HW126627   0.963   4.199  16.130 -0.5246 -0.1099 -1.2508
 5056SOL    HW226628   0.918   4.118  16.232 -2.9039 -0.9540 -0.6938
 5057SOL     OW26629   0.232   1.795   8.089  0.2478 -0.5708 -1.0071
 5057SOL    HW126630   0.141   1.817   8.072  0.5083 -0.0474 -1.7529
 5057SOL    HW226631   0.227   1.722   8.150 -0.5872  0.7793  0.5403
 5058SOL     OW26632   3.072   2.135  10.400  0.0080  0.0080 -0.5622
 5058SOL    HW126633   3.076   2.100  10.489 -1.2681  1.8250  0.1973
 5058SOL    HW226634   3.142   2.200  10.394 -0.8766  0.9303 -0.8551
 5059SOL     OW26635   2.889   2.040   8.190 -0.1296  0.1712  0.6571
 5059SOL    HW126636   2.865   1.950   8.212 -0.3677  0.6543  2.3354
 5059SOL    HW226637   2.950   2.034   8.116  0.0702 -0.1660  0.8476
 5060SOL     OW26638   4.566   0.641  10.735  0.0789 -0.0247 -0.1269
 5060SOL    HW126639   4.584   0.732  10.710 -1.5781  0.2909 -0.1334
 5060SOL    HW226640   4.648   0.598  10.708 -0.1185  0.0078 -0.7749
 5061SOL     OW26641   3.702   4.505   8.857 -0.3891 -0.1795 -0.0443
 5061SOL    HW126642   3.699   4.572   8.925  1.5182 -1.2175  1.0927
 5061SOL    HW226643   3.608   4.491   8.857 -0.4512  0.2563 -0.9758
 5062SOL     OW26644   1.974   0.922   5.441 -0.0474  0.0949 -0.0569
 5062SOL    HW126645   1.948   0.919   5.533 -0.1608 -1.9203 -0.1428
 5062SOL    HW226646   1.976   1.017   5.427  2.9038  0.4913  3.1513
 5063SOL     OW26647   1.145   0.463   7.081  0.1742 -0.0186  0.4703
 5063SOL    HW126648   1.113   0.552   7.093 -0.8446 -0.4763  1.1904
 5063SOL    HW226649   1.171   0.457   6.989  1.4940  1.5059  0.7571
 5064SOL     OW26650   3.175   4.304   1.398  0.3537  0.2809  0.0071
 5064SOL    HW126651   3.179   4.393   1.363 -1.3628  0.3045 -0.1221
 5064SOL    HW226652   3.261   4.268   1.375  2.0171  2.4840  2.7508
 5065SOL     OW26653   0.399   3.312   3.208  0.1797 -0.1245 -0.0252
 5065SOL    HW126654   0.489   3.287   3.190  0.5781  1.1128  0.2468
 5065SOL    HW226655   0.357   3.308   3.122  1.0368 -1.8914 -0.3679
 5066SOL     OW26656   1.487   3.340   1.570 -0.0256  0.1810 -0.0923
 5066SOL    HW126657   1.556   3.368   1.630  4.1848 -3.4126 -3.2890
 5066SOL    HW226658   1.421   3.409   1.560 -1.0380 -0.6156  1.1401
 5067SOL     OW26659   3.205   1.383   3.077  0.2541 -0.0866 -0.1025
 5067SOL    HW126660   3.115   1.367   3.106  0.3619  0.9584  0.8170
 5067SOL    HW226661   3.188   1.410   2.987 -2.6907 -3.0005 -0.3998
 5068SOL     OW26662   4.625   1.592   3.592 -0.2034  0.2416 -0.3400
 5068SOL    HW126663   4.682   1.567   3.664 -0.4176 -2.9216 -1.2553
 5068SOL    HW226664   4.677   1.646   3.532 -0.4659  1.4484  0.5132
 5069SOL     OW26665   0.427   2.869  16.781  0.1025  0.0602  0.3077
 5069SOL    HW126666   0.460   2.838  16.865  0.5623  1.5570  0.6689
 5069SOL    HW226667   0.334   2.889  16.792  0.5932  1.9593  1.0065
 5070SOL     OW26668   2.729   3.824   6.963 -0.7563  0.1192 -0.7363
 5070SOL    HW126669   2.644   3.807   6.922 -1.0166  0.8760 -0.5065
 5070SOL    HW226670   2.733   3.751   7.025 -0.4948 -1.0807 -2.1731
 5071SOL     OW26671   0.259   4.458   3.392 -0.0186  0.2152 -0.1624
 5071SOL    HW126672   0.186   4.456   3.330 -1.1194 -0.8005  1.1441
 5071SOL    HW226673   0.338   4.467   3.339 -0.1099  0.7571 -0.2061
 5072SOL     OW26674   0.603   0.721   5.142  0.1881  0.2435  0.0992
 5072SOL    HW126675   0.657   0.646   5.169  1.1453  0.8781 -0.0522
 5072SOL    HW226676   0.548   0.685   5.073  0.8869 -0.5285 -0.0478
 5073SOL     OW26677   0.501   0.249   8.588  0.1486 -0.0821  0.3245
 5073SOL    HW126678   0.509   0.341   8.561  1.1802  0.4027  2.3199
 5073SOL    HW226679   0.507   0.211   8.500 -0.0029  0.1428  0.2178
 5074SOL     OW26680   0.537   4.118   6.313 -0.5689 -0.2892 -0.5665
 5074SOL    HW126681   0.471   4.169   6.359 -0.4552  0.2643 -1.0126
 5074SOL    HW226682   0.481   4.063   6.257  2.4834 -4.1032  0.1178
 5075SOL     OW26683   0.145   2.533   2.864  0.1260 -0.3019  0.2838
 5075SOL    HW126684   0.088   2.457   2.877 -0.1348 -0.1271  0.1801
 5075SOL    HW226685   0.232   2.494   2.867  1.3843  2.6152  1.3073
 5076SOL     OW26686   1.829   0.073   5.573 -0.1742  0.4001  0.2669
 5076SOL    HW126687   1.838   0.123   5.492  2.0154  2.7100  1.9037
 5076SOL    HW226688   1.737   0.090   5.591  0.2615  0.4076  2.5550
 5077SOL     OW26689   4.398   4.135   7.062  1.0001  0.1518 -0.3134
 5077SOL    HW126690   4.455   4.204   7.095  0.7104 -0.1874  0.9172
 5077SOL    HW226691   4.384   4.164   6.972  2.1977  0.6535 -0.3397
 5078SOL     OW26692   3.291   1.658   6.924  0.2241  0.4109  0.2032
 5078SOL    HW126693   3.326   1.645   6.836  0.6501  0.1588  0.4087
 5078SOL    HW226694   3.353   1.614   6.982  0.1510 -2.2352 -1.7305
 5079SOL     OW26695   1.302   0.413   5.651  0.1005  0.6287  0.2105
 5079SOL    HW126696   1.213   0.449   5.644 -0.2382 -0.0769  0.9299
 5079SOL    HW226697   1.307   0.379   5.740  3.1444  0.9685  0.1747
 5080SOL     OW26698   3.319   2.773   2.382  0.2491  0.5663 -0.1604
 5080SOL    HW126699   3.397   2.826   2.365  1.3203 -0.3322  1.9014
 5080SOL    HW226700   3.351   2.683   2.377 -0.6469  0.2620 -0.3687
 5081SOL     OW26701   3.971   1.207   5.198 -0.3311  0.0536  0.9460
 5081SOL    HW126702   3.952   1.288   5.244 -2.0310  1.6265 -2.5033
 5081SOL    HW226703   3.888   1.163   5.182 -0.3276  0.2796  0.2910
 5082SOL     OW26704   2.906   0.029  14.163 -0.1858  0.4704 -0.0807
 5082SOL    HW126705   2.930   0.030  14.256 -1.9246 -0.1131  0.3832
 5082SOL    HW226706   2.896   0.123  14.151  1.1639  0.5660 -0.4683
 5083SOL     OW26707   0.507   1.678   3.440  0.4966 -0.5466  0.6504
 5083SOL    HW126708   0.592   1.657   3.479  1.9552  0.6962 -1.8692
 5083SOL    HW226709   0.489   1.611   3.374  1.9698  0.0941 -0.3892
 5084SOL     OW26710   4.257   4.704   4.400 -0.3217 -0.5932 -0.2420
 5084SOL    HW126711   4.299   0.023   4.324 -0.0364  3.5986  2.1436
 5084SOL    HW226712   4.204   0.056   4.432  1.0981 -0.4096  1.7316
 5085SOL     OW26713   4.687   0.084  11.444 -0.1420 -0.1198 -0.4100
 5085SOL    HW126714   4.617   0.025  11.475  0.8826 -1.4077 -0.5495
 5085SOL    HW226715   4.681   0.157  11.506  1.2875 -0.9081  0.6406
 5086SOL     OW26716   0.871   4.685   1.238 -0.3745  0.9176 -0.4679
 5086SOL    HW126717   0.789   4.637   1.236  1.1297 -1.6138 -0.8965
 5086SOL    HW226718   0.934   4.627   1.281  0.0120  1.3361 -0.4600
 5087SOL     OW26719   0.785   3.844   5.055 -0.9401 -0.4542 -0.0510
 5087SOL    HW126720   0.856   3.864   5.117 -1.1485  0.4797 -0.1088
 5087SOL    HW226721   0.815   3.900   4.983  1.7201 -0.8064  0.7600
 5088SOL     OW26722   3.608   3.635   2.426 -0.6033  0.5323  0.0886
 5088SOL    HW126723   3.671   3.588   2.480 -1.8159  0.2676  1.2751
 5088SOL    HW226724   3.528   3.600   2.464 -0.6429 -1.1896 -1.5965
 5089SOL     OW26725   1.247   0.426   1.377  0.4022  0.5948 -0.0170
 5089SOL    HW126726   1.220   0.511   1.341  1.4995  1.3295  0.8910
 5089SOL    HW226727   1.261   0.443   1.471 -1.4855 -0.4103  0.4461
 5090SOL     OW26728   1.540   2.106  12.105 -0.5277 -0.6776 -0.6573
 5090SOL    HW126729   1.561   2.120  12.012 -1.9846 -0.0403 -0.8787
 5090SOL    HW226730   1.468   2.168  12.102  1.1535  1.3022  0.2339
 5091SOL     OW26731   2.552   0.967   8.125  0.1303  0.2913 -0.2861
 5091SOL    HW126732   2.547   1.004   8.037 -2.2902 -0.3777 -0.4368
 5091SOL    HW226733   2.560   1.050   8.172 -1.3680  1.1999 -1.6231
 5092SOL     OW26734   2.233   4.341   4.183  0.0206 -0.1576  0.3637
 5092SOL    HW126735   2.189   4.275   4.129 -1.2795  1.1077 -0.1239
 5092SOL    HW226736   2.198   4.421   4.144  0.9673  0.4370  0.7448
 5093SOL     OW26737   0.172   0.964   5.569  0.4686 -0.3339 -0.0255
 5093SOL    HW126738   0.136   0.970   5.481  1.6802 -0.4983 -0.5275
 5093SOL    HW226739   0.123   0.886   5.596  2.2458 -1.0202  1.2584
 5094SOL     OW26740   1.454   1.163   2.895 -0.0092  0.0928 -0.0432
 5094SOL    HW126741   1.489   1.090   2.946  0.9950  0.1553 -0.6449
 5094SOL    HW226742   1.536   1.191   2.854 -0.0865  2.1112  1.2063
 5095SOL     OW26743   4.378   0.745  15.696  0.9713 -0.2321 -1.0464
 5095SOL    HW126744   4.466   0.755  15.660  0.9462  1.6172 -0.5829
 5095SOL    HW226745   4.339   0.684  15.634 -3.1709  2.1163 -0.7223
 5096SOL     OW26746   0.255   4.712   6.293  0.1492 -0.0872 -0.1194
 5096SOL    HW126747   0.259   0.086   6.302 -0.6040 -0.0866  0.2036
 5096SOL    HW226748   0.277   4.687   6.383  0.2345 -0.9028 -0.3591
 5097SOL     OW26749   3.266   1.171   2.065 -0.1984  0.2403 -0.0317
 5097SOL    HW126750   3.345   1.121   2.081  0.0949  0.1172 -1.8061
 5097SOL    HW226751   3.303   1.253   2.034 -0.0967  0.2811  0.2050
 5098SOL     OW26752   3.608   2.367   4.250  0.0157  0.3076 -0.0860
 5098SOL    HW126753   3.651   2.344   4.167  0.0096 -2.2126  0.6088
 5098SOL    HW226754   3.518   2.381   4.221 -0.6754  0.0776  1.9617
 5099SOL     OW26755   3.525   3.957  15.646  0.6581  0.0071  0.3069
 5099SOL    HW126756   3.456   3.936  15.583  1.2205 -3.1793  0.7551
 5099SOL    HW226757   3.584   4.014  15.596 -0.1874 -0.8803 -1.7124
 5100SOL     OW26758   0.652   0.854  17.132 -1.2351  0.1680 -0.1983
 5100SOL    HW126759   0.620   0.928  17.183 -4.0873 -1.7406  0.8175
 5100SOL    HW226760   0.563   0.827  17.108 -1.9035  2.7781 -0.5639
 5101SOL     OW26761   0.003   3.881   8.334 -0.2354  0.3676 -0.5402
 5101SOL    HW126762   0.070   3.948   8.352  1.6778 -1.4257 -0.9863
 5101SOL    HW226763   4.664   3.895   8.407  1.3829  0.8958  0.7158
 5102SOL     OW26764   4.460   4.226   7.781  0.2439 -0.7358  0.3452
 5102SOL    HW126765   4.480   4.133   7.773  1.6690 -0.3676 -0.3787
 5102SOL    HW226766   4.366   4.224   7.765 -0.0063  2.3088  1.4088
 5103SOL     OW26767   1.284   3.995  10.327 -0.0989 -0.4187 -0.3398
 5103SOL    HW126768   1.297   3.902  10.306 -0.1234 -0.3548 -0.6301
 5103SOL    HW226769   1.213   4.024  10.271 -0.3434 -0.3859 -0.0153
 5104SOL     OW26770   2.977   0.557   4.439 -0.1970 -0.5096 -0.1540
 5104SOL    HW126771   2.895   0.606   4.428  0.5374  0.3084 -2.0287
 5104SOL    HW226772   2.997   0.592   4.526  0.2774  0.7453 -0.7646
 5105SOL     OW26773   2.856   4.191   0.902 -0.1354 -0.1002 -0.4290
 5105SOL    HW126774   2.812   4.228   0.979  3.1584  2.8569 -0.0001
 5105SOL    HW226775   2.812   4.243   0.835  2.2381  1.4568 -0.7755
 5106SOL     OW26776   3.934   1.034   5.591 -0.6549 -0.1607  0.0464
 5106SOL    HW126777   3.871   0.966   5.568  0.4434 -1.3769  0.6803
 5106SOL    HW226778   3.876   1.106   5.614  0.7313  0.5836  1.2120
 5107SOL     OW26779   1.079   0.602   7.700 -0.1542 -0.0507 -0.4215
 5107SOL    HW126780   1.095   0.627   7.791 -0.5900 -2.6540  0.3874
 5107SOL    HW226781   1.005   0.660   7.683  0.3271 -0.1252 -2.8126
 5108SOL     OW26782   4.662   3.137   1.857  0.5195 -0.7073 -0.1970
 5108SOL    HW126783   4.596   3.092   1.910 -0.8708  0.2441 -1.1491
 5108SOL    HW226784   4.626   3.222   1.832  0.7894 -0.5026  0.1011
 5109SOL     OW26785   1.875   3.028   6.952  0.0044  0.2646  0.1406
 5109SOL    HW126786   1.810   2.960   6.971 -0.8719  2.0223  3.5646
 5109SOL    HW226787   1.874   3.029   6.857  0.7523 -0.4668  0.1376
 5110SOL     OW26788   4.484   0.979   8.219  0.2154  0.3036 -0.3881
 5110SOL    HW126789   4.479   0.980   8.315  0.5366  0.1896 -0.3716
 5110SOL    HW226790   4.555   1.042   8.213 -1.4850  2.3326  0.8075
 5111SOL     OW26791   3.824   0.412  17.189  0.3341 -0.0538 -0.7331
 5111SOL    HW126792   3.743   0.413  17.240  0.2658 -1.2241 -0.8234
 5111SOL    HW226793   3.881   0.417  17.265 -0.3676  0.0882 -0.2175
 5112SOL     OW26794   4.627   4.071  17.229  0.0772  0.5443 -0.4626
 5112SOL    HW126795   4.708   4.023  17.212 -1.7093 -1.2924 -3.7735
 5112SOL    HW226796   4.660   4.158  17.209 -1.7609  0.8641 -2.0922
 5113SOL     OW26797   2.996   1.473  16.801  0.0705  0.3924 -0.3163
 5113SOL    HW126798   3.091   1.476  16.801  0.0677  0.4394 -2.3283
 5113SOL    HW226799   2.971   1.492  16.710 -0.2655  2.5564  0.2276
 5114SOL     OW26800   2.519   0.680   6.067 -0.6676 -0.0782 -0.3431
 5114SOL    HW126801   2.519   0.634   5.984 -0.0401  0.6005 -0.7186
 5114SOL    HW226802   2.527   0.609   6.131 -1.1405 -1.1156 -1.4376
 5115SOL     OW26803   0.220   0.508   0.591  0.5285  0.5398 -0.1744
 5115SOL    HW126804   0.261   0.578   0.539  0.4168  0.6377 -0.1336
 5115SOL    HW226805   0.261   0.521   0.676 -0.5433  1.0773  0.2633
 5116SOL     OW26806   4.388   0.959   4.195  0.0720 -0.3813  0.1142
 5116SOL    HW126807   4.319   0.906   4.234 -1.0221 -0.4027 -1.8141
 5116SOL    HW226808   4.437   0.980   4.274 -2.7005  2.4823  1.1162
 5117SOL     OW26809   4.020   1.665  13.513  0.3530  0.2399 -0.1663
 5117SOL    HW126810   4.002   1.731  13.446  1.3409 -0.2826 -0.9369
 5117SOL    HW226811   3.967   1.686  13.590 -0.2624  0.4520 -0.6492
 5118SOL     OW26812   3.852   0.396   3.523 -0.0456 -0.1452 -0.3143
 5118SOL    HW126813   3.937   0.353   3.523 -0.2070 -0.4557  1.0628
 5118SOL    HW226814   3.802   0.323   3.488  0.6362 -0.6082 -0.3347
 5119SOL     OW26815   0.746   1.357   2.037  0.0297  0.4992  0.1699
 5119SOL    HW126816   0.779   1.435   1.992  2.7029 -1.3875 -1.1364
 5119SOL    HW226817   0.672   1.391   2.088  0.3361  1.8371 -0.2741
 5120SOL     OW26818   0.050   4.625  16.950  0.5916 -0.0290  0.1890
 5120SOL    HW126819   0.043   4.652  17.042 -0.7957  1.4434 -0.3462
 5120SOL    HW226820   0.035   4.712  16.912  1.5229  0.5264  1.1190
 5121SOL     OW26821   4.082   1.611   5.825  0.0517  0.0179  0.0130
 5121SOL    HW126822   4.154   1.657   5.868 -0.1995  0.1243  0.3161
 5121SOL    HW226823   4.132   1.570   5.754 -1.3546 -0.7470 -0.5391
 5122SOL     OW26824   3.059   3.170   0.948  0.4526  0.2041 -0.1840
 5122SOL    HW126825   2.976   3.150   0.991  1.0163 -2.0289 -0.1397
 5122SOL    HW226826   3.043   3.264   0.941  1.2564  0.4908  1.7493
 5123SOL     OW26827   4.564   2.191   6.682 -0.1735  0.3906  0.3601
 5123SOL    HW126828   4.608   2.255   6.737 -2.8668  1.8899  0.7927
 5123SOL    HW226829   4.629   2.122   6.691 -0.5563 -0.0446 -0.2069
 5124SOL     OW26830   3.312   2.434  11.363 -0.2985  0.8606  0.0038
 5124SOL    HW126831   3.404   2.426  11.388 -0.8351 -1.2784  1.3140
 5124SOL    HW226832   3.268   2.383  11.431  2.3776  0.9477  1.8009
 5125SOL     OW26833   0.933   3.435   2.894  0.6591 -0.0133  0.0102
 5125SOL    HW126834   0.896   3.523   2.899  1.2559  0.0365  3.2298
 5125SOL    HW226835   0.979   3.441   2.810 -1.4184 -1.2657 -1.2096
 5126SOL     OW26836   4.332   2.108  15.470  0.0522 -0.1390  0.6359
 5126SOL    HW126837   4.239   2.089  15.475  0.2573 -0.4271  3.5312
 5126SOL    HW226838   4.339   2.147  15.383  1.8726  0.2397  0.9355
 5127SOL     OW26839   0.820   3.668   2.866 -0.1081  0.3446  0.0776
 5127SOL    HW126840   0.807   3.694   2.775 -1.0406  0.6897  0.3049
 5127SOL    HW226841   0.891   3.727   2.891 -0.1515 -0.0963  1.2304
 5128SOL     OW26842   3.190   1.447   5.294  0.0840 -0.2005 -0.0032
 5128SOL    HW126843   3.150   1.363   5.270 -0.8876  0.3447 -0.3157
 5128SOL    HW226844   3.148   1.507   5.233  2.6218 -1.8011 -3.3057
 5129SOL     OW26845   3.850   3.068   5.588  0.1655 -0.9856  0.4248
 5129SOL    HW126846   3.918   3.135   5.593 -1.1662  0.2003  2.8621
 5129SOL    HW226847   3.815   3.055   5.676 -1.4252 -0.5371 -0.1394
 5130SOL     OW26848   3.546   0.631   3.575  0.0121  0.0079  0.0314
 5130SOL    HW126849   3.505   0.551   3.542  2.4232 -0.4214 -1.9466
 5130SOL    HW226850   3.489   0.696   3.533  1.6201  1.3982 -0.0053
 5131SOL     OW26851   1.747   3.687   1.079  0.0296  0.6239  0.1526
 5131SOL    HW126852   1.800   3.764   1.059 -1.6585  0.8182 -3.5757
 5131SOL    HW226853   1.750   3.647   0.992  0.9142 -0.0954  0.5212
 5132SOL     OW26854   1.145   1.714   3.866  0.4686  0.1894  0.0962
 5132SOL    HW126855   1.182   1.799   3.888  0.4263  0.2964 -0.2508
 5132SOL    HW226856   1.177   1.658   3.938 -1.6694  1.2898  1.8947
 5133SOL     OW26857   4.237   1.199   2.649 -0.6415  0.0556  0.2165
 5133SOL    HW126858   4.228   1.251   2.569  1.5124  0.0818 -0.0064
 5133SOL    HW226859   4.285   1.125   2.611  0.1362  1.0425 -0.7306
 5134SOL     OW26860   3.723   1.825  11.766  0.0236 -0.5030  0.0938
 5134SOL    HW126861   3.663   1.827  11.692  0.1364  0.9507  0.0307
 5134SOL    HW226862   3.673   1.876  11.830 -1.4493 -2.0637  0.1914
 5135SOL     OW26863   3.256   0.847   7.284  0.8354 -0.5717 -0.2733
 5135SOL    HW126864   3.265   0.941   7.293  0.2070 -0.6849  1.6461
 5135SOL    HW226865   3.254   0.826   7.191  0.9333  1.5025 -0.7408
 5136SOL     OW26866   2.696   3.764   2.108 -0.1780 -0.0540  0.1901
 5136SOL    HW126867   2.756   3.727   2.043  1.3610 -0.7515  2.0031
 5136SOL    HW226868   2.658   3.834   2.056 -0.8139 -0.8604 -0.4182
 5137SOL     OW26869   4.460   1.460   8.937 -0.3055 -0.0879  0.1809
 5137SOL    HW126870   4.413   1.398   8.881 -0.2546 -0.1522  0.2092
 5137SOL    HW226871   4.545   1.456   8.893  0.5008  0.3460  1.7115
 5138SOL     OW26872   4.122   0.366   5.723  0.2563 -0.2231 -0.3198
 5138SOL    HW126873   4.178   0.299   5.682 -2.0162 -1.4515 -1.3762
 5138SOL    HW226874   4.187   0.433   5.743 -0.3359  0.5017 -0.8459
 5139SOL     OW26875   3.803   4.541   4.892 -0.1827 -0.3026  0.1985
 5139SOL    HW126876   3.781   4.449   4.876  0.6362  0.0029 -2.6720
 5139SOL    HW226877   3.864   4.522   4.964  0.1306  0.3469  0.0998
 5140SOL     OW26878   2.622   0.023   3.867 -0.2417 -0.2358  0.1522
 5140SOL    HW126879   2.620   0.115   3.841 -0.6546 -0.2600  0.0991
 5140SOL    HW226880   2.534   4.714   3.845  0.1145 -1.7169  0.7507
 5141SOL     OW26881   3.708   0.591   2.959 -0.5435 -0.1314 -0.0020
 5141SOL    HW126882   3.688   0.619   2.869  0.5914 -0.3403 -0.3274
 5141SOL    HW226883   3.657   0.656   3.006 -0.8469  1.4979 -2.6191
 5142SOL     OW26884   3.167   3.535   4.970  0.5881  0.0062  0.2327
 5142SOL    HW126885   3.183   3.458   5.025 -0.9083 -0.8820 -0.5700
 5142SOL    HW226886   3.248   3.521   4.922  0.8912 -1.2453  1.1130
 5143SOL     OW26887   3.357   4.695   6.163  0.2281 -0.2177 -0.1584
 5143SOL    HW126888   3.424   4.627   6.167 -1.1109 -1.6095 -1.3998
 5143SOL    HW226889   3.364   0.005   6.253 -1.4326 -0.2883  0.0016
 5144SOL     OW26890   3.984   3.787   1.519 -0.4381 -0.1292  0.0781
 5144SOL    HW126891   3.999   3.849   1.447  1.1344  2.1282  2.3951
 5144SOL    HW226892   3.894   3.766   1.492  0.1521 -2.4505 -0.0751
 5145SOL     OW26893   3.214   4.133   2.334  0.8917  0.2945  0.1370
 5145SOL    HW126894   3.163   4.183   2.398 -1.3126 -0.6982 -0.8350
 5145SOL    HW226895   3.178   4.046   2.354  1.2619  0.0482 -0.2652
 5146SOL     OW26896   1.722   4.496   3.143  0.0722  0.1565  0.0739
 5146SOL    HW126897   1.647   4.450   3.182  0.8078 -0.5570  0.6535
 5146SOL    HW226898   1.681   4.580   3.121  2.1702  1.4317  1.0829
 5147SOL     OW26899   0.529   0.969   9.327 -0.3367 -0.0567 -0.0694
 5147SOL    HW126900   0.461   0.973   9.394 -0.8943  2.1597 -0.7862
 5147SOL    HW226901   0.560   1.059   9.330 -0.4007 -0.0594  0.5772
 5148SOL     OW26902   1.306   3.879   2.894  0.3672 -0.4427  0.4615
 5148SOL    HW126903   1.397   3.866   2.918  0.6191 -3.1224 -1.8987
 5148SOL    HW226904   1.320   3.831   2.812  0.7084  1.4773 -0.6207
 5149SOL     OW26905   1.756   2.006   5.410  0.5889  0.3926 -0.5732
 5149SOL    HW126906   1.780   2.074   5.347  0.5092  2.0420  1.1671
 5149SOL    HW226907   1.800   1.926   5.381  1.3568 -0.2576  2.3995
 5150SOL     OW26908   2.205   0.483   5.385 -0.1920 -0.1569  0.0177
 5150SOL    HW126909   2.123   0.522   5.353  0.6365  0.7095 -1.0668
 5150SOL    HW226910   2.251   0.473   5.301  1.5808 -0.1776  0.9817
 5151SOL     OW26911   0.055   0.367   4.513 -0.4798  0.2021 -0.0913
 5151SOL    HW126912   0.021   0.290   4.467 -0.0973 -0.6194  1.0239
 5151SOL    HW226913   0.064   0.421   4.434 -0.3950 -0.7329 -0.7131
 5152SOL     OW26914   0.744   2.306   4.825  0.2494 -0.1012 -0.1270
 5152SOL    HW126915   0.652   2.329   4.813  0.5912  1.2695 -0.0544
 5152SOL    HW226916   0.794   2.384   4.801  2.6325 -0.7929  2.5347
 5153SOL     OW26917   0.061   1.963   3.276  0.7457  0.0302 -0.0662
 5153SOL    HW126918   0.133   1.910   3.309  0.1619 -1.5427 -1.3300
 5153SOL    HW226919   0.000   1.900   3.236 -1.6535  1.7028  0.9436
 5154SOL     OW26920   3.712   3.410  12.068 -0.8809  0.1873 -0.9761
 5154SOL    HW126921   3.680   3.334  12.018 -1.5391 -0.4961  0.4830
 5154SOL    HW226922   3.758   3.450  11.994 -1.7121 -0.3132 -1.7641
 5155SOL     OW26923   1.735   2.834   3.856 -0.5587 -0.3909 -0.1105
 5155SOL    HW126924   1.667   2.829   3.923 -0.7356  2.9006 -0.0744
 5155SOL    HW226925   1.708   2.906   3.800 -0.1646  0.8856  1.3537
 5156SOL     OW26926   4.023   1.866   1.090  0.3980  0.0021  0.7420
 5156SOL    HW126927   4.116   1.848   1.078 -0.1304 -0.2164 -3.0430
 5156SOL    HW226928   3.994   1.783   1.051 -0.4393  0.4851  0.3417
 5157SOL     OW26929   1.088   2.449   6.769  0.0755 -0.2669 -0.1126
 5157SOL    HW126930   1.148   2.390   6.722 -0.1275 -0.4616 -0.1276
 5157SOL    HW226931   1.016   2.390   6.788  0.4721  0.0786  2.4457
 5158SOL     OW26932   1.554   3.287   5.220 -0.3694  0.4069  0.1240
 5158SOL    HW126933   1.595   3.299   5.305  0.9546  4.2806 -1.0489
 5158SOL    HW226934   1.468   3.251   5.240 -0.2717  0.1386  0.0610
 5159SOL     OW26935   1.911   0.854   5.911  0.4368 -0.0123  0.3270
 5159SOL    HW126936   1.922   0.778   5.968  0.4727 -0.0020  0.3338
 5159SOL    HW226937   1.949   0.919   5.970 -1.9542 -0.6407  2.5977
 5160SOL     OW26938   1.218   0.103   4.510 -0.4430  0.0402  0.3171
 5160SOL    HW126939   1.265   0.117   4.428 -0.5181 -1.2052  0.0617
 5160SOL    HW226940   1.141   0.056   4.478  0.2005  1.0724 -2.7015
 5161SOL     OW26941   0.018   1.132  13.029  0.3586 -0.2076 -0.4883
 5161SOL    HW126942   0.056   1.129  13.116  0.3351 -0.1842 -0.4772
 5161SOL    HW226943   0.053   1.218  13.007 -1.4991  0.4045 -1.1090
 5162SOL     OW26944   2.516   3.773  12.854 -0.1009  0.1298 -0.1157
 5162SOL    HW126945   2.596   3.822  12.873 -0.5678  1.0647 -0.5702
 5162SOL    HW226946   2.521   3.706  12.923  2.1679  0.5971  0.1588
 5163SOL     OW26947   3.785   3.975  16.928 -0.2497 -0.2620  0.1697
 5163SOL    HW126948   3.865   3.962  16.877  0.2924  1.3669  0.6162
 5163SOL    HW226949   3.801   4.060  16.968 -1.2089 -0.0200  0.0383
 5164SOL     OW26950   0.112   2.226   7.137 -0.5445  0.2562  0.5946
 5164SOL    HW126951   0.113   2.321   7.145 -2.3815  0.3294 -0.0539
 5164SOL    HW226952   0.180   2.217   7.070 -0.6500 -0.8018  0.6240
 5165SOL     OW26953   0.597   0.891   4.067  0.3448  0.3945  0.6909
 5165SOL    HW126954   0.656   0.833   4.115  1.9448  0.8048 -0.7547
 5165SOL    HW226955   0.626   0.982   4.078 -1.0740  1.0730 -1.1299
 5166SOL     OW26956   3.701   2.887   1.542 -0.8823 -0.0713  0.1884
 5166SOL    HW126957   3.725   2.818   1.480  0.9909  1.2621 -0.5523
 5166SOL    HW226958   3.769   2.888   1.609 -1.9399  0.2541  1.2685
 5167SOL     OW26959   3.632   2.806   4.967  0.5285 -0.6629  0.1299
 5167SOL    HW126960   3.686   2.728   4.978  1.5969  0.1491  0.5742
 5167SOL    HW226961   3.572   2.781   4.897 -2.4436 -0.3966  2.5746
 5168SOL     OW26962   1.986   2.379   7.439 -0.3815  0.0567 -0.6757
 5168SOL    HW126963   1.963   2.292   7.409  2.2177 -1.2176  1.0168
 5168SOL    HW226964   2.045   2.412   7.371 -1.0018 -1.9188 -2.1416
 5169SOL     OW26965   4.590   0.979   8.463 -0.1259 -0.1637  0.2151
 5169SOL    HW126966   4.621   0.894   8.433  0.0475 -0.4359  1.1640
 5169SOL    HW226967   4.585   0.972   8.558  1.3689  0.9459  0.3651
 5170SOL     OW26968   0.145   1.207  13.250 -0.2258  0.0033 -0.5769
 5170SOL    HW126969   0.235   1.193  13.220  0.0364 -2.2389  1.2606
 5170SOL    HW226970   0.152   1.299  13.275  1.0577 -0.2060 -0.1918
 5171SOL     OW26971   0.295   3.566   9.587 -0.4415 -0.0143  0.6784
 5171SOL    HW126972   0.271   3.522   9.505  0.3825 -0.0259  0.4425
 5171SOL    HW226973   0.211   3.603   9.616 -0.9652 -0.2198 -0.5735
 5172SOL     OW26974   3.950   0.965   4.367 -0.2547  0.5415 -0.5360
 5172SOL    HW126975   3.893   0.986   4.442 -0.7042 -2.1025 -0.1286
 5172SOL    HW226976   3.977   1.049   4.331 -1.6011  1.8363  1.4698
 5173SOL     OW26977   2.195   3.743   0.098  0.2645 -0.0372 -0.6524
 5173SOL    HW126978   2.136   3.772   0.028  0.9429 -0.1487 -1.2650
 5173SOL    HW226979   2.145   3.670   0.135  1.1590 -1.1234 -1.6133
 5174SOL     OW26980   4.512   3.593   5.314 -0.0914  0.2144 -0.0224
 5174SOL    HW126981   4.549   3.561   5.232 -0.8904 -0.6409 -0.0504
 5174SOL    HW226982   4.439   3.645   5.282 -0.8998  0.0614  1.5674
 5175SOL     OW26983   3.192   3.721   2.859  0.2066 -0.6713 -0.5983
 5175SOL    HW126984   3.191   3.678   2.945  0.5988 -0.8416 -0.6768
 5175SOL    HW226985   3.098   3.737   2.854  0.0230 -1.1470  1.2538
 5176SOL     OW26986   0.550   3.556   3.970  0.0104 -0.2454  0.0036
 5176SOL    HW126987   0.504   3.545   3.887  3.3434 -0.9695 -1.7864
 5176SOL    HW226988   0.540   3.650   3.983 -2.1398 -0.3280 -1.1837
 5177SOL     OW26989   2.331   0.119  12.420  0.6813  0.2397 -0.6140
 5177SOL    HW126990   2.394   0.048  12.426 -1.2563 -1.4776 -0.4275
 5177SOL    HW226991   2.341   0.158  12.333 -0.3289 -0.6050 -1.1062
 5178SOL     OW26992   0.567   0.985   5.081  0.8505  0.0526  0.5695
 5178SOL    HW126993   0.601   0.899   5.107 -0.6303 -1.0564 -1.1680
 5178SOL    HW226994   0.502   0.987   5.150  1.0807  1.6714  0.7361
 5179SOL     OW26995   0.179   3.645   0.515 -0.1996  0.8956  0.4886
 5179SOL    HW126996   0.263   3.630   0.558 -0.8902  1.4273  2.0254
 5179SOL    HW226997   0.116   3.609   0.578 -0.8862  0.1191 -0.6210
 5180SOL     OW26998   2.275   3.773   4.470 -0.2031 -0.8503  0.3178
 5180SOL    HW126999   2.232   3.758   4.554 -1.9268 -2.4426 -0.8405
 5180SOL    HW227000   2.249   3.865   4.469 -0.8760 -1.0524 -0.2526
 5181SOL     OW27001   2.884   0.920   5.301  0.2460  0.0232 -0.6380
 5181SOL    HW127002   2.966   0.947   5.260 -1.1622  3.4286 -1.2049
 5181SOL    HW227003   2.893   0.825   5.310  0.6013 -0.0326 -1.5892
 5182SOL     OW27004   0.745   0.729   5.843  0.2501  0.1358 -0.2489
 5182SOL    HW127005   0.775   0.694   5.759 -1.0580 -1.1917 -0.1585
 5182SOL    HW227006   0.669   0.674   5.864  2.6584 -2.6479  1.1335
 5183SOL     OW27007   1.470   3.574  15.870  0.2971 -0.0191 -0.7171
 5183SOL    HW127008   1.549   3.519  15.874  1.4792  1.7618  0.3047
 5183SOL    HW227009   1.435   3.581  15.958 -0.4642  3.4935 -1.3068
 5184SOL     OW27010   2.281   4.701   2.614  0.4399 -0.3704  0.4097
 5184SOL    HW127011   2.311   4.614   2.641  2.9969  0.5348  0.4801
 5184SOL    HW227012   2.255   4.685   2.524  0.7927 -0.1680  0.2750
 5185SOL     OW27013   4.206   4.591   0.321  0.2786  0.2400  0.0456
 5185SOL    HW127014   4.149   4.581   0.245 -1.1102  2.8688  0.7093
 5185SOL    HW227015   4.150   4.545   0.383  1.0096  0.2576  0.7146
 5186SOL     OW27016   3.386   2.674   3.535  0.1260  0.1051 -0.0947
 5186SOL    HW127017   3.425   2.752   3.575  0.1266  0.7272 -1.3229
 5186SOL    HW227018   3.339   2.633   3.608 -1.4123 -0.3539 -1.3344
 5187SOL     OW27019   3.076   3.398  11.424 -0.0417  0.1287  0.3171
 5187SOL    HW127020   3.041   3.487  11.426  1.9726  0.9410 -0.6479
 5187SOL    HW227021   3.000   3.341  11.419 -2.2889  3.1218 -0.0601
 5188SOL     OW27022   1.337   1.696   2.560  0.6247  0.1754  0.1236
 5188SOL    HW127023   1.388   1.671   2.483 -0.0394  1.1146 -0.6340
 5188SOL    HW227024   1.299   1.781   2.538 -0.4121 -0.0679  0.9691
 5189SOL     OW27025   1.399   1.247  10.976  0.4419  0.5883 -0.2956
 5189SOL    HW127026   1.437   1.290  11.053  1.5296  0.4159 -0.7349
 5189SOL    HW227027   1.350   1.173  11.013 -1.1733  0.3316 -2.9537
 5190SOL     OW27028   3.300   1.930   7.335  0.3705 -0.1691 -0.1770
 5190SOL    HW127029   3.330   1.991   7.267 -1.9245 -0.3871 -1.3991
 5190SOL    HW227030   3.378   1.876   7.349  2.0623  2.4671  0.5070
 5191SOL     OW27031   0.069   4.375   5.049 -0.2632 -0.2343  0.2538
 5191SOL    HW127032   0.069   4.415   4.962 -4.1886  0.5466  0.6122
 5191SOL    HW227033   0.062   4.454   5.102  0.5996 -0.2218  0.3516
 5192SOL     OW27034   0.945   2.272   7.902  0.6027  0.3882 -0.0667
 5192SOL    HW127035   0.894   2.243   7.827 -2.5779  1.0373  1.8559
 5192SOL    HW227036   0.941   2.367   7.897  2.3412  0.4111 -1.0618
 5193SOL     OW27037   0.022   3.360   7.465  0.6747  0.4983 -0.1697
 5193SOL    HW127038   0.084   3.366   7.538  1.2167  1.4373 -0.7094
 5193SOL    HW227039   0.031   3.443   7.419 -1.0212 -0.4359 -2.1807
 5194SOL     OW27040   0.697   2.501   6.771  0.1557 -0.1415 -0.0910
 5194SOL    HW127041   0.750   2.544   6.703 -1.1748  2.0945  0.2893
 5194SOL    HW227042   0.630   2.456   6.719 -0.1900 -1.3108  1.3925
 5195SOL     OW27043   4.295   3.661  10.510  0.1885  0.1579 -0.1627
 5195SOL    HW127044   4.302   3.599  10.582  3.3065  0.1340 -0.4777
 5195SOL    HW227045   4.295   3.601  10.435 -0.8203 -0.0806  0.0266
 5196SOL     OW27046   0.523   3.512   6.522 -0.0661  0.5854  0.1535
 5196SOL    HW127047   0.528   3.418   6.505  1.4259  0.6130  0.4236
 5196SOL    HW227048   0.503   3.533   6.431 -1.0523  1.9424  0.6768
 5197SOL     OW27049   3.432   4.459  17.668 -0.8950  0.4799  0.2334
 5197SOL    HW127050   3.449   4.424   0.069  1.3697  2.1528  0.4633
 5197SOL    HW227051   3.508   4.516  17.668  0.0921 -0.8425 -0.9070
 5198SOL     OW27052   1.618   3.065   6.428 -0.1761  0.4092  0.0846
 5198SOL    HW127053   1.531   3.054   6.466 -0.8315  2.4029 -0.8332
 5198SOL    HW227054   1.672   3.062   6.507  2.1907  0.1038 -1.5398
 5199SOL     OW27055   3.499   0.584   9.859  0.0846 -0.1468 -0.6037
 5199SOL    HW127056   3.497   0.671   9.819 -0.4940  0.7719  1.4629
 5199SOL    HW227057   3.408   0.565   9.884  0.3379  1.5234  1.5240
 5200SOL     OW27058   1.266   2.536  13.876  0.2926  0.3396 -0.0627
 5200SOL    HW127059   1.215   2.551  13.955  0.3090 -0.0973  0.0327
 5200SOL    HW227060   1.356   2.547  13.907  0.5703 -0.6690 -0.4848
 5201SOL     OW27061   1.723   0.214   7.936  0.2998  0.5159 -0.3556
 5201SOL    HW127062   1.759   0.294   7.897  1.7905 -0.5788 -1.2481
 5201SOL    HW227063   1.808   0.173   7.956  0.1312  0.5850  0.4858
 5202SOL     OW27064   0.745   4.656  11.054  0.3950  0.0038 -0.9102
 5202SOL    HW127065   0.702   4.583  11.010 -2.0503 -0.0009  1.5075
 5202SOL    HW227066   0.716   0.010  11.001  1.0999  1.0997  0.2479
 5203SOL     OW27067   3.423   3.025   5.614 -0.0367 -0.3821  0.4940
 5203SOL    HW127068   3.420   3.026   5.518  0.8000  0.3932  0.4787
 5203SOL    HW227069   3.457   3.111   5.638  1.2458 -0.9887  0.8238
 5204SOL     OW27070   4.565   2.563  12.249 -0.3355  0.6997  0.3919
 5204SOL    HW127071   4.537   2.499  12.313  0.0518  1.5423  1.4056
 5204SOL    HW227072   4.657   2.535  12.245  0.3121  2.7535  0.7818
 5205SOL     OW27073   1.002   2.913   2.347 -0.1763 -0.2068 -0.1890
 5205SOL    HW127074   0.963   2.904   2.260  0.1836 -1.0125 -0.2634
 5205SOL    HW227075   1.083   2.863   2.337  0.9980  1.7426 -0.3234
 5206SOL     OW27076   1.453   3.448  12.137  0.0348 -0.0982 -0.1867
 5206SOL    HW127077   1.467   3.537  12.169 -3.7574  0.7172 -0.7611
 5206SOL    HW227078   1.530   3.436  12.082 -1.3520  0.0492 -2.1755
 5207SOL     OW27079   3.364   1.931   4.876 -0.2186  0.1904 -0.5629
 5207SOL    HW127080   3.379   2.016   4.835 -0.5133  0.2145 -0.6218
 5207SOL    HW227081   3.316   1.958   4.955  1.2304 -0.2128  0.4604
 5208SOL     OW27082   2.413   2.664   8.956  0.0064  0.1337  0.4719
 5208SOL    HW127083   2.488   2.676   8.897 -1.6264  1.8291 -1.2149
 5208SOL    HW227084   2.441   2.727   9.022  1.2075  0.2497 -0.1370
 5209SOL     OW27085   2.192   4.387   8.026  0.2360  0.3148  0.3590
 5209SOL    HW127086   2.119   4.366   7.967  0.3386  3.4877 -0.9173
 5209SOL    HW227087   2.222   4.299   8.047  0.0808  0.7006  2.2435
 5210SOL     OW27088   3.934   4.115   0.696 -0.4579  0.0565  0.1489
 5210SOL    HW127089   3.910   4.094   0.606  1.2277  0.5137 -0.3940
 5210SOL    HW227090   3.884   4.196   0.705  0.7882  0.9319 -0.9209
 5211SOL     OW27091   4.300   0.998  14.710  0.7229  0.3818  0.2325
 5211SOL    HW127092   4.384   0.987  14.663  0.1603  2.8213 -1.3363
 5211SOL    HW227093   4.244   0.995  14.633 -0.0709  1.2185  0.7861
 5212SOL     OW27094   0.044   4.442   3.243  0.6073  0.0782 -0.5246
 5212SOL    HW127095   4.704   4.499   3.198  1.6136  1.1157 -0.5753
 5212SOL    HW227096   0.100   4.418   3.169  1.1464 -0.5664  0.0819
 5213SOL     OW27097   2.742   0.118  10.708  0.0328 -0.5126 -0.7722
 5213SOL    HW127098   2.800   0.124  10.785 -1.8212  1.4409  0.4559
 5213SOL    HW227099   2.663   0.162  10.740 -0.0420 -1.9741  1.1043
 5214SOL     OW27100   1.092   2.468   8.802  0.1783  0.6263  0.3949
 5214SOL    HW127101   1.105   2.469   8.897 -1.1425 -0.1177  0.5761
 5214SOL    HW227102   1.141   2.547   8.781 -0.9264  1.2400  0.1088
 5215SOL     OW27103   1.635   2.602  10.937  0.3527 -0.7680  0.1522
 5215SOL    HW127104   1.699   2.661  10.977  0.0126  0.2951 -0.8854
 5215SOL    HW227105   1.552   2.627  10.978  1.0785  0.0303  1.1454
 5216SOL     OW27106   4.584   1.524  13.258  0.1868 -0.0361  0.3714
 5216SOL    HW127107   4.517   1.519  13.327 -2.0224  0.0831 -1.7547
 5216SOL    HW227108   4.530   1.500  13.183  0.6461 -1.6825  0.5788
 5217SOL     OW27109   1.829   2.691   6.886  0.0878  0.2387 -0.0342
 5217SOL    HW127110   1.923   2.706   6.894  0.3441 -0.9727 -0.8206
 5217SOL    HW227111   1.790   2.735   6.961  0.8179  1.2314 -0.2350
 5218SOL     OW27112   4.036   0.714  17.454  0.2597  0.3097  0.3125
 5218SOL    HW127113   4.103   0.717  17.385 -0.7315 -1.0479 -0.7233
 5218SOL    HW227114   4.072   0.644  17.508  0.7764  0.2789 -0.0732
 5219SOL     OW27115   4.218   3.074  14.964  0.0499  0.5198  0.6016
 5219SOL    HW127116   4.258   3.159  14.985 -0.5804  1.4751 -2.1550
 5219SOL    HW227117   4.278   3.051  14.893 -2.7605 -2.1574 -0.9164
 5220SOL     OW27118   2.224   3.215   6.183  0.1651  0.1229  0.1196
 5220SOL    HW127119   2.162   3.175   6.122 -1.2216 -0.2825  1.8252
 5220SOL    HW227120   2.242   3.152   6.253 -0.2301  1.2964  1.2703
 5221SOL     OW27121   1.182   3.130   3.571 -0.4342  0.1035  0.4478
 5221SOL    HW127122   1.129   3.126   3.491 -1.4807  0.0981  1.1450
 5221SOL    HW227123   1.270   3.152   3.543 -0.5253  1.6356  1.3748
 5222SOL     OW27124   3.898   1.934   2.726 -0.6988  0.0284 -0.5368
 5222SOL    HW127125   3.953   1.881   2.667  0.2871  0.7728 -0.2929
 5222SOL    HW227126   3.906   2.020   2.685 -1.9527  0.5038  0.2363
 5223SOL     OW27127   1.072   0.153   7.080  0.2130  0.4477  0.3199
 5223SOL    HW127128   1.086   0.199   7.162  0.6455  1.8336 -0.5280
 5223SOL    HW227129   1.159   0.158   7.042  0.1095 -0.7454 -0.0974
 5224SOL     OW27130   1.725   3.975  12.629  0.2244 -0.2278  0.2058
 5224SOL    HW127131   1.698   3.886  12.652 -2.2605  0.1855 -1.0578
 5224SOL    HW227132   1.664   3.987  12.556 -2.5814 -2.9663  2.1000
 5225SOL     OW27133   0.562   1.586  13.535  0.6920 -0.9524  0.0182
 5225SOL    HW127134   0.484   1.638  13.514  2.0607  1.1525  0.1641
 5225SOL    HW227135   0.586   1.562  13.446  0.9461  1.6158 -0.5876
 5226SOL     OW27136   2.228   2.016   5.214  0.4052 -0.1980 -0.0723
 5226SOL    HW127137   2.182   1.988   5.135  1.5518  0.1571 -0.8718
 5226SOL    HW227138   2.313   1.975   5.197  1.0412  0.7100  0.9134
 5227SOL     OW27139   1.530   4.399   3.609  0.2097 -0.4209 -0.3304
 5227SOL    HW127140   1.524   4.416   3.515 -0.5059 -0.0553 -0.2159
 5227SOL    HW227141   1.535   4.303   3.611  0.2517 -0.3878  1.0930
 5228SOL     OW27142   2.783   3.723   5.086 -1.0706 -0.3735  0.1263
 5228SOL    HW127143   2.715   3.790   5.078 -1.5057 -0.5936  2.0188
 5228SOL    HW227144   2.769   3.693   4.996 -1.4313  0.5970 -0.1517
 5229SOL     OW27145   0.480   3.057   4.824  0.2484 -0.5249 -0.3633
 5229SOL    HW127146   0.449   3.023   4.908 -1.3034  0.5226 -0.5112
 5229SOL    HW227147   0.544   2.990   4.802  0.2066 -0.2566 -1.3048
 5230SOL     OW27148   3.550   0.124   4.734 -0.2134  0.1051 -0.2935
 5230SOL    HW127149   3.490   0.195   4.754 -0.6047 -0.2998 -0.0277
 5230SOL    HW227150   3.616   0.131   4.803 -0.1434  1.4689 -0.5020
 5231SOL     OW27151   1.600   3.277   8.712  0.5526 -0.0255  0.3724
 5231SOL    HW127152   1.690   3.297   8.739  0.8440  1.4767 -1.6497
 5231SOL    HW227153   1.567   3.231   8.788 -1.2573 -0.5828 -0.7405
 5232SOL     OW27154   3.694   1.477   8.228 -0.5388 -0.0048 -0.1262
 5232SOL    HW127155   3.630   1.545   8.249  0.4630  0.4258  1.5508
 5232SOL    HW227156   3.717   1.448   8.317 -1.8985 -1.7329 -0.3282
 5233SOL     OW27157   2.397   2.780   4.331  0.0698  0.7259 -0.3066
 5233SOL    HW127158   2.373   2.836   4.404  1.1755 -0.9822  1.3552
 5233SOL    HW227159   2.356   2.698   4.359 -1.4554  1.0267 -1.6649
 5234SOL     OW27160   1.452   2.808   0.007  0.4403  0.1185  0.1340
 5234SOL    HW127161   1.531   2.856   0.032  1.8664 -1.3943 -1.4478
 5234SOL    HW227162   1.396   2.823   0.083  1.6973 -3.2027  1.6945
 5235SOL     OW27163   4.221   3.877  12.679 -0.2386 -0.0273  0.2705
 5235SOL    HW127164   4.173   3.957  12.659 -0.6486 -0.0692  1.0904
 5235SOL    HW227165   4.173   3.806  12.636  3.6238 -2.2317 -0.4433
 5236SOL     OW27166   4.147   1.556   8.036 -0.0238  0.4528  0.4938
 5236SOL    HW127167   4.057   1.528   8.020  1.1904 -2.6885 -0.9910
 5236SOL    HW227168   4.150   1.619   7.964  0.4952 -0.7386 -0.5471
 5237SOL     OW27169   0.267   3.432   5.683 -0.2027 -0.2693  0.3046
 5237SOL    HW127170   0.305   3.516   5.658 -1.2875 -0.0629 -0.6780
 5237SOL    HW227171   0.195   3.429   5.620 -0.9874  1.1006  1.1373
 5238SOL     OW27172   0.650   2.747   1.266  0.6346 -0.2766  0.6338
 5238SOL    HW127173   0.693   2.801   1.200  3.2513 -1.5696  1.2991
 5238SOL    HW227174   0.681   2.657   1.262  2.3366  0.2729  1.3846
 5239SOL     OW27175   0.989   0.644   3.384  0.3206 -0.2942 -0.2386
 5239SOL    HW127176   1.004   0.700   3.460 -1.8375  0.7899 -0.6061
 5239SOL    HW227177   1.062   0.585   3.404  0.0094 -0.4359  0.4850
 5240SOL     OW27178   4.317   1.179  13.365 -1.0698  0.2477 -0.4668
 5240SOL    HW127179   4.341   1.131  13.444  1.8954  2.5363  0.0252
 5240SOL    HW227180   4.319   1.273  13.385  0.5500  0.3695 -1.2431
 5241SOL     OW27181   1.283   2.515   3.247  0.3935  0.5401 -0.3038
 5241SOL    HW127182   1.293   2.545   3.337 -1.3324  1.6372 -0.4844
 5241SOL    HW227183   1.339   2.440   3.227 -0.3314 -0.2897  0.7532
 5242SOL     OW27184   2.972   3.991   5.823 -0.1146 -0.6500  0.1248
 5242SOL    HW127185   3.036   3.936   5.868  0.3065  0.7378  1.2162
 5242SOL    HW227186   3.018   4.006   5.740 -0.8346  0.2284 -0.1228
 5243SOL     OW27187   4.623   3.182   0.801 -0.2590  0.1391  0.1454
 5243SOL    HW127188   4.572   3.130   0.739  1.4211 -1.6035  0.2109
 5243SOL    HW227189   4.710   3.178   0.761  0.0627 -4.9139  1.2961
 5244SOL     OW27190   4.168   2.822  17.207 -0.0993  0.3010  0.1303
 5244SOL    HW127191   4.226   2.752  17.237  0.2413  0.3719 -0.3592
 5244SOL    HW227192   4.199   2.889  17.268 -0.7983  0.9659 -0.2294
 5245SOL     OW27193   4.310   2.028   4.267  0.2428  0.1319 -0.1135
 5245SOL    HW127194   4.386   2.079   4.296  1.1158 -2.1429  1.5791
 5245SOL    HW227195   4.274   2.014   4.354  2.1863  3.1571  1.1830
 5246SOL     OW27196   1.199   2.686   5.100 -0.3369 -0.8028 -0.8198
 5246SOL    HW127197   1.173   2.634   5.024 -0.0099 -0.1330 -1.3795
 5246SOL    HW227198   1.207   2.772   5.059 -0.8925 -1.7649 -2.9033
 5247SOL     OW27199   0.036   4.612   5.160  0.3302  0.0090 -0.7684
 5247SOL    HW127200   0.081   4.687   5.121  2.2369 -0.1963  1.0235
 5247SOL    HW227201   4.674   4.658   5.166  0.3605 -0.0271 -0.0554
 5248SOL     OW27202   3.789   4.038   1.948 -0.0033 -0.3194 -0.2505
 5248SOL    HW127203   3.774   4.039   2.043 -0.1368 -1.3467 -0.2648
 5248SOL    HW227204   3.880   4.008   1.948  0.4063  0.8823 -0.3682
 5249SOL     OW27205   0.086   4.604   1.716  0.2021  0.1578  0.1092
 5249SOL    HW127206   0.077   4.667   1.645  1.4569 -0.1092 -0.3045
 5249SOL    HW227207   4.717   4.587   1.742  0.0115  1.3363  0.2025
 5250SOL     OW27208   2.739   1.307  13.848 -0.2618  0.3334 -0.0126
 5250SOL    HW127209   2.756   1.384  13.904 -0.8509  2.4528 -2.7531
 5250SOL    HW227210   2.668   1.273  13.902  1.4594 -1.8140  0.9399
 5251SOL     OW27211   0.778   2.590   4.788  0.1511  0.2573 -0.9320
 5251SOL    HW127212   0.685   2.570   4.784  0.0567  0.6459 -0.5839
 5251SOL    HW227213   0.792   2.575   4.694 -0.2207 -0.5700 -0.8598
 5252SOL     OW27214   3.348   1.451  10.945  0.0253  0.6551 -0.5226
 5252SOL    HW127215   3.430   1.449  10.896  0.8860  0.5357  0.9206
 5252SOL    HW227216   3.284   1.418  10.881 -0.4978  0.8087 -0.0820
 5253SOL     OW27217   1.093   1.185   1.939  0.2526 -0.2114 -0.0279
 5253SOL    HW127218   1.086   1.265   1.887 -1.2043  0.0949  0.6215
 5253SOL    HW227219   1.187   1.167   1.937  0.2241 -0.3150 -0.3410
 5254SOL     OW27220   0.696   2.506  11.190  0.2975 -0.0613  0.1916
 5254SOL    HW127221   0.683   2.415  11.217 -0.1514  0.2596  1.0834
 5254SOL    HW227222   0.780   2.507  11.145 -0.3016  1.2883 -0.8871
 5255SOL     OW27223   0.199   3.889   5.908 -0.0640  0.0723 -0.1211
 5255SOL    HW127224   0.133   3.958   5.906  0.4677  0.5228 -1.6943
 5255SOL    HW227225   0.276   3.942   5.886  0.3273 -0.4321  0.0355
 5256SOL     OW27226   0.782   1.571   6.143 -0.5304  0.2354  0.4857
 5256SOL    HW127227   0.782   1.524   6.227 -0.5707  2.3709  1.6881
 5256SOL    HW227228   0.759   1.658   6.176  1.3941  0.8315  0.2320
 5257SOL     OW27229   4.434   2.116  10.210 -0.0389  0.2150 -0.0221
 5257SOL    HW127230   4.353   2.124  10.260 -1.2290 -1.2215 -1.7401
 5257SOL    HW227231   4.400   2.104  10.121  1.6898 -2.5636 -0.2892
 5258SOL     OW27232   2.321   3.205   8.217 -0.4654  0.5643 -0.2614
 5258SOL    HW127233   2.266   3.231   8.291  0.2276 -1.5669  1.0118
 5258SOL    HW227234   2.271   3.234   8.141 -1.2841 -2.5324 -0.9007
 5259SOL     OW27235   4.353   3.296   3.957 -0.7620  0.3350 -0.3530
 5259SOL    HW127236   4.384   3.206   3.955 -0.8902  0.3275 -2.6308
 5259SOL    HW227237   4.355   3.323   3.865 -0.1552  0.7072 -0.2321
 5260SOL     OW27238   1.438   0.041  16.009 -0.0037 -0.0979  0.0584
 5260SOL    HW127239   1.446   0.076  15.921 -0.6479 -0.9404 -0.3280
 5260SOL    HW227240   1.444   4.668  15.991  0.3190 -0.2373  0.8576
 5261SOL     OW27241   2.990   1.084   8.056  0.6322  0.3410  0.7431
 5261SOL    HW127242   3.073   1.129   8.068  0.5327  0.3194  1.5069
 5261SOL    HW227243   2.986   1.096   7.961  2.0157  2.8421  1.0020
 5262SOL     OW27244   1.379   1.116   8.366  0.3375  0.2499 -0.4934
 5262SOL    HW127245   1.358   1.208   8.352  0.5414  0.3560 -0.0907
 5262SOL    HW227246   1.303   1.082   8.413  0.3371 -1.8050 -1.9850
 5263SOL     OW27247   1.543   3.076   9.488 -0.2075 -0.3683  0.2830
 5263SOL    HW127248   1.467   3.077   9.546  0.2772 -1.6364  0.9536
 5263SOL    HW227249   1.605   3.126   9.540 -1.4208  1.5756 -0.1675
 5264SOL     OW27250   3.624   2.894  11.090  1.0644 -0.3506 -0.5353
 5264SOL    HW127251   3.559   2.895  11.020  3.0712  1.3490 -2.3631
 5264SOL    HW227252   3.570   2.852  11.157 -0.0875 -0.4916 -1.5590
 5265SOL     OW27253   1.672   0.313   7.541  0.2093 -0.1765 -0.1089
 5265SOL    HW127254   1.611   0.361   7.598 -1.0880 -0.8923 -0.8777
 5265SOL    HW227255   1.615   0.248   7.500  0.4416  0.7299 -1.8280
 5266SOL     OW27256   0.158   2.186   3.553  0.3170 -0.4573 -0.0606
 5266SOL    HW127257   0.178   2.203   3.645  1.6942 -0.7582 -0.3118
 5266SOL    HW227258   0.130   2.094   3.556 -1.3176  0.0271 -0.1981
 5267SOL     OW27259   2.287   4.332   2.978 -0.3093  0.0962  0.4232
 5267SOL    HW127260   2.229   4.256   2.982 -0.5843  0.2620 -0.5849
 5267SOL    HW227261   2.331   4.336   3.063  2.6615 -0.1756 -1.1155
 5268SOL     OW27262   2.884   1.820   5.539 -0.2501 -0.6004 -0.5504
 5268SOL    HW127263   2.799   1.775   5.549  0.0000 -0.4978  2.0782
 5268SOL    HW227264   2.861   1.880   5.468 -1.0642 -0.6448 -0.3330
 5269SOL     OW27265   3.752   1.445   5.236  0.0120  0.1338  0.0141
 5269SOL    HW127266   3.705   1.384   5.293  0.3479 -0.4539 -0.3434
 5269SOL    HW227267   3.842   1.443   5.268  0.7214  2.3515 -1.8788
 5270SOL     OW27268   2.898   1.703   1.750  0.0457 -0.2229 -0.6622
 5270SOL    HW127269   2.989   1.679   1.763  0.4408  1.1974 -0.7638
 5270SOL    HW227270   2.881   1.741   1.836  0.0583 -0.3995 -0.5809
 5271SOL     OW27271   2.738   4.590   4.903 -0.0272  0.0799  0.1912
 5271SOL    HW127272   2.657   4.625   4.866 -0.7330 -1.0306  0.6798
 5271SOL    HW227273   2.703   4.537   4.974  1.1445  1.6460  1.9328
 5272SOL     OW27274   4.481   3.056   0.605  0.2861  0.2957  0.2051
 5272SOL    HW127275   4.406   3.110   0.629 -0.8393 -0.8710 -0.7045
 5272SOL    HW227276   4.467   3.070   0.511  0.5963  0.5357  0.1923
 5273SOL     OW27277   0.564   0.033   0.211 -0.3454  0.0864 -0.6044
 5273SOL    HW127278   0.618   0.096   0.163  2.0984 -0.7655  1.0235
 5273SOL    HW227279   0.517   4.708   0.141 -1.7044  0.8089 -0.1473
 5274SOL     OW27280   4.166   0.545   7.341 -0.1640 -0.1377 -0.1409
 5274SOL    HW127281   4.073   0.523   7.346  0.1254 -1.0419  1.3342
 5274SOL    HW227282   4.201   0.460   7.369 -0.1700  0.4863  1.7581
 5275SOL     OW27283   3.103   1.643   5.127 -0.0158  0.1964  0.1963
 5275SOL    HW127284   3.162   1.714   5.151  0.8086 -0.4982  0.2331
 5275SOL    HW227285   3.021   1.692   5.116  0.0485 -0.0322 -1.3700
 5276SOL     OW27286   2.533   0.002   4.771 -0.1403 -0.6735  0.4108
 5276SOL    HW127287   2.573   0.010   4.684  0.0348 -0.1101  0.5459
 5276SOL    HW227288   2.461   4.668   4.740  0.9914 -0.4748 -2.6391
 5277SOL     OW27289   3.596   2.679  15.254 -0.0941 -0.1961 -0.2418
 5277SOL    HW127290   3.675   2.649  15.207 -0.0081  1.1927 -0.9817
 5277SOL    HW227291   3.598   2.774  15.265  2.2859 -0.1003 -1.2525
 5278SOL     OW27292   4.047   3.570   0.036 -0.0404  0.1049 -0.0083
 5278SOL    HW127293   4.029   3.476   0.031  0.6671 -0.1045  1.3498
 5278SOL    HW227294   4.118   3.563   0.100 -1.2927 -0.2025  1.3451
 5279SOL     OW27295   2.138   2.613  15.952 -0.0749 -0.0089 -0.1806
 5279SOL    HW127296   2.046   2.597  15.931 -0.0428 -1.6570  0.8947
 5279SOL    HW227297   2.167   2.523  15.966  0.5678  0.1922 -0.1914
 5280SOL     OW27298   1.946   0.922   7.993  1.0459 -0.3214 -0.0262
 5280SOL    HW127299   2.005   0.921   8.068 -1.7071 -1.2329  2.1151
 5280SOL    HW227300   1.975   0.838   7.958 -0.5722 -1.4978  1.4814
 5281SOL     OW27301   3.295   1.293   6.470 -0.4197 -0.1611  0.8601
 5281SOL    HW127302   3.286   1.388   6.465 -0.7167 -0.1931  0.7530
 5281SOL    HW227303   3.202   1.271   6.482 -0.9273  1.0633 -0.8033
 5282SOL     OW27304   3.248   0.292   4.087  0.8223  0.3455 -0.2342
 5282SOL    HW127305   3.225   0.361   4.150 -2.0302 -2.0331  1.3183
 5282SOL    HW227306   3.180   0.227   4.104  0.5570  0.5106 -0.6607
 5283SOL     OW27307   2.128   1.953   4.970 -0.0669  0.5488  0.3021
 5283SOL    HW127308   2.151   1.914   4.886  0.6732  3.5241 -0.8754
 5283SOL    HW227309   2.035   1.930   4.976  0.1841 -0.2703  1.0403
 5284SOL     OW27310   2.290   2.708  17.495 -0.0355  0.3276 -0.1588
 5284SOL    HW127311   2.226   2.744  17.434  1.1914  1.4915 -0.7675
 5284SOL    HW227312   2.372   2.736  17.456  0.3990 -5.0106 -3.0708
 5285SOL     OW27313   1.421   2.400   4.877 -0.5305  0.1602 -0.0571
 5285SOL    HW127314   1.358   2.369   4.941 -1.6270  1.9252 -0.2637
 5285SOL    HW227315   1.380   2.482   4.849  0.9140  1.3067  1.1962
 5286SOL     OW27316   0.434   1.521   5.788  0.3125 -0.0630 -0.7620
 5286SOL    HW127317   0.507   1.485   5.739 -1.2898 -3.2181 -0.8485
 5286SOL    HW227318   0.386   1.439   5.805  2.1107 -1.1021 -0.6881
 5287SOL     OW27319   1.901   3.470   0.020 -0.3433  0.4817 -0.2094
 5287SOL    HW127320   1.892   3.507   0.107 -1.6936 -3.9081  1.5035
 5287SOL    HW227321   1.995   3.461   0.036 -0.7392 -0.3243  1.6032
 5288SOL     OW27322   3.685   1.298   0.147  0.0790  0.1510  0.0989
 5288SOL    HW127323   3.589   1.300   0.144  0.0956 -0.5124 -0.7656
 5288SOL    HW227324   3.706   1.342   0.229  2.1974 -0.6988  0.0117
 5289SOL     OW27325   0.564   1.706   6.381  0.4682 -0.4846  0.4859
 5289SOL    HW127326   0.475   1.695   6.348  0.0834  2.3449  0.5849
 5289SOL    HW227327   0.584   1.781   6.326 -0.1035 -0.6798  0.0112
 5290SOL     OW27328   3.896   3.152   6.125  0.1512 -0.2373 -0.3497
 5290SOL    HW127329   3.985   3.140   6.091  0.2864  1.2621 -0.5261
 5290SOL    HW227330   3.900   3.109   6.210 -0.1073  0.1681 -0.1310
 5291SOL     OW27331   3.757   2.608  16.922 -0.4708 -0.8093  0.1026
 5291SOL    HW127332   3.838   2.639  16.962 -1.7933 -1.4542  3.2213
 5291SOL    HW227333   3.727   2.550  16.991  0.6627 -0.3035  1.0204
 5292SOL     OW27334   3.508   2.261   9.898  0.0131  0.2177  0.2213
 5292SOL    HW127335   3.593   2.218   9.894 -1.6127 -3.0204  1.2005
 5292SOL    HW227336   3.440   2.201   9.929  1.7292 -0.8738  1.7940
 5293SOL     OW27337   1.853   1.386  13.522 -0.3923  0.1478 -0.6098
 5293SOL    HW127338   1.846   1.337  13.604 -1.3052 -0.7433 -1.2251
 5293SOL    HW227339   1.761   1.373  13.498 -0.0789 -0.9343 -1.1945
 5294SOL     OW27340   2.455   1.376   1.927  0.0094  0.3704 -0.2022
 5294SOL    HW127341   2.470   1.357   1.834  0.3672  0.1201 -0.0916
 5294SOL    HW227342   2.419   1.292   1.956 -0.3735  1.7548  3.2816
 5295SOL     OW27343   2.777   1.963  14.847 -0.5042  0.3428  0.3049
 5295SOL    HW127344   2.683   1.949  14.860 -0.2376 -1.7778 -0.1451
 5295SOL    HW227345   2.790   2.058  14.841 -0.2070  0.3173  0.5861
 5296SOL     OW27346   2.285   1.109  10.791  0.0352 -0.1798 -0.3815
 5296SOL    HW127347   2.246   1.098  10.704 -2.0956  0.4184  0.5005
 5296SOL    HW227348   2.307   1.203  10.793  0.3236 -0.2995  1.5715
 5297SOL     OW27349   3.865   2.303  15.992 -0.3933  0.4160 -0.1943
 5297SOL    HW127350   3.844   2.216  16.028  1.9781 -0.2825 -0.5359
 5297SOL    HW227351   3.945   2.295  15.941 -0.9131 -3.1055 -0.5098
 5298SOL     OW27352   3.100   0.308   0.178 -0.1458  0.6605 -0.8713
 5298SOL    HW127353   3.113   0.222   0.138 -1.0894 -0.8105  1.9743
 5298SOL    HW227354   3.010   0.308   0.210  0.3886  2.3721  0.6336
 5299SOL     OW27355   1.848   4.070  12.841  0.0008 -0.7827 -0.3519
 5299SOL    HW127356   1.816   4.028  12.761 -1.1718  1.6643 -1.1681
 5299SOL    HW227357   1.787   4.048  12.912 -1.0338 -3.2412 -2.0237
 5300SOL     OW27358   1.367   3.529  10.412  0.2013  0.2516  0.0802
 5300SOL    HW127359   1.443   3.585  10.402 -0.1433  0.7166  0.0868
 5300SOL    HW227360   1.339   3.535  10.504 -1.6750  0.3284 -0.4930
 5301SOL     OW27361   3.867   2.719  13.676 -0.0067  0.4355 -0.3687
 5301SOL    HW127362   3.960   2.727  13.698 -0.5380  0.1786  2.0400
 5301SOL    HW227363   3.850   2.788  13.613  1.1072  1.2477  0.2050
 5302SOL     OW27364   1.367   1.427  14.260 -0.4100 -0.4045 -0.0523
 5302SOL    HW127365   1.376   1.463  14.348  2.2982 -2.6844  0.5861
 5302SOL    HW227366   1.423   1.479  14.202  0.6310 -0.7406  0.6534
 5303SOL     OW27367   3.337   4.338  16.902  0.1220 -0.5364 -0.0057
 5303SOL    HW127368   3.356   4.427  16.873  0.2997 -0.2155  1.0913
 5303SOL    HW227369   3.422   4.296  16.895  0.5286  0.3148 -0.1920
 5304SOL     OW27370   4.549   4.430   8.882 -0.0991 -0.2547 -0.1008
 5304SOL    HW127371   4.598   4.377   8.945 -1.0172 -2.1587 -1.0073
 5304SOL    HW227372   4.519   4.371   8.813  2.7950  1.1857 -2.5876
 5305SOL     OW27373   0.543   2.469   2.527 -0.0957  0.4384 -0.1110
 5305SOL    HW127374   0.578   2.548   2.569  0.6441 -0.2658  0.6036
 5305SOL    HW227375   0.530   2.498   2.437  1.3245 -0.0869 -0.4874
 5306SOL     OW27376   3.217   1.260   8.842 -0.6732  0.4412  0.7259
 5306SOL    HW127377   3.150   1.231   8.780 -0.4298 -2.0870  1.6197
 5306SOL    HW227378   3.296   1.239   8.792 -1.5216  0.3432 -0.5659
 5307SOL     OW27379   2.704   2.955  16.991 -0.3163 -0.5711 -0.5725
 5307SOL    HW127380   2.719   2.869  16.951 -0.5636 -1.0326  0.3057
 5307SOL    HW227381   2.609   2.966  16.982 -0.9538 -4.0967  1.5506
 5308SOL     OW27382   1.818   3.539  10.585 -0.5546 -0.0948  0.3191
 5308SOL    HW127383   1.747   3.590  10.623 -0.2931  0.4806  0.0312
 5308SOL    HW227384   1.775   3.454  10.573 -2.2241  0.5324  1.7581
 5309SOL     OW27385   3.732   2.330  10.456 -0.6746 -0.0731 -0.6553
 5309SOL    HW127386   3.690   2.247  10.434 -2.1686  1.0343 -2.0625
 5309SOL    HW227387   3.709   2.377  10.375  2.9793  0.5802 -1.3101
 5310SOL     OW27388   2.795   0.621   6.013 -0.7865  0.2785  0.6357
 5310SOL    HW127389   2.701   0.615   5.997 -0.1957 -3.8173 -1.2709
 5310SOL    HW227390   2.809   0.546   6.070  0.8908 -0.5138 -0.8214
 5311SOL     OW27391   0.941   0.412   3.629  0.0724 -0.5058  0.2204
 5311SOL    HW127392   0.849   0.438   3.627  0.2754  0.1525 -0.4388
 5311SOL    HW227393   0.942   0.366   3.713 -0.7634 -0.1565  0.4260
 5312SOL     OW27394   3.012   0.503  14.289 -0.2438 -0.6168  0.2801
 5312SOL    HW127395   2.986   0.453  14.212 -0.2714  0.8156 -0.6533
 5312SOL    HW227396   3.057   0.440  14.346  0.4319  1.7595  2.3845
 5313SOL     OW27397   2.401   1.258   6.216  0.1375  0.4362 -0.0299
 5313SOL    HW127398   2.375   1.311   6.290 -0.5354  1.7961 -1.2407
 5313SOL    HW227399   2.473   1.208   6.254  1.0208  0.4348 -1.6738
 5314SOL     OW27400   3.066   4.096  15.372  0.0183  0.3084  0.1762
 5314SOL    HW127401   3.062   4.189  15.394  4.0265  0.2426  1.1480
 5314SOL    HW227402   2.975   4.075  15.395  0.5527  0.4178  2.3525
 5315SOL     OW27403   4.140   0.007   1.285 -0.0078 -0.3353  0.1704
 5315SOL    HW127404   4.128   4.667   1.211  0.2396  0.7212 -0.7384
 5315SOL    HW227405   4.227   4.700   1.315 -0.2397 -1.3101 -0.0439
 5316SOL     OW27406   2.695   0.524   1.668  0.0225  0.5044 -0.2089
 5316SOL    HW127407   2.639   0.447   1.663  1.2817 -0.4142  0.0109
 5316SOL    HW227408   2.671   0.560   1.753  1.1236  1.6752 -0.3936
 5317SOL     OW27409   4.078   3.177   8.273 -0.3042 -0.1985  0.9115
 5317SOL    HW127410   4.007   3.208   8.216 -0.3027  0.7074  1.4016
 5317SOL    HW227411   4.031   3.098   8.299  0.2657 -0.6459  0.5881
 5318SOL     OW27412   4.407   2.997   5.383  0.5498  0.4484 -0.1269
 5318SOL    HW127413   4.366   2.936   5.445  1.3448 -1.9542 -1.9748
 5318SOL    HW227414   4.329   3.036   5.344  0.1834 -1.4116 -1.2925
 5319SOL     OW27415   1.395   2.049  12.510  0.0859  0.3222 -0.2266
 5319SOL    HW127416   1.470   2.100  12.480  0.2269 -0.1477 -0.6726
 5319SOL    HW227417   1.427   2.037  12.599  0.7724 -0.2713 -0.5528
 5320SOL     OW27418   4.165   3.211   3.297 -0.2562  0.6952 -0.2798
 5320SOL    HW127419   4.110   3.285   3.272 -1.5819  0.3801  1.6628
 5320SOL    HW227420   4.187   3.244   3.384  0.6611  1.2658 -0.7342
 5321SOL     OW27421   4.650   2.900   7.357 -0.6735  0.0222  0.6047
 5321SOL    HW127422   0.018   2.935   7.354 -2.1527  3.3559 -3.9943
 5321SOL    HW227423   4.600   2.981   7.358 -1.1721 -0.2594 -0.5568
 5322SOL     OW27424   4.631   2.105   1.149  0.3765 -0.2456  0.3855
 5322SOL    HW127425   4.623   2.014   1.175  0.2228 -0.9473 -2.1393
 5322SOL    HW227426   4.576   2.152   1.212  1.2200 -1.7620  2.2321
 5323SOL     OW27427   0.005   3.238   7.834 -0.0952 -0.0273  0.5172
 5323SOL    HW127428   0.096   3.209   7.837 -0.1013 -0.0201  0.7781
 5323SOL    HW227429   4.679   3.156   7.820  0.6459  0.0794 -2.7392
 5324SOL     OW27430   1.951   2.018   5.603  0.2301 -0.6990 -0.0723
 5324SOL    HW127431   1.931   2.045   5.513 -0.0183 -1.2678 -0.1839
 5324SOL    HW227432   1.870   1.976   5.629  0.0290 -0.3565 -0.1481
 5325SOL     OW27433   1.781   2.190   6.304 -0.1275 -0.2690 -0.5391
 5325SOL    HW127434   1.719   2.240   6.251 -0.3531 -0.6313 -0.6151
 5325SOL    HW227435   1.852   2.176   6.240 -1.6524 -1.2074 -2.0039
 5326SOL     OW27436   0.881   3.466  10.527  0.4582 -0.6615 -0.3596
 5326SOL    HW127437   0.866   3.522  10.451  1.7897 -1.1255 -0.9684
 5326SOL    HW227438   0.794   3.425  10.527 -0.1041  0.5475 -1.3375
 5327SOL     OW27439   2.504   1.215   8.261  0.2852 -0.2242 -0.1269
 5327SOL    HW127440   2.544   1.254   8.338  3.6905 -0.2484 -1.8772
 5327SOL    HW227441   2.440   1.284   8.240  1.2938  0.4062 -1.1218
 5328SOL     OW27442   1.658   1.601   4.103 -0.5224 -0.1359 -0.0891
 5328SOL    HW127443   1.707   1.682   4.118 -1.4646  0.4528 -0.2328
 5328SOL    HW227444   1.656   1.581   4.197  0.1122  0.4841  0.0589
 5329SOL     OW27445   0.376   4.643   2.107  0.2546 -0.5904  0.3547
 5329SOL    HW127446   0.310   4.650   2.038  1.5998  2.0255 -0.6739
 5329SOL    HW227447   0.328   4.653   2.189  1.4489  0.5628  0.9260
 5330SOL     OW27448   3.214   3.153  17.267  0.2025 -0.0302 -0.3034
 5330SOL    HW127449   3.240   3.218  17.333  1.4340  0.5074 -1.3036
 5330SOL    HW227450   3.265   3.076  17.293  3.5352  1.9493 -0.9960
 5331SOL     OW27451   4.612   2.605   1.286  0.4733  0.2477 -0.2853
 5331SOL    HW127452   4.695   2.593   1.333 -0.1614 -1.2741  0.4205
 5331SOL    HW227453   4.636   2.674   1.224  1.2313  0.1787 -0.0738
 5332SOL     OW27454   1.987   0.644   3.499 -0.7161 -0.1505  0.4315
 5332SOL    HW127455   1.909   0.673   3.548 -0.2935 -0.9560  1.5867
 5332SOL    HW227456   2.031   0.726   3.477 -2.1193  0.2890 -0.7490
 5333SOL     OW27457   3.808   2.310   6.467 -0.2478  0.2871  0.3034
 5333SOL    HW127458   3.787   2.379   6.529  0.2320 -0.1129  0.9044
 5333SOL    HW227459   3.757   2.236   6.499  0.4697 -0.8579 -1.1273
 5334SOL     OW27460   1.932   2.481   3.625 -0.6752 -0.2135 -0.1987
 5334SOL    HW127461   1.920   2.559   3.570  0.3520 -0.4004 -0.6953
 5334SOL    HW227462   2.025   2.463   3.606  0.1405  1.6143  2.0905
 5335SOL     OW27463   2.748   3.417   4.019  0.2092  0.7099  0.6590
 5335SOL    HW127464   2.690   3.433   3.945 -0.0528 -1.8477  0.3044
 5335SOL    HW227465   2.716   3.487   4.076 -0.8293 -0.5937  1.6931
 5336SOL     OW27466   1.961   3.331   8.464 -0.0875  0.0215  0.9242
 5336SOL    HW127467   1.912   3.318   8.383  1.4020  1.4672 -0.2168
 5336SOL    HW227468   1.973   3.426   8.471 -0.9513  0.0906  1.4233
 5337SOL     OW27469   0.285   0.911   6.651  0.1518 -0.1304 -0.1524
 5337SOL    HW127470   0.367   0.960   6.652  0.5909 -0.8649 -0.9031
 5337SOL    HW227471   0.265   0.901   6.745  0.4159 -1.6523 -0.2542
 5338SOL     OW27472   2.914   4.466   7.862 -0.5028  0.3759 -0.2171
 5338SOL    HW127473   2.925   4.532   7.930 -1.1088  0.3937 -0.1330
 5338SOL    HW227474   2.823   4.473   7.833 -0.8914  1.8763  1.4402
 5339SOL     OW27475   4.375   3.755  10.233  0.1928 -0.5844 -0.3437
 5339SOL    HW127476   4.468   3.761  10.255  0.2530  0.3617 -0.8469
 5339SOL    HW227477   4.341   3.761  10.322 -3.4663 -0.1100 -1.7894
 5340SOL     OW27478   2.009   1.815   5.860  0.4979  0.5986 -0.1119
 5340SOL    HW127479   1.945   1.813   5.790  1.3089  1.3761 -0.8701
 5340SOL    HW227480   1.951   1.850   5.927  2.6285  0.7657  1.6806
 5341SOL     OW27481   3.839   0.873   3.519  0.1206 -0.2220  0.9743
 5341SOL    HW127482   3.780   0.879   3.444  1.1900 -1.6708 -0.0099
 5341SOL    HW227483   3.814   0.785   3.549  1.3117 -0.7056  0.5708
 5342SOL     OW27484   4.243   0.008  13.275 -0.1270 -0.0228 -0.0262
 5342SOL    HW127485   4.303   0.063  13.326 -0.6551  1.3113 -0.8442
 5342SOL    HW227486   4.251   4.639  13.307 -1.0268 -1.2007 -3.0742
 5343SOL     OW27487   0.077   0.912   3.516 -0.2820  0.2296  0.5108
 5343SOL    HW127488   0.103   0.982   3.577  1.7772  0.6265 -0.8417
 5343SOL    HW227489   0.132   0.848   3.562 -0.6090  0.8847  1.8219
 5344SOL     OW27490   1.239   4.156  11.633 -0.0041  0.3109 -0.1447
 5344SOL    HW127491   1.208   4.074  11.594  0.4194 -0.4568  1.1221
 5344SOL    HW227492   1.260   4.142  11.725 -1.3646 -0.3117  0.0677
 5345SOL     OW27493   0.944   0.804   8.763 -0.3662  0.1810 -0.1572
 5345SOL    HW127494   0.901   0.755   8.834  2.0972 -0.6717  0.7538
 5345SOL    HW227495   0.867   0.783   8.710 -1.1222  0.2014  0.9263
 5346SOL     OW27496   1.066   1.810  12.829 -0.4026 -0.1553 -0.6274
 5346SOL    HW127497   1.016   1.855  12.897  0.1391 -0.8476  0.2365
 5346SOL    HW227498   1.113   1.887  12.798  0.6285 -0.9742 -1.0979
 5347SOL     OW27499   3.497   0.106  14.474 -0.1534 -0.1323  0.3838
 5347SOL    HW127500   3.507   0.103  14.379  0.9599 -0.6763  0.5162
 5347SOL    HW227501   3.402   0.112  14.483 -0.5884 -1.0686 -3.5326
 5348SOL     OW27502   4.529   4.475   3.946  0.1740 -0.1695  0.4836
 5348SOL    HW127503   4.534   4.405   4.012  1.4557 -1.4120 -0.9478
 5348SOL    HW227504   4.437   4.463   3.923  0.4488  1.9295 -1.6507
 5349SOL     OW27505   0.777   4.365   3.960 -0.2093  0.6867  0.4531
 5349SOL    HW127506   0.776   4.321   3.875  1.3107 -1.3470  1.4823
 5349SOL    HW227507   0.685   4.358   3.984 -0.4668 -0.5320 -0.9135
 5350SOL     OW27508   3.963   3.562   6.672  0.3559  0.0867  0.2770
 5350SOL    HW127509   4.057   3.572   6.656  0.0826  1.5172 -0.4345
 5350SOL    HW227510   3.957   3.602   6.759 -1.4508  1.2400 -0.3673
 5351SOL     OW27511   2.023   0.780   3.792 -0.4605 -0.6290  0.2180
 5351SOL    HW127512   2.113   0.795   3.764 -0.1774 -1.3445  0.7366
 5351SOL    HW227513   1.976   0.862   3.776  0.4354 -0.0476  0.5579
 5352SOL     OW27514   2.602   1.323   8.503  0.2913  0.0207 -0.2589
 5352SOL    HW127515   2.528   1.272   8.536 -0.0867  1.7667  1.6242
 5352SOL    HW227516   2.678   1.272   8.532  1.5489  1.9671 -0.1094
 5353SOL     OW27517   1.651   0.728  11.619  0.0656  0.2021  1.0682
 5353SOL    HW127518   1.747   0.731  11.616  0.1808 -2.8409  1.5150
 5353SOL    HW227519   1.641   0.725  11.524  2.1858  0.7433  0.8244
 5354SOL     OW27520   1.726   0.744  10.444 -0.3693 -0.0417 -0.1930
 5354SOL    HW127521   1.688   0.796  10.515  0.1165 -1.3265  1.0094
 5354SOL    HW227522   1.643   0.710  10.410 -1.2292  1.3849  0.4698
 5355SOL     OW27523   4.332   0.420  17.326 -0.1020  0.6255  0.6566
 5355SOL    HW127524   4.340   0.511  17.352 -2.0555  1.8802 -3.1615
 5355SOL    HW227525   4.406   0.418  17.265 -1.3628  1.1832 -0.8792
 5356SOL     OW27526   4.191   3.316   6.272  1.0946  0.1217  0.1275
 5356SOL    HW127527   4.205   3.236   6.323 -0.5413  0.6768  1.4484
 5356SOL    HW227528   4.169   3.281   6.186  2.0458  0.5262 -0.2736
 5357SOL     OW27529   0.292   3.493   3.372  0.2690 -0.4094  0.0199
 5357SOL    HW127530   0.374   3.537   3.396  0.3681 -1.9283  2.4724
 5357SOL    HW227531   0.331   3.423   3.319  0.3783 -0.3034 -0.0420
 5358SOL     OW27532   3.497   1.467   1.245 -0.6151  0.0406 -0.2447
 5358SOL    HW127533   3.506   1.376   1.218 -0.9668  0.0186 -0.2862
 5358SOL    HW227534   3.548   1.510   1.176 -0.3009  0.7498  0.4196
 5359SOL     OW27535   0.862   0.945  17.004  0.3124  0.1299  0.3727
 5359SOL    HW127536   0.932   0.895  17.046  2.5217  1.5650 -1.5765
 5359SOL    HW227537   0.792   0.921  17.065 -0.7679  1.3558 -0.3925
 5360SOL     OW27538   1.006   3.308   5.473 -0.1700 -0.4128  0.4946
 5360SOL    HW127539   0.916   3.296   5.503 -0.7227  0.2066 -0.8873
 5360SOL    HW227540   0.993   3.378   5.408  1.8387 -0.6236 -0.1395
 5361SOL     OW27541   0.224   3.262  12.889  0.1695  0.5615  0.0152
 5361SOL    HW127542   0.144   3.315  12.888  0.6641  1.3047  0.6808
 5361SOL    HW227543   0.277   3.322  12.836  0.0430  0.3042 -0.4048
 5362SOL     OW27544   0.431   0.008   3.750 -0.0317 -0.4042 -0.0008
 5362SOL    HW127545   0.485   0.025   3.672 -1.0481 -1.7595 -0.9944
 5362SOL    HW227546   0.390   4.651   3.714 -0.3464 -0.9218  1.5019
 5363SOL     OW27547   1.155   1.941   4.593  0.0218  0.4063 -0.3392
 5363SOL    HW127548   1.129   1.956   4.684  0.1002 -3.0862  0.2394
 5363SOL    HW227549   1.188   1.852   4.596  0.6367  0.6327 -0.4483
 5364SOL     OW27550   1.945   4.322  13.800 -0.4066 -0.3085 -0.2236
 5364SOL    HW127551   1.951   4.227  13.808  0.9364 -0.4455 -2.9338
 5364SOL    HW227552   1.946   4.326  13.705 -3.7430  1.6411 -0.1666
 5365SOL     OW27553   3.028   4.699   5.205 -0.4824  0.0538 -0.1950
 5365SOL    HW127554   3.100   0.034   5.236 -0.0738 -1.8119  2.2805
 5365SOL    HW227555   3.074   4.627   5.162 -0.2704  0.1395 -0.1127
 5366SOL     OW27556   4.291   0.296   6.376 -0.4320 -0.2491  0.3026
 5366SOL    HW127557   4.273   0.213   6.331  1.0176 -1.2853  1.6252
 5366SOL    HW227558   4.384   0.309   6.363 -0.6951  2.5157  1.2993
 5367SOL     OW27559   4.015   1.960   5.021 -0.1460 -0.1682 -0.1206
 5367SOL    HW127560   3.980   1.873   5.003 -1.2576  0.0069  1.1659
 5367SOL    HW227561   3.981   1.987   5.107  1.0479 -1.0283  0.6161
 5368SOL     OW27562   1.755   1.213   6.220 -0.6970  0.0413  0.5032
 5368SOL    HW127563   1.741   1.265   6.300  1.9975  2.2834 -0.5050
 5368SOL    HW227564   1.797   1.134   6.252 -0.8678  0.7467  2.4804
 5369SOL     OW27565   3.912   3.178   1.841 -0.5902 -0.3356  0.0762
 5369SOL    HW127566   3.948   3.224   1.917 -1.1950 -0.1798  0.2658
 5369SOL    HW227567   3.873   3.249   1.791 -0.1479 -0.5301 -0.5415
 5370SOL     OW27568   1.613   3.953  10.634 -0.6661  0.0105  0.2271
 5370SOL    HW127569   1.634   4.043  10.657  1.0014 -0.4160  0.3831
 5370SOL    HW227570   1.545   3.936  10.698 -0.2864  0.8162  0.8382
 5371SOL     OW27571   2.287   1.157  15.694  0.4839 -0.3722 -0.6000
 5371SOL    HW127572   2.214   1.212  15.722  0.1176 -2.3192  2.2849
 5371SOL    HW227573   2.268   1.074  15.738 -2.0305  0.3090 -0.4270
 5372SOL     OW27574   2.936   1.464   7.804 -0.3582 -0.3240 -0.0920
 5372SOL    HW127575   3.023   1.426   7.791 -0.3158  0.3398 -1.8934
 5372SOL    HW227576   2.936   1.536   7.739  1.5442 -1.7537 -1.6934
 5373SOL     OW27577   0.421   0.963   2.200 -0.0412 -0.0336 -0.1628
 5373SOL    HW127578   0.485   0.912   2.250  0.7044 -0.0117 -1.0942
 5373SOL    HW227579   0.477   0.996   2.129 -0.4783 -0.7032 -0.8241
 5374SOL     OW27580   4.294   3.435  17.145  0.2448  0.5969 -0.1841
 5374SOL    HW127581   4.376   3.460  17.103  0.8355 -1.5569 -0.3074
 5374SOL    HW227582   4.239   3.513  17.135  2.2409  1.9598 -0.5700
 5375SOL     OW27583   0.474   0.950   3.410 -0.4840 -0.6166 -0.5198
 5375SOL    HW127584   0.453   0.906   3.492  1.1381  0.8115  0.6661
 5375SOL    HW227585   0.393   0.998   3.390 -0.4681 -0.8045 -1.0348
 5376SOL     OW27586   0.769   4.550   7.226 -0.4613  0.5634 -0.2811
 5376SOL    HW127587   0.781   4.524   7.134  1.6425  1.7596 -0.3340
 5376SOL    HW227588   0.680   4.586   7.224 -0.4552  0.5992  0.1785
 5377SOL     OW27589   1.449   1.739   8.027 -0.1461  0.0428 -0.2940
 5377SOL    HW127590   1.360   1.704   8.022  0.0944 -0.7044  0.7635
 5377SOL    HW227591   1.477   1.733   7.935  0.3408 -0.1505 -0.1287
 5378SOL     OW27592   4.318   4.372   2.600  0.2352  0.2840  0.1580
 5378SOL    HW127593   4.333   4.291   2.649 -2.0939 -0.7227 -0.8096
 5378SOL    HW227594   4.368   4.368   2.519  0.9432  0.2612  0.5878
 5379SOL     OW27595   3.868   0.243   6.180  0.0896 -0.0379 -0.2837
 5379SOL    HW127596   3.927   0.255   6.105 -0.0259 -0.2501 -0.4079
 5379SOL    HW227597   3.832   0.331   6.187 -1.3836 -0.9167  3.2113
 5380SOL     OW27598   1.770   4.264  11.494 -0.6423 -0.5572 -0.3179
 5380SOL    HW127599   1.774   4.174  11.523 -3.0106 -0.3067  0.7667
 5380SOL    HW227600   1.758   4.254  11.400 -1.2899  2.5621 -0.5769
 5381SOL     OW27601   3.632   1.023   0.603  0.5100  0.6057  0.1999
 5381SOL    HW127602   3.718   0.999   0.567  0.4463  1.2829 -0.3872
 5381SOL    HW227603   3.640   1.109   0.643  0.5318  0.0556  1.4010
 5382SOL     OW27604   1.156   1.878   7.082  0.1005 -0.6215 -0.4380
 5382SOL    HW127605   1.071   1.866   7.126  0.6913  0.8473  1.1090
 5382SOL    HW227606   1.186   1.788   7.095  0.8088 -0.3622 -0.2677
 5383SOL     OW27607   2.493   1.761   0.828  0.4236 -0.6220 -0.2996
 5383SOL    HW127608   2.441   1.681   0.835  2.7471 -2.1311 -0.1864
 5383SOL    HW227609   2.566   1.753   0.889  0.6946  2.6114 -0.1681
 5384SOL     OW27610   0.494   0.234   1.435 -0.0466 -0.2777  0.3382
 5384SOL    HW127611   0.572   0.274   1.396  0.5189  0.2507  1.9920
 5384SOL    HW227612   0.473   0.175   1.363  0.7654 -0.1443 -0.0162
 5385SOL     OW27613   0.097   3.834   2.672 -0.7097  0.0550  0.2360
 5385SOL    HW127614   0.080   3.757   2.619 -1.9405  0.2143  0.4053
 5385SOL    HW227615   0.135   3.799   2.753  2.1822  3.8622  0.5205
 5386SOL     OW27616   3.329   3.082   2.863  0.2473 -0.4816 -0.0347
 5386SOL    HW127617   3.338   3.040   2.777  1.2649  1.2289 -0.7642
 5386SOL    HW227618   3.411   3.131   2.875 -0.5007  1.4778 -2.8335
 5387SOL     OW27619   4.193   2.860   3.415  0.6152  0.4858 -0.4951
 5387SOL    HW127620   4.242   2.777   3.409  2.6989  1.6167  0.7621
 5387SOL    HW227621   4.114   2.840   3.364 -0.3768 -1.1902  1.6678
 5388SOL     OW27622   1.101   4.367   3.755  0.1616  0.0298 -0.0810
 5388SOL    HW127623   1.157   4.307   3.804 -0.7686  0.3600  1.3822
 5388SOL    HW227624   1.147   4.382   3.672 -1.1542 -0.4672 -0.9008
 5389SOL     OW27625   0.227   0.281   6.266  0.1800  0.1061  0.4428
 5389SOL    HW127626   0.148   0.335   6.274  0.1439  0.2836 -1.1057
 5389SOL    HW227627   0.251   0.294   6.174  2.2745  0.2452  1.0147
 5390SOL     OW27628   3.035   4.144   6.311  0.0283 -0.1189 -0.4056
 5390SOL    HW127629   3.072   4.064   6.275  2.0183  0.0228  1.3374
 5390SOL    HW227630   3.080   4.163   6.394 -0.5457  1.9007 -0.5444
 5391SOL     OW27631   0.883   1.826   5.364  0.3438 -0.0167  0.0775
 5391SOL    HW127632   0.943   1.754   5.345 -1.3927 -1.0769 -1.3611
 5391SOL    HW227633   0.910   1.896   5.305 -0.2320  0.2881  0.1841
 5392SOL     OW27634   0.727   0.600   9.341 -0.2549  0.3448  0.4739
 5392SOL    HW127635   0.790   0.671   9.330  0.2326  0.2131  2.3518
 5392SOL    HW227636   0.745   0.545   9.265 -1.2221 -0.3994  0.7847
 5393SOL     OW27637   2.319   4.517   0.998  0.1956 -0.3509  0.1289
 5393SOL    HW127638   2.254   4.572   0.954 -0.8530 -1.9749 -0.3470
 5393SOL    HW227639   2.307   4.536   1.091 -0.2117 -0.2058  0.0443
 5394SOL     OW27640   2.581   3.957   3.700 -0.2910 -0.5888 -0.1161
 5394SOL    HW127641   2.545   3.990   3.782  0.2589  0.1485 -0.1670
 5394SOL    HW227642   2.518   3.886   3.688 -0.7260 -0.1950 -0.1660
 5395SOL     OW27643   0.942   4.325  15.781  0.1175 -0.6285  0.9129
 5395SOL    HW127644   0.963   4.406  15.734 -0.0006 -1.0497  0.1309
 5395SOL    HW227645   0.849   4.334  15.800  0.2962  0.8510  1.0999
 5396SOL     OW27646   3.963   4.181   9.513  0.6609 -0.8707  0.4457
 5396SOL    HW127647   3.928   4.122   9.580 -0.5987 -1.0398 -0.3542
 5396SOL    HW227648   3.913   4.160   9.434  3.9030  1.0181 -2.1259
 5397SOL     OW27649   3.630   2.858   6.813 -0.4101  0.0297  0.1862
 5397SOL    HW127650   3.560   2.877   6.750  0.3304  0.2634 -0.5757
 5397SOL    HW227651   3.601   2.913   6.885  0.6756  2.1178 -0.9803
 5398SOL     OW27652   1.246   3.729   2.441 -0.2051 -0.0926 -0.2459
 5398SOL    HW127653   1.223   3.820   2.461  0.8835  0.4213 -1.3658
 5398SOL    HW227654   1.245   3.738   2.346  2.4601  0.1614 -0.2467
 5399SOL     OW27655   3.872   1.875   5.820  0.1770  0.5843  0.4355
 5399SOL    HW127656   3.932   1.896   5.748  1.6708 -1.6778  1.0275
 5399SOL    HW227657   3.930   1.876   5.896  2.5956 -1.6746 -1.3649
 5400SOL     OW27658   0.086   2.432   7.646  0.4059  0.1023  0.4897
 5400SOL    HW127659   0.180   2.415   7.655  0.3233 -0.7495 -0.2935
 5400SOL    HW227660   0.058   2.382   7.570  1.3033 -1.3565  1.1208
 5401SOL     OW27661   1.256   1.659   3.123 -0.5677 -0.6722  0.2312
 5401SOL    HW127662   1.277   1.575   3.081 -0.4505 -0.5538  0.0557
 5401SOL    HW227663   1.204   1.698   3.054  0.8699 -0.0567 -0.4988
 5402SOL     OW27664   3.090   2.777  16.990 -0.3343 -0.4067  0.0803
 5402SOL    HW127665   3.050   2.864  16.988 -0.9958 -0.6756  1.4977
 5402SOL    HW227666   3.169   2.789  17.043  0.4933 -1.4412 -0.9322
 5403SOL     OW27667   1.799   4.265   6.218 -0.5703 -0.3162  0.2930
 5403SOL    HW127668   1.746   4.229   6.146 -1.4067  0.2343  0.6329
 5403SOL    HW227669   1.810   4.358   6.197 -1.0855 -1.0409 -3.2929
 5404SOL     OW27670   0.881   2.359  15.278  0.1218 -0.0798 -0.6934
 5404SOL    HW127671   0.908   2.418  15.208 -0.8938  1.0779 -0.0993
 5404SOL    HW227672   0.804   2.323  15.235  1.0592 -1.7682 -0.9832
 5405SOL     OW27673   1.610   2.944   7.728  0.0269  0.2593  0.0927
 5405SOL    HW127674   1.571   3.030   7.717 -0.0498 -0.0450 -2.0314
 5405SOL    HW227675   1.578   2.893   7.653  3.3569  0.4921 -1.4650
 5406SOL     OW27676   3.699   4.145   8.053 -0.4401 -0.4524  0.3685
 5406SOL    HW127677   3.789   4.139   8.020 -0.8143 -1.9661 -0.3453
 5406SOL    HW227678   3.711   4.193   8.136 -0.6870  1.4290 -0.6756
 5407SOL     OW27679   3.899   2.824   6.103  0.4790 -0.0262  0.8834
 5407SOL    HW127680   3.957   2.799   6.175  0.8594  1.6278  1.1384
 5407SOL    HW227681   3.916   2.916   6.083  0.8205 -0.9263 -2.9173
 5408SOL     OW27682   3.348   1.527   2.795 -0.0004  0.5854 -0.2015
 5408SOL    HW127683   3.423   1.539   2.736  1.8949 -0.0949  2.0339
 5408SOL    HW227684   3.273   1.527   2.737  1.3898 -2.3355 -1.9646
 5409SOL     OW27685   4.651   2.713   3.846  0.2694  0.5929  0.7758
 5409SOL    HW127686   4.678   2.674   3.763 -1.6207  1.0155 -0.0470
 5409SOL    HW227687   4.689   2.801   3.838  0.7673  0.3867  0.8414
 5410SOL     OW27688   4.000   0.156   3.012  0.2438  0.0793 -0.5444
 5410SOL    HW127689   3.921   0.205   3.038 -0.7671 -2.0007  0.2618
 5410SOL    HW227690   4.064   0.205   3.063  1.0935 -0.6131 -0.9535
 5411SOL     OW27691   0.372   0.120  10.643  0.3928 -0.0065  0.0010
 5411SOL    HW127692   0.408   0.208  10.627 -1.1398  0.8247  1.1716
 5411SOL    HW227693   0.389   0.112  10.736  1.8506 -0.6945 -0.3240
 5412SOL     OW27694   1.328   1.667   1.458 -0.2351 -0.1867 -0.6352
 5412SOL    HW127695   1.246   1.645   1.415 -0.3635  0.6356 -0.7966
 5412SOL    HW227696   1.327   1.762   1.455  0.3191 -0.2279 -2.3262
 5413SOL     OW27697   2.459   0.162   6.840 -0.7052  0.7905  0.1742
 5413SOL    HW127698   2.366   0.148   6.860 -0.2947 -0.3777  1.2866
 5413SOL    HW227699   2.504   0.109   6.905 -0.9258 -0.6893 -0.8804
 5414SOL     OW27700   0.824   1.749   8.572  0.4852 -0.0607  0.5647
 5414SOL    HW127701   0.824   1.814   8.502 -1.4352 -0.7796 -0.1006
 5414SOL    HW227702   0.748   1.755   8.629 -0.1490  0.3118 -0.3215
 5415SOL     OW27703   1.815   1.956   3.869  0.3736 -0.4553 -0.6462
 5415SOL    HW127704   1.903   1.990   3.886  0.2586  0.5963 -2.1939
 5415SOL    HW227705   1.831   1.914   3.785  4.4310  1.7384 -0.9781
 5416SOL     OW27706   1.722   0.676   7.653  0.0838  0.3501 -0.1898
 5416SOL    HW127707   1.629   0.678   7.629 -0.3868 -0.0980  1.5682
 5416SOL    HW227708   1.741   0.769   7.666 -1.6396  0.7630 -0.6330
 5417SOL     OW27709   0.583   2.718   6.966  0.7817  0.2985  0.2599
 5417SOL    HW127710   0.534   2.690   6.889  0.7686  1.1930 -0.0568
 5417SOL    HW227711   0.596   2.630   7.002  0.5869 -0.2050 -0.8958
 5418SOL     OW27712   3.628   3.563   3.817  0.4188 -0.7118  0.5500
 5418SOL    HW127713   3.575   3.582   3.895  0.0901 -1.1640  0.4388
 5418SOL    HW227714   3.614   3.639   3.760 -0.8758 -2.1368 -1.0227
 5419SOL     OW27715   0.051   4.449  10.590 -0.2731 -0.1764 -0.5013
 5419SOL    HW127716   0.121   4.515  10.583 -1.0101  0.3845 -2.8604
 5419SOL    HW227717   0.087   4.392  10.657  0.6216  0.4874 -0.4211
 5420SOL     OW27718   3.044   2.958   5.161 -0.5938 -0.0085  0.0091
 5420SOL    HW127719   3.059   2.907   5.241 -1.8053 -1.1241 -0.4648
 5420SOL    HW227720   3.027   2.876   5.113 -1.7362  0.6148 -0.6604
 5421SOL     OW27721   4.585   1.519  15.755  0.1321 -0.5148 -0.1774
 5421SOL    HW127722   4.611   1.611  15.747  0.4672 -0.6235 -0.3369
 5421SOL    HW227723   4.663   1.486  15.799 -0.8686 -1.2158  1.0728
 5422SOL     OW27724   3.795   3.821   3.775 -0.4535  0.1232  0.2644
 5422SOL    HW127725   3.864   3.845   3.836 -0.0541  0.1249 -0.1899
 5422SOL    HW227726   3.805   3.882   3.702  0.7754 -2.0097 -1.3492
 5423SOL     OW27727   1.887   0.683   6.537 -0.3076  0.1897  0.2578
 5423SOL    HW127728   1.958   0.653   6.480 -0.4486  0.6344 -0.1538
 5423SOL    HW227729   1.815   0.635   6.496  0.1769  1.1891 -1.7583
 5424SOL     OW27730   2.399   3.521   7.081 -0.2046  0.5195  0.2531
 5424SOL    HW127731   2.329   3.480   7.030  2.3238 -0.7700 -2.1993
 5424SOL    HW227732   2.381   3.483   7.167 -2.2055  0.2853 -0.2671
 5425SOL     OW27733   3.671   0.078   4.981 -0.0190  0.1861  0.4590
 5425SOL    HW127734   3.616   0.068   5.059 -0.3816  0.2360  0.2133
 5425SOL    HW227735   3.694   4.707   4.964 -0.5757  0.0358  0.5098
 5426SOL     OW27736   0.059   2.657  12.908 -0.4275  0.4044 -0.1522
 5426SOL    HW127737   0.037   2.567  12.928 -3.2839  0.9021 -1.0677
 5426SOL    HW227738   0.090   2.657  12.817 -0.9833 -0.3448 -0.3418
 5427SOL     OW27739   1.750   2.676   8.153 -0.4049  0.1560 -0.2514
 5427SOL    HW127740   1.741   2.725   8.071  1.5095 -0.0199 -0.5814
 5427SOL    HW227741   1.834   2.634   8.137 -0.4253  0.0396 -0.0391
 5428SOL     OW27742   2.409   4.262   4.366 -0.0061  0.1469  0.4699
 5428SOL    HW127743   2.446   4.343   4.401  2.1003 -0.6521  0.1118
 5428SOL    HW227744   2.350   4.299   4.302  1.5315  0.9402 -0.4892
 5429SOL     OW27745   2.156   4.410  14.105 -0.0213  0.0281 -0.2969
 5429SOL    HW127746   2.083   4.437  14.161 -0.5764 -1.6596 -0.2249
 5429SOL    HW227747   2.230   4.398  14.165 -0.2076 -0.2701 -0.1299
 5430SOL     OW27748   3.262   3.379   0.158 -0.2204  0.2404 -0.1331
 5430SOL    HW127749   3.296   3.462   0.125 -2.5996  0.3721 -2.3019
 5430SOL    HW227750   3.320   3.357   0.230 -1.3950  3.1121  1.6967
 5431SOL     OW27751   2.711   4.464  12.348 -0.0458 -0.0401  0.0499
 5431SOL    HW127752   2.742   4.380  12.381  0.4003 -0.4964 -1.5226
 5431SOL    HW227753   2.710   4.455  12.253  0.3707 -0.7252  0.1064
 5432SOL     OW27754   3.279   1.698  10.227  0.3161  0.2760 -0.3788
 5432SOL    HW127755   3.213   1.706  10.158  0.1255  1.6501 -0.0354
 5432SOL    HW227756   3.280   1.790  10.255  3.3030  0.4443 -1.0850
 5433SOL     OW27757   0.528   2.032  17.252  0.4654  0.9030 -0.0389
 5433SOL    HW127758   0.476   1.967  17.299  0.6741 -0.3979 -1.6224
 5433SOL    HW227759   0.531   2.099  17.321 -1.0693  0.5331  0.3938
 5434SOL     OW27760   0.994   2.980   3.761  0.0609  0.1226 -0.0002
 5434SOL    HW127761   0.999   2.892   3.723  1.7258 -0.0773  0.6765
 5434SOL    HW227762   1.072   3.023   3.727 -1.0688 -0.4651 -3.4033
 5435SOL     OW27763   4.533   2.077  14.733 -0.3638 -0.7546 -0.5402
 5435SOL    HW127764   4.573   2.111  14.652  0.1216  1.1552  0.5163
 5435SOL    HW227765   4.595   2.009  14.760  2.3053  2.5713  1.5891
 5436SOL     OW27766   0.007   4.182  14.958  0.3771 -0.5408 -0.0040
 5436SOL    HW127767   4.669   4.154  14.889  0.7106  0.1494 -0.5698
 5436SOL    HW227768   0.051   4.256  14.915 -0.2680 -1.3982 -2.1298
 5437SOL     OW27769   0.176   3.183   5.031  0.0810  0.0403 -0.6777
 5437SOL    HW127770   0.124   3.209   5.107  0.6999 -0.1019 -0.1986
 5437SOL    HW227771   0.261   3.212   5.064 -0.3004  0.8988 -0.4435
 5438SOL     OW27772   2.522   0.432   7.034 -0.1696  0.7652 -0.3964
 5438SOL    HW127773   2.593   0.388   7.080  1.1999  2.4884 -0.8618
 5438SOL    HW227774   2.569   0.493   6.977  1.4657 -0.0242  0.1160
 5439SOL     OW27775   1.193   1.539  17.347  0.3748 -0.0736  0.0459
 5439SOL    HW127776   1.244   1.579  17.417  2.7891 -0.9031 -1.2463
 5439SOL    HW227777   1.170   1.459  17.395 -1.8594  0.9018  0.5753
 5440SOL     OW27778   3.580   2.744   4.257 -0.3774 -0.0887 -0.1071
 5440SOL    HW127779   3.610   2.679   4.194 -1.4019 -1.2575  0.5972
 5440SOL    HW227780   3.659   2.744   4.310  0.3818  3.1723 -1.2475
 5441SOL     OW27781   0.663   0.685  12.303  0.0892  0.9338 -0.4987
 5441SOL    HW127782   0.659   0.608  12.246  3.6041  0.3932 -0.0481
 5441SOL    HW227783   0.611   0.656  12.378 -0.0166  0.4287 -0.7609
 5442SOL     OW27784   2.868   3.555   8.170 -0.6229  0.1028  0.6367
 5442SOL    HW127785   2.816   3.574   8.248  0.2657  2.3222  0.6926
 5442SOL    HW227786   2.943   3.614   8.178  0.2932 -0.9068 -0.4730
 5443SOL     OW27787   1.428   1.069  15.977  0.6443  0.0211  0.1906
 5443SOL    HW127788   1.390   1.063  15.889 -3.1661 -0.8470  1.8955
 5443SOL    HW227789   1.431   1.163  15.994 -1.5448  0.4796 -2.0657
 5444SOL     OW27790   4.529   2.065   8.169 -0.1415 -0.0366 -0.0481
 5444SOL    HW127791   4.566   2.009   8.102 -0.8086 -1.0364  0.4239
 5444SOL    HW227792   4.497   2.004   8.236 -3.0028  2.9895  1.3032
 5445SOL     OW27793   0.979   2.885   6.551 -0.0564 -0.4088 -0.2569
 5445SOL    HW127794   0.950   2.976   6.557  0.1408 -0.3652  0.0895
 5445SOL    HW227795   1.053   2.880   6.612  0.6829 -0.6875 -1.1797
 5446SOL     OW27796   2.247   4.219  17.004  0.2754 -0.3371 -0.4811
 5446SOL    HW127797   2.275   4.281  16.936  0.4859  2.2397  1.9352
 5446SOL    HW227798   2.301   4.146  16.976 -1.8591 -2.3545  0.6980
 5447SOL     OW27799   0.661   4.691   4.165 -0.6989  0.3045 -0.0604
 5447SOL    HW127800   0.722   4.681   4.092 -0.9002 -1.2864 -0.0005
 5447SOL    HW227801   0.657   4.610   4.215  1.8339 -1.1088 -2.0923
 5448SOL     OW27802   2.600   0.280   3.785  0.3188 -0.3498  0.1193
 5448SOL    HW127803   2.663   0.344   3.750 -2.0755  1.8922 -0.1797
 5448SOL    HW227804   2.565   0.332   3.858 -0.1080  1.9692 -1.7045
 5449SOL     OW27805   0.619   1.054   2.491  0.0125  0.1192  0.0586
 5449SOL    HW127806   0.625   0.959   2.502  0.7739  0.2062  0.3979
 5449SOL    HW227807   0.707   1.089   2.507  0.2798 -0.6829  0.3189
 5450SOL     OW27808   3.445   3.495  12.049 -0.1197 -0.2706  0.4762
 5450SOL    HW127809   3.462   3.589  12.040 -2.2308  0.1977  1.2420
 5450SOL    HW227810   3.528   3.459  12.079 -0.8571 -1.7571  0.7409
 5451SOL     OW27811   0.116   2.642  13.603  0.3278  0.1496 -0.1553
 5451SOL    HW127812   0.194   2.641  13.658  0.5556 -0.9593 -0.4961
 5451SOL    HW227813   0.083   2.553  13.619  2.3839 -0.4160  0.9310
 5452SOL     OW27814   0.278   1.575   4.964 -0.2713  0.8592  0.2268
 5452SOL    HW127815   0.213   1.519   4.922 -1.7391  0.7015  2.7630
 5452SOL    HW227816   0.258   1.656   4.916 -3.0749  0.8519  1.3699
 5453SOL     OW27817   2.736   1.340   6.463 -0.3733  0.0295  0.2270
 5453SOL    HW127818   2.772   1.339   6.374 -0.1252  3.0889  0.2757
 5453SOL    HW227819   2.711   1.431   6.480  1.3587  0.4368  0.5896
 5454SOL     OW27820   0.261   3.094   6.046  0.1564 -0.6480  0.5390
 5454SOL    HW127821   0.347   3.081   6.088  0.3910 -0.0040  0.2576
 5454SOL    HW227822   0.272   3.174   5.995 -1.3790  0.2749  1.6800
 5455SOL     OW27823   2.681   4.533  14.279  0.0730  0.1699 -0.6052
 5455SOL    HW127824   2.683   4.514  14.372  1.0475 -0.1211 -0.6880
 5455SOL    HW227825   2.588   4.556  14.280 -0.1075 -0.6232  0.7665
 5456SOL     OW27826   3.820   1.677   2.811  0.0591  0.3295  0.2280
 5456SOL    HW127827   3.805   1.605   2.750  0.3247  0.9194 -0.5300
 5456SOL    HW227828   3.913   1.662   2.828 -0.3899  0.5712  2.9395
 5457SOL     OW27829   0.670   3.014  15.696  0.0472  0.3567 -0.0745
 5457SOL    HW127830   0.737   3.040  15.759 -0.4662 -2.9204  1.8113
 5457SOL    HW227831   0.674   2.919  15.710 -0.1797  0.3645  0.0270
 5458SOL     OW27832   1.531   3.801   5.650  0.0698  0.0008 -0.3704
 5458SOL    HW127833   1.596   3.744   5.692  0.0492  1.5258  1.6978
 5458SOL    HW227834   1.566   3.889   5.635  0.4992 -0.0506  0.3223
 5459SOL     OW27835   2.976   1.775  14.849  0.1641 -0.0424  0.2449
 5459SOL    HW127836   2.889   1.808  14.829  0.6573  1.2459  0.1786
 5459SOL    HW227837   3.022   1.800  14.768 -0.4188 -2.3393 -0.7795
 5460SOL     OW27838   0.188   0.035  16.630 -0.2419 -0.1329  0.0612
 5460SOL    HW127839   0.233   4.678  16.660 -2.3158 -1.2296  0.3320
 5460SOL    HW227840   0.217   0.025  16.539  0.0133  0.3046  0.0960
 5461SOL     OW27841   2.243   1.694   5.773  0.5062  0.4795 -0.0821
 5461SOL    HW127842   2.175   1.748   5.813  0.6676  0.4493  0.2381
 5461SOL    HW227843   2.233   1.610   5.819 -2.3482 -0.0029 -1.5764
 5462SOL     OW27844   1.003   3.580   7.643  0.0744  0.1114  0.0163
 5462SOL    HW127845   0.964   3.492   7.642  0.0171  0.1474 -0.8671
 5462SOL    HW227846   1.068   3.565   7.575 -2.2884  1.2480 -2.4783
 5463SOL     OW27847   3.185   3.248   8.099  0.2570 -0.7015  0.3559
 5463SOL    HW127848   3.134   3.193   8.159 -2.2166 -0.0047 -1.1201
 5463SOL    HW227849   3.192   3.333   8.143  0.9969 -0.0704 -0.9901
 5464SOL     OW27850   0.903   0.644   6.410 -0.1984 -0.1818  0.2748
 5464SOL    HW127851   0.937   0.635   6.321  1.0661 -1.8352  0.9328
 5464SOL    HW227852   0.834   0.579   6.415  0.1444 -0.8068 -3.7441
 5465SOL     OW27853   4.209   0.863   4.638  0.5212 -0.0596 -0.2938
 5465SOL    HW127854   4.139   0.808   4.672 -0.5993  1.4851 -0.1013
 5465SOL    HW227855   4.168   0.947   4.617 -1.4695 -0.9980 -0.1378
 5466SOL     OW27856   2.603   4.062   9.801 -0.0445 -0.4195 -0.3653
 5466SOL    HW127857   2.634   4.074   9.891 -0.8858  0.7077 -0.2294
 5466SOL    HW227858   2.565   4.148   9.787  1.6691  0.4727  0.5097
 5467SOL     OW27859   2.792   0.967   2.389  0.3632 -0.2492  0.5715
 5467SOL    HW127860   2.866   0.959   2.449 -0.0120 -1.7545  0.8302
 5467SOL    HW227861   2.841   0.955   2.308  1.8142  1.9748  1.1353
 5468SOL     OW27862   3.412   1.259  11.283  0.3582 -0.4504  0.2962
 5468SOL    HW127863   3.431   1.188  11.221 -0.0066 -0.2143 -0.0874
 5468SOL    HW227864   3.376   1.224  11.364 -0.1848  1.1464  0.7385
 5469SOL     OW27865   3.529   0.823   4.294 -0.7068  0.1026  0.3963
 5469SOL    HW127866   3.595   0.879   4.252  1.2258 -0.9507  2.0134
 5469SOL    HW227867   3.510   0.868   4.376 -0.8603  1.1131 -0.1973
 5470SOL     OW27868   1.064   4.188  16.005 -0.0320  0.0575 -0.0166
 5470SOL    HW127869   1.083   4.106  15.959  1.1081  0.4248 -0.1966
 5470SOL    HW227870   1.041   4.246  15.933  2.5136  0.1808 -0.7327
 5471SOL     OW27871   2.870   1.261  16.503 -0.0174 -0.6592  0.2561
 5471SOL    HW127872   2.814   1.185  16.523 -0.2698 -0.5584 -0.0736
 5471SOL    HW227873   2.816   1.308  16.440 -1.2862 -0.1254  1.7299
 5472SOL     OW27874   2.457   1.700  17.645  0.5903 -0.0321 -0.3657
 5472SOL    HW127875   2.406   1.754  17.584  2.3419  0.7572 -1.1208
 5472SOL    HW227876   2.401   1.623  17.660  1.4862 -0.4735  0.6832
 5473SOL     OW27877   0.782   2.368   7.368  0.2491  0.0437  0.6236
 5473SOL    HW127878   0.804   2.276   7.351 -1.4229 -0.2490  0.0972
 5473SOL    HW227879   0.717   2.354   7.436 -0.7573  1.5609 -0.0255
 5474SOL     OW27880   4.060   1.972  10.275  0.6673  0.0166  0.0261
 5474SOL    HW127881   4.027   1.975  10.365 -1.3418  3.6438 -0.8267
 5474SOL    HW227882   4.149   2.003  10.290  0.7950 -1.2068  1.7964
 5475SOL     OW27883   0.881   2.600   1.947  0.6512  0.2787  0.3219
 5475SOL    HW127884   0.805   2.616   1.891 -0.2443 -3.1382  0.5603
 5475SOL    HW227885   0.882   2.504   1.955 -0.8581  0.2840  0.6118
 5476SOL     OW27886   1.996   1.574   3.481  0.1743  0.1083 -0.0453
 5476SOL    HW127887   2.088   1.574   3.509  0.1786 -1.6600 -0.0302
 5476SOL    HW227888   1.979   1.496   3.427  0.7557 -1.2506  1.7374
 5477SOL     OW27889   4.373   3.013  16.985  0.1719 -0.7173 -0.7693
 5477SOL    HW127890   4.281   3.034  16.996  1.0602  1.6999  2.2974
 5477SOL    HW227891   4.368   2.989  16.893 -2.4565 -0.8284 -0.5869
 5478SOL     OW27892   4.591   4.315   1.121  0.9270 -0.0732  0.5759
 5478SOL    HW127893   4.545   4.252   1.177  0.6246  0.1526  0.5831
 5478SOL    HW227894   4.571   4.277   1.036  1.7004  0.4477  0.1656
 5479SOL     OW27895   1.310   1.531   3.704  0.3563  0.0050  0.5669
 5479SOL    HW127896   1.240   1.518   3.639  1.1192 -1.8259  0.1153
 5479SOL    HW227897   1.290   1.621   3.730 -0.3895 -0.5505  1.9195
 5480SOL     OW27898   1.900   2.422   4.438  0.8047  0.6767  0.1246
 5480SOL    HW127899   1.823   2.449   4.388  1.3727  0.9912 -0.5780
 5480SOL    HW227900   1.928   2.507   4.472  2.2393  0.3123 -0.1396
 5481SOL     OW27901   2.645   0.391   4.270 -0.2734 -0.4815 -0.0737
 5481SOL    HW127902   2.693   0.316   4.305  3.5654  1.8437 -0.3937
 5481SOL    HW227903   2.628   0.441   4.350 -2.0511 -0.1789 -0.6177
 5482SOL     OW27904   1.856   2.982  12.020 -0.7049 -0.0364 -0.3831
 5482SOL    HW127905   1.948   2.981  11.994 -0.9091  0.2517 -1.1125
 5482SOL    HW227906   1.840   2.898  12.063 -0.1606  0.3363  0.5653
 5483SOL     OW27907   2.855   4.412  13.344  0.1071  0.2677 -0.2185
 5483SOL    HW127908   2.836   4.337  13.400  0.0818  0.3226 -0.1528
 5483SOL    HW227909   2.950   4.413  13.343  0.1177 -0.6888  0.4196
 5484SOL     OW27910   0.386   3.498  10.283  0.2679 -0.0018 -0.4882
 5484SOL    HW127911   0.475   3.496  10.317  0.3410  0.3930 -0.6536
 5484SOL    HW227912   0.347   3.568  10.334  1.5341  0.6218 -0.3720
 5485SOL     OW27913   0.253   1.770  12.598 -0.2946  0.9128 -0.0547
 5485SOL    HW127914   0.179   1.771  12.536  1.5253  1.6079 -2.2306
 5485SOL    HW227915   0.301   1.848  12.571  1.3268 -0.4524 -1.1222
 5486SOL     OW27916   1.789   4.505   6.128  0.6179 -0.5283 -0.3041
 5486SOL    HW127917   1.865   4.504   6.070  0.9338 -1.0133  0.1244
 5486SOL    HW227918   1.755   4.594   6.132 -0.6503 -0.8752 -3.1409
 5487SOL     OW27919   2.920   4.467  15.885 -0.1397 -0.4099 -0.1481
 5487SOL    HW127920   2.988   4.534  15.893 -2.1982  1.8446 -1.6474
 5487SOL    HW227921   2.928   4.432  15.973 -0.8085  1.5495  0.6880
 5488SOL     OW27922   1.159   0.659   0.369  0.2870 -0.1615 -0.0180
 5488SOL    HW127923   1.200   0.633   0.286  1.8664 -0.1107  0.7347
 5488SOL    HW227924   1.223   0.717   0.410  0.8610 -0.2662 -0.7577
 5489SOL     OW27925   1.057   2.905   8.597  0.1695  0.9129 -0.2556
 5489SOL    HW127926   0.998   2.887   8.524  1.8738 -1.2741 -1.0853
 5489SOL    HW227927   1.034   2.997   8.610 -0.5008  0.7227 -0.1096
 5490SOL     OW27928   0.809   1.281  16.608  0.0176 -0.2896 -0.0884
 5490SOL    HW127929   0.891   1.267  16.561  0.4460  2.9780 -0.3262
 5490SOL    HW227930   0.826   1.232  16.689 -0.5597  0.8610  0.7167
 5491SOL     OW27931   4.020   0.923   7.317  0.6680 -0.2262 -0.1225
 5491SOL    HW127932   4.039   0.867   7.242 -1.5021  0.3690 -1.1222
 5491SOL    HW227933   3.928   0.905   7.338  0.6450  3.0198  2.4298
 5492SOL     OW27934   4.473   4.670   0.227  0.2060  0.4267 -0.0227
 5492SOL    HW127935   4.480   4.585   0.183 -0.7384  0.7596 -0.8224
 5492SOL    HW227936   4.378   4.670   0.245  0.4690 -0.7474  1.3633
 5493SOL     OW27937   2.157   0.454   6.550  0.0538  0.4736  0.6524
 5493SOL    HW127938   2.235   0.426   6.598 -0.1024 -3.7333 -1.4723
 5493SOL    HW227939   2.099   0.444   6.627 -1.5129 -0.1788 -0.6053
 5494SOL     OW27940   4.033   3.445   3.240  0.5984  0.0962  0.0316
 5494SOL    HW127941   3.958   3.497   3.268  0.7336  1.3074 -1.7976
 5494SOL    HW227942   4.062   3.491   3.161  0.5996  2.1399  1.2373
 5495SOL     OW27943   2.604   2.830   4.142 -0.0769  0.1689 -0.1146
 5495SOL    HW127944   2.531   2.811   4.201  0.7052 -0.3217  0.6925
 5495SOL    HW227945   2.657   2.898   4.183 -1.1358 -1.1030  3.3616
 5496SOL     OW27946   0.042   0.942   3.828  0.3294 -0.2578  0.3349
 5496SOL    HW127947   4.693   1.000   3.797  2.1373  1.9751  0.4350
 5496SOL    HW227948   0.007   0.903   3.909  1.2082 -2.4138 -0.3277
 5497SOL     OW27949   4.099   1.197  14.248 -0.3674  0.5829  0.0164
 5497SOL    HW127950   4.017   1.245  14.245  0.0051  1.0913 -2.1388
 5497SOL    HW227951   4.151   1.276  14.268 -3.3982  2.4343  0.5634
 5498SOL     OW27952   4.472   2.379   2.973 -0.5429  0.0781 -0.2185
 5498SOL    HW127953   4.548   2.381   2.914  0.3916 -1.2162  0.9446
 5498SOL    HW227954   4.428   2.297   2.949  2.1642 -1.2367 -0.7312
 5499SOL     OW27955   3.299   1.031   4.399  0.0528 -0.1112 -0.1326
 5499SOL    HW127956   3.374   1.088   4.381  0.9335 -0.0572  3.7045
 5499SOL    HW227957   3.339   0.990   4.475  1.8158  0.5309 -0.7161
 5500SOL     OW27958   1.470   3.843   6.693 -0.1204  0.9516  0.1916
 5500SOL    HW127959   1.426   3.766   6.659 -0.8892  1.1672  0.7028
 5500SOL    HW227960   1.513   3.879   6.615 -2.1417  1.4300 -0.6880
 5501SOL     OW27961   3.525   3.484   6.766  0.2088 -0.2061  0.1596
 5501SOL    HW127962   3.524   3.472   6.861 -0.6074  0.0710  0.1824
 5501SOL    HW227963   3.591   3.420   6.738 -0.5396 -1.1948  0.6699
 5502SOL     OW27964   2.941   3.049   2.594 -0.2080 -0.3168  0.5789
 5502SOL    HW127965   3.005   3.109   2.556 -0.8359 -0.6745 -1.0133
 5502SOL    HW227966   2.990   2.969   2.617 -2.9523 -1.5968  2.0134
 5503SOL     OW27967   0.567   0.348   7.601  0.1606 -0.0287 -0.2545
 5503SOL    HW127968   0.656   0.375   7.577  0.7174 -2.2035 -0.6490
 5503SOL    HW227969   0.550   0.420   7.662  0.3921  1.4195 -1.8748
 5504SOL     OW27970   0.675   4.299   0.202  0.3866 -0.3838 -0.0682
 5504SOL    HW127971   0.582   4.287   0.182  0.1973 -0.7322  1.0587
 5504SOL    HW227972   0.708   4.355   0.131  2.4509 -0.5410  0.7767
 5505SOL     OW27973   1.819   1.902   9.102  0.6147  0.5918 -0.0856
 5505SOL    HW127974   1.850   1.813   9.118 -2.0646 -0.3609 -0.1095
 5505SOL    HW227975   1.735   1.894   9.148  0.8186 -0.0401  0.1658
 5506SOL     OW27976   1.872   2.758  10.263  0.0061  0.7973  0.1552
 5506SOL    HW127977   1.939   2.825  10.249  0.9396 -0.0986  0.2639
 5506SOL    HW227978   1.832   2.774  10.348 -1.5886 -0.0521 -0.4455
 5507SOL     OW27979   3.361   4.577   3.286  0.4032 -0.0556 -0.5334
 5507SOL    HW127980   3.289   4.613   3.234 -0.8950 -0.8241  0.7336
 5507SOL    HW227981   3.347   4.483   3.301  0.4518 -0.0988 -0.7637
 5508SOL     OW27982   2.642   0.782   1.410  0.4179 -0.8993 -0.6287
 5508SOL    HW127983   2.703   0.843   1.451 -1.1587  1.5772 -1.8936
 5508SOL    HW227984   2.575   0.794   1.477  2.0159 -1.7511  1.1011
 5509SOL     OW27985   3.036   2.050   4.466 -0.1383 -0.0695 -0.9967
 5509SOL    HW127986   3.059   2.065   4.557 -0.3960 -1.7798 -0.6421
 5509SOL    HW227987   3.120   2.061   4.421 -0.6414  1.3488 -1.5936
 5510SOL     OW27988   0.185   2.786  11.531 -0.0076 -0.3123  0.6323
 5510SOL    HW127989   0.182   2.750  11.619  0.0379  0.8592  1.1092
 5510SOL    HW227990   0.231   2.867  11.549  2.5283 -1.9931  1.7185
 5511SOL     OW27991   1.364   3.037   6.795  0.0609  0.2381 -0.9520
 5511SOL    HW127992   1.443   3.083   6.767  0.3081  0.3654 -0.0230
 5511SOL    HW227993   1.352   3.057   6.888  1.9610 -0.3187 -0.5909
 5512SOL     OW27994   4.204   0.210   8.494  0.6073 -0.0079 -0.0150
 5512SOL    HW127995   4.209   0.213   8.398 -1.1236  1.4113 -0.0605
 5512SOL    HW227996   4.119   0.170   8.512 -0.2796  1.7398 -0.2938
 5513SOL     OW27997   1.282   3.739  14.481  0.1602 -0.3595  0.3750
 5513SOL    HW127998   1.214   3.732  14.414  1.1594  1.3673 -0.8131
 5513SOL    HW227999   1.240   3.791  14.550  0.5239  1.4967 -0.7989
 5514SOL     OW28000   0.789   0.022   2.386 -0.2357  0.0690  0.4737
 5514SOL    HW128001   0.700   0.053   2.373 -0.3186 -0.0625  0.7450
 5514SOL    HW228002   0.839   0.096   2.421  1.1951  0.0610 -1.4891
 5515SOL     OW28003   2.816   0.428   8.016 -0.4792 -0.3211  0.6368
 5515SOL    HW128004   2.897   0.479   8.024 -0.6550  0.1002 -0.2550
 5515SOL    HW228005   2.820   0.370   7.940  2.0260 -0.8489  1.1741
 5516SOL     OW28006   2.990   2.384   3.512 -0.0266  0.1998 -0.0045
 5516SOL    HW128007   3.029   2.470   3.496  0.5753  0.0258  0.5516
 5516SOL    HW228008   2.999   2.364   3.606 -3.3530 -0.1990  0.2331
 5517SOL     OW28009   3.219   4.460   8.262  0.1357 -0.1717 -0.2204
 5517SOL    HW128010   3.131   4.422   8.255 -0.7327  1.5566  1.3085
 5517SOL    HW228011   3.246   4.475   8.171 -1.9611  2.0332 -0.4877
 5518SOL     OW28012   0.251   1.883   6.466 -0.9577 -0.2077 -0.3945
 5518SOL    HW128013   0.263   1.794   6.434 -1.8521 -0.3471 -0.3389
 5518SOL    HW228014   0.188   1.912   6.400 -1.1488  1.6772  0.6293
 5519SOL     OW28015   0.008   2.101  10.243  0.2933 -0.1524  0.2518
 5519SOL    HW128016   0.018   2.025  10.186 -1.7941  0.5072 -1.0192
 5519SOL    HW228017   4.634   2.107  10.229  0.5554 -0.0965 -1.5494
 5520SOL     OW28018   2.796   0.040   5.670 -0.2364  0.3304 -0.1242
 5520SOL    HW128019   2.786   4.673   5.706 -0.7407  1.0873  1.6019
 5520SOL    HW228020   2.868   0.018   5.610  2.8199  2.4515  2.7519
 5521SOL     OW28021   1.991   2.109   6.163 -0.4641  0.0194  0.0652
 5521SOL    HW128022   2.081   2.113   6.131 -0.4854 -1.0141 -0.1404
 5521SOL    HW228023   1.972   2.015   6.166 -1.2580  0.2655  2.8132
 5522SOL     OW28024   0.808   3.704   7.858 -0.8873 -0.2744 -0.7672
 5522SOL    HW128025   0.823   3.677   7.768 -1.2849  2.5496 -1.6535
 5522SOL    HW228026   0.900   3.726   7.871 -0.6334 -0.4512 -2.2953
 5523SOL     OW28027   2.334   0.449   5.115 -0.5030 -0.8720  0.7630
 5523SOL    HW128028   2.378   0.388   5.057  0.9446 -0.1416  1.0851
 5523SOL    HW228029   2.244   0.423   5.100 -0.8464  1.8056 -1.7861
 5524SOL     OW28030   0.201   4.596   0.858 -0.1440  0.0169  0.3385
 5524SOL    HW128031   0.217   4.657   0.786 -2.0070  0.1465  0.0354
 5524SOL    HW228032   0.157   4.523   0.815 -0.8822  1.1407 -0.8317
 5525SOL     OW28033   3.535   4.236  16.029  0.3038 -0.7503 -0.1289
 5525SOL    HW128034   3.462   4.299  16.029  1.4412  0.5683 -1.6138
 5525SOL    HW228035   3.591   4.283  15.968 -0.0928 -0.7307 -0.4857
 5526SOL     OW28036   0.902   3.017   4.883 -0.6583  0.3094 -0.0754
 5526SOL    HW128037   0.831   2.954   4.868 -0.4218  0.0949 -0.2749
 5526SOL    HW228038   0.888   3.088   4.821  0.3747 -1.9945 -2.9369
 5527SOL     OW28039   0.219   0.673   8.559 -0.0296 -0.1218 -0.1643
 5527SOL    HW128040   0.170   0.635   8.632  0.2498 -0.8928 -0.3807
 5527SOL    HW228041   0.218   0.764   8.590 -0.0820  0.1112 -0.8517
 5528SOL     OW28042   3.324   1.519   7.888  0.4872  0.1029 -0.2603
 5528SOL    HW128043   3.283   1.468   7.818  0.2016  0.1038 -0.0941
 5528SOL    HW228044   3.405   1.469   7.900  0.0802 -0.3185  0.7318
 5529SOL     OW28045   0.166   1.492   3.243 -0.2678  0.2262 -0.5273
 5529SOL    HW128046   0.156   1.410   3.194  0.3568  2.3651 -4.2618
 5529SOL    HW228047   0.207   1.539   3.170  0.7131 -1.2096 -0.9028
 5530SOL     OW28048   2.375   2.917   0.400 -0.0666  0.0794  0.1127
 5530SOL    HW128049   2.293   2.896   0.446 -0.0443 -0.7809 -0.2276
 5530SOL    HW228050   2.386   2.839   0.345 -0.7938 -0.9078  1.3609
 5531SOL     OW28051   1.132   0.306   7.293 -0.4780  0.4417 -0.1886
 5531SOL    HW128052   1.146   0.379   7.353 -2.7973  1.4276 -0.8309
 5531SOL    HW228053   1.142   0.361   7.215  0.8751  1.3856  0.6434
 5532SOL     OW28054   2.976   1.449   4.408  0.8481 -0.2507 -0.2128
 5532SOL    HW128055   3.048   1.387   4.395  1.3869  0.2577  0.3689
 5532SOL    HW228056   3.021   1.518   4.457 -0.0974 -0.1924  0.5677
 5533SOL     OW28057   0.426   2.988   7.707 -0.0739  0.0194  0.0076
 5533SOL    HW128058   0.504   3.025   7.667  0.3567 -1.5512 -0.5754
 5533SOL    HW228059   0.440   2.896   7.684 -0.4861  0.2993 -1.3890
 5534SOL     OW28060   4.335   4.261  17.084  0.2481 -0.1851 -0.3783
 5534SOL    HW128061   4.392   4.337  17.085  0.7682 -0.5700 -1.1030
 5534SOL    HW228062   4.398   4.192  17.104 -1.9868 -1.8923  0.9221
 5535SOL     OW28063   3.244   2.910   7.511 -0.3690 -0.0147  0.3358
 5535SOL    HW128064   3.302   2.942   7.580  0.6591 -2.5386  0.6343
 5535SOL    HW228065   3.210   2.829   7.549 -3.2113  1.2782  0.5552
 5536SOL     OW28066   2.640   4.177   8.450 -0.1440  0.0556 -0.0446
 5536SOL    HW128067   2.720   4.185   8.502  0.1543 -1.5143 -0.2403
 5536SOL    HW228068   2.667   4.112   8.386 -3.1347  0.9380 -2.1700
 5537SOL     OW28069   2.956   4.417   6.690 -0.2516  0.1382  0.1603
 5537SOL    HW128070   2.869   4.440   6.722 -0.3571 -1.1198  0.7800
 5537SOL    HW228071   2.967   4.325   6.716  0.9644 -0.0014 -0.8433
 5538SOL     OW28072   1.269   2.349   3.703  0.1402 -0.2099  0.1591
 5538SOL    HW128073   1.177   2.368   3.686  0.0039 -0.9942  0.0091
 5538SOL    HW228074   1.300   2.336   3.614 -0.7884 -0.0705 -0.1860
 5539SOL     OW28075   2.760   3.608   4.847 -0.4629  0.0151  0.6436
 5539SOL    HW128076   2.836   3.569   4.805 -1.6026 -1.2407 -0.2855
 5539SOL    HW228077   2.720   3.666   4.781 -1.2455 -1.3481 -0.0950
 5540SOL     OW28078   4.310   2.256   2.023  0.3758  0.2044 -0.5599
 5540SOL    HW128079   4.280   2.288   2.108 -1.5268 -2.1542 -0.3274
 5540SOL    HW228080   4.398   2.226   2.046  0.0136  0.3095  0.9396
 5541SOL     OW28081   4.233   1.498   5.456 -0.0852 -0.3370  0.6870
 5541SOL    HW128082   4.303   1.516   5.393  0.0114 -1.4847  0.4773
 5541SOL    HW228083   4.279   1.487   5.539 -1.8104 -1.0201  1.5515
 5542SOL     OW28084   4.395   3.534   1.937 -0.2846 -0.2080  0.0398
 5542SOL    HW128085   4.457   3.582   1.992 -0.3273 -0.4145  0.2699
 5542SOL    HW228086   4.453   3.488   1.877  1.2457 -0.3614  1.6341
 5543SOL     OW28087   2.473   0.273  10.065 -0.3091 -0.5746  0.4118
 5543SOL    HW128088   2.562   0.308  10.052 -0.1032 -1.2882 -0.1401
 5543SOL    HW228089   2.425   0.355  10.072  0.1090 -0.3562  0.7315
 5544SOL     OW28090   0.753   2.330  12.856 -0.1067 -0.2145  0.0553
 5544SOL    HW128091   0.790   2.260  12.803 -1.8881  0.2601 -1.8202
 5544SOL    HW228092   0.787   2.308  12.943 -0.0295 -1.1193 -0.2121
 5545SOL     OW28093   1.871   4.212   8.143  0.0018 -0.0377 -0.1439
 5545SOL    HW128094   1.924   4.205   8.064 -1.6301 -1.7297 -1.0930
 5545SOL    HW228095   1.908   4.284   8.194 -0.6337 -1.9803  3.0334
 5546SOL     OW28096   2.898   0.201   4.484 -0.4053 -0.5072 -0.3079
 5546SOL    HW128097   2.839   0.126   4.488  0.0827 -0.9593 -1.4002
 5546SOL    HW228098   2.890   0.230   4.575  2.7586  0.9291 -0.4915
 5547SOL     OW28099   4.386   1.162  11.782  0.9280 -0.4728  0.5266
 5547SOL    HW128100   4.385   1.066  11.781 -0.9603 -0.4514 -0.3214
 5547SOL    HW228101   4.368   1.182  11.690  0.7094 -0.0271  0.6660
 5548SOL     OW28102   2.707   0.688   7.335 -0.2591  0.0377 -0.0115
 5548SOL    HW128103   2.653   0.745   7.281  0.7363  0.2962 -0.7325
 5548SOL    HW228104   2.661   0.685   7.419 -1.1524 -0.1633 -0.5044
 5549SOL     OW28105   3.526   1.565   4.749 -0.0475  0.0214  0.5851
 5549SOL    HW128106   3.559   1.526   4.830 -2.2553 -0.9487  1.0133
 5549SOL    HW228107   3.568   1.515   4.678  1.6173 -0.5013  1.9298
 5550SOL     OW28108   4.324   2.594  15.694  0.5932 -0.7972  0.0139
 5550SOL    HW128109   4.313   2.502  15.670 -0.0644 -0.6940 -0.0805
 5550SOL    HW228110   4.241   2.609  15.740 -1.1167 -0.9494 -3.0175
 5551SOL     OW28111   2.878   1.919  10.801 -0.0323  0.4938  0.6111
 5551SOL    HW128112   2.851   1.829  10.779 -1.0453  0.8478  0.4070
 5551SOL    HW228113   2.800   1.964  10.769  1.2940 -0.0540 -3.3617
 5552SOL     OW28114   1.734   2.569  17.537  0.2068  0.2382  0.2125
 5552SOL    HW128115   1.657   2.536  17.583  0.7349 -0.1037  0.8493
 5552SOL    HW228116   1.692   2.574  17.451 -0.9211 -0.3813  0.7242
 5553SOL     OW28117   3.524   3.258   2.552 -0.9066  0.0962 -1.1130
 5553SOL    HW128118   3.491   3.324   2.491 -1.4819 -0.9805 -1.9701
 5553SOL    HW228119   3.503   3.297   2.637 -1.3591 -1.9131 -0.3074
 5554SOL     OW28120   3.762   3.603   3.521 -0.3196 -0.3476 -0.2399
 5554SOL    HW128121   3.778   3.516   3.485  0.9662 -0.7636  1.3775
 5554SOL    HW228122   3.845   3.650   3.530  0.5410 -1.9001 -0.0446
 5555SOL     OW28123   2.194   3.806  10.659 -0.2558  0.3367 -0.0160
 5555SOL    HW128124   2.286   3.823  10.678  1.0917 -2.9871 -3.4925
 5555SOL    HW228125   2.156   3.892  10.677  3.0850  1.4257  1.9242
 5556SOL     OW28126   0.053   2.774  17.052  0.3705 -0.2856 -0.1701
 5556SOL    HW128127   4.700   2.734  17.007  0.0668  0.5304 -0.4036
 5556SOL    HW228128   0.021   2.772  17.142  0.5853  0.9093 -0.0598
 5557SOL     OW28129   3.144   0.029  15.007  0.0283 -0.5155  0.0157
 5557SOL    HW128130   3.180   0.085  14.939 -0.9294 -1.2870 -1.1325
 5557SOL    HW228131   3.178   4.663  14.986 -2.0594 -2.4095  4.2969
 5558SOL     OW28132   3.561   2.351   6.900  0.2562  0.9661 -0.1564
 5558SOL    HW128133   3.549   2.446   6.898  0.7238  0.9810 -2.7707
 5558SOL    HW228134   3.526   2.343   6.811 -0.6896 -0.3210  0.3366
 5559SOL     OW28135   1.883   4.033   1.717 -0.8354 -0.0909  0.2996
 5559SOL    HW128136   1.918   4.035   1.806 -0.2429 -2.9762  0.1462
 5559SOL    HW228137   1.918   3.954   1.675  0.3447  0.9272 -0.6083
 5560SOL     OW28138   1.804   1.069   6.772 -0.6156 -0.1853 -0.1119
 5560SOL    HW128139   1.872   1.009   6.740 -2.2862 -1.5071 -1.1836
 5560SOL    HW228140   1.788   1.032   6.859  0.3895  2.9897  1.4252
 5561SOL     OW28141   3.730   0.613  16.362 -0.1960  0.1245  0.3574
 5561SOL    HW128142   3.750   0.693  16.314 -0.9126 -0.5861 -1.1093
 5561SOL    HW228143   3.764   0.547  16.301 -0.5570  1.2995 -1.1019
 5562SOL     OW28144   4.171   3.544  11.303  0.2288  0.6850  0.4148
 5562SOL    HW128145   4.164   3.475  11.370  0.2073 -2.5847 -2.9497
 5562SOL    HW228146   4.204   3.500  11.225 -3.1767  0.2182 -0.7856
 5563SOL     OW28147   4.613   0.729   8.379  0.2875  0.0376  0.4197
 5563SOL    HW128148   4.672   0.668   8.423  1.8320  1.7953  0.7904
 5563SOL    HW228149   4.639   0.706   8.290  1.5703  1.1897  0.4892
 5564SOL     OW28150   0.730   2.838  17.517  0.0231  0.2171 -0.2203
 5564SOL    HW128151   0.723   2.821  17.423 -1.0348  1.6071 -0.3975
 5564SOL    HW228152   0.647   2.885  17.525 -0.5546 -1.0958  1.5089
 5565SOL     OW28153   4.024   0.195   5.420  0.1488 -0.1096  0.3892
 5565SOL    HW128154   3.985   0.111   5.397 -0.1906 -0.1685  1.1874
 5565SOL    HW228155   4.093   0.210   5.355 -1.0396 -0.6110 -0.9811
 5566SOL     OW28156   3.834   1.471  15.706  0.8149 -0.0811  0.1442
 5566SOL    HW128157   3.888   1.518  15.768  3.7160 -1.9968 -0.9219
 5566SOL    HW228158   3.815   1.535  15.637 -0.6937  0.2815  0.9078
 5567SOL     OW28159   0.751   3.396   6.744  0.5482 -0.2022 -0.3375
 5567SOL    HW128160   0.783   3.423   6.659 -2.3556 -0.5006 -1.5142
 5567SOL    HW228161   0.754   3.300   6.745 -0.2338 -0.2320 -0.3314
 5568SOL     OW28162   1.151   3.518  15.031  0.0443 -0.0690 -0.0584
 5568SOL    HW128163   1.193   3.531  14.945  0.2249  0.2516  0.0783
 5568SOL    HW228164   1.194   3.437  15.057 -0.1077 -0.2119 -0.2468
 5569SOL     OW28165   0.803   2.310   6.978 -0.8673 -0.0725 -0.8393
 5569SOL    HW128166   0.794   2.328   6.885 -0.9442 -0.5481 -0.9226
 5569SOL    HW228167   0.870   2.242   6.967 -0.9769 -0.2874 -0.1654
 5570SOL     OW28168   4.413   4.163   1.945  0.2282 -0.2038 -0.3433
 5570SOL    HW128169   4.423   4.240   1.889  0.4489  0.1429  0.1704
 5570SOL    HW228170   4.505   4.144   1.966  0.2412 -0.4632 -0.6289
 5571SOL     OW28171   1.479   4.616   3.338 -0.1592 -0.1015 -0.3486
 5571SOL    HW128172   1.430   4.678   3.283 -1.1405 -0.9590 -0.4452
 5571SOL    HW228173   1.475   4.541   3.279 -1.2991  0.3063 -0.7872
 5572SOL     OW28174   4.622   0.272   0.583 -0.1361 -0.2165  0.5669
 5572SOL    HW128175   4.604   0.183   0.550  2.1481 -0.7943  0.8607
 5572SOL    HW228176   4.662   0.303   0.501  0.5288 -0.8235  0.6554
 5573SOL     OW28177   3.553   2.482   7.690 -0.1293 -0.2267 -0.2662
 5573SOL    HW128178   3.610   2.436   7.752  1.4579 -0.6463 -2.0100
 5573SOL    HW228179   3.613   2.547   7.653  2.4735 -1.2084  2.1505
 5574SOL     OW28180   4.546   4.165   8.696 -0.4922  0.1570  0.1923
 5574SOL    HW128181   4.640   4.165   8.715 -0.7529 -0.6214  1.5240
 5574SOL    HW228182   4.516   4.147   8.785  0.3535 -4.6357 -0.4998
 5575SOL     OW28183   2.932   2.071   3.493 -0.1683 -0.2659 -0.0693
 5575SOL    HW128184   2.965   2.141   3.437  2.7271 -1.2788  0.3821
 5575SOL    HW228185   2.838   2.087   3.500 -0.3650 -2.5222  2.5114
 5576SOL     OW28186   2.061   4.213  12.898 -0.3340 -0.1844  0.3529
 5576SOL    HW128187   2.078   4.250  12.811 -0.5305 -2.0009 -0.4483
 5576SOL    HW228188   1.994   4.146  12.889 -0.6820 -0.1491  2.6286
 5577SOL     OW28189   3.464   1.543   3.495 -0.3010  0.5010 -0.3243
 5577SOL    HW128190   3.370   1.547   3.476  0.0782  3.2823 -1.6961
 5577SOL    HW228191   3.487   1.630   3.463  1.3137 -0.3453 -1.4298
 5578SOL     OW28192   4.358   0.721   6.219 -0.3861 -0.3277 -0.1328
 5578SOL    HW128193   4.288   0.661   6.193  0.0805 -0.6101 -0.7270
 5578SOL    HW228194   4.306   0.784   6.269 -0.8959 -2.0321  1.4994
 5579SOL     OW28195   1.661   3.610   8.576 -0.1478 -0.7729 -0.4707
 5579SOL    HW128196   1.590   3.547   8.577  0.2232 -1.1934 -0.6371
 5579SOL    HW228197   1.726   3.565   8.521  0.0892 -1.4633  0.3750
 5580SOL     OW28198   1.427   1.076   5.145  0.5561 -0.0518 -0.2670
 5580SOL    HW128199   1.363   1.134   5.186 -0.7103  0.2532 -2.6614
 5580SOL    HW228200   1.372   0.998   5.146 -0.7979  0.9073  0.6642
 5581SOL     OW28201   4.689   2.184   3.135  0.5576  0.5878 -0.7128
 5581SOL    HW128202   4.664   2.248   3.202  0.3751  0.2827 -0.4896
 5581SOL    HW228203   0.009   2.118   3.191  0.2713  0.0690 -1.1182
 5582SOL     OW28204   1.271   1.668   1.153 -0.0767  0.1875 -0.1214
 5582SOL    HW128205   1.331   1.593   1.148 -1.2054 -0.7588  0.4548
 5582SOL    HW228206   1.209   1.631   1.216 -0.0778 -2.0505 -1.4163
 5583SOL     OW28207   2.817   4.605   3.492  0.4897 -0.7005  0.1047
 5583SOL    HW128208   2.810   4.619   3.397  2.2628 -0.4800  0.0182
 5583SOL    HW228209   2.877   4.674   3.519  0.5767 -1.0098  0.6913
 5584SOL     OW28210   2.659   2.309   0.070 -0.0766  0.0485  0.0027
 5584SOL    HW128211   2.604   2.335  17.683 -1.7451 -3.6622 -0.0623
 5584SOL    HW228212   2.726   2.257   0.025  2.2958  2.4022  0.8123
 5585SOL     OW28213   3.755   2.571  11.923  0.0312  0.0213 -0.6333
 5585SOL    HW128214   3.778   2.576  12.016 -1.1764 -0.3168 -0.3187
 5585SOL    HW228215   3.812   2.632  11.876  0.7805 -0.5931 -0.5299
 5586SOL     OW28216   2.679   4.530  13.675  0.3167 -0.2569 -0.1645
 5586SOL    HW128217   2.596   4.545  13.720  1.1193  0.7747  0.9712
 5586SOL    HW228218   2.643   4.553  13.589 -0.4189  0.1269  0.2456
 5587SOL     OW28219   2.314   4.210   5.018  0.4953  0.0770 -0.6122
 5587SOL    HW128220   2.344   4.263   5.092  0.4750  1.5335 -1.6332
 5587SOL    HW228221   2.353   4.266   4.951 -0.8328  1.8848  0.1239
 5588SOL     OW28222   0.955   1.589   8.342  0.5215  0.6869 -0.0909
 5588SOL    HW128223   1.040   1.629   8.363  1.3413 -0.4297 -1.2721
 5588SOL    HW228224   0.900   1.613   8.417  1.7204 -0.3064  1.1068
 5589SOL     OW28225   3.762   1.597   8.599 -0.4522  0.5321  0.2120
 5589SOL    HW128226   3.786   1.575   8.688 -0.2805  1.5392  0.4195
 5589SOL    HW228227   3.770   1.510   8.560  0.7151  0.6140  0.2817
 5590SOL     OW28228   2.325   3.351   9.423  0.9088 -0.2027 -0.0062
 5590SOL    HW128229   2.326   3.405   9.502  0.1707 -2.0857  1.2994
 5590SOL    HW228230   2.362   3.267   9.450 -1.7068 -0.9115  1.4162
 5591SOL     OW28231   3.010   3.588   2.163 -0.0926  0.3628  0.1911
 5591SOL    HW128232   3.008   3.496   2.137  2.0049  0.2368  0.4350
 5591SOL    HW228233   3.091   3.604   2.114 -0.4108 -0.3535 -0.5848
 5592SOL     OW28234   1.064   3.329   4.842 -0.3110 -0.2332 -0.0053
 5592SOL    HW128235   1.081   3.365   4.929  1.5896 -0.8872 -0.1014
 5592SOL    HW228236   1.147   3.294   4.809 -0.8700 -0.7397 -0.8724
 5593SOL     OW28237   0.276   0.652   5.495 -0.6981 -0.2713 -0.7066
 5593SOL    HW128238   0.253   0.703   5.418 -0.1240 -1.7791 -1.8832
 5593SOL    HW228239   0.370   0.641   5.486 -0.5717  0.4925 -0.2948
 5594SOL     OW28240   1.807   0.310   4.674 -0.0179 -0.4533  0.5003
 5594SOL    HW128241   1.823   0.371   4.746  1.2105  0.7209 -0.7864
 5594SOL    HW228242   1.749   0.371   4.628 -0.0628 -2.0089 -1.5453
 5595SOL     OW28243   2.561   2.202  14.636  0.3320 -0.5375  0.4013
 5595SOL    HW128244   2.650   2.171  14.653  0.7108  0.1285 -0.3801
 5595SOL    HW228245   2.513   2.135  14.684  0.4030  0.8768  2.4434
 5596SOL     OW28246   1.971   3.187  14.312  0.1569 -0.0239  0.7394
 5596SOL    HW128247   1.929   3.144  14.386 -1.7524 -1.4040 -1.1516
 5596SOL    HW228248   2.001   3.263  14.363 -0.4559 -0.1744  1.3339
 5597SOL     OW28249   4.349   0.216   1.642 -0.1542 -0.3081 -0.3833
 5597SOL    HW128250   4.441   0.220   1.669  0.4407 -0.9641 -2.2909
 5597SOL    HW228251   4.364   0.236   1.550  0.9923 -2.4880 -0.6840
 5598SOL     OW28252   2.160   0.094   7.518 -0.4561  0.1870  0.1575
 5598SOL    HW128253   2.068   0.121   7.518  0.1947  2.3944  0.4608
 5598SOL    HW228254   2.147   0.003   7.542  0.2206  0.4257  1.4223
 5599SOL     OW28255   3.206   1.919   2.370  0.3927  0.3476 -0.0772
 5599SOL    HW128256   3.177   1.915   2.461 -4.0080 -1.9444 -1.5502
 5599SOL    HW228257   3.230   1.828   2.353  2.9899  0.7981  1.2772
 5600SOL     OW28258   0.353   4.191   7.292  0.3919  0.1817  0.1378
 5600SOL    HW128259   0.366   4.240   7.373 -0.3295 -1.0806  1.0238
 5600SOL    HW228260   0.326   4.259   7.232  1.9110 -1.5928 -2.5793
 5601SOL     OW28261   3.347   3.275   5.945 -0.0430 -0.4563  0.5491
 5601SOL    HW128262   3.257   3.275   5.913  0.0905 -0.4803  0.1814
 5601SOL    HW228263   3.398   3.278   5.864 -0.0951 -1.7993  0.4587
 5602SOL     OW28264   2.475   3.353  12.868  0.1148  0.0498 -0.0428
 5602SOL    HW128265   2.464   3.277  12.926  1.2568 -0.1099 -0.0405
 5602SOL    HW228266   2.530   3.315  12.800  2.2087  0.4133  1.4482
 5603SOL     OW28267   1.367   4.215   2.296  0.2055 -0.1926  0.3434
 5603SOL    HW128268   1.394   4.172   2.377 -1.3036  2.7559  2.4361
 5603SOL    HW228269   1.457   4.223   2.267  0.0971  1.9372  0.5245
 5604SOL     OW28270   1.280   0.338   5.910  0.1250 -0.0665 -0.2881
 5604SOL    HW128271   1.343   0.392   5.957  0.9576 -2.3274  1.2266
 5604SOL    HW228272   1.210   0.331   5.974  0.8100 -2.9317  0.1808
 5605SOL     OW28273   4.470   2.013   5.507  0.0038  0.5773 -0.2977
 5605SOL    HW128274   4.532   2.020   5.435 -0.4496  1.0260 -0.6449
 5605SOL    HW228275   4.384   2.016   5.464  0.9053  0.6510 -2.0983
 5606SOL     OW28276   1.196   2.327  14.797  0.0059  0.4498  0.2866
 5606SOL    HW128277   1.204   2.239  14.834 -1.8872  0.4612  0.7028
 5606SOL    HW228278   1.283   2.366  14.794  1.1671 -2.0370  1.8700
 5607SOL     OW28279   0.770   0.018   1.653 -0.2351 -0.1024  0.5546
 5607SOL    HW128280   0.682   0.041   1.684 -0.0619  0.8060  0.3818
 5607SOL    HW228281   0.798   4.678   1.720 -1.2389 -4.4077 -2.9179
 5608SOL     OW28282   1.827   3.129   4.437  0.7060  0.0959  0.0674
 5608SOL    HW128283   1.781   3.102   4.358  1.1588 -0.4720  0.0011
 5608SOL    HW228284   1.897   3.185   4.403 -0.4987  1.3121 -0.4364
 5609SOL     OW28285   3.913   3.539   2.814 -0.2628  0.0918  0.1591
 5609SOL    HW128286   3.961   3.571   2.890 -1.9677 -0.6166  1.5357
 5609SOL    HW228287   3.886   3.622   2.776 -0.7239  0.5588  1.5079
 5610SOL     OW28288   3.763   2.422   1.407  0.7782  0.2657  0.0266
 5610SOL    HW128289   3.749   2.421   1.312  2.2764 -1.0811 -0.1822
 5610SOL    HW228290   3.740   2.332   1.428 -1.0682  0.3103 -1.8056
 5611SOL     OW28291   1.702   4.321   2.835  0.0750  0.2240  0.1194
 5611SOL    HW128292   1.649   4.401   2.831  0.4155  0.5339  1.6980
 5611SOL    HW228293   1.677   4.284   2.751 -0.2848 -1.1551  0.8370
 5612SOL     OW28294   1.440   4.331   7.205  0.5269  0.6165 -0.2037
 5612SOL    HW128295   1.445   4.247   7.252  0.2913  0.7413  0.0443
 5612SOL    HW228296   1.378   4.383   7.257  0.1747 -2.3209  2.3276
 5613SOL     OW28297   3.711   0.330   3.827 -0.6046  0.2860  0.5178
 5613SOL    HW128298   3.676   0.327   3.916 -1.7591 -1.7111  0.0082
 5613SOL    HW228299   3.661   0.401   3.786  1.3300  1.6692  0.5672
 5614SOL     OW28300   2.851   3.497   9.304  0.0775  0.4509  0.9064
 5614SOL    HW128301   2.767   3.497   9.349 -1.8791 -1.0861 -2.7091
 5614SOL    HW228302   2.862   3.402   9.297  0.0666  0.3576  2.1977
 5615SOL     OW28303   0.049   2.604   8.754 -0.4232 -0.1946  0.0852
 5615SOL    HW128304   0.124   2.627   8.698  0.1127 -0.8777  0.5150
 5615SOL    HW228305   0.005   2.688   8.748  0.2663  0.1113 -0.7140
 5616SOL     OW28306   1.986   4.367   3.003  0.0430 -0.1064 -0.2797
 5616SOL    HW128307   2.023   4.340   2.918 -1.6077  1.5338 -1.5137
 5616SOL    HW228308   2.011   4.460   3.003  1.0458 -0.3764  0.8936
 5617SOL     OW28309   1.147   2.424   2.586  0.8080 -0.0425 -0.2227
 5617SOL    HW128310   1.063   2.414   2.540  0.0483  1.2958  0.8650
 5617SOL    HW228311   1.211   2.387   2.525  0.2508  0.8205 -1.3448
 5618SOL     OW28312   1.427   3.943   7.112 -0.5641 -0.3996 -0.5274
 5618SOL    HW128313   1.390   3.855   7.111  0.4141 -0.7998 -1.4145
 5618SOL    HW228314   1.368   3.994   7.056 -0.9545 -0.1446  0.1135
 5619SOL     OW28315   2.902   1.040   5.993 -0.2050 -0.5018  0.5093
 5619SOL    HW128316   2.815   1.025   6.030 -0.8499  1.1373 -0.3553
 5619SOL    HW228317   2.890   1.134   5.982  2.5421 -0.3145 -0.9100
 5620SOL     OW28318   2.590   3.365  14.121 -0.1163  0.1997 -0.0764
 5620SOL    HW128319   2.609   3.458  14.137  0.6158 -0.0283  0.3623
 5620SOL    HW228320   2.507   3.350  14.165 -0.1447  0.1570 -0.1439
 5621SOL     OW28321   2.099   4.705  13.690 -0.4268 -0.4573  0.3379
 5621SOL    HW128322   2.136   4.628  13.733  0.6189  0.0539  0.3494
 5621SOL    HW228323   2.077   0.037  13.766  0.2832 -0.3256  0.4552
 5622SOL     OW28324   2.366   4.457   2.707 -0.0365  0.0847 -0.4503
 5622SOL    HW128325   2.347   4.363   2.707 -0.5252  0.1862  0.5063
 5622SOL    HW228326   2.457   4.453   2.736 -0.6641  1.8965  1.7649
 5623SOL     OW28327   3.594   0.641   3.835  0.2905 -0.3872  0.0194
 5623SOL    HW128328   3.566   0.646   3.744  0.9575  1.1836 -0.0910
 5623SOL    HW228329   3.511   0.625   3.879  1.3368  1.0602  2.5526
 5624SOL     OW28330   0.400   0.934   5.752 -0.1847  0.3018  0.0344
 5624SOL    HW128331   0.321   0.976   5.715 -2.9427 -2.4622  2.8419
 5624SOL    HW228332   0.370   0.843   5.757  0.4309  0.1318  0.5058
 5625SOL     OW28333   3.182   3.880   1.431 -0.1965 -0.1191 -0.1543
 5625SOL    HW128334   3.226   3.827   1.364 -0.1297 -0.7235  0.3685
 5625SOL    HW228335   3.253   3.941   1.450  1.1931 -1.2066 -1.8580
 5626SOL     OW28336   2.675   1.173   6.669 -0.2381  0.1451  0.1021
 5626SOL    HW128337   2.685   1.238   6.599 -0.5869  0.5378  0.4115
 5626SOL    HW228338   2.735   1.105   6.640 -0.1440 -0.3871  1.5275
 5627SOL     OW28339   0.128   0.293  11.541 -0.1414 -0.1395  1.0335
 5627SOL    HW128340   0.199   0.343  11.501  0.5306 -0.2845  2.0202
 5627SOL    HW228341   0.178   0.258  11.615  2.0363  1.0366  0.1321
 5628SOL     OW28342   4.041   1.701  12.187  0.4260  0.1228  0.0574
 5628SOL    HW128343   4.116   1.673  12.135 -0.7733 -1.1875 -0.9504
 5628SOL    HW228344   4.019   1.619  12.231  3.4717 -1.2489 -1.0427
 5629SOL     OW28345   3.933   3.508  15.874 -0.7059  0.2363 -0.0578
 5629SOL    HW128346   3.845   3.476  15.895 -1.9285  2.6361 -1.5576
 5629SOL    HW228347   3.987   3.440  15.915  0.7774  0.3093 -1.8926
 5630SOL     OW28348   2.518   1.627   3.513  0.2904 -0.1125 -0.0100
 5630SOL    HW128349   2.433   1.668   3.529  1.0800  1.1188  1.0676
 5630SOL    HW228350   2.587   1.663   3.568 -0.7744  0.4715  0.9381
 5631SOL     OW28351   4.336   0.310   7.267  0.0404  0.1570 -0.4269
 5631SOL    HW128352   4.416   0.361   7.268 -0.9740  1.7368 -0.8414
 5631SOL    HW228353   4.369   0.220   7.272  0.7108  0.5204  1.8322
 5632SOL     OW28354   0.421   2.446   2.898  0.2162 -0.3271 -0.3039
 5632SOL    HW128355   0.460   2.529   2.926  2.5310 -1.5329  0.0197
 5632SOL    HW228356   0.497   2.393   2.922 -0.2500 -1.0319 -0.4083
 5633SOL     OW28357   3.817   0.858   2.676 -0.2963 -0.0135  0.6262
 5633SOL    HW128358   3.786   0.937   2.632  1.3916  1.7006  2.4926
 5633SOL    HW228359   3.904   0.852   2.636 -0.5565  1.8664 -0.2297
 5634SOL     OW28360   4.625   4.456  15.809 -0.3558  0.4423  0.1175
 5634SOL    HW128361   4.557   4.391  15.793 -0.0900  0.2557 -0.2602
 5634SOL    HW228362   4.578   4.536  15.785  0.0864  0.9503  0.9304
 5635SOL     OW28363   1.591   2.482   8.475  0.2084  0.7074  0.2595
 5635SOL    HW128364   1.521   2.515   8.531 -2.5731 -2.5138 -1.3014
 5635SOL    HW228365   1.666   2.540   8.489 -0.1170  1.1066  0.3519
 5636SOL     OW28366   2.066   3.135   2.624 -0.2802 -0.1469  0.3215
 5636SOL    HW128367   2.135   3.134   2.558 -1.1508  0.8812 -0.5867
 5636SOL    HW228368   2.048   3.227   2.639  2.9946  1.0394 -2.9737
 5637SOL     OW28369   2.461   1.100  16.269  0.1241 -0.4910 -0.3253
 5637SOL    HW128370   2.450   1.017  16.317 -0.2013 -1.0438 -1.3428
 5637SOL    HW228371   2.393   1.156  16.307 -1.1624 -0.4832 -2.6384
 5638SOL     OW28372   0.387   2.764   1.291 -0.9065 -0.2233 -0.5837
 5638SOL    HW128373   0.374   2.850   1.251 -0.1562  0.8546  1.4863
 5638SOL    HW228374   0.478   2.749   1.267  0.2066  0.2586  3.3663
 5639SOL     OW28375   2.106   3.807  10.079 -0.0823 -0.0248  0.5714
 5639SOL    HW128376   2.136   3.893  10.050  1.3016 -0.4358  0.8076
 5639SOL    HW228377   2.181   3.774  10.129 -0.0037 -1.6771 -0.6661
 5640SOL     OW28378   1.572   0.376  11.321  0.1802  0.3568  0.7455
 5640SOL    HW128379   1.486   0.407  11.295  0.4976  0.2882 -0.3954
 5640SOL    HW228380   1.627   0.454  11.311 -0.0046  0.1870 -1.6062
 5641SOL     OW28381   4.001   4.519  12.139 -0.3771  0.5005  0.2531
 5641SOL    HW128382   3.971   4.565  12.218 -1.2348  0.0763  0.1732
 5641SOL    HW228383   3.920   4.509  12.089 -1.2930 -0.0670  1.8497
 5642SOL     OW28384   1.295   2.937   0.265  0.0792 -1.3796 -0.3871
 5642SOL    HW128385   1.279   2.852   0.306  1.0422 -1.2042  0.3595
 5642SOL    HW228386   1.325   2.994   0.335 -0.0829 -2.1915  0.3427
 5643SOL     OW28387   4.678   3.275   0.011 -0.0977 -0.1099  0.5762
 5643SOL    HW128388   0.052   3.280   0.000 -0.2886 -1.6969 -1.9025
 5643SOL    HW228389   4.652   3.211  17.631 -0.7634 -0.3755  1.0888
 5644SOL     OW28390   2.527   2.459   5.639  0.3178  0.2284  0.6801
 5644SOL    HW128391   2.545   2.550   5.660 -0.8360  0.9264 -1.3886
 5644SOL    HW228392   2.473   2.478   5.562 -1.1180 -0.9268  1.3751
 5645SOL     OW28393   2.229   0.671   6.725  0.3842 -0.6013 -0.1641
 5645SOL    HW128394   2.258   0.634   6.642 -0.0260 -0.9156 -0.1633
 5645SOL    HW228395   2.158   0.613   6.753  2.5523 -2.7137  0.9620
 5646SOL     OW28396   0.089   0.828  12.860 -0.6011  0.0973  0.3917
 5646SOL    HW128397   0.123   0.869  12.939  0.1392  0.0626  0.0934
 5646SOL    HW228398   0.172   0.826  12.811  0.4679 -1.5951  2.2544
 5647SOL     OW28399   1.272   0.461   3.324  0.4938  0.0347 -0.4018
 5647SOL    HW128400   1.367   0.454   3.326  0.3323 -2.3695 -1.2958
 5647SOL    HW228401   1.252   0.502   3.409  2.3716  0.0081  0.0480
 5648SOL     OW28402   1.347   2.660   4.777  0.0863  0.1920  0.3754
 5648SOL    HW128403   1.407   2.734   4.790  0.6312 -0.3908  1.2348
 5648SOL    HW228404   1.272   2.692   4.727 -0.6712 -1.0160  0.7528
 5649SOL     OW28405   1.853   2.859   6.454  0.8995 -0.5786 -0.2534
 5649SOL    HW128406   1.832   2.918   6.381  1.2877 -0.8740 -0.6047
 5649SOL    HW228407   1.766   2.823   6.473  0.0279  1.9375  0.5259
 5650SOL     OW28408   3.607   1.839   5.874  0.3075 -0.1822 -0.1642
 5650SOL    HW128409   3.597   1.848   5.969  1.0514 -2.0705  0.0938
 5650SOL    HW228410   3.699   1.860   5.860  0.4620 -1.3926 -0.9638
 5651SOL     OW28411   2.246   4.068   0.478  0.2875 -0.1548 -0.2373
 5651SOL    HW128412   2.186   4.030   0.414  0.6693 -0.3469 -0.4816
 5651SOL    HW228413   2.233   4.005   0.549  2.3799 -2.6853 -2.1563
 5652SOL     OW28414   3.369   2.351   4.056  0.2552  0.4881  0.4870
 5652SOL    HW128415   3.373   2.266   4.012  0.3856  0.4850  0.5048
 5652SOL    HW228416   3.333   2.398   3.980 -2.3050 -0.3114  1.2103
 5653SOL     OW28417   2.083   0.279   4.407  0.0305  0.1956  0.0428
 5653SOL    HW128418   2.080   0.252   4.499 -1.2614 -2.5501 -0.8266
 5653SOL    HW228419   2.177   0.267   4.391  0.5629  1.4300  2.1574
 5654SOL     OW28420   3.688   3.809   5.830  0.7437 -0.1210 -0.0306
 5654SOL    HW128421   3.742   3.862   5.889  0.7139 -0.5971  0.4216
 5654SOL    HW228422   3.610   3.810   5.886  0.3496 -3.4719 -0.5564
 5655SOL     OW28423   1.943   2.092  13.946 -0.2196 -0.1381  0.2466
 5655SOL    HW128424   1.977   2.012  13.908 -1.1622 -0.9074  1.0217
 5655SOL    HW228425   2.013   2.114  14.007  1.6513 -2.7725 -0.9794
 5656SOL     OW28426   2.081   1.757   8.797 -0.8369 -0.0763 -0.0427
 5656SOL    HW128427   2.003   1.703   8.810 -0.0438 -0.6168  2.3672
 5656SOL    HW228428   2.141   1.683   8.804 -0.9109 -0.1416 -0.1081
 5657SOL     OW28429   0.736   4.024   3.482 -0.2646  0.8457 -0.1285
 5657SOL    HW128430   0.757   4.116   3.465 -1.0549  1.2214  0.9446
 5657SOL    HW228431   0.660   4.005   3.428 -0.7569  0.7271  0.6124
 5658SOL     OW28432   0.847   3.238   4.725  0.2075  0.1932  0.4497
 5658SOL    HW128433   0.830   3.288   4.646  1.4201  0.3790  0.2995
 5658SOL    HW228434   0.940   3.257   4.739  0.2955  0.8935 -1.1006
 5659SOL     OW28435   4.094   2.392   0.259  0.0754 -0.4070  0.1435
 5659SOL    HW128436   4.125   2.444   0.185 -0.7246 -0.3424 -0.1432
 5659SOL    HW228437   4.042   2.464   0.295  1.3661  1.2870 -1.3373
 5660SOL     OW28438   1.122   0.123   6.683  0.4908  0.4090  0.3333
 5660SOL    HW128439   1.109   0.168   6.599 -0.5474 -0.9424 -0.2210
 5660SOL    HW228440   1.160   0.043   6.645 -0.7093 -1.0353  2.2374
 5661SOL     OW28441   0.066   0.543  12.866  0.6189  0.3429 -0.2425
 5661SOL    HW128442   0.155   0.534  12.832 -0.1002 -0.6084 -1.8584
 5661SOL    HW228443   0.044   0.636  12.863  1.6448  0.5720 -0.3321
 5662SOL     OW28444   2.782   4.467   5.752  0.4135  0.0013  0.3575
 5662SOL    HW128445   2.788   4.401   5.821  3.4596 -1.2843 -1.1455
 5662SOL    HW228446   2.815   4.415   5.679  1.4337 -2.1139  2.3165
 5663SOL     OW28447   4.679   1.965   1.453 -0.1379 -0.3268 -0.3190
 5663SOL    HW128448   4.644   1.917   1.378 -1.2859 -0.9178  0.5940
 5663SOL    HW228449   4.599   2.012   1.475  0.1189 -0.1447  0.2208
 5664SOL     OW28450   4.542   1.098   2.137  0.1443 -0.4493 -0.0628
 5664SOL    HW128451   4.590   1.015   2.126  0.7941 -0.0154 -0.5210
 5664SOL    HW228452   4.570   1.146   2.059 -0.0686  0.7758  0.6182
 5665SOL     OW28453   1.346   2.750   3.097 -0.3488  0.4913  0.1645
 5665SOL    HW128454   1.296   2.718   3.023  2.1588  1.1698 -1.8364
 5665SOL    HW228455   1.333   2.667   3.143  3.2374 -0.2036 -0.0294
 5666SOL     OW28456   3.734   4.184  17.097 -0.7194 -0.3656 -0.1632
 5666SOL    HW128457   3.649   4.211  17.130 -1.0821 -0.1667 -1.2584
 5666SOL    HW228458   3.778   4.160  17.179 -1.1763 -2.5664 -0.5606
 5667SOL     OW28459   3.561   1.604   2.617  0.1257  0.1608  0.0078
 5667SOL    HW128460   3.641   1.557   2.593  1.5803  1.8504  1.5579
 5667SOL    HW228461   3.593   1.666   2.682 -2.2630  0.7063  0.6445
 5668SOL     OW28462   2.785   1.034   3.310  0.1026  0.6356 -0.1693
 5668SOL    HW128463   2.792   1.078   3.394 -2.7227 -0.6905  0.7832
 5668SOL    HW228464   2.791   0.942   3.334 -2.2641 -0.0463 -2.1026
 5669SOL     OW28465   2.218   1.462   5.921 -0.2695  0.0185  0.6429
 5669SOL    HW128466   2.237   1.478   6.013 -1.2262  1.7230  0.5529
 5669SOL    HW228467   2.130   1.426   5.933 -0.3248  0.9748  3.1876
 5670SOL     OW28468   1.505   3.286  10.352 -0.4156 -0.0911 -0.2650
 5670SOL    HW128469   1.455   3.210  10.322  0.8875 -2.2873  3.1055
 5670SOL    HW228470   1.432   3.347  10.353 -0.0610  0.3993 -3.7038
 5671SOL     OW28471   4.565   3.940  12.957 -0.4639 -0.3050  0.2363
 5671SOL    HW128472   4.517   3.916  13.036  0.0655 -1.6868  0.1361
 5671SOL    HW228473   4.635   3.876  12.942  0.9229  1.0616  0.8980
 5672SOL     OW28474   2.530   1.229   8.944  0.1781 -0.2236 -0.5358
 5672SOL    HW128475   2.472   1.173   8.996 -0.7684 -0.6486 -2.0642
 5672SOL    HW228476   2.616   1.219   8.986  0.4557  0.3606 -0.9511
 5673SOL     OW28477   1.231   2.053   8.605 -0.4474 -0.3285 -0.0627
 5673SOL    HW128478   1.284   2.058   8.684 -1.3227  0.2212  0.4760
 5673SOL    HW228479   1.161   1.992   8.627 -0.6466 -0.0546  0.0541
 5674SOL     OW28480   2.134   4.664   0.871 -0.6680 -0.2161  0.3056
 5674SOL    HW128481   2.173   0.013   0.818 -3.4280  1.7242  0.8101
 5674SOL    HW228482   2.047   4.700   0.886 -0.1772  0.6658  0.9800
 5675SOL     OW28483   1.835   1.699   7.171  0.0508 -0.6212 -0.9929
 5675SOL    HW128484   1.858   1.720   7.080  1.4359 -1.4655 -0.8242
 5675SOL    HW228485   1.851   1.786   7.208 -1.7831 -1.6368  2.1955
 5676SOL     OW28486   3.351   0.564   3.953  0.7552  0.2127 -0.8273
 5676SOL    HW128487   3.308   0.479   3.965  1.2674  0.1201  0.3569
 5676SOL    HW228488   3.272   0.611   3.979 -0.8078 -3.4371  1.0808
 5677SOL     OW28489   3.419   2.850  10.913  0.1690  0.1830 -0.4506
 5677SOL    HW128490   3.400   2.944  10.904 -1.4876 -0.3077 -2.0351
 5677SOL    HW228491   3.462   2.825  10.832 -2.0293  1.1345 -1.9137
 5678SOL     OW28492   3.505   3.939   8.088 -0.2349  0.4075  0.4942
 5678SOL    HW128493   3.560   4.015   8.074  3.1822 -2.5001 -1.6960
 5678SOL    HW228494   3.569   3.874   8.118  0.4825  0.3887 -1.1254
 5679SOL     OW28495   3.041   0.025   0.615 -0.1950  0.2079 -0.0959
 5679SOL    HW128496   2.965   0.021   0.557 -2.5701 -0.5891  3.0645
 5679SOL    HW228497   3.105   0.002   0.547  0.8543  0.4389  0.8282
 5680SOL     OW28498   3.007   2.725   3.073  0.0999 -0.0120  0.1457
 5680SOL    HW128499   3.068   2.765   3.012  2.7084  0.9232  3.3612
 5680SOL    HW228500   3.033   2.761   3.158 -1.1969 -1.0744  1.0071
 5681SOL     OW28501   4.135   2.372   9.625  0.2294 -0.2673  0.2588
 5681SOL    HW128502   4.200   2.321   9.673  1.1416  0.5537 -0.1121
 5681SOL    HW228503   4.053   2.342   9.665 -0.0569 -0.9938 -0.8871
 5682SOL     OW28504   3.275   0.180   3.335  0.2224 -1.0754 -0.2918
 5682SOL    HW128505   3.310   0.179   3.246  3.3288 -3.2935  0.9712
 5682SOL    HW228506   3.286   0.272   3.359 -3.5482 -0.9132  0.8994
 5683SOL     OW28507   0.160   3.037  14.764 -0.7836  0.1248 -0.2451
 5683SOL    HW128508   0.100   3.104  14.734 -0.0902 -0.8047 -3.7063
 5683SOL    HW228509   0.114   3.020  14.846  0.2652 -0.4466  0.2356
 5684SOL     OW28510   0.372   4.362   9.542  0.2978  0.0440  0.3781
 5684SOL    HW128511   0.350   4.294   9.605  4.0255 -0.1779  1.4008
 5684SOL    HW228512   0.434   4.429   9.572  0.9582 -0.4144  0.0361
 5685SOL     OW28513   1.837   3.726   8.742 -0.3508  0.4441  0.0832
 5685SOL    HW128514   1.829   3.822   8.743  1.0489  0.5520  0.0358
 5685SOL    HW228515   1.763   3.694   8.691  1.0937 -1.2095 -0.9562
 5686SOL     OW28516   1.705   3.543  17.350  0.0471 -0.3433 -0.6353
 5686SOL    HW128517   1.700   3.564  17.256 -3.7105  2.4100  0.2048
 5686SOL    HW228518   1.733   3.451  17.346 -0.6748 -0.6481  1.3990
 5687SOL     OW28519   0.704   2.979   9.781  0.2588  0.3499  0.4553
 5687SOL    HW128520   0.649   3.010   9.853  0.7870 -1.0657  1.4832
 5687SOL    HW228521   0.783   2.952   9.828  0.6236 -0.9693 -0.8953
 5688SOL     OW28522   3.201   3.197   2.536  0.0337  0.2944 -0.4329
 5688SOL    HW128523   3.281   3.157   2.570 -1.7101 -0.3740  2.9829
 5688SOL    HW228524   3.231   3.217   2.448  0.4634  1.6680  0.0323
 5689SOL     OW28525   2.058   2.005  11.233  0.5910  0.4799 -0.6941
 5689SOL    HW128526   2.057   1.917  11.194 -0.5314  0.1827 -0.0140
 5689SOL    HW228527   1.970   2.039  11.247  0.3074 -0.0552 -1.1944
 5690SOL     OW28528   3.006   0.881  16.938 -0.3159  0.2848 -0.1381
 5690SOL    HW128529   3.101   0.887  16.925 -0.4622  0.8965 -0.9484
 5690SOL    HW228530   3.004   0.803  16.882 -1.8027  2.2916 -2.8822
 5691SOL     OW28531   0.616   0.775   7.517  0.0761 -0.3619 -0.1270
 5691SOL    HW128532   0.550   0.708   7.499  0.2830 -0.2804 -1.1706
 5691SOL    HW228533   0.602   0.833   7.442 -0.0535  1.0412  0.9910
 5692SOL     OW28534   2.862   3.470  17.453 -0.1429 -0.0987  0.0660
 5692SOL    HW128535   2.792   3.427  17.404  1.7218 -2.1792 -0.7746
 5692SOL    HW228536   2.865   3.410  17.527 -4.7864  0.7066  0.9071
 5693SOL     OW28537   4.157   3.722   9.001  0.3859  0.1777 -0.1227
 5693SOL    HW128538   4.190   3.702   9.089 -2.6590 -3.0338  0.3125
 5693SOL    HW228539   4.212   3.792   8.968 -0.0355  1.0490  0.9977
 5694SOL     OW28540   2.799   3.637  17.005  0.3283  0.8052  0.3027
 5694SOL    HW128541   2.867   3.699  17.034  0.5852 -0.3580  2.1860
 5694SOL    HW228542   2.732   3.691  16.962  0.1801  0.3688 -0.0073
 5695SOL     OW28543   0.837   1.044   2.666 -0.3685  0.2987 -0.4860
 5695SOL    HW128544   0.917   1.039   2.613 -0.2702  1.0949 -0.4131
 5695SOL    HW228545   0.817   0.954   2.690 -1.0214  0.2993 -1.0390
 5696SOL     OW28546   0.101   4.375  16.944  0.2553 -0.2080  0.1362
 5696SOL    HW128547   0.071   4.461  16.974 -0.6233 -0.9727  1.4505
 5696SOL    HW228548   0.117   4.338  17.031 -2.4343  1.3647  1.3329
 5697SOL     OW28549   4.349   4.113   0.772 -0.7576  0.1817 -0.3136
 5697SOL    HW128550   4.286   4.055   0.816  0.6905 -2.6819 -2.0496
 5697SOL    HW228551   4.295   4.171   0.718 -1.7527  0.3453  0.8508
 5698SOL     OW28552   1.754   1.883  11.069  0.4172 -0.1602 -0.0430
 5698SOL    HW128553   1.673   1.833  11.062 -0.2892  0.9693 -0.0689
 5698SOL    HW228554   1.787   1.835  11.145  1.4728 -1.3189 -1.2559
 5699SOL     OW28555   3.173   3.552   8.679  0.3229  0.5588  0.1159
 5699SOL    HW128556   3.193   3.643   8.702 -1.2386  1.3271 -1.5229
 5699SOL    HW228557   3.186   3.511   8.764  1.9601  1.3181  0.2315
 5700SOL     OW28558   1.680   0.856   4.890 -0.3223 -0.7696 -0.2605
 5700SOL    HW128559   1.685   0.889   4.980  0.9677 -3.2530  0.6096
 5700SOL    HW228560   1.592   0.886   4.868 -0.1533  1.1735  1.7113
 5701SOL     OW28561   1.612   1.760  14.207  0.1189  0.0755  0.1661
 5701SOL    HW128562   1.578   1.681  14.165 -0.2114  0.0860  0.4142
 5701SOL    HW228563   1.621   1.818  14.131  0.7616 -3.5649 -2.5659
 5702SOL     OW28564   1.713   2.474  12.544  0.1530 -0.1014  0.0111
 5702SOL    HW128565   1.802   2.479  12.579 -0.0372  0.7635  0.3832
 5702SOL    HW228566   1.676   2.559  12.570  0.5954  0.6492 -1.7975
 5703SOL     OW28567   0.391   1.967  12.473 -0.4644  0.1095 -0.0557
 5703SOL    HW128568   0.352   2.055  12.473  0.3214  0.4642  1.8340
 5703SOL    HW228569   0.477   1.973  12.431 -0.6359  2.4195 -0.1048
 5704SOL     OW28570   2.036   0.138   3.206  0.6683  0.1362 -0.2399
 5704SOL    HW128571   2.026   0.162   3.298 -2.1655  1.2991 -0.8319
 5704SOL    HW228572   2.014   0.044   3.207  1.0118  0.1007  2.8742
 5705SOL     OW28573   0.523   1.718   4.268 -0.1461 -0.0984  0.0543
 5705SOL    HW128574   0.449   1.702   4.209 -0.3835  0.0664  0.3073
 5705SOL    HW228575   0.490   1.798   4.307 -1.7015 -0.7274  0.0095
 5706SOL     OW28576   1.395   2.344   2.448  0.5457 -0.1799  0.8179
 5706SOL    HW128577   1.375   2.283   2.519  1.8683  0.7810  2.0086
 5706SOL    HW228578   1.486   2.364   2.466  0.0404  0.5953  2.5039
 5707SOL     OW28579   3.951   4.277   4.676  0.1690  0.0304  0.8561
 5707SOL    HW128580   3.861   4.268   4.707 -1.0750  1.6151 -2.2430
 5707SOL    HW228581   3.940   4.315   4.589 -2.2169  0.2118  1.2459
 5708SOL     OW28582   0.302   1.277   5.816 -0.0988  0.5032 -0.0549
 5708SOL    HW128583   0.218   1.312   5.846 -0.3846 -0.9548  0.8723
 5708SOL    HW228584   0.275   1.202   5.763  0.6923 -1.3841  2.2015
 5709SOL     OW28585   3.985   3.515  17.398 -0.7763  0.2957 -0.1809
 5709SOL    HW128586   3.892   3.522  17.421 -0.3166 -0.9213  2.0082
 5709SOL    HW228587   3.995   3.442  17.337  0.4167  1.1957 -1.0501
 5710SOL     OW28588   0.788   2.758   1.522 -0.4070  0.8347 -0.0803
 5710SOL    HW128589   0.737   2.745   1.442 -1.7173  0.0223  0.8843
 5710SOL    HW228590   0.718   2.731   1.581 -0.6856  1.0830 -0.2959
 5711SOL     OW28591   3.914   2.454   5.934 -0.3117 -0.1737 -0.7818
 5711SOL    HW128592   3.855   2.528   5.945 -0.6784 -0.4372 -0.9677
 5711SOL    HW228593   3.917   2.423   6.025 -1.1963 -0.3020 -0.7978
 5712SOL     OW28594   4.108   2.832   2.672 -0.0971  0.0647  0.0934
 5712SOL    HW128595   4.163   2.897   2.717  0.9897 -1.1052  0.4748
 5712SOL    HW228596   4.093   2.765   2.739 -0.0508 -0.4978 -0.4635
 5713SOL     OW28597   3.233   2.568   5.400 -0.0238  0.4475 -0.2668
 5713SOL    HW128598   3.300   2.582   5.467 -0.4002  1.7513 -0.1760
 5713SOL    HW228599   3.223   2.473   5.395  2.4527  0.1260  0.8847
 5714SOL     OW28600   1.209   0.939  15.144 -0.4862 -0.7285 -0.0893
 5714SOL    HW128601   1.240   0.856  15.107  0.2985 -0.7914  0.7287
 5714SOL    HW228602   1.222   1.001  15.072  1.5906 -0.3937  0.5883
 5715SOL     OW28603   3.274   0.856  16.884  0.2548  0.1622  0.1809
 5715SOL    HW128604   3.334   0.899  16.823  0.7258 -2.3267 -1.0921
 5715SOL    HW228605   3.267   0.765  16.856  3.8605  0.3178 -1.2582
 5716SOL     OW28606   3.735   0.601  17.543 -0.2452  0.0187  0.1299
 5716SOL    HW128607   3.814   0.655  17.545  0.9461 -1.7564  1.0372
 5716SOL    HW228608   3.671   0.638  17.482  0.1741  2.0842  0.9358
 5717SOL     OW28609   3.296   1.361  15.994 -0.1940  0.4971  0.3167
 5717SOL    HW128610   3.274   1.315  16.075 -1.3696  0.2828 -0.1259
 5717SOL    HW228611   3.353   1.298  15.950 -0.8388 -0.1143  0.3404
 5718SOL     OW28612   3.261   0.784   1.052 -0.1701 -0.2342  0.2068
 5718SOL    HW128613   3.336   0.764   1.107  0.5918  0.2188 -0.6695
 5718SOL    HW228614   3.214   0.700   1.055 -2.1434  0.8680  0.2259
 5719SOL     OW28615   0.386   2.753  11.788 -0.5096 -0.1696  1.0126
 5719SOL    HW128616   0.438   2.675  11.768  0.4153  1.4007 -2.6635
 5719SOL    HW228617   0.455   2.817  11.772 -0.6414  0.1642  1.7786
 5720SOL     OW28618   2.789   3.131   1.017  0.3981  0.0447 -0.0182
 5720SOL    HW128619   2.715   3.088   0.974  1.1292  0.0766 -1.2990
 5720SOL    HW228620   2.748   3.118   1.102  2.1846 -0.5100  0.7619
 5721SOL     OW28621   4.266   3.586  11.737 -0.2360  0.2740 -0.6795
 5721SOL    HW128622   4.242   3.514  11.679  0.1245 -0.5967  0.2720
 5721SOL    HW228623   4.204   3.647  11.696 -0.2671  0.8718  0.2551
 5722SOL     OW28624   2.839   4.434  13.889 -0.6833  0.3807  0.2347
 5722SOL    HW128625   2.899   4.368  13.854 -1.2394 -1.3271  2.4842
 5722SOL    HW228626   2.775   4.447  13.819  1.1941 -0.5933 -1.6376
 5723SOL     OW28627   3.656   2.951  15.228 -0.7318  0.0013  0.7769
 5723SOL    HW128628   3.691   2.989  15.147 -1.1916  1.7398  1.3783
 5723SOL    HW228629   3.729   2.970  15.287  1.2733  0.8747 -1.9239
 5724SOL     OW28630   1.014   4.255   1.189  0.2236  0.0467  0.4195
 5724SOL    HW128631   1.105   4.272   1.166  0.0504 -1.8450 -1.6967
 5724SOL    HW228632   1.006   4.273   1.282 -1.2086 -0.6935  0.4409
 5725SOL     OW28633   3.722   1.168   8.258  0.4748 -0.3574  0.1186
 5725SOL    HW128634   3.791   1.180   8.193  1.5545  1.2393  1.5551
 5725SOL    HW228635   3.778   1.136   8.328  0.5132  2.7068  1.5140
 5726SOL     OW28636   0.701   4.203  13.226  0.2291 -0.0247  0.2223
 5726SOL    HW128637   0.621   4.171  13.186  1.0573  2.6608 -3.5614
 5726SOL    HW228638   0.720   4.129  13.285  1.0802  0.4061  0.4838
 5727SOL     OW28639   3.994   0.943   3.762 -0.3504  0.4994  0.8406
 5727SOL    HW128640   3.929   0.923   3.695 -0.4715 -0.2194  1.1779
 5727SOL    HW228641   4.055   0.994   3.709  0.2856 -0.0712  1.0238
 5728SOL     OW28642   4.324   4.352   6.609 -0.2110 -0.2942 -0.1753
 5728SOL    HW128643   4.232   4.327   6.619 -0.2853 -0.6725 -1.8511
 5728SOL    HW228644   4.334   4.323   6.518  0.5561 -1.0137  0.1313
 5729SOL     OW28645   2.016   1.157   5.256 -0.2008 -0.1829  0.7970
 5729SOL    HW128646   1.952   1.223   5.284  0.8144  1.3980 -0.5552
 5729SOL    HW228647   2.069   1.213   5.200  0.3434 -0.8551  0.6460
 5730SOL     OW28648   2.566   0.056   2.966  0.1176  0.1298  0.4527
 5730SOL    HW128649   2.571   0.054   3.061  1.2558 -0.0121  0.3935
 5730SOL    HW228650   2.559   4.688   2.932 -1.1161  0.1168  0.7407
 5731SOL     OW28651   1.044   4.581   3.335 -0.1916  0.1980  0.0667
 5731SOL    HW128652   1.080   4.511   3.280 -1.0258  0.3823 -0.7178
 5731SOL    HW228653   1.102   4.563   3.409  0.6474 -2.4179 -1.2425
 5732SOL     OW28654   2.456   3.867  17.566  0.9258 -0.3456 -0.1233
 5732SOL    HW128655   2.479   3.824  17.649 -2.1904  0.0009  0.9438
 5732SOL    HW228656   2.389   3.805  17.538 -0.5138  1.8674 -1.5511
 5733SOL     OW28657   1.709   2.926   4.730  0.2749 -0.4609 -0.0141
 5733SOL    HW128658   1.795   2.883   4.734  0.2248 -0.5975 -0.4171
 5733SOL    HW228659   1.667   2.890   4.652 -1.4612 -2.0775  1.6674
 5734SOL     OW28660   1.214   3.385  17.432 -0.0438 -0.4780  0.3298
 5734SOL    HW128661   1.251   3.399  17.520 -1.1017 -1.6366  0.9584
 5734SOL    HW228662   1.148   3.454  17.432 -1.2244 -1.6220 -1.2833
 5735SOL     OW28663   3.975   4.389   5.069  0.1579  0.0299 -0.2538
 5735SOL    HW128664   3.947   4.305   5.106  0.3680  0.1627  0.2047
 5735SOL    HW228665   4.069   4.377   5.083  0.1784 -0.3265 -0.6843
 5736SOL     OW28666   4.289   1.980  11.808 -0.3736  0.1993 -0.1209
 5736SOL    HW128667   4.280   2.052  11.871 -0.3014 -0.6774  0.9000
 5736SOL    HW228668   4.336   1.914  11.859 -1.0140 -0.0729  0.1273
 5737SOL     OW28669   0.410   0.195   2.582  0.0297  0.0286  0.7524
 5737SOL    HW128670   0.327   0.204   2.534 -0.0156  1.2912  1.0616
 5737SOL    HW228671   0.457   0.265   2.536 -0.8156  0.4533  0.5330
 5738SOL     OW28672   2.822   0.452   3.754 -0.1542  0.3568 -0.1727
 5738SOL    HW128673   2.906   0.490   3.730 -0.2677 -0.4597 -1.8938
 5738SOL    HW228674   2.823   0.465   3.849  0.4040 -0.0031 -0.1315
 5739SOL     OW28675   0.250   1.640   2.725  0.2115 -0.5738  0.2667
 5739SOL    HW128676   0.160   1.610   2.738 -1.1564  2.3977 -2.1778
 5739SOL    HW228677   0.260   1.674   2.635  0.2953 -0.7661  0.2047
 5740SOL     OW28678   3.664   2.125   1.519  0.3740  0.3746 -0.6821
 5740SOL    HW128679   3.671   2.100   1.611 -3.6541 -0.2118 -0.5539
 5740SOL    HW228680   3.720   2.059   1.478  1.8619  1.1115  0.1502
 5741SOL     OW28681   0.557   0.521   4.928  0.2076  0.6360 -0.5243
 5741SOL    HW128682   0.507   0.440   4.941  1.6444 -0.1180  0.2494
 5741SOL    HW228683   0.620   0.492   4.862 -1.5000 -0.4239 -1.7143
 5742SOL     OW28684   4.364   2.816   6.795  0.3460  0.7507  0.8777
 5742SOL    HW128685   4.285   2.770   6.766  1.5986 -0.2939 -0.9050
 5742SOL    HW228686   4.364   2.784   6.885  0.2694 -1.0341  0.2457
 5743SOL     OW28687   4.323   2.243   8.765 -0.5401  0.4837 -0.6446
 5743SOL    HW128688   4.372   2.161   8.773  1.6874  1.9691  1.0217
 5743SOL    HW228689   4.238   2.212   8.796 -0.5166  0.7200 -0.3513
 5744SOL     OW28690   0.270   2.214  14.402  0.1462  0.2254 -0.1205
 5744SOL    HW128691   0.213   2.275  14.355  0.4181 -0.0768 -0.8477
 5744SOL    HW228692   0.310   2.163  14.331 -0.0861 -0.6771  0.4012
 5745SOL     OW28693   0.134   4.498   1.447  0.2969  0.0401  0.3484
 5745SOL    HW128694   0.182   4.423   1.483 -1.5542 -0.5026  1.6960
 5745SOL    HW228695   0.045   4.465   1.460  0.3894 -0.8372 -1.1202
 5746SOL     OW28696   0.327   0.203   7.667 -0.4527  0.8062  0.2020
 5746SOL    HW128697   0.272   0.211   7.589 -0.5591  0.6970  0.2647
 5746SOL    HW228698   0.401   0.252   7.631  1.2466 -0.3499  2.1477
 5747SOL     OW28699   3.590   1.793   8.475  0.5714 -0.2893 -0.4205
 5747SOL    HW128700   3.659   1.735   8.510 -1.4594 -1.9696  0.7764
 5747SOL    HW228701   3.557   1.750   8.396  1.5917 -2.2647  0.2237
 5748SOL     OW28702   0.391   0.708   7.234 -0.6871  0.1243 -0.5012
 5748SOL    HW128703   0.330   0.639   7.208 -0.2118 -0.5151  0.0901
 5748SOL    HW228704   0.474   0.660   7.232 -0.5759  0.2337  1.7335
 5749SOL     OW28705   0.726   2.624   9.457 -0.0314  0.0123  0.1596
 5749SOL    HW128706   0.700   2.534   9.477  2.7884 -0.5163  1.3784
 5749SOL    HW228707   0.689   2.660   9.538  2.8458  0.6710  1.2026
 5750SOL     OW28708   4.055   4.582  12.570 -0.0424 -0.0617  0.1780
 5750SOL    HW128709   4.145   4.564  12.542 -0.2185  2.1931 -1.8774
 5750SOL    HW228710   4.077   4.651  12.633 -1.9130  0.9074 -0.2276
 5751SOL     OW28711   2.206   3.974   0.950 -1.0320 -0.0267 -0.0977
 5751SOL    HW128712   2.204   3.983   1.046 -0.5525  0.4118 -0.1350
 5751SOL    HW228713   2.272   3.906   0.936 -0.9732  0.3921 -1.7619
 5752SOL     OW28714   2.559   1.985  10.569  0.2565 -0.4492  0.2238
 5752SOL    HW128715   2.649   2.015  10.553  0.3415 -0.5101  0.5827
 5752SOL    HW228716   2.570   1.964  10.662  4.0109  1.8684  0.3386
 5753SOL     OW28717   3.870   3.419   1.690 -0.1787  0.0514  0.3832
 5753SOL    HW128718   3.962   3.439   1.671  1.0393 -3.0745  2.9322
 5753SOL    HW228719   3.842   3.494   1.743 -0.3480 -0.5480  1.1480
 5754SOL     OW28720   2.572   1.394   3.356 -0.0190 -0.3045  0.2039
 5754SOL    HW128721   2.489   1.402   3.309  1.3266  3.8261 -1.4495
 5754SOL    HW228722   2.577   1.482   3.393  3.8801 -0.9662  1.2014
 5755SOL     OW28723   3.470   3.919   3.067 -0.1456 -0.2068  0.3353
 5755SOL    HW128724   3.510   3.905   3.153  1.5405 -2.4286 -0.8243
 5755SOL    HW228725   3.386   3.874   3.082  0.0208 -0.2049  1.3246
 5756SOL     OW28726   2.707   3.361   8.046  0.3928  0.0715 -0.2429
 5756SOL    HW128727   2.756   3.279   8.051  2.5191  1.3499  0.3894
 5756SOL    HW228728   2.772   3.426   8.075 -1.7600  1.2989  1.8134
 5757SOL     OW28729   2.949   0.387  11.184 -0.3495 -0.2786  0.8322
 5757SOL    HW128730   3.005   0.387  11.107 -1.6749 -0.9792 -0.1445
 5757SOL    HW228731   2.926   0.294  11.176 -0.6493 -0.1721  0.4721
 5758SOL     OW28732   2.069   3.047   5.545  0.2750 -0.2907  0.4039
 5758SOL    HW128733   2.114   3.118   5.499  0.4437  0.3407  1.5471
 5758SOL    HW228734   2.111   2.974   5.501  2.3038 -0.6898  3.0275
 5759SOL     OW28735   1.066   1.072   4.655 -0.0537 -0.5203  0.0811
 5759SOL    HW128736   1.070   1.060   4.749  1.6131  0.3057  0.1140
 5759SOL    HW228737   1.028   1.160   4.649  1.3494  0.1771  1.5354
 5760SOL     OW28738   0.737   3.825   4.535  0.0962  0.3132  0.0671
 5760SOL    HW128739   0.724   3.736   4.502  1.5015  1.0033 -2.4313
 5760SOL    HW228740   0.687   3.837   4.615  0.0828  1.1979 -0.0717
 5761SOL     OW28741   2.789   3.622   9.730  0.1897 -0.3933  0.7084
 5761SOL    HW128742   2.859   3.567   9.695  0.3592  0.2093  0.1058
 5761SOL    HW228743   2.797   3.596   9.821  2.1436 -0.2854  0.5639
 5762SOL     OW28744   0.050   1.929  14.632  0.0283 -0.2985  0.2021
 5762SOL    HW128745   0.057   1.938  14.537 -1.4097 -3.3113 -0.2068
 5762SOL    HW228746   0.078   1.838  14.643 -2.0625 -1.1988 -1.8027
 5763SOL     OW28747   1.450   1.820   3.662 -0.0886 -0.1041 -0.0001
 5763SOL    HW128748   1.441   1.900   3.713  2.5533 -0.0832  0.4739
 5763SOL    HW228749   1.491   1.761   3.725 -1.3194 -2.8689 -1.7966
 5764SOL     OW28750   3.081   4.208   4.789 -0.1575 -0.0398  0.0538
 5764SOL    HW128751   3.038   4.272   4.733  1.6046  0.8284 -0.3216
 5764SOL    HW228752   3.008   4.172   4.840 -0.6781 -0.4120 -0.9603
 5765SOL     OW28753   2.705   3.564   7.748 -0.0427  0.4592 -0.8483
 5765SOL    HW128754   2.763   3.556   7.823  0.1107 -3.7096 -1.4345
 5765SOL    HW228755   2.690   3.658   7.732 -3.9959 -0.2088 -1.1180
 5766SOL     OW28756   0.769   1.059   4.862 -0.2469  0.2585  0.6165
 5766SOL    HW128757   0.699   1.123   4.849  0.1554  1.0451  2.4204
 5766SOL    HW228758   0.721   1.005   4.925  2.6094 -1.5418  1.2577
 5767SOL     OW28759   3.844   3.442   1.263 -0.0951 -0.1454 -0.4529
 5767SOL    HW128760   3.798   3.409   1.340  1.2302  0.3408  0.5408
 5767SOL    HW228761   3.794   3.522   1.248  0.7303  0.3439 -0.5857
 5768SOL     OW28762   0.113   4.712   4.621 -0.6698  0.0638 -0.6779
 5768SOL    HW128763   0.044   0.039   4.575 -1.6260  0.4973  1.1889
 5768SOL    HW228764   0.120   4.634   4.566  1.2461  0.1010 -0.4664
 5769SOL     OW28765   3.318   0.263   0.952 -0.6430  0.1707  0.1312
 5769SOL    HW128766   3.330   0.199   0.882  1.5253  1.1106 -0.3456
 5769SOL    HW228767   3.234   0.304   0.931 -0.5975  1.2424  2.0052
 5770SOL     OW28768   0.377   1.446   9.142 -0.2743  0.2173  0.5171
 5770SOL    HW128769   0.294   1.461   9.187  0.6902 -0.8041  2.6631
 5770SOL    HW228770   0.404   1.364   9.183  1.6505  2.0891  2.9775
 5771SOL     OW28771   2.825   1.172   2.089  0.3506  0.0047 -0.1853
 5771SOL    HW128772   2.779   1.134   2.014 -0.3818 -1.1645  0.8717
 5771SOL    HW228773   2.905   1.121   2.101  0.7713  0.8363  0.5042
 5772SOL     OW28774   4.336   1.096   4.736  0.3453  0.0363  0.5362
 5772SOL    HW128775   4.424   1.108   4.699  0.1092  2.0513  0.6423
 5772SOL    HW228776   4.311   1.013   4.695 -0.1659  0.3702  0.1834
 5773SOL     OW28777   1.379   2.070  14.169 -0.3814  0.2303  0.1266
 5773SOL    HW128778   1.325   2.127  14.115  0.0323  1.5160  1.0880
 5773SOL    HW228779   1.449   2.124  14.204 -1.9324  0.9188  2.2046
 5774SOL     OW28780   1.056   3.652  14.739 -0.0577 -0.2994 -0.0282
 5774SOL    HW128781   0.972   3.696  14.730 -0.0742  0.0438  1.7216
 5774SOL    HW228782   1.110   3.730  14.723 -0.5782 -0.1806 -1.1656
 5775SOL     OW28783   0.534   2.569   5.579  0.1367  0.7664 -0.7321
 5775SOL    HW128784   0.457   2.521   5.609  0.9199 -1.5506 -2.4031
 5775SOL    HW228785   0.488   2.610   5.506 -1.5669 -1.3418 -0.8713
 5776SOL     OW28786   4.712   2.589   5.457  0.9594 -0.1587  0.3505
 5776SOL    HW128787   0.069   2.588   5.513  0.3222 -0.2964  1.2297
 5776SOL    HW228788   4.666   2.647   5.518 -0.3651 -2.1904  1.2695
 5777SOL     OW28789   3.138   4.595   2.675 -0.2866  0.2540 -0.0433
 5777SOL    HW128790   3.232   4.613   2.685 -0.6339  1.9373  0.2408
 5777SOL    HW228791   3.101   4.670   2.723 -1.5816  1.1411 -2.4286
 5778SOL     OW28792   0.125   4.368  14.800  0.1909  0.1298 -0.3117
 5778SOL    HW128793   0.195   4.415  14.846  0.8110 -1.4457  0.3371
 5778SOL    HW228794   0.098   4.425  14.728 -1.3667  0.5678  0.6338
 5779SOL     OW28795   3.035   1.601   6.874  0.2699  0.6235 -0.1944
 5779SOL    HW128796   3.128   1.622   6.870 -0.2940  3.1348 -0.1688
 5779SOL    HW228797   3.036   1.512   6.838  0.6496  0.5245  0.0596
 5780SOL     OW28798   1.692   1.621  12.955  0.0892 -0.3376 -0.1972
 5780SOL    HW128799   1.761   1.591  13.014 -0.6879 -2.1002 -0.1814
 5780SOL    HW228800   1.715   1.575  12.874 -1.9303 -0.6555 -0.5768
 5781SOL     OW28801   2.924   0.228   4.012 -0.3855 -0.5322 -0.5903
 5781SOL    HW128802   2.888   0.163   4.071 -1.7284  0.5529 -0.2124
 5781SOL    HW228803   2.961   0.174   3.942  0.7388 -0.1904 -0.2596
 5782SOL     OW28804   1.965   2.798   2.899  0.1879 -0.2151 -0.3394
 5782SOL    HW128805   1.960   2.854   2.976  0.3354 -0.3183 -0.2547
 5782SOL    HW228806   2.055   2.765   2.900  0.4495  0.5136  0.1349
 5783SOL     OW28807   3.393   4.595  16.864  0.5344  0.2116  0.2425
 5783SOL    HW128808   3.324   4.615  16.801  1.2094 -0.1513 -0.6193
 5783SOL    HW228809   3.405   4.669  16.923 -1.9026  1.6175 -1.0397
 5784SOL     OW28810   4.040   2.373   7.774  0.0223 -0.5077 -0.2136
 5784SOL    HW128811   4.067   2.454   7.731 -0.1105 -0.4685 -0.2230
 5784SOL    HW228812   4.103   2.370   7.846 -1.0942 -0.4751  0.7630
 5785SOL     OW28813   0.537   4.326  10.183 -0.0656  0.2816  0.5126
 5785SOL    HW128814   0.512   4.241  10.221 -2.2058 -0.1621 -1.8741
 5785SOL    HW228815   0.453   4.370  10.171 -0.5591 -0.5762  0.7896
 5786SOL     OW28816   0.873   4.278   4.728  0.4352 -0.2859  0.2680
 5786SOL    HW128817   0.850   4.299   4.638 -2.2618 -2.0997  0.5457
 5786SOL    HW228818   0.954   4.326   4.745  2.4586 -2.7663 -2.4615
 5787SOL     OW28819   3.912   4.369   2.250  0.1125 -0.0988 -0.4564
 5787SOL    HW128820   3.936   4.351   2.341  0.5415  1.1517 -0.3226
 5787SOL    HW228821   3.912   4.279   2.217 -1.3524  1.4162 -4.5782
 5788SOL     OW28822   1.017   3.281   3.933  0.1780 -0.6897 -0.1940
 5788SOL    HW128823   1.028   3.327   3.850 -2.5738 -0.9246 -0.6696
 5788SOL    HW228824   0.954   3.343   3.968  0.8855  0.0899 -0.2959
 5789SOL     OW28825   4.006   4.139  16.616 -0.2459  0.2151 -0.3774
 5789SOL    HW128826   3.996   4.137  16.521 -2.5356  3.0500 -0.1727
 5789SOL    HW228827   3.934   4.198  16.637 -0.0048 -0.2786  1.8709
 5790SOL     OW28828   3.978   4.213  13.300  0.2982 -0.1226  0.2750
 5790SOL    HW128829   3.917   4.147  13.267  1.4358 -0.1685 -1.7512
 5790SOL    HW228830   3.944   4.211  13.389  1.4649  0.1695  0.7259
 5791SOL     OW28831   1.056   1.164   3.057 -0.1325  0.3175  0.5723
 5791SOL    HW128832   1.014   1.157   3.143  0.3635 -0.5496  0.7519
 5791SOL    HW228833   1.087   1.074   3.049 -0.0246  0.6180 -2.3502
 5792SOL     OW28834   2.556   3.526   9.341  0.3542  0.2340  0.1305
 5792SOL    HW128835   2.476   3.473   9.347 -0.6394  1.8429  0.8388
 5792SOL    HW228836   2.521   3.610   9.311 -0.9090 -0.1934  0.3734
 5793SOL     OW28837   1.728   2.999   4.220 -0.5516 -0.3280 -0.3548
 5793SOL    HW128838   1.638   2.991   4.190 -0.6411 -1.5268  0.2553
 5793SOL    HW228839   1.776   2.954   4.150 -0.8091 -1.5030  0.2314
 5794SOL     OW28840   3.252   4.435  14.228 -0.4302  0.0618 -0.4533
 5794SOL    HW128841   3.262   4.448  14.322 -0.3189 -1.0073 -0.3134
 5794SOL    HW228842   3.316   4.366  14.206  0.7058  0.5625  1.2333
 5795SOL     OW28843   1.181   2.797   3.621  0.1032 -0.4721  0.6379
 5795SOL    HW128844   1.243   2.864   3.592  0.4066 -0.3610  1.5401
 5795SOL    HW228845   1.224   2.712   3.609  0.7835  0.1834 -1.5411
 5796SOL     OW28846   2.321   2.736  16.338  0.1661  0.2997  0.2285
 5796SOL    HW128847   2.313   2.641  16.344  1.5363  0.1013 -1.2737
 5796SOL    HW228848   2.255   2.748  16.407 -0.9711  0.3511 -0.8811
 5797SOL     OW28849   3.850   3.523   7.070 -0.3288  0.2662  0.3433
 5797SOL    HW128850   3.847   3.428   7.076  2.3764  0.2301  1.0893
 5797SOL    HW228851   3.942   3.532   7.094 -0.1684 -0.0080 -0.1728
 5798SOL     OW28852   3.481   2.183   5.993  0.2888 -0.2015  0.0034
 5798SOL    HW128853   3.405   2.214   5.944  0.4976  1.9765  1.0918
 5798SOL    HW228854   3.465   2.246   6.063  1.0696  0.1081 -0.0956
 5799SOL     OW28855   4.565   2.903  16.723 -0.5806 -0.6951 -0.1056
 5799SOL    HW128856   4.553   2.991  16.760  0.2431 -0.3056 -0.7685
 5799SOL    HW228857   4.472   2.889  16.703 -0.9161 -0.4372  1.2995
 5800SOL     OW28858   2.242   1.408   2.844  0.0486 -0.1399  0.5746
 5800SOL    HW128859   2.264   1.416   2.751  0.7150 -0.4522  0.7066
 5800SOL    HW228860   2.190   1.487   2.861  1.3392  1.4231 -2.5912
 5801SOL     OW28861   0.641   1.127  13.908  0.0148 -0.0876 -0.0529
 5801SOL    HW128862   0.655   1.121  13.813  0.0228 -0.4313 -0.0318
 5801SOL    HW228863   0.655   1.033  13.925  1.6589  0.4250  1.4209
 5802SOL     OW28864   2.256   3.345   3.553 -0.2155  0.1766 -0.2415
 5802SOL    HW128865   2.258   3.417   3.615  1.2578  1.0543 -1.3134
 5802SOL    HW228866   2.223   3.267   3.597  4.4967 -2.3222 -1.2360
 5803SOL     OW28867   2.784   3.826   2.402  0.4928 -0.0748 -0.0922
 5803SOL    HW128868   2.790   3.815   2.307 -2.7923 -2.0388 -0.0714
 5803SOL    HW228869   2.788   3.732   2.420 -0.3314  0.3636  2.3510
 5804SOL     OW28870   2.504   1.186  15.470  0.3647  0.2428 -0.5059
 5804SOL    HW128871   2.442   1.153  15.534  0.7392  1.0808  0.2822
 5804SOL    HW228872   2.583   1.134  15.484  0.6655  0.9811  0.5271
 5805SOL     OW28873   3.292   3.732   3.158 -0.2500  0.4160 -0.1111
 5805SOL    HW128874   3.355   3.693   3.219 -1.6955  0.3569  1.3473
 5805SOL    HW228875   3.220   3.740   3.221 -0.5391 -0.0713 -0.3819
 5806SOL     OW28876   4.159   0.048   7.977 -0.7856  0.2551  0.2269
 5806SOL    HW128877   4.098   0.070   7.906 -0.0078 -0.1600 -0.5814
 5806SOL    HW228878   4.219   4.719   7.921  0.0883  0.1471  1.2662
 5807SOL     OW28879   0.176   4.057   4.896  0.1907 -0.3787  0.1132
 5807SOL    HW128880   0.241   4.006   4.848  0.6584 -0.0174  0.3668
 5807SOL    HW228881   0.216   4.144   4.901  1.5765 -0.8602 -2.7932
 5808SOL     OW28882   3.209   2.918  17.531  0.0612  0.6230 -0.1167
 5808SOL    HW128883   3.201   3.005  17.572 -0.1876  1.6227 -2.2991
 5808SOL    HW228884   3.155   2.872  17.596  0.2711 -0.7444 -0.9198
 5809SOL     OW28885   0.223   0.603   4.950  0.0538  0.0657  0.2754
 5809SOL    HW128886   0.224   0.562   4.864  0.4337  1.7359 -0.5003
 5809SOL    HW228887   0.314   0.630   4.955 -0.5687  2.2788 -0.4000
 5810SOL     OW28888   0.763   0.428   7.859 -0.4539 -0.5607 -0.0443
 5810SOL    HW128889   0.672   0.397   7.853  0.1401 -2.2768 -0.1234
 5810SOL    HW228890   0.739   0.514   7.894  1.3967 -0.6806  1.4920
 5811SOL     OW28891   0.865   4.532  13.847  0.1521 -0.2361  0.7003
 5811SOL    HW128892   0.897   4.621  13.860 -2.2504  0.8330 -0.8686
 5811SOL    HW228893   0.950   4.497  13.820 -0.0640 -0.2158 -0.0131
 5812SOL     OW28894   3.122   3.793  16.920  0.0860 -0.1199  0.1523
 5812SOL    HW128895   3.056   3.835  16.976  0.0343 -0.0285  0.0227
 5812SOL    HW228896   3.206   3.830  16.948 -0.2691  0.6414  0.2239
 5813SOL     OW28897   0.521   1.351   7.934  0.0433  0.9711 -0.0788
 5813SOL    HW128898   0.443   1.398   7.906 -1.8189 -0.5897  2.4552
 5813SOL    HW228899   0.492   1.260   7.929  0.6608  0.7343  0.6602
 5814SOL     OW28900   2.696   3.849   7.649  0.5298 -0.6205 -0.1144
 5814SOL    HW128901   2.712   3.925   7.705  0.6693  0.2033 -1.2617
 5814SOL    HW228902   2.605   3.872   7.627  0.3417  0.2632  1.5215
 5815SOL     OW28903   1.802   4.500   5.820  0.3710  0.0486 -0.2317
 5815SOL    HW128904   1.818   4.408   5.800 -0.3118  0.6190 -3.4020
 5815SOL    HW228905   1.727   4.499   5.880  0.4175 -2.0116 -0.2074
 5816SOL     OW28906   3.405   4.148  15.253  0.9280  0.0168 -0.0338
 5816SOL    HW128907   3.364   4.234  15.256  0.1392 -0.3927  1.5590
 5816SOL    HW228908   3.442   4.154  15.165  1.9277  1.2915  0.4738
 5817SOL     OW28909   2.627   2.860   3.280  0.4653  0.0197  0.1141
 5817SOL    HW128910   2.681   2.902   3.348 -1.0563 -0.6802  1.7630
 5817SOL    HW228911   2.674   2.898   3.206 -0.1124 -0.9355 -0.7364
 5818SOL     OW28912   3.559   2.499   0.630  0.3071  0.0689 -0.0364
 5818SOL    HW128913   3.560   2.404   0.642  1.4593 -0.0145 -0.8222
 5818SOL    HW228914   3.469   2.512   0.602  0.4978 -0.4573 -0.9245
 5819SOL     OW28915   0.303   2.788  10.115  0.0469 -0.2490 -0.4312
 5819SOL    HW128916   0.306   2.827  10.202  2.4606 -0.4499 -0.4229
 5819SOL    HW228917   0.394   2.760  10.104  1.1485  3.4420 -0.7155
 5820SOL     OW28918   1.814   2.747  10.542  0.4116 -0.0599 -0.9403
 5820SOL    HW128919   1.768   2.823  10.577  2.5940  0.7439  0.2014
 5820SOL    HW228920   1.773   2.674  10.588  0.6090  0.3608 -0.0918
 5821SOL     OW28921   1.660   0.174  10.333 -0.0309  0.2334 -0.2410
 5821SOL    HW128922   1.628   0.124  10.259 -0.0144 -1.7842  1.1053
 5821SOL    HW228923   1.693   0.096  10.378  0.0339  0.0760 -0.5682
 5822SOL     OW28924   2.117   3.080   4.866  0.4101 -0.3074 -0.0100
 5822SOL    HW128925   2.068   3.129   4.801  2.2368  0.4045 -0.8544
 5822SOL    HW228926   2.205   3.073   4.829  0.1950 -2.8499 -0.0411
 5823SOL     OW28927   1.144   0.233   3.262  0.2235 -0.3590  0.8169
 5823SOL    HW128928   1.063   0.276   3.233  1.3841  1.0090 -0.4113
 5823SOL    HW228929   1.207   0.302   3.278  1.0315 -1.5457  2.7640
 5824SOL     OW28930   1.933   3.620   0.571  0.3265  0.4604 -0.3877
 5824SOL    HW128931   1.956   3.657   0.656  0.3044 -1.3711  0.4202
 5824SOL    HW228932   1.848   3.664   0.571  0.0932  0.0091  3.1436
 5825SOL     OW28933   3.951   4.202   7.954  0.0186  0.0839 -0.1331
 5825SOL    HW128934   3.931   4.291   7.926  0.4901  0.0525 -0.5765
 5825SOL    HW228935   3.999   4.225   8.033  2.6535 -0.5623 -1.5302
 5826SOL     OW28936   3.580   0.926   4.795  0.9296  0.2792  0.0984
 5826SOL    HW128937   3.593   0.998   4.857  1.4112  0.3641 -0.1012
 5826SOL    HW228938   3.648   0.867   4.828 -0.6509 -1.8056 -0.3954
 5827SOL     OW28939   3.079   1.572   1.980  0.2840  0.3086 -0.0212
 5827SOL    HW128940   3.147   1.609   1.923  0.3398  2.0734  1.2238
 5827SOL    HW228941   3.065   1.490   1.932  0.9038 -0.4896  1.1677
 5828SOL     OW28942   2.472   3.868  14.315  0.2536  0.4503 -0.2415
 5828SOL    HW128943   2.387   3.890  14.275 -0.0046 -0.5669 -0.2611
 5828SOL    HW228944   2.482   3.930  14.387 -3.2857  0.1112  0.5699
 5829SOL     OW28945   4.034   3.315   7.853 -0.0177  0.3911 -0.1136
 5829SOL    HW128946   4.038   3.408   7.875  0.5454  0.2890  0.2005
 5829SOL    HW228947   4.125   3.290   7.839  0.2217  0.4448  1.3480
 5830SOL     OW28948   2.088   2.904  14.989 -0.0248 -0.4464  0.1688
 5830SOL    HW128949   2.047   2.986  14.963  1.6593  0.9067  1.7420
 5830SOL    HW228950   2.042   2.843  14.931  1.5373 -1.1930 -0.2661
 5831SOL     OW28951   1.004   0.504   5.339  0.1138 -0.1144  0.4533
 5831SOL    HW128952   1.045   0.564   5.402  0.4886 -0.7231  0.7908
 5831SOL    HW228953   1.047   0.421   5.359  2.3338  0.8107 -0.4745
 5832SOL     OW28954   3.839   0.626   4.133  0.0606  0.5192  0.3603
 5832SOL    HW128955   3.762   0.680   4.150 -0.0502  0.5390 -0.1972
 5832SOL    HW228956   3.866   0.667   4.050  0.9520  1.2211  1.0045
 5833SOL     OW28957   3.273   3.225  14.103  0.0743  0.0080  0.3862
 5833SOL    HW128958   3.321   3.188  14.177 -0.2596  2.1026  1.6578
 5833SOL    HW228959   3.220   3.287  14.153 -0.8076 -0.8676  0.5299
 5834SOL     OW28960   2.802   3.964  13.721  0.3862  0.1940 -0.4606
 5834SOL    HW128961   2.737   3.894  13.718 -1.6069  2.1116 -2.1208
 5834SOL    HW228962   2.744   4.026  13.765  0.5152 -0.1243  0.1561
 5835SOL     OW28963   3.108   0.347  15.174  0.5395  0.0621  0.1440
 5835SOL    HW128964   3.184   0.336  15.232  0.8464  1.2124 -0.0404
 5835SOL    HW228965   3.154   0.388  15.101 -0.5128 -0.7101 -0.9562
 5836SOL     OW28966   3.336   2.227   3.587  0.4119  0.5274 -0.1977
 5836SOL    HW128967   3.404   2.161   3.575 -1.6106 -1.5376 -0.3795
 5836SOL    HW228968   3.297   2.197   3.670 -1.3086 -1.4557 -1.7221
 5837SOL     OW28969   2.919   2.722   5.598  0.5844 -0.1858  0.1111
 5837SOL    HW128970   3.002   2.679   5.619  0.6513  0.9606  2.2536
 5837SOL    HW228971   2.888   2.657   5.535  0.5490  1.3297 -1.4118
 5838SOL     OW28972   3.967   2.210  15.230  0.5944 -0.5212  0.1677
 5838SOL    HW128973   3.936   2.230  15.142  1.2555 -2.3027 -0.4576
 5838SOL    HW228974   4.050   2.258  15.229  0.7923 -0.9096 -1.3695
 5839SOL     OW28975   3.751   1.497   0.558 -0.2212  0.4249  0.0199
 5839SOL    HW128976   3.798   1.526   0.481 -0.7169  0.8812 -0.1142
 5839SOL    HW228977   3.726   1.576   0.606 -0.9721  1.7361 -2.5532
 5840SOL     OW28978   1.266   1.543   3.405 -1.0193  0.2343 -0.4366
 5840SOL    HW128979   1.204   1.598   3.451  2.1715  0.8980  3.1055
 5840SOL    HW228980   1.270   1.576   3.315  0.9501  0.5469 -0.2411
 5841SOL     OW28981   4.237   3.249   5.840 -0.3405 -0.1852  0.0553
 5841SOL    HW128982   4.262   3.236   5.749  0.7874 -1.3588  0.5444
 5841SOL    HW228983   4.253   3.342   5.856 -0.7753  0.0105 -0.6458
 5842SOL     OW28984   3.999   1.645   7.397 -0.6853  0.0488  0.7773
 5842SOL    HW128985   4.071   1.582   7.408  0.1798  0.8655 -0.2485
 5842SOL    HW228986   3.970   1.649   7.488  3.2477  1.8943  1.9480
 5843SOL     OW28987   4.665   3.967   3.820  0.2925 -0.5211  0.5448
 5843SOL    HW128988   4.578   4.005   3.813  0.7156  0.4830  0.8659
 5843SOL    HW228989   4.713   4.026   3.878  0.3693 -0.1474  0.1030
 5844SOL     OW28990   1.317   3.538  17.657 -0.1585  0.0455 -0.0592
 5844SOL    HW128991   1.235   3.588  17.661 -0.4112 -0.4727  1.3213
 5844SOL    HW228992   1.384   3.603  17.678 -0.1041  0.0496 -0.2496
 5845SOL     OW28993   2.078   3.612   1.018 -0.2879 -0.5270  0.0908
 5845SOL    HW128994   2.013   3.601   1.088  0.0594  2.2191  0.8155
 5845SOL    HW228995   2.168   3.612   1.051 -0.9818 -1.2528  1.9633
 5846SOL     OW28996   1.285   0.884   8.917  0.5112  0.1058  0.1578
 5846SOL    HW128997   1.356   0.872   8.980  1.8905  1.0745 -1.2315
 5846SOL    HW228998   1.280   0.797   8.878 -2.2236  0.1699  0.3200
 5847SOL     OW28999   3.108   1.336   4.011 -0.3017  0.5781 -0.3205
 5847SOL    HW129000   3.191   1.304   4.046 -1.4544 -0.8158  1.1020
 5847SOL    HW229001   3.090   1.419   4.055 -2.7489  0.9427 -1.9956
 5848SOL     OW29002   2.290   0.253   3.126 -0.0656 -0.1640 -0.0888
 5848SOL    HW129003   2.208   0.210   3.150  0.5408 -1.2773  0.0122
 5848SOL    HW229004   2.343   0.219   3.199  2.8844 -0.2210 -2.2703
 5849SOL     OW29005   0.086   1.026   7.396 -0.0019  0.0400  0.3432
 5849SOL    HW129006   0.034   1.071   7.329  0.2112  0.2885  0.3457
 5849SOL    HW229007   0.170   1.030   7.351 -0.3470  0.2811 -0.2857
 5850SOL     OW29008   0.246   3.335   0.661  0.0962 -0.6865 -0.8739
 5850SOL    HW129009   0.207   3.335   0.748  0.6390 -2.6225 -0.6261
 5850SOL    HW229010   0.339   3.348   0.679 -0.6050  0.5756  1.9076
 5851SOL     OW29011   4.374   0.405   8.328  0.4600 -0.1204 -0.3142
 5851SOL    HW129012   4.456   0.398   8.278  1.5007  0.0808  1.3665
 5851SOL    HW229013   4.327   0.336   8.280 -0.9192  1.3390 -1.0249
 5852SOL     OW29014   4.613   3.525   6.053 -0.1972 -0.3255  0.3333
 5852SOL    HW129015   4.609   3.617   6.081  0.5312 -1.2437  3.3708
 5852SOL    HW229016   4.593   3.526   5.959  1.7810 -0.5695 -0.0827
 5853SOL     OW29017   4.720   0.061   7.234 -0.1310 -0.4976  0.1869
 5853SOL    HW129018   4.714   4.690   7.261 -0.7114 -0.9384 -1.4678
 5853SOL    HW229019   0.011   0.066   7.140  0.9466  1.9079  0.4576
 5854SOL     OW29020   3.040   0.555   6.273  0.1937 -0.2050  0.5971
 5854SOL    HW129021   2.998   0.551   6.187  1.0908 -0.8130  0.1726
 5854SOL    HW229022   2.971   0.532   6.334  1.7265 -0.2686  2.3090
 5855SOL     OW29023   1.516   2.014   2.466  0.0440  0.0148 -0.0226
 5855SOL    HW129024   1.421   2.002   2.476 -0.0876 -0.2275 -1.5242
 5855SOL    HW229025   1.537   2.021   2.559  0.7476 -1.1109 -0.0928
 5856SOL     OW29026   0.429   3.576   6.254  0.2015  0.6367  0.4371
 5856SOL    HW129027   0.385   3.605   6.175  1.4703  1.0187 -0.1198
 5856SOL    HW229028   0.405   3.484   6.243 -0.5814  0.7793  0.9107
 5857SOL     OW29029   4.553   2.331   7.831 -0.1507 -0.0007  0.5793
 5857SOL    HW129030   4.523   2.355   7.743 -0.4183 -2.6315 -0.0380
 5857SOL    HW229031   4.648   2.329   7.824 -0.1086  1.3923  0.7125
 5858SOL     OW29032   3.870   3.454  14.496 -0.3816  0.0481  0.4591
 5858SOL    HW129033   3.932   3.434  14.426 -0.1664  2.3931 -0.0145
 5858SOL    HW229034   3.828   3.368  14.496  1.2010 -0.7373  1.3255
 5859SOL     OW29035   2.821   1.699   8.981 -0.3548 -0.2704  0.0896
 5859SOL    HW129036   2.873   1.680   9.060  1.7276  1.5924 -0.8324
 5859SOL    HW229037   2.759   1.764   9.014  0.4930  0.3030  0.5519
 5860SOL     OW29038   3.634   4.526   8.388  0.2340  0.2285 -0.2806
 5860SOL    HW129039   3.651   4.607   8.436 -1.0740  0.2719  0.1020
 5860SOL    HW229040   3.657   4.463   8.456  1.3889 -1.2440 -2.0285
 5861SOL     OW29041   0.416   3.764   6.954  0.1586 -0.6867 -0.1206
 5861SOL    HW129042   0.445   3.729   6.870 -1.6255 -1.6000 -0.3545
 5861SOL    HW229043   0.345   3.824   6.931 -0.5514 -1.2138  0.7024
 5862SOL     OW29044   1.202   2.903  13.997  0.1962 -0.8883 -0.2346
 5862SOL    HW129045   1.275   2.908  13.935 -0.1332 -1.7815 -0.7057
 5862SOL    HW229046   1.129   2.896  13.935 -0.3372 -0.3342  0.3267
 5863SOL     OW29047   2.472   4.626  12.358  0.3567 -1.3804 -0.2973
 5863SOL    HW129048   2.544   4.578  12.398  0.0385 -1.8624 -0.3139
 5863SOL    HW229049   2.527   4.672  12.294 -0.4498 -0.4014 -0.3030
 5864SOL     OW29050   4.265   3.518  10.736  0.6114  0.1637 -0.0354
 5864SOL    HW129051   4.304   3.556  10.814  1.9422 -1.0235 -0.1206
 5864SOL    HW229052   4.179   3.502  10.775  0.3594 -2.4676 -1.6448
 5865SOL     OW29053   1.265   0.625  11.587 -0.7819  0.1441 -0.1906
 5865SOL    HW129054   1.184   0.592  11.625 -0.3373  0.2585  0.8493
 5865SOL    HW229055   1.338   0.614  11.649  2.2320  0.6211 -3.6582
 5866SOL     OW29056   3.276   1.253   4.829 -0.0677  0.3805 -0.9206
 5866SOL    HW129057   3.203   1.192   4.822  0.6054 -0.5826  0.2391
 5866SOL    HW229058   3.223   1.329   4.852  1.7746  1.1412  0.9075
 5867SOL     OW29059   3.852   2.552   3.074  0.0179  0.3816  0.1135
 5867SOL    HW129060   3.874   2.501   3.152  2.9640 -0.6880 -1.4168
 5867SOL    HW229061   3.759   2.540   3.056  0.1693 -2.9693  1.5594
 5868SOL     OW29062   1.573   2.496   6.966  0.4101 -0.5081  0.4591
 5868SOL    HW129063   1.505   2.516   7.030  0.9256 -2.3414  1.5701
 5868SOL    HW229064   1.647   2.552   6.989  0.1034  0.4085 -0.7426
 5869SOL     OW29065   2.254   0.734   2.431 -0.4056  0.3564  0.3264
 5869SOL    HW129066   2.303   0.757   2.510  1.2934 -1.6098 -0.1650
 5869SOL    HW229067   2.179   0.790   2.448 -0.2611  0.8009 -0.4452
 5870SOL     OW29068   0.949   0.141   3.490 -0.4615  0.3283  0.0030
 5870SOL    HW129069   1.012   0.108   3.427 -0.3395 -0.6583  0.6368
 5870SOL    HW229070   0.986   0.223   3.523  2.4984 -0.8648 -0.3924
 5871SOL     OW29071   2.202   0.619  10.334 -0.3134  0.0460  0.1886
 5871SOL    HW129072   2.144   0.576  10.398 -0.8400 -0.6868 -0.7771
 5871SOL    HW229073   2.146   0.642  10.260  2.1247 -1.0270 -1.9911
 5872SOL     OW29074   1.656   3.698   5.432  0.3209  0.1518 -0.1181
 5872SOL    HW129075   1.592   3.716   5.501  1.3041 -2.5157  1.5376
 5872SOL    HW229076   1.725   3.758   5.461  1.0393 -0.9510  0.4875
 5873SOL     OW29077   2.916   2.805  14.190  0.0576 -0.1507 -0.0719
 5873SOL    HW129078   2.939   2.897  14.204 -0.2652  0.2344 -2.0582
 5873SOL    HW229079   2.944   2.786  14.100 -0.4953 -1.6608  0.0633
 5874SOL     OW29080   3.058   1.416   3.472  0.1146 -0.7726  0.4929
 5874SOL    HW129081   2.999   1.492   3.469 -0.4510 -1.2721 -1.5880
 5874SOL    HW229082   3.133   1.467   3.442  0.6859 -0.3912  2.5937
 5875SOL     OW29083   1.867   3.005  16.927  0.4342 -0.6357  0.2320
 5875SOL    HW129084   1.856   2.921  16.882  0.3035  0.4599 -1.8248
 5875SOL    HW229085   1.919   2.983  17.004  0.5998  1.0915  0.6224
 5876SOL     OW29086   0.692   4.329   6.199  0.0056  0.7247  0.6342
 5876SOL    HW129087   0.764   4.300   6.143  1.0168  1.5441  1.5041
 5876SOL    HW229088   0.622   4.273   6.167 -1.1246  0.7422  3.0650
 5877SOL     OW29089   1.449   0.475   2.526  0.1701  0.1719 -0.8223
 5877SOL    HW129090   1.355   0.457   2.522  0.6943 -2.3227 -2.1573
 5877SOL    HW229091   1.474   0.479   2.434  1.8480 -0.6011 -0.4099
 5878SOL     OW29092   1.859   4.303   6.540  0.0144  0.3465  0.2909
 5878SOL    HW129093   1.794   4.278   6.606 -0.8477 -0.0733 -0.7179
 5878SOL    HW229094   1.829   4.254   6.463 -0.2697 -1.9791  1.8810
 5879SOL     OW29095   2.454   0.196   9.506  0.2796  0.1370  0.4587
 5879SOL    HW129096   2.431   0.245   9.427  2.4514  0.8864  0.2892
 5879SOL    HW229097   2.481   0.265   9.567  0.4349  1.7750 -1.4737
 5880SOL     OW29098   4.667   0.129   4.454 -0.7226 -0.3826  0.6096
 5880SOL    HW129099   4.573   0.146   4.445 -0.7751 -0.7822  0.4057
 5880SOL    HW229100   4.697   0.107   4.366  1.7306  1.2848  1.0287
 5881SOL     OW29101   2.495   0.005   5.205 -0.0056  0.2413  0.6204
 5881SOL    HW129102   2.522   0.026   5.295  0.1440 -0.4136  0.7212
 5881SOL    HW229103   2.406   4.694   5.219  0.4486 -1.6666 -1.0049
 5882SOL     OW29104   2.187   4.074   3.741  0.2250  0.4400  0.4142
 5882SOL    HW129105   2.275   4.061   3.776  0.0915  0.4079  0.7367
 5882SOL    HW229106   2.156   3.984   3.729  0.2685  0.4921 -0.1126
 5883SOL     OW29107   2.754   1.741  11.382 -0.3202  0.3960  0.1110
 5883SOL    HW129108   2.784   1.794  11.457  0.8523  0.2172 -0.2321
 5883SOL    HW229109   2.839   1.705  11.357 -0.9546 -0.7674 -0.3193
 5884SOL     OW29110   4.245   0.009   4.874 -0.1094  0.1053 -0.2640
 5884SOL    HW129111   4.230   4.638   4.856  0.3432 -0.4147  2.0778
 5884SOL    HW229112   4.280   0.005   4.962 -0.1043  0.2940 -0.2577
 5885SOL     OW29113   0.976   3.961  16.316  0.2849  0.2962 -0.5834
 5885SOL    HW129114   0.962   3.961  16.411 -0.5707 -2.1726 -0.7118
 5885SOL    HW229115   0.945   3.875  16.287  0.3545 -0.5359  1.7493
 5886SOL     OW29116   3.246   3.817   8.112  0.1867 -0.6117 -0.4060
 5886SOL    HW129117   3.336   3.845   8.127  0.7213 -2.5811 -0.0106
 5886SOL    HW229118   3.227   3.860   8.029  0.4325  0.9908  0.3555
 5887SOL     OW29119   3.757   1.124   4.547 -0.5223 -0.1275  0.3000
 5887SOL    HW129120   3.675   1.098   4.589 -0.6946 -1.1755 -0.6684
 5887SOL    HW229121   3.817   1.089   4.612 -0.1489  2.6171  1.4185
 5888SOL     OW29122   2.763   2.849   1.399  0.0887 -0.6247  0.0287
 5888SOL    HW129123   2.728   2.894   1.322  0.9101 -1.9668 -1.1396
 5888SOL    HW229124   2.700   2.777   1.407  1.9090 -2.3903 -1.6152
 5889SOL     OW29125   3.322   4.419  16.074 -1.0563 -0.0707  0.3628
 5889SOL    HW129126   3.289   4.471  16.146  0.5515  1.9559 -0.3396
 5889SOL    HW229127   3.286   4.332  16.087  0.5922 -0.6574  1.0683
 5890SOL     OW29128   4.099   1.124   8.797  0.0588 -0.5931 -0.2605
 5890SOL    HW129129   4.077   1.033   8.818 -1.6756 -0.3575 -1.0732
 5890SOL    HW229130   4.065   1.174   8.871  0.6702  0.5654 -0.7744
 5891SOL     OW29131   1.798   1.632  13.346 -0.2162  0.1746 -0.2744
 5891SOL    HW129132   1.876   1.678  13.315 -0.3530 -0.4635 -1.5733
 5891SOL    HW229133   1.834   1.581  13.418  1.4627  2.1055  0.2734
 5892SOL     OW29134   2.091   4.094   4.106 -0.0763  0.4558  0.0695
 5892SOL    HW129135   2.125   4.004   4.102 -0.0483  0.5409 -1.5958
 5892SOL    HW229136   2.005   4.071   4.141  1.0897 -3.0758  0.6198
 5893SOL     OW29137   4.022   4.192   6.826  0.3312  0.0007  0.7927
 5893SOL    HW129138   4.024   4.218   6.918 -1.6404  0.2485  0.7706
 5893SOL    HW229139   4.049   4.101   6.841 -0.3910 -0.0449  1.8378
 5894SOL     OW29140   3.263   3.971   7.836 -0.0987 -0.0286 -0.1508
 5894SOL    HW129141   3.283   4.063   7.855  0.2809 -0.2310  0.4428
 5894SOL    HW229142   3.187   3.983   7.779 -1.2317 -1.5589  1.0386
 5895SOL     OW29143   1.683   4.425   4.727  0.3233 -0.0223  0.1088
 5895SOL    HW129144   1.594   4.419   4.691  1.1036 -3.3542 -1.2939
 5895SOL    HW229145   1.733   4.368   4.669 -0.9800 -0.0776 -0.9664
 5896SOL     OW29146   3.016   3.338  16.682  0.0890 -0.0234 -0.2870
 5896SOL    HW129147   3.054   3.397  16.747 -3.2168  1.2076  0.5143
 5896SOL    HW229148   3.061   3.260  16.713  1.2514  1.3935  1.6032
 5897SOL     OW29149   3.707   1.332   4.039 -0.7601  0.3554 -0.5150
 5897SOL    HW129150   3.675   1.326   4.129 -0.3427  0.2028 -0.3765
 5897SOL    HW229151   3.747   1.250   4.012 -1.0850 -0.1911  0.6643
 5898SOL     OW29152   2.663   0.454   7.547 -0.3844 -0.0888  0.0014
 5898SOL    HW129153   2.707   0.379   7.507 -0.8714 -0.5567  0.3433
 5898SOL    HW229154   2.631   0.406   7.624  1.3743 -1.3510 -0.0597
 5899SOL     OW29155   2.198   3.839  17.457  0.5583 -0.6033  0.1776
 5899SOL    HW129156   2.124   3.794  17.417  0.6381 -1.7880  1.3484
 5899SOL    HW229157   2.174   3.931  17.462  2.9687  0.0955 -1.6703
 5900SOL     OW29158   1.162   4.430   3.149  0.3102 -0.2448  0.1727
 5900SOL    HW129159   1.096   4.418   3.080  0.1224 -1.1787  0.5127
 5900SOL    HW229160   1.244   4.427   3.099  0.7219  4.2645  0.6102
 5901SOL     OW29161   2.548   2.016   7.563  0.0871 -0.3483 -0.0609
 5901SOL    HW129162   2.589   2.024   7.649 -2.3490 -2.0993  1.2552
 5901SOL    HW229163   2.596   1.947   7.518 -1.5945 -1.4843 -0.0897
 5902SOL     OW29164   4.551   2.480   5.263  0.3717  0.2003 -0.3849
 5902SOL    HW129165   4.548   2.558   5.208 -0.0207  0.4590  0.0004
 5902SOL    HW229166   4.614   2.512   5.327 -1.7205  0.6111  1.4838
 5903SOL     OW29167   3.666   3.507   7.759  0.0583  0.2350 -0.2604
 5903SOL    HW129168   3.596   3.481   7.818  2.3213 -0.1916  2.2660
 5903SOL    HW229169   3.703   3.587   7.798  0.7939  1.7183 -3.9482
 5904SOL     OW29170   3.758   3.366   6.653  0.1259  0.2099 -0.2926
 5904SOL    HW129171   3.789   3.457   6.645  0.7380  0.0909  0.7375
 5904SOL    HW229172   3.736   3.336   6.565  0.3705  0.7256 -0.5326
 5905SOL     OW29173   3.104   2.487  17.598 -0.2851  0.1510  0.5016
 5905SOL    HW129174   3.120   2.578  17.621  1.3814 -0.1398  0.4634
 5905SOL    HW229175   3.131   2.436  17.675  0.3332 -2.5149 -1.4831
 5906SOL     OW29176   2.917   1.901  13.579  0.0881  0.4851  0.1656
 5906SOL    HW129177   2.893   1.989  13.610 -0.1075  0.6575 -0.4628
 5906SOL    HW229178   2.970   1.859  13.646  1.4541 -2.4831 -2.7762
 5907SOL     OW29179   2.178   0.235  12.795  0.6387 -0.3585 -0.2923
 5907SOL    HW129180   2.178   0.155  12.849  1.2749 -0.3621 -0.3007
 5907SOL    HW229181   2.142   0.198  12.714 -2.6231  3.9510 -0.8280
 5908SOL     OW29182   1.981   0.706   4.945 -0.6882  0.0641  0.1848
 5908SOL    HW129183   1.992   0.749   4.860 -0.4213 -1.0193 -0.3295
 5908SOL    HW229184   1.951   0.770   5.009 -1.8483 -0.6853  0.3971
 5909SOL     OW29185   1.689   3.000   0.030  0.1680 -0.5572  0.2501
 5909SOL    HW129186   1.690   3.094   0.013  2.2689 -0.8492 -1.1231
 5909SOL    HW229187   1.742   2.962  17.647 -1.0661  0.1183 -1.0624
 5910SOL     OW29188   4.720   1.389   7.400  0.1748  0.3039 -0.1596
 5910SOL    HW129189   4.698   1.334   7.324  0.1991  2.3862 -1.6560
 5910SOL    HW229190   4.635   1.424   7.427  0.1926  0.4476 -0.2927
 5911SOL     OW29191   2.828   2.214  14.736 -0.2277 -0.1597  0.4097
 5911SOL    HW129192   2.889   2.243  14.803 -1.2171  0.5891  0.9771
 5911SOL    HW229193   2.897   2.184  14.675 -1.1680 -0.7527 -0.3643
 5912SOL     OW29194   3.101   2.773  10.773 -0.3371 -0.3075  0.0949
 5912SOL    HW129195   3.061   2.779  10.686  0.5953 -1.2642 -0.4067
 5912SOL    HW229196   3.189   2.806  10.753 -1.2148  1.2956 -1.1471
 5913SOL     OW29197   3.303   4.494   7.967 -0.2149 -0.0673 -0.1182
 5913SOL    HW129198   3.378   4.435   7.959  0.1741  0.5822 -1.1195
 5913SOL    HW229199   3.308   4.551   7.891 -0.4250  1.1275  0.7536
 5914SOL     OW29200   3.329   3.195   7.079  0.0357 -0.0560  0.1477
 5914SOL    HW129201   3.295   3.284   7.090 -1.0935 -0.4950  0.1900
 5914SOL    HW229202   3.323   3.164   7.169  0.7494 -0.0039  0.2139
 5915SOL     OW29203   1.101   0.556   3.102  0.0215  0.1645 -0.0970
 5915SOL    HW129204   1.072   0.644   3.126  0.7420  0.7199 -1.2873
 5915SOL    HW229205   1.158   0.535   3.175 -0.2569 -2.6833 -0.6819
 5916SOL     OW29206   1.027   1.775   9.805  0.3769  0.0213 -0.0315
 5916SOL    HW129207   1.114   1.748   9.833  0.7794  0.3617 -0.9267
 5916SOL    HW229208   0.965   1.710   9.839  1.8928 -1.0561  0.6374
 5917SOL     OW29209   3.852   0.297   6.545 -0.1751  0.1842  0.1482
 5917SOL    HW129210   3.876   0.348   6.468  0.1223 -1.2236 -0.7043
 5917SOL    HW229211   3.898   0.337   6.619 -0.3574 -2.1327  1.5409
 5918SOL     OW29212   3.570   4.037   5.274  0.0218  0.0616  0.1150
 5918SOL    HW129213   3.487   3.995   5.251  0.2811 -1.5750  2.1703
 5918SOL    HW229214   3.632   3.966   5.292 -0.5966 -0.3085  0.7716
 5919SOL     OW29215   2.780   3.941   2.961  0.3008 -0.4689 -0.4076
 5919SOL    HW129216   2.845   3.942   3.031  1.5671 -2.2831 -1.5731
 5919SOL    HW229217   2.716   3.887   3.006 -1.5208 -0.2122 -2.6659
 5920SOL     OW29218   3.369   1.668  15.273 -0.0497  0.2569  0.6595
 5920SOL    HW129219   3.464   1.671  15.262 -0.1857  0.0044 -0.6280
 5920SOL    HW229220   3.368   1.667  15.369  0.7890 -2.5090  0.6382
 5921SOL     OW29221   0.681   3.471   8.349 -0.2124 -0.0135 -0.0512
 5921SOL    HW129222   0.724   3.547   8.309 -0.4241  0.2248  0.1675
 5921SOL    HW229223   0.588   3.495   8.348  0.2326  1.6198 -2.6518
 5922SOL     OW29224   1.766   1.806   5.706 -0.4036 -0.6196  0.0971
 5922SOL    HW129225   1.685   1.812   5.756  0.6489 -1.8664  1.9437
 5922SOL    HW229226   1.736   1.775   5.621 -1.0607  0.9422 -0.2439
 5923SOL     OW29227   2.836   4.575  12.993  0.1208 -0.0903 -0.2155
 5923SOL    HW129228   2.844   4.654  13.047  1.4342  0.1551 -0.7760
 5923SOL    HW229229   2.906   4.521  13.029 -0.3666  1.3060  2.8927
 5924SOL     OW29230   2.873   1.786   5.156 -0.1373 -0.0957 -0.4537
 5924SOL    HW129231   2.777   1.790   5.148 -0.1432 -0.4442 -0.5810
 5924SOL    HW229232   2.882   1.854   5.222 -2.7051 -0.1267 -0.0634
 5925SOL     OW29233   2.491   0.083   6.210  0.2844 -0.3078  0.0115
 5925SOL    HW129234   2.564   0.041   6.257  0.4855  0.5468  0.4633
 5925SOL    HW229235   2.428   0.092   6.282 -0.7560  1.6194 -1.1523
 5926SOL     OW29236   0.849   0.904   6.660 -0.0787 -0.2723 -0.2906
 5926SOL    HW129237   0.901   0.974   6.621 -4.4159  2.4455 -1.2157
 5926SOL    HW229238   0.880   0.836   6.600 -2.3083 -2.0484  0.5621
 5927SOL     OW29239   4.199   3.451   5.040  0.2335  0.3945 -0.0330
 5927SOL    HW129240   4.267   3.386   5.022  0.4618  0.0584  2.0208
 5927SOL    HW229241   4.248   3.520   5.084 -0.0414  0.3594  0.3299
 5928SOL     OW29242   0.590   0.052   9.003 -0.1794 -0.1027  0.1714
 5928SOL    HW129243   0.570   4.702   8.942  0.8479 -0.6784  0.5063
 5928SOL    HW229244   0.531   0.119   8.969 -0.2680  0.0564  0.6477
 5929SOL     OW29245   0.872   2.901   8.064  0.4681 -0.3864  0.0030
 5929SOL    HW129246   0.812   2.950   8.121 -0.9469 -1.2542 -0.7646
 5929SOL    HW229247   0.889   2.826   8.122 -1.7163 -1.8158 -1.2072
 5930SOL     OW29248   3.989   2.642  12.908 -0.0701 -0.1126 -0.2876
 5930SOL    HW129249   4.029   2.560  12.937  1.2923  1.5524  2.6507
 5930SOL    HW229250   3.903   2.608  12.884 -1.5477  2.3342  1.4788
 5931SOL     OW29251   1.323   0.680   7.313 -0.2397  0.0262 -0.0723
 5931SOL    HW129252   1.342   0.623   7.238 -0.3439  1.9457 -1.5487
 5931SOL    HW229253   1.297   0.754   7.258  1.0412  0.8300  0.4010
 5932SOL     OW29254   3.379   4.059   4.170 -0.2058  0.1352  0.8392
 5932SOL    HW129255   3.457   4.095   4.129  0.2514  0.9791  2.4438
 5932SOL    HW229256   3.317   4.067   4.098  0.9926 -0.1901 -0.2197
 5933SOL     OW29257   1.952   1.723   9.631  0.0196 -0.3405  0.2078
 5933SOL    HW129258   2.032   1.706   9.680  0.0095 -0.3916  0.2069
 5933SOL    HW229259   1.988   1.755   9.549  0.6204 -0.4605  0.4246
 5934SOL     OW29260   3.506   2.656   8.991 -0.6039 -0.1946 -0.9796
 5934SOL    HW129261   3.478   2.594   8.924 -0.3823 -0.9164 -0.3998
 5934SOL    HW229262   3.549   2.592   9.049  0.8580  1.3732 -0.3238
 5935SOL     OW29263   3.056   2.052  12.517 -0.5976 -0.3792 -0.2931
 5935SOL    HW129264   3.144   2.042  12.553 -1.4362 -3.0355  1.0071
 5935SOL    HW229265   3.024   1.963  12.528  0.7257 -0.8616 -0.3820
 5936SOL     OW29266   3.924   1.217   0.862  0.6306 -0.7539  0.5166
 5936SOL    HW129267   3.836   1.252   0.875  2.3004  3.3518  0.8494
 5936SOL    HW229268   3.906   1.133   0.819  1.5618 -0.6717 -0.0484
 5937SOL     OW29269   0.852   1.447  16.840  0.1394  0.5856 -0.6610
 5937SOL    HW129270   0.855   1.419  16.749  3.4582 -2.2960  0.3070
 5937SOL    HW229271   0.839   1.361  16.880  1.2778  1.5314  1.7820
 5938SOL     OW29272   3.029   1.926   8.885  0.2183  0.0539 -0.2505
 5938SOL    HW129273   3.123   1.924   8.871  0.1811  0.3171 -0.5340
 5938SOL    HW229274   3.017   1.953   8.976  1.4435 -0.9341  0.1948
 5939SOL     OW29275   2.644   3.216   6.624 -0.2418 -0.0422 -0.0001
 5939SOL    HW129276   2.564   3.268   6.612  0.8208  1.5290 -0.1999
 5939SOL    HW229277   2.706   3.260   6.567 -0.2823  0.1202  0.0799
 5940SOL     OW29278   0.281   0.631   6.951  0.4509 -0.6254  0.3135
 5940SOL    HW129279   0.222   0.615   6.877 -0.6172  0.4922  0.9261
 5940SOL    HW229280   0.354   0.572   6.934  0.7287  0.3848 -1.8813
 5941SOL     OW29281   2.855   2.083   3.148 -0.1751 -0.6302  0.8249
 5941SOL    HW129282   2.861   2.169   3.190 -1.2819  0.1575 -0.6694
 5941SOL    HW229283   2.852   2.105   3.055 -0.1274  1.4950  1.3169
 5942SOL     OW29284   2.862   3.443   4.338 -0.5520  0.2509 -0.2250
 5942SOL    HW129285   2.944   3.482   4.370 -0.2042 -0.4367 -0.2699
 5942SOL    HW229286   2.817   3.510   4.287  0.4339 -0.6335 -2.2293
 5943SOL     OW29287   0.891   4.504  14.955  0.3005 -0.1640 -0.2109
 5943SOL    HW129288   0.937   4.541  15.030  0.2895  0.2090 -0.3852
 5943SOL    HW229289   0.927   4.539  14.873  3.0537 -2.1738  0.1446
 5944SOL     OW29290   1.041   2.955   4.513  0.6307 -0.1930 -0.3670
 5944SOL    HW129291   1.124   2.920   4.478  1.6223  0.6543  1.1462
 5944SOL    HW229292   1.056   3.044   4.478  0.8340  0.8596  2.3999
 5945SOL     OW29293   3.678   2.825   2.944 -0.2766 -0.7407 -0.3080
 5945SOL    HW129294   3.741   2.894   2.967  0.0922 -1.2756  0.2919
 5945SOL    HW229295   3.722   2.741   2.957  0.3996 -0.2929  0.2985
 5946SOL     OW29296   1.219   1.378   3.012  0.3531 -0.3348  0.4326
 5946SOL    HW129297   1.214   1.386   2.917 -3.0166  0.8472  0.6740
 5946SOL    HW229298   1.184   1.290   3.028  0.1967 -0.4235 -0.4040
 5947SOL     OW29299   1.386   2.110   2.127 -0.1081 -0.5986 -0.4236
 5947SOL    HW129300   1.335   2.182   2.088  0.4527  0.5346  0.9576
 5947SOL    HW229301   1.424   2.149   2.205 -1.1311  2.3013 -1.3554
 5948SOL     OW29302   2.959   0.730  10.210  0.1128 -0.1664  0.0523
 5948SOL    HW129303   2.965   0.811  10.261  0.3961 -0.2292  0.1169
 5948SOL    HW229304   3.050   0.708  10.226  1.1945  3.5964 -0.8346
 5949SOL     OW29305   2.262   2.724   8.239  0.1834 -0.3994  0.2897
 5949SOL    HW129306   2.206   2.752   8.311 -2.8472 -2.0821 -1.4171
 5949SOL    HW229307   2.315   2.799   8.212 -2.3967  1.5624  0.6440
 5950SOL     OW29308   4.509   0.642   2.739  0.0626  0.4138 -0.5144
 5950SOL    HW129309   4.469   0.636   2.826 -1.7586 -0.4390 -1.3991
 5950SOL    HW229310   4.569   0.567   2.740  0.9816  1.1419 -1.6380
 5951SOL     OW29311   2.446   0.945   9.012 -0.0048 -0.4061 -0.0327
 5951SOL    HW129312   2.406   0.860   9.035  0.3037 -0.7501 -0.7675
 5951SOL    HW229313   2.520   0.911   8.962  1.5301  0.3738  1.7503
 5952SOL     OW29314   1.501   1.701   2.296 -0.4591 -0.3733 -0.3130
 5952SOL    HW129315   1.480   1.779   2.244  0.1224  0.4220  0.6569
 5952SOL    HW229316   1.508   1.638   2.225 -0.1035 -1.2970  0.5427
 5953SOL     OW29317   4.677   2.048   2.770 -0.0947 -0.0535 -0.0752
 5953SOL    HW129318   4.691   1.967   2.819  1.2720 -0.3719 -1.0083
 5953SOL    HW229319   4.673   2.020   2.679  0.4435 -0.7696  0.1192
 5954SOL     OW29320   1.276   2.336   5.378  0.2748 -0.1501 -0.3978
 5954SOL    HW129321   1.300   2.428   5.383  0.3905 -0.1796 -0.4192
 5954SOL    HW229322   1.248   2.315   5.467 -0.3975 -0.7865 -0.7619
 5955SOL     OW29323   0.360   2.801   6.589  0.3183 -0.7145  0.0792
 5955SOL    HW129324   0.319   2.821   6.505  1.5661 -2.1068 -0.8549
 5955SOL    HW229325   0.412   2.882   6.595 -1.6100  0.3626  2.2189
 5956SOL     OW29326   0.253   2.249   8.241 -0.4430  0.3319  0.3244
 5956SOL    HW129327   0.210   2.222   8.322  1.2659  0.9687  1.4516
 5956SOL    HW229328   0.330   2.292   8.280  1.2021 -2.2409 -0.0637
 5957SOL     OW29329   2.279   4.345   6.023 -0.8032 -0.1439 -0.1520
 5957SOL    HW129330   2.345   4.406   5.990 -0.0742 -0.5082  0.6475
 5957SOL    HW229331   2.210   4.411   6.031  0.7073  1.4065  0.1753
 5958SOL     OW29332   2.587   1.225   0.632 -0.2536  0.2148 -0.1249
 5958SOL    HW129333   2.574   1.145   0.682  1.1631 -0.1271 -0.2958
 5958SOL    HW229334   2.672   1.210   0.590 -0.7902  1.5832 -1.7120
 5959SOL     OW29335   0.051   0.130  17.465  0.8721  0.1697 -0.0808
 5959SOL    HW129336   0.140   0.101  17.487  0.8093  1.6658  2.1833
 5959SOL    HW229337   0.016   0.136  17.554 -1.6737 -3.1509 -0.8975
 5960SOL     OW29338   1.821   3.227  17.187 -0.5886 -0.3014  0.5163
 5960SOL    HW129339   1.793   3.288  17.119 -0.1888 -1.6515 -0.8604
 5960SOL    HW229340   1.847   3.153  17.131  0.5197  0.8242 -0.4561
 5961SOL     OW29341   4.593   4.080   5.579 -0.3170  0.3256  0.0476
 5961SOL    HW129342   4.628   4.022   5.647  2.2141  0.6566 -0.9583
 5961SOL    HW229343   4.659   4.058   5.513 -0.0461  0.0946  0.3974
 5962SOL     OW29344   4.678   3.839   3.030 -0.0064 -0.0969 -0.1944
 5962SOL    HW129345   4.661   3.748   3.053  2.7000 -0.5126  0.1234
 5962SOL    HW229346   0.049   3.838   3.005  0.3952 -0.4689  1.3217
 5963SOL     OW29347   0.953   1.054   8.680 -0.3135  0.8151  0.1135
 5963SOL    HW129348   0.927   0.966   8.709  1.3540  0.9542  2.0488
 5963SOL    HW229349   0.980   1.103   8.757 -1.0423 -0.4745  1.1892
 5964SOL     OW29350   4.560   0.538   6.685  0.1876  0.1323 -0.2057
 5964SOL    HW129351   4.510   0.586   6.620 -1.8123 -0.7839  0.6497
 5964SOL    HW229352   4.512   0.535   6.768 -3.3075  0.3568 -2.2509
 5965SOL     OW29353   2.043   0.200   9.728 -0.6011 -0.4923  0.6356
 5965SOL    HW129354   2.127   0.230   9.763  0.1281 -1.1774 -0.5331
 5965SOL    HW229355   2.071   0.141   9.658 -0.7473 -0.8979  0.9191
 5966SOL     OW29356   1.090   3.895   6.177  0.1577  0.0365 -0.0146
 5966SOL    HW129357   1.180   3.912   6.147 -0.1481  0.9396 -0.4323
 5966SOL    HW229358   1.110   3.875   6.269  1.8139  0.8542 -0.1806
 5967SOL     OW29359   1.847   3.350   1.057  0.3755  0.9848  0.1137
 5967SOL    HW129360   1.754   3.339   1.034  0.4147  2.1421 -0.5798
 5967SOL    HW229361   1.840   3.425   1.115  0.1732 -0.1179  1.5171
 5968SOL     OW29362   1.749   0.732   3.638  0.2984  0.3674  0.6123
 5968SOL    HW129363   1.793   0.732   3.724  2.2439  0.1199 -0.3749
 5968SOL    HW229364   1.658   0.726   3.666 -1.0700  2.4263 -3.3843
 5969SOL     OW29365   2.464   0.685  12.840  0.4628  0.6725 -0.4666
 5969SOL    HW129366   2.526   0.637  12.787  0.0042 -0.6349  0.1842
 5969SOL    HW229367   2.385   0.634  12.821  0.0725  0.5577  1.4252
 5970SOL     OW29368   4.494   3.849   2.048  0.6543  0.4092 -0.2930
 5970SOL    HW129369   4.586   3.873   2.049  0.7739 -0.0899  0.3294
 5970SOL    HW229370   4.498   3.756   2.071  1.0054  0.7522  1.0255
 5971SOL     OW29371   4.397   2.618  12.930  0.3271 -0.0266  0.2883
 5971SOL    HW129372   4.400   2.700  12.880 -1.5074  0.2462  0.6384
 5971SOL    HW229373   4.435   2.644  13.014  0.2191  2.9363 -0.5869
 5972SOL     OW29374   3.390   1.800   4.085  0.1733 -0.0897  0.5278
 5972SOL    HW129375   3.348   1.789   4.170  0.2288 -2.7483  0.2221
 5972SOL    HW229376   3.316   1.842   4.040  1.0324 -0.5919 -1.3548
 5973SOL     OW29377   2.102   1.544   9.319  0.3780 -0.5237 -0.2139
 5973SOL    HW129378   2.160   1.519   9.247  1.7978  0.8456  0.4550
 5973SOL    HW229379   2.072   1.458   9.348  0.9937 -1.5108 -2.4817
 5974SOL     OW29380   3.657   2.172   7.086 -0.0067  0.4094  0.2062
 5974SOL    HW129381   3.571   2.145   7.119 -0.8417 -0.4926 -2.7370
 5974SOL    HW229382   3.624   2.245   7.034  0.3901  1.8048  1.8881
 5975SOL     OW29383   0.205   2.064   1.286  0.6805 -0.1854 -0.0788
 5975SOL    HW129384   0.174   2.047   1.374  0.9238 -0.2935 -0.0126
 5975SOL    HW229385   0.152   2.136   1.251  0.4854  0.3669  1.3525
 5976SOL     OW29386   0.094   1.339   7.010  0.5140 -0.3788  0.0012
 5976SOL    HW129387   0.102   1.327   7.104 -0.9753 -0.5149  0.1067
 5976SOL    HW229388   0.009   1.384   7.002  1.5673  1.2647 -1.9622
 5977SOL     OW29389   0.789   1.396   6.366  0.0408 -0.0499  0.4643
 5977SOL    HW129390   0.789   1.457   6.440  1.2480 -0.2457  0.6292
 5977SOL    HW229391   0.849   1.332   6.406  0.2109  1.6103  2.8867
 5978SOL     OW29392   2.967   0.100  14.412 -0.3369  0.5086 -0.4672
 5978SOL    HW129393   2.992   0.189  14.435  1.1633 -0.4378  1.5777
 5978SOL    HW229394   2.910   0.082  14.487  1.9892  0.7351  1.3637
 5979SOL     OW29395   0.709   3.945   4.192  0.1430  0.8111  0.0627
 5979SOL    HW129396   0.678   3.865   4.235  0.6025  0.4237 -0.3245
 5979SOL    HW229397   0.680   4.010   4.256 -1.8514 -0.1587  0.1090
 5980SOL     OW29398   3.321   2.805   8.536 -0.2910 -0.3940 -0.2083
 5980SOL    HW129399   3.329   2.845   8.450  0.2295 -0.3391 -0.1310
 5980SOL    HW229400   3.314   2.883   8.591  1.0994  0.8362 -1.7927
 5981SOL     OW29401   0.961   1.244   6.752  0.3773  0.2155  0.2485
 5981SOL    HW129402   0.887   1.300   6.773 -0.2753  0.1531 -1.8304
 5981SOL    HW229403   0.984   1.207   6.837  0.1846  0.6756  0.4975
 5982SOL     OW29404   4.497   3.678   8.322  0.2703 -0.1015 -0.1630
 5982SOL    HW129405   4.556   3.696   8.249 -0.8094  1.9720 -0.5287
 5982SOL    HW229406   4.526   3.735   8.393 -0.2909  0.4315 -0.3622
 5983SOL     OW29407   0.053   4.127  14.442  0.0797 -0.6653 -0.3690
 5983SOL    HW129408   4.695   4.080  14.468 -0.6749  0.5471 -0.4606
 5983SOL    HW229409   0.096   4.134  14.527 -1.9669 -0.2890  0.6348
 5984SOL     OW29410   1.363   4.713   6.134 -0.2549  0.3048 -0.1369
 5984SOL    HW129411   1.280   4.695   6.178 -1.0403  1.0109 -1.3358
 5984SOL    HW229412   1.399   4.626   6.116  0.0340 -0.1290  2.5054
 5985SOL     OW29413   3.727   3.767   8.115  0.1114  0.5147  0.2743
 5985SOL    HW129414   3.761   3.829   8.178 -0.0663 -1.1443  1.9978
 5985SOL    HW229415   3.699   3.689   8.163 -2.7054  1.5354  0.3166
 5986SOL     OW29416   1.742   2.620   4.309  0.4279 -0.0896  0.2514
 5986SOL    HW129417   1.801   2.693   4.289  1.4569 -1.1431 -0.5204
 5986SOL    HW229418   1.753   2.572   4.227  0.6852 -0.4267  0.4822
 5987SOL     OW29419   4.044   1.178   4.241  0.0840 -0.0320  0.3082
 5987SOL    HW129420   4.086   1.164   4.156 -1.1678  2.0157 -0.6504
 5987SOL    HW229421   4.030   1.271   4.222 -1.2455 -0.2102  0.4841
 5988SOL     OW29422   1.377   0.194   6.509  0.2551 -0.3841 -0.1836
 5988SOL    HW129423   1.434   0.262   6.545 -1.0429  0.7850 -0.3306
 5988SOL    HW229424   1.435   0.148   6.448  0.3627 -1.2524  0.5713
 5989SOL     OW29425   4.374   2.620   1.455  0.1449  0.3865  0.2288
 5989SOL    HW129426   4.379   2.623   1.551  1.8348  1.7340  0.0880
 5989SOL    HW229427   4.466   2.600   1.438  0.2294 -0.5899  1.7688
 5990SOL     OW29428   4.205   0.684  16.319  0.0145  0.0919  0.6257
 5990SOL    HW129429   4.230   0.775  16.306 -0.9053  0.5322  2.0326
 5990SOL    HW229430   4.134   0.692  16.382 -2.3207 -0.1545 -1.9634
 5991SOL     OW29431   3.628   4.092  10.867  0.3164 -0.5078 -0.4619
 5991SOL    HW129432   3.615   4.154  10.796  0.7448 -0.0800 -0.1663
 5991SOL    HW229433   3.687   4.146  10.920  0.3087  0.0078 -0.9891
 5992SOL     OW29434   3.095   1.449   4.936  0.4452  0.2081  0.3074
 5992SOL    HW129435   3.028   1.497   4.886  0.0210 -1.0116 -0.2821
 5992SOL    HW229436   3.128   1.522   4.989 -0.1453 -1.3789  2.8459
 5993SOL     OW29437   1.408   4.029   4.416  0.2209  0.4121 -0.0464
 5993SOL    HW129438   1.489   3.979   4.425 -0.1685  0.0541  1.4181
 5993SOL    HW229439   1.410   4.045   4.322 -0.2994 -0.3239 -0.1774
 5994SOL     OW29440   2.482   3.049   8.702  0.2594 -0.2960  0.0419
 5994SOL    HW129441   2.467   3.020   8.792  2.0128  0.3065  0.5137
 5994SOL    HW229442   2.421   3.122   8.713 -0.1880 -0.3430 -2.1956
 5995SOL     OW29443   1.961   4.417   6.913 -0.0350 -0.5872 -0.6832
 5995SOL    HW129444   1.921   4.338   6.949 -0.5452  0.5381  1.2652
 5995SOL    HW229445   1.888   4.462   6.870  0.1914  0.5612  0.1005
 5996SOL     OW29446   3.171   4.685   1.118 -0.0507 -0.0692 -0.1099
 5996SOL    HW129447   3.134   4.622   1.056  0.4403  0.6873 -1.1749
 5996SOL    HW229448   3.186   0.038   1.059 -0.5762  0.3218  0.2484
 5997SOL     OW29449   0.081   4.507   7.309 -0.2955  0.0920 -0.1738
 5997SOL    HW129450   0.109   4.418   7.329  0.0536  0.7281  2.2721
 5997SOL    HW229451   0.026   4.496   7.232 -0.8118  2.2021 -0.1107
 5998SOL     OW29452   0.921   3.611   4.818  0.4496 -0.1804 -0.2354
 5998SOL    HW129453   0.976   3.533   4.831  0.0190 -0.2258  1.2833
 5998SOL    HW229454   0.835   3.575   4.840  0.4456  0.6086  1.0035
 5999SOL     OW29455   3.168   3.212   7.340 -0.3902 -0.0437 -0.1653
 5999SOL    HW129456   3.225   3.245   7.410 -1.0222  2.0238 -0.6600
 5999SOL    HW229457   3.127   3.297   7.326 -1.8674 -0.6960  0.2676
 6000SOL     OW29458   4.048   4.098  12.718  0.5155  0.0023  0.3258
 6000SOL    HW129459   4.117   4.106  12.783  1.6515 -1.2685 -0.7081
 6000SOL    HW229460   4.012   4.185  12.732 -2.5828 -0.7692 -2.7261
 6001SOL     OW29461   2.780   1.795  10.573  0.4864 -0.1415 -0.8735
 6001SOL    HW129462   2.872   1.794  10.547  0.3524 -0.2772 -1.3384
 6001SOL    HW229463   2.738   1.854  10.511 -1.3579 -0.2339  0.2859
 6002SOL     OW29464   1.790   0.083   2.579 -0.7701 -0.0781  0.2670
 6002SOL    HW129465   1.799   4.709   2.576 -0.7362 -0.1247  1.9862
 6002SOL    HW229466   1.696   0.094   2.589 -0.7890 -0.0840  0.0976
 6003SOL     OW29467   1.457   2.698  16.395 -0.1643  0.4442  0.7636
 6003SOL    HW129468   1.447   2.788  16.363 -1.9346 -0.1910 -0.4876
 6003SOL    HW229469   1.534   2.706  16.451 -1.1949  2.2575  1.9489
 6004SOL     OW29470   2.354   3.349  10.024  0.5616  0.7973 -0.0400
 6004SOL    HW129471   2.410   3.393   9.960 -1.0233 -0.6607 -2.4209
 6004SOL    HW229472   2.407   3.270  10.028  1.2761  1.3356  1.1387
 6005SOL     OW29473   1.858   2.058   8.887  0.0135  0.1465  0.2925
 6005SOL    HW129474   1.952   2.069   8.876 -0.2960  1.6882 -0.8393
 6005SOL    HW229475   1.850   1.985   8.948  2.5644  1.0964  1.7581
 6006SOL     OW29476   3.400   4.076   5.583  0.1423  0.1671 -0.2624
 6006SOL    HW129477   3.486   4.067   5.541 -0.9295 -2.0779 -1.9924
 6006SOL    HW229478   3.427   4.070   5.675 -1.4082  0.8900  0.2388
 6007SOL     OW29479   1.081   2.254   6.105 -0.1880  0.2975  0.0397
 6007SOL    HW129480   1.139   2.204   6.047  0.3111 -0.3446  1.1065
 6007SOL    HW229481   1.073   2.334   6.053 -0.3848  0.2391 -0.0193
 6008SOL     OW29482   2.935   2.660   3.866  0.2567  0.2456  0.1759
 6008SOL    HW129483   2.866   2.694   3.809  0.6400  2.1694  0.8483
 6008SOL    HW229484   2.901   2.666   3.955  0.4079 -2.0311  0.3718
 6009SOL     OW29485   3.267   1.533  16.776 -0.0016 -0.8353 -0.2181
 6009SOL    HW129486   3.224   1.588  16.711 -0.6405 -0.9317  0.1095
 6009SOL    HW229487   3.334   1.501  16.717 -0.7617  0.6522 -1.8952
 6010SOL     OW29488   3.632   4.667   8.125  0.6562 -0.7339  0.2130
 6010SOL    HW129489   3.678   0.025   8.153  1.5441 -0.7199 -1.2721
 6010SOL    HW229490   3.581   4.636   8.200  0.4698 -0.5329  0.1707
 6011SOL     OW29491   1.809   4.716  15.748  0.5355  0.1949 -0.1747
 6011SOL    HW129492   1.844   0.077  15.712 -0.9594  1.6308  1.6408
 6011SOL    HW229493   1.733   4.705  15.691  1.0917 -1.1616 -0.6439
 6012SOL     OW29494   4.029   2.750   3.237  0.2580  0.1611  0.4120
 6012SOL    HW129495   4.009   2.825   3.181 -0.1028 -1.5629 -1.7660
 6012SOL    HW229496   3.940   2.716   3.234 -0.0381  1.0568 -1.3857
 6013SOL     OW29497   3.977   1.880   0.760 -0.0066 -0.5442  0.4504
 6013SOL    HW129498   3.919   1.953   0.739  1.7520 -0.4785 -4.0681
 6013SOL    HW229499   4.054   1.899   0.707 -1.3997  1.2888 -0.8933
 6014SOL     OW29500   3.614   4.215   3.699 -0.2938  0.3373 -0.0678
 6014SOL    HW129501   3.551   4.144   3.698 -0.4036  0.4540 -1.1871
 6014SOL    HW229502   3.692   4.163   3.720 -1.2652 -1.2405 -0.4251
 6015SOL     OW29503   2.984   4.143   6.732  0.1221  0.2322  0.2162
 6015SOL    HW129504   3.063   4.111   6.688  0.5935  1.4524  0.1631
 6015SOL    HW229505   2.991   4.092   6.812 -1.1724 -0.7764 -0.3254
 6016SOL     OW29506   3.943   4.460   7.850 -0.4534  1.1324 -0.0410
 6016SOL    HW129507   3.907   4.482   7.936 -1.5901 -0.7990 -0.0199
 6016SOL    HW229508   3.861   4.478   7.804 -0.4352 -1.3144 -1.0396
 6017SOL     OW29509   1.692   1.958  12.582 -0.2824 -0.0520 -0.1621
 6017SOL    HW129510   1.750   1.993  12.650 -0.9455  0.7401 -0.0035
 6017SOL    HW229511   1.630   1.913  12.638  0.4006 -1.0861 -0.2348
 6018SOL     OW29512   1.998   0.525   6.756 -0.0414  0.3737  0.2837
 6018SOL    HW129513   1.967   0.489   6.839 -1.1498 -0.5715 -0.5400
 6018SOL    HW229514   1.924   0.583   6.736 -0.1721 -0.2046 -0.9561
 6019SOL     OW29515   2.009   2.127   6.441  0.1166 -0.2649  1.4772
 6019SOL    HW129516   1.926   2.142   6.395  0.8448  2.0144  0.9112
 6019SOL    HW229517   2.008   2.035   6.416  0.5505  0.1162  0.0683
 6020SOL     OW29518   3.243   3.182  15.212  0.6054  0.0793 -0.0365
 6020SOL    HW129519   3.303   3.251  15.241 -0.4951  0.5708  1.1070
 6020SOL    HW229520   3.291   3.171  15.130  0.6870 -1.1159  0.1623
 6021SOL     OW29521   2.534   3.088   8.063  0.9458 -0.3790 -0.1639
 6021SOL    HW129522   2.468   3.134   8.115 -0.9110 -3.5086  0.2263
 6021SOL    HW229523   2.588   3.162   8.034 -1.1045  0.3782 -2.0432
 6022SOL     OW29524   4.027   3.266   5.586  0.2273 -0.5106  0.5373
 6022SOL    HW129525   3.991   3.304   5.505  0.5360 -0.6068  0.3532
 6022SOL    HW229526   4.119   3.279   5.562  1.0011 -1.3552  3.1535
 6023SOL     OW29527   2.915   1.486  12.029 -0.3933  0.1239  0.7616
 6023SOL    HW129528   2.884   1.469  11.940  1.0858  2.2390 -0.1858
 6023SOL    HW229529   2.857   1.430  12.079  0.7890 -0.8236  1.0717
 6024SOL     OW29530   1.491   4.409  11.509 -0.3114 -0.0418 -0.0332
 6024SOL    HW129531   1.517   4.499  11.530  0.6777  0.1898 -2.3314
 6024SOL    HW229532   1.555   4.353  11.554 -0.1062  0.3033  0.1024
 6025SOL     OW29533   4.364   3.828   8.700  0.5987 -0.2159  0.1868
 6025SOL    HW129534   4.274   3.843   8.672  0.7914 -1.3804 -1.0535
 6025SOL    HW229535   4.360   3.855   8.792 -2.1306 -0.5745  0.1590
 6026SOL     OW29536   1.614   0.525   4.510 -0.0996 -0.1999  0.2427
 6026SOL    HW129537   1.695   0.551   4.467 -2.2384  3.1605 -1.7066
 6026SOL    HW229538   1.642   0.546   4.599  1.8993 -0.5634 -0.2997
 6027SOL     OW29539   3.481   2.421  14.814  0.0432  0.0581 -0.1113
 6027SOL    HW129540   3.424   2.422  14.891 -0.9014 -1.9436 -0.8065
 6027SOL    HW229541   3.493   2.327  14.801 -2.3500  0.2857 -3.8952
 6028SOL     OW29542   0.128   0.857  10.741 -0.0247 -0.3512 -0.6544
 6028SOL    HW129543   0.054   0.905  10.704 -0.4751  0.0760  0.7944
 6028SOL    HW229544   0.092   0.846  10.829  0.0099  0.1743 -0.5721
 6029SOL     OW29545   1.682   4.351  14.512  0.0203 -0.3727 -0.0429
 6029SOL    HW129546   1.648   4.338  14.423 -0.2914  2.3108 -0.3137
 6029SOL    HW229547   1.772   4.381  14.500  0.4823 -1.2791  1.2099
 6030SOL     OW29548   1.628   4.476  12.139 -0.0100 -0.0017  0.0301
 6030SOL    HW129549   1.603   4.400  12.191  0.2087 -0.6667 -0.8465
 6030SOL    HW229550   1.659   4.541  12.203  0.1184  1.5630 -1.6255
 6031SOL     OW29551   4.097   2.553   4.115 -0.0042  0.4402 -0.0538
 6031SOL    HW129552   4.115   2.602   4.195  1.8393  0.6767 -0.6214
 6031SOL    HW229553   4.051   2.472   4.138  0.0368 -0.0340 -1.6473
 6032SOL     OW29554   4.702   4.643   5.686 -0.3066  0.1511 -0.1968
 6032SOL    HW129555   4.681   4.559   5.646 -3.2467  0.2857  1.0627
 6032SOL    HW229556   0.014   4.625   5.774  0.7771  0.7529 -0.4824
 6033SOL     OW29557   0.746   2.173   5.101 -0.3423 -0.1206  0.2708
 6033SOL    HW129558   0.703   2.092   5.072  0.8226 -0.4257 -0.6203
 6033SOL    HW229559   0.673   2.203   5.155  0.7136  1.9591  0.5067
 6034SOL     OW29560   0.070   4.576   5.921 -0.4315  0.2914  0.0970
 6034SOL    HW129561   0.018   4.599   5.998  0.7151 -0.3778  1.0844
 6034SOL    HW229562   0.160   4.578   5.954 -0.3442  0.1639 -0.1304
 6035SOL     OW29563   2.579   1.950   9.407 -0.1758 -0.2847 -0.6088
 6035SOL    HW129564   2.580   1.854   9.415 -0.4483 -0.3978 -1.9372
 6035SOL    HW229565   2.516   1.943   9.336  0.2777  4.4092 -1.4580
 6036SOL     OW29566   1.759   2.567   6.655  0.3514  0.7352 -0.1232
 6036SOL    HW129567   1.720   2.645   6.615 -1.0243 -0.7625 -1.7187
 6036SOL    HW229568   1.762   2.598   6.745  0.2447  0.7561 -0.1268
 6037SOL     OW29569   0.052   2.111  13.663  0.2191  0.5026 -0.1163
 6037SOL    HW129570   4.720   2.072  13.733  2.2750  0.5594  1.4930
 6037SOL    HW229571   0.022   2.079  13.579  0.2297  1.6406 -0.5600
 6038SOL     OW29572   1.818   1.989   7.279  0.0278 -0.5042  0.2341
 6038SOL    HW129573   1.810   1.971   7.373 -0.8309 -0.1456  0.2290
 6038SOL    HW229574   1.726   1.978   7.254  0.5583  2.1347 -2.8131
 6039SOL     OW29575   2.842   2.385   8.418  0.4945  0.2564  0.4566
 6039SOL    HW129576   2.773   2.446   8.391  0.5631 -0.0746 -0.4587
 6039SOL    HW229577   2.925   2.431   8.410 -0.7154  2.5756  1.4512
 6040SOL     OW29578   3.947   3.403   5.822  0.2943 -0.7732 -0.3121
 6040SOL    HW129579   3.980   3.338   5.760  2.3021  0.3254 -0.3969
 6040SOL    HW229580   4.015   3.397   5.889 -0.0552  0.3587  0.1583
 6041SOL     OW29581   2.600   3.141  12.703  0.3226  0.1408  0.0129
 6041SOL    HW129582   2.585   3.051  12.733  2.4426  0.5564  2.3294
 6041SOL    HW229583   2.691   3.137  12.673  0.1035  0.5796 -0.7229
 6042SOL     OW29584   2.898   0.220   6.948  0.7053 -0.0644  0.1928
 6042SOL    HW129585   2.925   0.172   7.025  1.2105  0.1986  0.1770
 6042SOL    HW229586   2.954   0.190   6.876  1.1171  1.5464 -0.1717
 6043SOL     OW29587   1.624   1.062   8.491  0.4342  0.5730 -0.1215
 6043SOL    HW129588   1.621   0.981   8.441  1.5592  0.1906  0.4468
 6043SOL    HW229589   1.549   1.107   8.451 -1.9230 -2.3529  1.0429
 6044SOL     OW29590   0.218   3.476   5.029 -0.0871  0.2168  0.2658
 6044SOL    HW129591   0.231   3.401   5.086 -1.9594 -0.2462  0.0882
 6044SOL    HW229592   0.247   3.542   5.092 -1.9138 -0.0546  1.3789
 6045SOL     OW29593   1.556   1.198   7.239 -0.4730  0.3755  0.0763
 6045SOL    HW129594   1.613   1.121   7.247  0.9117  0.8943 -5.1429
 6045SOL    HW229595   1.540   1.232   7.327  1.4774  1.6762 -0.0801
 6046SOL     OW29596   1.726   2.138   6.570  0.2521 -0.1351  0.0978
 6046SOL    HW129597   1.792   2.169   6.633  1.6843 -1.7526 -0.6139
 6046SOL    HW229598   1.774   2.153   6.489  2.0911  1.5120  1.4773
 6047SOL     OW29599   1.847   3.985   2.281  0.4038 -1.0166  0.2651
 6047SOL    HW129600   1.753   3.972   2.276  0.2054  0.5726  0.1480
 6047SOL    HW229601   1.879   3.947   2.363  1.7140  0.7385  0.5583
 6048SOL     OW29602   3.480   0.877  13.167  0.3041 -0.1563  0.1583
 6048SOL    HW129603   3.562   0.873  13.118  1.2818  1.5738  1.6344
 6048SOL    HW229604   3.415   0.850  13.102  0.9238  0.8564 -0.8957
 6049SOL     OW29605   1.935   4.696  16.891  0.1974  0.3744 -0.0171
 6049SOL    HW129606   1.858   0.027  16.913  1.6785  3.3418 -1.8174
 6049SOL    HW229607   1.893   4.638  16.827 -0.6836  0.6770  0.2977
 6050SOL     OW29608   4.261   1.978   6.093 -0.1178  0.3729 -0.9562
 6050SOL    HW129609   4.291   2.046   6.033  2.7534  0.1966  0.2680
 6050SOL    HW229610   4.292   2.018   6.174 -2.7776 -1.9058  1.1991
 6051SOL     OW29611   3.724   0.969   4.194  0.8320  0.1477  0.1226
 6051SOL    HW129612   3.812   0.971   4.230  1.2250  2.4452 -0.9879
 6051SOL    HW229613   3.737   1.012   4.110 -0.5885  1.4218  0.5729
 6052SOL     OW29614   3.725   0.234  11.807 -0.9324 -0.2829  0.6479
 6052SOL    HW129615   3.638   0.238  11.767 -1.1749 -2.0187  1.0057
 6052SOL    HW229616   3.726   0.322  11.846 -2.7097  0.5740 -1.2254
 6053SOL     OW29617   0.411   4.700   3.175  0.0124 -0.1204 -0.1921
 6053SOL    HW129618   0.427   4.605   3.178  1.4169  0.1182 -0.2597
 6053SOL    HW229619   0.400   4.708   3.080  2.0854  0.7431 -0.3573
 6054SOL     OW29620   0.129   4.327   2.219 -0.5376  0.7658 -0.0063
 6054SOL    HW129621   0.149   4.363   2.306 -1.4894  2.9103 -0.6643
 6054SOL    HW229622   0.095   4.409   2.183 -1.3203  0.3119 -0.2784
 6055SOL     OW29623   1.942   0.877  10.335  0.1655 -0.0265  0.2335
 6055SOL    HW129624   1.970   0.816  10.267  0.8720  0.5450  0.0124
 6055SOL    HW229625   1.861   0.836  10.367 -1.3106  1.1144 -2.0610
 6056SOL     OW29626   1.637   1.687   6.552 -0.7475 -0.1337 -0.7451
 6056SOL    HW129627   1.616   1.752   6.620  0.9542 -0.8719  0.4600
 6056SOL    HW229628   1.557   1.635   6.542  0.3364 -1.6638 -1.3015
 6057SOL     OW29629   2.782   2.610   6.429  0.4730  0.5900  0.0374
 6057SOL    HW129630   2.729   2.581   6.503  1.0376  1.6565  0.8551
 6057SOL    HW229631   2.721   2.640   6.361  2.2789 -1.2977 -2.4126
 6058SOL     OW29632   0.597   3.140   9.602 -0.3134 -0.2011  0.2492
 6058SOL    HW129633   0.512   3.096   9.615  0.6800 -1.5897  2.0034
 6058SOL    HW229634   0.654   3.086   9.657  0.7897  0.5554 -0.1665
 6059SOL     OW29635   2.239   1.126   9.720 -0.0576  0.3242  0.3194
 6059SOL    HW129636   2.258   1.219   9.736  0.8965 -0.1446  1.8934
 6059SOL    HW229637   2.317   1.100   9.673 -0.2824  2.5286 -1.2897
 6060SOL     OW29638   3.226   2.380   1.216 -0.6181  0.5094 -0.2585
 6060SOL    HW129639   3.183   2.313   1.269  1.5273 -0.3310  0.4202
 6060SOL    HW229640   3.306   2.335   1.188 -1.4575 -0.8492 -0.4837
 6061SOL     OW29641   0.019   0.266   5.572  0.5645 -0.0310  0.3654
 6061SOL    HW129642   0.053   0.177   5.576  0.8067  0.1961  3.6826
 6061SOL    HW229643   4.684   0.270   5.650 -1.7634  3.1321 -1.4786
 6062SOL     OW29644   1.385   0.179  16.850 -0.0421 -0.2299 -0.5063
 6062SOL    HW129645   1.399   0.273  16.834  0.6229 -0.3295 -0.4830
 6062SOL    HW229646   1.441   0.173  16.927  0.1547  0.3898 -0.5983
 6063SOL     OW29647   3.585   1.039   5.744  0.1237  0.0986 -0.6743
 6063SOL    HW129648   3.547   1.126   5.762  0.2756 -0.2407  1.3032
 6063SOL    HW229649   3.543   0.992   5.815 -2.6901  1.2854 -1.5330
 6064SOL     OW29650   1.195   3.893  14.680 -0.0546 -0.6835 -0.2500
 6064SOL    HW129651   1.162   3.918  14.766 -0.3552  0.4304 -0.6903
 6064SOL    HW229652   1.223   3.978  14.648 -0.3310 -0.6815 -0.4910
 6065SOL     OW29653   0.479   2.343   5.907  0.2762  0.1046  0.2152
 6065SOL    HW129654   0.573   2.326   5.901  0.5069  1.7223 -0.6667
 6065SOL    HW229655   0.452   2.275   5.845 -0.2568 -0.8876  1.5233
 6066SOL     OW29656   1.294   1.595   8.750  0.3807 -0.5372  0.2176
 6066SOL    HW129657   1.292   1.641   8.834 -0.3388  0.8272 -0.5444
 6066SOL    HW229658   1.230   1.654   8.710  0.0037 -1.5932 -0.7399
 6067SOL     OW29659   2.452   0.592   2.810  0.4051 -0.2395 -0.2500
 6067SOL    HW129660   2.446   0.676   2.856 -1.0112 -0.6921  0.4188
 6067SOL    HW229661   2.373   0.594   2.756  1.1832  1.6219 -1.3350
 6068SOL     OW29662   4.173   3.924   2.758 -0.0492  0.6141  0.1720
 6068SOL    HW129663   4.134   4.007   2.787 -0.7418  0.0764  0.7734
 6068SOL    HW229664   4.240   3.915   2.825  0.5526  0.6096 -0.4287
 6069SOL     OW29665   2.431   3.841   9.458 -0.4723  0.2465  0.0237
 6069SOL    HW129666   2.381   3.792   9.524  1.2130 -2.2967 -0.6119
 6069SOL    HW229667   2.513   3.842   9.506  0.9139  1.6265 -2.3665
 6070SOL     OW29668   0.117   1.968   4.791  0.7744 -0.5565  0.4854
 6070SOL    HW129669   0.075   1.887   4.761  1.2134 -0.8110  0.5599
 6070SOL    HW229670   0.193   1.926   4.831 -0.6961 -1.6107  2.1598
 6071SOL     OW29671   4.287   3.724   9.980  0.2162  0.8419 -0.7054
 6071SOL    HW129672   4.301   3.732  10.074  1.8674 -1.7780 -0.7379
 6071SOL    HW229673   4.349   3.785   9.939 -0.4335  1.9984  0.0164
 6072SOL     OW29674   0.972   2.424   4.552 -0.4786 -0.0014  0.0094
 6072SOL    HW129675   0.879   2.427   4.529 -0.5948  3.5595  0.9655
 6072SOL    HW229676   1.010   2.466   4.475 -1.7061  0.6353 -0.2656
 6073SOL     OW29677   4.676   2.010  15.041 -0.2480 -0.1182 -0.4251
 6073SOL    HW129678   0.006   2.053  14.972 -1.1829  0.8462 -0.5051
 6073SOL    HW229679   4.619   2.082  15.070 -0.8277 -0.5784 -0.4309
 6074SOL     OW29680   4.327   3.211   2.547  0.6905  0.2017 -0.2099
 6074SOL    HW129681   4.389   3.138   2.553 -0.2765 -0.7050 -1.1512
 6074SOL    HW229682   4.288   3.199   2.460 -1.7838 -0.4416  1.0093
 6075SOL     OW29683   4.412   3.939   8.053 -0.8577 -0.1394  0.2837
 6075SOL    HW129684   4.341   3.914   7.993 -1.0425  1.1285 -0.0336
 6075SOL    HW229685   4.473   3.865   8.044 -3.8306 -2.5389 -0.1903
 6076SOL     OW29686   3.971   3.311   3.871 -0.1121 -0.3055 -0.1619
 6076SOL    HW129687   3.986   3.346   3.959  0.4081  0.7105 -0.6405
 6076SOL    HW229688   3.879   3.290   3.884  0.1480 -0.3413  1.6260
 6077SOL     OW29689   1.190   0.927   3.026  0.4538  0.5595 -0.1095
 6077SOL    HW129690   1.274   0.904   3.067  0.0631  0.1151  0.4360
 6077SOL    HW229691   1.167   0.851   2.972  0.7834  1.0383 -0.9304
 6078SOL     OW29692   0.397   4.487   6.648  0.2470  0.2437  0.0161
 6078SOL    HW129693   0.337   4.512   6.578 -1.2666  0.8129  1.5236
 6078SOL    HW229694   0.335   4.465   6.718  3.0126 -1.1569  2.0323
 6079SOL     OW29695   1.076   0.895  12.535 -0.4429  0.2342  0.0277
 6079SOL    HW129696   1.124   0.959  12.588 -1.9660  0.1863  1.4476
 6079SOL    HW229697   1.078   0.936  12.448 -1.9584  1.3357  0.5231
 6080SOL     OW29698   3.843   1.251   3.530 -0.7010 -0.0995 -0.4196
 6080SOL    HW129699   3.756   1.220   3.555 -1.2583  2.2738  0.5847
 6080SOL    HW229700   3.843   1.339   3.568  0.2336 -0.0957 -0.4322
 6081SOL     OW29701   1.280   3.252   2.406 -0.2166 -0.0444 -0.4063
 6081SOL    HW129702   1.293   3.190   2.334  2.0241  0.6338 -0.5895
 6081SOL    HW229703   1.186   3.239   2.414 -0.2064  1.7623  2.4339
 6082SOL     OW29704   2.021   4.577   5.509 -0.4068  0.1894  0.3744
 6082SOL    HW129705   1.956   4.634   5.549 -0.7830 -0.1584  0.2584
 6082SOL    HW229706   2.066   4.550   5.589  0.9054  2.9972  0.5861
 6083SOL     OW29707   1.582   3.730  14.152  0.0152  0.2043  0.4803
 6083SOL    HW129708   1.620   3.814  14.125 -0.3724  0.1013 -0.3844
 6083SOL    HW229709   1.490   3.756  14.150  0.5454  1.9502 -1.5814
 6084SOL     OW29710   2.874   1.772   8.350 -0.3626 -0.5692 -0.4684
 6084SOL    HW129711   2.912   1.727   8.274 -1.1426 -0.6381 -0.8118
 6084SOL    HW229712   2.851   1.709   8.418 -2.8291  0.5323 -0.3026
 6085SOL     OW29713   1.341   2.476   6.534 -0.4751 -0.2306 -0.3849
 6085SOL    HW129714   1.404   2.421   6.580  1.0459 -0.4554 -2.7079
 6085SOL    HW229715   1.344   2.546   6.600  0.8192  1.0403 -1.7627
 6086SOL     OW29716   3.010   1.627   9.177 -0.3791 -0.2938  0.3097
 6086SOL    HW129717   3.092   1.644   9.131  0.8978 -3.0671  1.6009
 6086SOL    HW229718   3.040   1.623   9.268  0.8374 -0.7219 -0.1103
 6087SOL     OW29719   3.789   4.656  16.299  0.0063 -0.5973 -0.7086
 6087SOL    HW129720   3.772   0.006  16.361  1.0147 -0.3193 -0.7375
 6087SOL    HW229721   3.774   4.705  16.218 -1.4769 -1.3744 -0.8975
 6088SOL     OW29722   2.315   3.210   6.803  0.8825  0.1173  0.6035
 6088SOL    HW129723   2.350   3.254   6.725  0.0530 -0.6657 -0.1957
 6088SOL    HW229724   2.271   3.131   6.771 -0.0939  1.2930 -0.9373
 6089SOL     OW29725   2.752   0.380   0.028 -0.6065  0.5511 -0.1293
 6089SOL    HW129726   2.700   0.426   0.094  0.9639  0.2878  1.3051
 6089SOL    HW229727   2.785   0.312   0.088  0.2101  0.1673 -1.0154
 6090SOL     OW29728   1.255   0.192   9.220 -0.5667 -0.2447  0.3149
 6090SOL    HW129729   1.348   0.168   9.222 -0.8176 -1.2861 -0.7680
 6090SOL    HW229730   1.241   0.150   9.305 -3.3607  0.3536  0.1449
 6091SOL     OW29731   0.259   3.228  15.152 -0.5847 -0.0724 -0.3615
 6091SOL    HW129732   0.193   3.249  15.219  0.1476  0.5753  0.1670
 6091SOL    HW229733   0.217   3.272  15.078 -0.7108 -0.5677 -0.5831
 6092SOL     OW29734   0.927   2.319   8.646  0.1768 -1.3584  0.2755
 6092SOL    HW129735   0.856   2.383   8.636  0.8026 -0.5778  0.8595
 6092SOL    HW229736   0.967   2.380   8.707 -1.3431 -1.6770  1.5859
 6093SOL     OW29737   0.894   4.202   5.175 -0.2409  0.2212  0.0309
 6093SOL    HW129738   0.838   4.222   5.100  0.1769  0.9201 -0.0966
 6093SOL    HW229739   0.900   4.107   5.174  3.1789  0.4207 -0.7414
 6094SOL     OW29740   0.984   0.819   3.968 -0.1408  0.3296  0.5149
 6094SOL    HW129741   0.972   0.772   4.051 -0.2250  3.0118  2.0138
 6094SOL    HW229742   1.048   0.886   3.994 -1.0029  1.3789 -0.1016
 6095SOL     OW29743   4.705   0.051   4.198  0.2632 -0.0853  0.2113
 6095SOL    HW129744   4.611   0.064   4.199  0.1848 -0.8946  2.6737
 6095SOL    HW229745   0.009   0.071   4.108  2.8355  1.6889  1.2963
 6096SOL     OW29746   2.639   4.101  14.933 -0.2321 -0.2162  0.3746
 6096SOL    HW129747   2.705   4.107  15.002  0.8261  1.4557 -0.7636
 6096SOL    HW229748   2.571   4.056  14.984  0.5687 -0.6500  1.0591
 6097SOL     OW29749   0.338   3.289   9.768  0.5217 -0.2759 -0.0189
 6097SOL    HW129750   0.257   3.322   9.729  0.1880 -3.5374 -2.1148
 6097SOL    HW229751   0.384   3.373   9.770 -0.8067  0.4649 -0.4196
 6098SOL     OW29752   0.318   2.998   4.428  0.1981 -0.0351 -0.3180
 6098SOL    HW129753   0.345   3.077   4.475 -0.5023 -1.5694  2.6727
 6098SOL    HW229754   0.394   2.990   4.371  0.3541  1.5087 -0.3416
 6099SOL     OW29755   2.251   3.508  16.623  0.4555 -0.3587  0.0016
 6099SOL    HW129756   2.322   3.506  16.560  2.6412  0.8594  2.4431
 6099SOL    HW229757   2.262   3.426  16.671 -0.0792  0.5920  1.7419
 6100SOL     OW29758   2.893   0.715   4.954  0.2884  0.7288  0.3242
 6100SOL    HW129759   2.882   0.675   4.868  4.4391 -0.8559  0.4956
 6100SOL    HW229760   2.961   0.780   4.933 -1.2144  2.1882 -0.0364
 6101SOL     OW29761   4.178   1.540   6.397  0.0338 -1.0121 -0.3355
 6101SOL    HW129762   4.240   1.612   6.411  1.0443 -2.2092  1.2570
 6101SOL    HW229763   4.213   1.478   6.461  0.7469 -0.0246  0.2335
 6102SOL     OW29764   0.037   0.428  17.486 -0.3104  0.5346 -0.0611
 6102SOL    HW129765   0.078   0.342  17.495  0.1481  0.9605  1.9626
 6102SOL    HW229766   4.667   0.405  17.471  0.2413 -2.3404  0.9069
 6103SOL     OW29767   3.794   3.862   7.374  0.6462  0.4627  0.2176
 6103SOL    HW129768   3.728   3.867   7.444  0.6988 -0.8888  0.3699
 6103SOL    HW229769   3.840   3.783   7.402 -2.0723 -1.0575  0.4190
 6104SOL     OW29770   0.256   4.481   0.381 -0.4232  0.4005  0.0191
 6104SOL    HW129771   0.344   4.466   0.416  0.1367  2.0865 -0.6443
 6104SOL    HW229772   0.236   4.407   0.324 -0.1691  1.2057 -1.1305
 6105SOL     OW29773   0.518   3.003   2.456 -0.5691  0.3916  0.5195
 6105SOL    HW129774   0.560   2.993   2.371  1.0100  0.1307  1.3379
 6105SOL    HW229775   0.569   3.068   2.505 -1.1789 -0.1091  1.8273
 6106SOL     OW29776   2.226   3.249   7.937 -0.4034 -0.4503  0.4081
 6106SOL    HW129777   2.184   3.183   7.881  0.5966 -0.9032  0.1884
 6106SOL    HW229778   2.299   3.273   7.880 -1.3884  0.2230 -0.5596
 6107SOL     OW29779   2.558   1.999  11.384 -0.3110  0.0814 -0.3760
 6107SOL    HW129780   2.635   2.025  11.435 -0.5262 -0.0786  0.0299
 6107SOL    HW229781   2.514   2.083  11.399 -1.7377 -0.6198 -0.6891
 6108SOL     OW29782   3.868   2.542   1.673 -0.0240 -0.8276  0.6382
 6108SOL    HW129783   3.960   2.562   1.694 -0.3588  0.9628  0.3894
 6108SOL    HW229784   3.881   2.478   1.604  2.7083 -0.0432  0.4294
 6109SOL     OW29785   1.027   3.727  15.992 -0.3908 -0.5005  0.5679
 6109SOL    HW129786   0.947   3.686  15.959  1.1182 -0.4928 -3.0488
 6109SOL    HW229787   1.061   3.652  16.041 -1.6246 -0.1571  1.9518
 6110SOL     OW29788   3.716   0.307   6.914 -0.0961  0.0965  0.7977
 6110SOL    HW129789   3.739   0.385   6.863 -2.0677  2.0298  2.8474
 6110SOL    HW229790   3.761   0.237   6.867  2.1878  1.7784  0.4470
 6111SOL     OW29791   1.261   2.064  14.821 -0.5852  0.3958  0.4570
 6111SOL    HW129792   1.298   2.062  14.732 -0.7413 -1.2611  0.4325
 6111SOL    HW229793   1.307   1.988  14.856  1.5355  0.8646 -1.2778
 6112SOL     OW29794   4.157   2.541   5.219  0.4078 -0.0049 -0.4818
 6112SOL    HW129795   4.141   2.455   5.257 -0.6443  0.4338  0.0468
 6112SOL    HW229796   4.075   2.586   5.237 -0.8311 -1.7294 -1.8156
 6113SOL     OW29797   1.970   0.135   2.921 -0.2277  0.1463  0.3812
 6113SOL    HW129798   1.971   0.156   3.014  0.0028  2.8827 -0.2119
 6113SOL    HW229799   1.880   0.156   2.895  0.0703 -0.6312 -1.2692
 6114SOL     OW29800   0.358   2.929   9.337  0.0487 -0.5367 -0.3332
 6114SOL    HW129801   0.395   2.923   9.249 -0.8600 -3.6057 -0.5112
 6114SOL    HW229802   0.404   2.853   9.372  1.0680  0.4795  0.4960
 6115SOL     OW29803   1.543   2.852   7.484 -0.0650 -0.7054  0.2687
 6115SOL    HW129804   1.458   2.828   7.445 -0.0963 -3.1199  1.8088
 6115SOL    HW229805   1.563   2.925   7.426  2.1879 -1.2190  0.3885
 6116SOL     OW29806   2.181   3.304  11.525  0.0141  0.2716  0.0125
 6116SOL    HW129807   2.088   3.330  11.522  0.0987  0.2297 -2.6718
 6116SOL    HW229808   2.197   3.275  11.436  1.9276 -1.4650  0.9448
 6117SOL     OW29809   0.840   4.226   4.433 -0.3215  0.4698 -0.0082
 6117SOL    HW129810   0.861   4.135   4.453  0.9883  1.1231  1.5737
 6117SOL    HW229811   0.745   4.232   4.445 -0.4135  0.7243 -0.8969
 6118SOL     OW29812   2.158   1.255   1.667 -0.5179 -0.3443 -0.2445
 6118SOL    HW129813   2.097   1.327   1.680 -0.6539 -0.4253 -0.4511
 6118SOL    HW229814   2.234   1.312   1.654 -1.3556  0.0856 -3.0920
 6119SOL     OW29815   0.576   1.780   2.808  0.1457  0.0090 -0.0553
 6119SOL    HW129816   0.572   1.744   2.896  1.1189 -0.8988 -0.3859
 6119SOL    HW229817   0.518   1.857   2.808  0.2163  0.0636  3.0523
 6120SOL     OW29818   1.415   0.744   4.058  0.5460 -0.2244 -0.3690
 6120SOL    HW129819   1.509   0.755   4.041  0.6511  2.1615  1.7391
 6120SOL    HW229820   1.396   0.835   4.083 -0.8923 -1.1639  1.8544
 6121SOL     OW29821   4.222   1.690  16.756 -0.8163 -0.1987 -0.0699
 6121SOL    HW129822   4.268   1.609  16.734  1.5650  0.6846  1.6146
 6121SOL    HW229823   4.233   1.690  16.851 -1.2348 -0.8976 -0.0195
 6122SOL     OW29824   3.541   2.791   5.693 -0.1080 -0.2303  0.2170
 6122SOL    HW129825   3.508   2.878   5.672  1.8975  0.4065 -0.2172
 6122SOL    HW229826   3.535   2.786   5.789  0.4755  2.4063  0.3871
 6123SOL     OW29827   1.183   1.105  12.680 -0.4834  0.2714  0.0669
 6123SOL    HW129828   1.214   1.174  12.622  1.2278 -1.4158 -1.0058
 6123SOL    HW229829   1.236   1.124  12.758  1.2607  3.4831 -1.9025
 6124SOL     OW29830   4.069   2.332   5.003  0.2229  0.1468 -0.0059
 6124SOL    HW129831   4.034   2.285   5.078 -0.3139 -1.1866 -1.0907
 6124SOL    HW229832   4.130   2.391   5.047 -0.7435  2.5860 -1.9348
 6125SOL     OW29833   0.736   0.901   7.797  0.0953  0.5050 -0.3702
 6125SOL    HW129834   0.718   0.827   7.855  0.9427 -0.6167 -1.5168
 6125SOL    HW229835   0.735   0.973   7.860 -0.1937  0.1336  0.0454
 6126SOL     OW29836   1.922   3.340   7.020  0.3139  0.2725 -0.6087
 6126SOL    HW129837   1.915   3.338   7.116 -0.1285 -2.5207 -0.6901
 6126SOL    HW229838   1.876   3.261   6.991 -2.9469  1.3197  1.7229
 6127SOL     OW29839   4.458   3.623   4.871 -0.2945  0.0232 -0.5736
 6127SOL    HW129840   4.443   3.613   4.777 -2.3766 -1.3792 -0.0930
 6127SOL    HW229841   4.505   3.706   4.884 -0.1576 -0.1050 -0.2620
 6128SOL     OW29842   3.022   0.737   2.780  0.4666 -0.0321 -0.0290
 6128SOL    HW129843   3.006   0.653   2.824  1.8235  0.7751  2.0310
 6128SOL    HW229844   3.060   0.784   2.854  3.2039  1.3217 -2.3126
 6129SOL     OW29845   3.428   3.235   3.299 -0.3148 -0.1553 -0.4811
 6129SOL    HW129846   3.446   3.141   3.312 -1.7613 -0.3457  0.0706
 6129SOL    HW229847   3.450   3.278   3.382 -3.2490  1.3330 -0.4884
 6130SOL     OW29848   2.554   3.901   1.371  0.0254 -0.2266  0.3831
 6130SOL    HW129849   2.612   3.948   1.311  1.3542 -2.4006 -0.0262
 6130SOL    HW229850   2.597   3.907   1.456  0.8403 -1.8117  0.0863
 6131SOL     OW29851   2.850   4.618   0.204 -0.2821 -0.0652  0.1029
 6131SOL    HW129852   2.784   4.610   0.272 -0.2656  0.4964  0.1828
 6131SOL    HW229853   2.817   4.697   0.161 -0.2862 -0.4947 -0.6970
 6132SOL     OW29854   1.900   2.875   6.029  0.7765  0.3999 -0.3557
 6132SOL    HW129855   1.810   2.857   6.001  1.1728 -0.4784 -1.0395
 6132SOL    HW229856   1.924   2.783   6.040  1.1566  0.3937 -1.2243
 6133SOL     OW29857   1.557   3.053   5.041  0.0452 -0.1682 -0.0016
 6133SOL    HW129858   1.637   3.008   5.014  1.2003  1.4237  0.7304
 6133SOL    HW229859   1.577   3.091   5.127 -0.1707 -1.0656  0.4393
 6134SOL     OW29860   3.557   4.025  12.794  0.0799  0.1966 -0.5918
 6134SOL    HW129861   3.496   3.996  12.862  1.1929  1.0580  0.7917
 6134SOL    HW229862   3.516   4.100  12.753 -1.3109 -0.9409 -1.2886
 6135SOL     OW29863   3.456   4.680   8.740 -0.3985 -0.1188 -0.5331
 6135SOL    HW129864   3.388   4.713   8.681 -0.0757  0.8160 -0.3829
 6135SOL    HW229865   3.431   4.588   8.745 -2.7868  0.6010  0.5174
 6136SOL     OW29866   1.960   3.183   1.248 -0.2698 -0.1312  0.7966
 6136SOL    HW129867   2.005   3.267   1.240  1.6240 -1.1386  0.9106
 6136SOL    HW229868   1.870   3.208   1.267 -0.6600  0.6173 -2.0144
 6137SOL     OW29869   2.841   3.321  17.676  0.3593 -0.0300  0.1305
 6137SOL    HW129870   2.758   3.276   0.003 -0.1506  0.0070 -2.9367
 6137SOL    HW229871   2.875   3.311   0.079  1.5263  0.4248 -0.2578
 6138SOL     OW29872   2.324   2.049   4.075  0.3005  0.2826  0.0374
 6138SOL    HW129873   2.314   1.967   4.027 -0.2985  0.0400  0.5734
 6138SOL    HW229874   2.326   2.110   4.002 -0.2933 -0.7317 -0.8242
 6139SOL     OW29875   0.245   1.972   4.148 -1.2664  0.3877 -0.3236
 6139SOL    HW129876   0.285   2.019   4.075  0.1663 -2.3041 -1.2527
 6139SOL    HW229877   0.173   2.029   4.176 -1.6587 -0.5446  0.5584
 6140SOL     OW29878   4.000   3.313   2.050  0.3365  0.1082  0.0656
 6140SOL    HW129879   3.937   3.383   2.030  2.2250  1.3544 -1.5253
 6140SOL    HW229880   3.944   3.255   2.101 -1.8412  0.7973 -1.5566
 6141SOL     OW29881   4.189   2.638   4.388 -0.1639  0.6278 -0.2805
 6141SOL    HW129882   4.138   2.664   4.465 -0.6476  1.9613 -1.0646
 6141SOL    HW229883   4.201   2.547   4.416 -0.9341  0.3116 -0.9969
 6142SOL     OW29884   3.868   3.521  11.875  0.0748 -0.2352  0.7236
 6142SOL    HW129885   3.873   3.615  11.889  1.1014 -0.1477 -0.2272
 6142SOL    HW229886   3.952   3.497  11.914  1.1272  0.5664 -1.0474
 6143SOL     OW29887   0.664   4.555   7.893  0.0433  0.5819  0.3782
 6143SOL    HW129888   0.711   4.494   7.950 -0.8031  1.7381  2.3329
 6143SOL    HW229889   0.707   4.633   7.929 -1.0277  1.0923  0.5434
 6144SOL     OW29890   3.823   1.215   7.873 -0.1313  0.1643  0.1136
 6144SOL    HW129891   3.873   1.288   7.837  0.8462 -0.3463  0.4650
 6144SOL    HW229892   3.875   1.200   7.951 -0.1165 -4.0577 -0.7196
 6145SOL     OW29893   0.769   0.990   8.230  0.2305 -0.4567 -0.4874
 6145SOL    HW129894   0.834   1.042   8.183  0.4062  0.2441  0.5364
 6145SOL    HW229895   0.819   0.930   8.285 -4.0608 -2.7266  0.9656
 6146SOL     OW29896   0.863   1.597  12.798 -0.4504  0.5495 -0.0553
 6146SOL    HW129897   0.885   1.690  12.790  0.6337  0.3871  0.9548
 6146SOL    HW229898   0.936   1.567  12.853 -0.6766  1.0024  0.4929
 6147SOL     OW29899   3.930   2.771   8.522 -0.1179  0.1387 -0.6001
 6147SOL    HW129900   3.963   2.682   8.510  0.4308  0.1046  1.1325
 6147SOL    HW229901   3.853   2.747   8.574  0.3766 -0.3097 -0.0808
 6148SOL     OW29902   2.805   4.535   2.647  0.2203 -0.4509 -0.0659
 6148SOL    HW129903   2.900   4.547   2.634  0.4279  0.5873  2.5369
 6148SOL    HW229904   2.776   4.596   2.579  2.4214  1.4279  0.6694
 6149SOL     OW29905   3.474   3.833   4.282 -0.1598 -0.0994  0.5012
 6149SOL    HW129906   3.457   3.925   4.259 -0.0070  0.0148  0.8523
 6149SOL    HW229907   3.488   3.832   4.376  0.9503  1.0600  0.3512
 6150SOL     OW29908   1.789   1.249   5.408 -0.2340 -0.0058  0.0894
 6150SOL    HW129909   1.838   1.308   5.466  1.4810 -0.2141 -1.1219
 6150SOL    HW229910   1.739   1.208   5.478 -0.8325 -0.9179 -0.8724
 6151SOL     OW29911   3.342   4.445   8.520  0.2758 -0.0453 -0.1929
 6151SOL    HW129912   3.433   4.416   8.525 -0.4979 -2.1426  1.8418
 6151SOL    HW229913   3.311   4.448   8.429 -0.2964  0.1062  0.0082
 6152SOL     OW29914   4.471   3.077   8.984  0.2989  0.5080 -0.2922
 6152SOL    HW129915   4.389   3.124   8.968 -0.5447 -0.2170  1.7666
 6152SOL    HW229916   4.467   3.003   8.924  0.0890  1.2298 -1.1539
 6153SOL     OW29917   2.153   3.423   0.108 -0.7164  0.0726  0.4460
 6153SOL    HW129918   2.229   3.389   0.061 -0.0380 -0.9729  2.2752
 6153SOL    HW229919   2.189   3.427   0.197 -2.7289  0.6403  1.2339
 6154SOL     OW29920   2.520   0.343   8.739 -0.1653 -0.0181 -0.1744
 6154SOL    HW129921   2.497   0.275   8.675  1.5474 -1.5365  0.8306
 6154SOL    HW229922   2.449   0.328   8.801 -1.0702  1.5555 -0.8285
 6155SOL     OW29923   2.769   2.219  11.797 -0.5016  1.2158  0.0622
 6155SOL    HW129924   2.864   2.224  11.784 -0.7765 -1.6006 -2.7522
 6155SOL    HW229925   2.745   2.278  11.869 -1.0980 -1.7641  2.3183
 6156SOL     OW29926   0.274   0.947   5.005  0.5238  0.4759 -0.1113
 6156SOL    HW129927   0.366   0.961   4.985  0.7927 -1.2224 -0.0619
 6156SOL    HW229928   0.283   0.914   5.095  0.3994  0.0703 -0.2504
 6157SOL     OW29929   1.692   3.478   2.692 -0.4969 -0.4681 -0.6550
 6157SOL    HW129930   1.704   3.516   2.605  0.8333  0.3469 -0.1089
 6157SOL    HW229931   1.745   3.399   2.680 -0.8345 -0.7522 -0.2615
 6158SOL     OW29932   1.404   1.677  13.258 -0.2245 -0.7670 -0.0191
 6158SOL    HW129933   1.371   1.653  13.171 -1.0824 -0.4114  0.2092
 6158SOL    HW229934   1.333   1.738  13.278  0.0612  0.3996 -2.4312
 6159SOL     OW29935   0.450   1.950   1.216 -0.4627 -0.1968 -0.4310
 6159SOL    HW129936   0.359   1.980   1.220 -1.3164 -2.7365 -0.6741
 6159SOL    HW229937   0.456   1.933   1.122  1.3914 -2.7594  0.1514
 6160SOL     OW29938   3.325   1.397   8.321 -0.4772  0.0165 -0.0769
 6160SOL    HW129939   3.306   1.335   8.391 -1.5389  0.5314  0.0862
 6160SOL    HW229940   3.235   1.404   8.288 -0.2429  0.5022 -0.6063
 6161SOL     OW29941   1.654   4.120   3.942 -0.1634 -0.1656 -0.2835
 6161SOL    HW129942   1.641   4.078   3.857  0.0831  1.2614 -1.0222
 6161SOL    HW229943   1.698   4.204   3.934 -0.4153 -0.1405 -1.4295
 6162SOL     OW29944   2.070   2.969  13.908 -0.3532 -0.2303  0.0562
 6162SOL    HW129945   2.055   2.977  14.002 -2.7658  3.3525 -0.6401
 6162SOL    HW229946   2.048   2.877  13.899 -0.6207 -0.0449 -1.2405
 6163SOL     OW29947   0.344   1.905   8.360  0.0082  0.2613  0.0014
 6163SOL    HW129948   0.293   1.909   8.280 -0.0976 -1.0182  0.0014
 6163SOL    HW229949   0.430   1.882   8.325 -0.8930 -2.7179 -0.2674
 6164SOL     OW29950   3.252   3.039   3.654  0.2456  0.4586  0.3591
 6164SOL    HW129951   3.280   3.110   3.712 -0.8194  1.6281 -0.5388
 6164SOL    HW229952   3.206   2.989   3.721  1.0649 -2.0826 -0.9866
 6165SOL     OW29953   4.089   0.551   4.426  0.5008  0.2066 -0.7041
 6165SOL    HW129954   4.059   0.549   4.335 -3.9370  0.8405  0.7335
 6165SOL    HW229955   4.093   0.460   4.456 -0.1063  0.2610 -0.4627
 6166SOL     OW29956   3.560   4.146   9.491  1.3467  0.0555  0.8390
 6166SOL    HW129957   3.464   4.151   9.487  1.5113  1.7326 -1.1991
 6166SOL    HW229958   3.585   4.232   9.456 -0.0763 -0.3121 -1.0999
 6167SOL     OW29959   3.470   2.129  14.390 -0.0950  0.3697 -1.1228
 6167SOL    HW129960   3.415   2.206  14.401 -1.1029 -0.4138 -0.7340
 6167SOL    HW229961   3.517   2.174  14.319  1.9931  2.6090  1.6355
 6168SOL     OW29962   1.995   1.038   6.068 -0.7583  0.0897 -0.1078
 6168SOL    HW129963   2.041   1.121   6.079 -1.6804  0.8234 -1.7754
 6168SOL    HW229964   1.958   1.017   6.154  0.5888 -1.3054  0.1398
 6169SOL     OW29965   3.738   3.981   8.576 -0.6826 -0.0241  0.5644
 6169SOL    HW129966   3.668   4.038   8.608  1.7749  2.8252  0.8166
 6169SOL    HW229967   3.689   3.929   8.512 -0.1507 -0.7405  0.7351
 6170SOL     OW29968   3.687   1.363   3.317  0.6689 -0.3204 -0.1206
 6170SOL    HW129969   3.594   1.352   3.294  0.3061  0.9007  0.7614
 6170SOL    HW229970   3.691   1.458   3.301  1.9990 -0.1464  1.2955
 6171SOL     OW29971   4.307   4.423  11.991  0.6259  0.0774 -0.0771
 6171SOL    HW129972   4.211   4.414  11.995  0.3721  2.9098  0.8027
 6171SOL    HW229973   4.322   4.466  12.075 -0.0978  0.1792  0.0035
 6172SOL     OW29974   0.036   4.579   0.185  0.7288  0.4562  0.3659
 6172SOL    HW129975   0.006   4.532   0.262  1.3378 -0.6227 -0.0535
 6172SOL    HW229976   4.681   4.637   0.186  1.2130  1.1095  0.0097
 6173SOL     OW29977   1.192   0.408   2.301  0.5679 -0.2196  0.3285
 6173SOL    HW129978   1.220   0.500   2.296  0.8872 -0.2812  0.9504
 6173SOL    HW229979   1.109   0.413   2.255  0.5659 -0.6789  0.2883
 6174SOL     OW29980   0.897   2.233  13.080  0.4995 -0.5273 -0.1914
 6174SOL    HW129981   0.890   2.257  13.173 -0.2854 -1.5254  0.0052
 6174SOL    HW229982   0.977   2.278  13.055  0.3020 -0.6759 -1.0773
 6175SOL     OW29983   4.038   3.396  15.607 -0.3355 -0.2103  0.3236
 6175SOL    HW129984   4.015   3.303  15.601  1.9066 -0.6672 -1.2650
 6175SOL    HW229985   3.974   3.426  15.671 -1.0695 -0.9766 -0.0530
 6176SOL     OW29986   0.509   2.586   8.859  0.0336  0.1191  0.2438
 6176SOL    HW129987   0.448   2.652   8.892 -0.3366  0.4776 -1.1608
 6176SOL    HW229988   0.588   2.619   8.902 -0.3019  0.6331  0.4681
 6177SOL     OW29989   1.649   0.120  11.837  0.4084  0.4580 -0.1289
 6177SOL    HW129990   1.609   0.034  11.849  2.9680 -0.7543 -0.4834
 6177SOL    HW229991   1.739   0.098  11.862  0.5815 -0.1737 -1.3292
 6178SOL     OW29992   1.291   0.842   3.427  1.2417 -0.7026  0.2055
 6178SOL    HW129993   1.293   0.889   3.510 -4.3273  2.3381 -1.4178
 6178SOL    HW229994   1.198   0.847   3.405  0.9445 -0.6204  1.4847
 6179SOL     OW29995   1.413   3.011  10.961 -0.0928 -0.1359  0.3171
 6179SOL    HW129996   1.489   3.025  10.905  1.4850  0.3339  2.5469
 6179SOL    HW229997   1.382   3.099  10.983 -1.7241 -0.7706  0.5707
 6180SOL     OW29998   1.040   3.535   2.486  0.5662 -0.7498  0.1637
 6180SOL    HW129999   1.056   3.493   2.571  0.7051  0.3983  0.7065
 6180SOL    HW230000   1.118   3.588   2.468 -0.4225  0.0070 -1.9034
 6181SOL     OW30001   4.126   2.526   2.452 -0.0374 -0.2897  0.5141
 6181SOL    HW130002   4.206   2.575   2.469 -0.4554 -0.5592  3.3182
 6181SOL    HW230003   4.146   2.444   2.497 -1.3795 -1.2338 -0.6135
 6182SOL     OW30004   3.706   2.604   6.258 -0.0019  0.9195 -0.4642
 6182SOL    HW130005   3.699   2.665   6.332 -1.4217  1.5966 -1.1692
 6182SOL    HW230006   3.801   2.589   6.264  0.0582  0.7668 -1.8246
 6183SOL     OW30007   0.402   4.670   5.149 -0.2301 -0.5344 -0.1150
 6183SOL    HW130008   0.484   4.720   5.145  1.2389 -3.0914 -1.9758
 6183SOL    HW230009   0.367   4.705   5.231  0.7642 -0.6433  0.3605
 6184SOL     OW30010   2.291   1.904   7.650  0.2377  1.0302  0.4853
 6184SOL    HW130011   2.379   1.922   7.618 -0.0307 -0.7946 -1.2350
 6184SOL    HW230012   2.294   1.938   7.740 -0.4391  2.3575  0.0148
 6185SOL     OW30013   1.209   3.598  12.023  0.2494 -0.0492  0.3604
 6185SOL    HW130014   1.281   3.660  12.014 -1.8008  2.3385  0.5185
 6185SOL    HW230015   1.269   3.523  12.026  0.4297  0.0394 -1.1746
 6186SOL     OW30016   3.090   0.614   3.993 -0.9412 -0.0949  0.5318
 6186SOL    HW130017   3.007   0.584   4.029 -1.0922 -0.8673 -0.4607
 6186SOL    HW230018   3.068   0.707   3.984  4.7126  0.9600 -2.8802
 6187SOL     OW30019   1.813   1.224   7.379  0.5078  0.0312 -0.4634
 6187SOL    HW130020   1.760   1.257   7.452 -0.6874 -2.1030 -0.3607
 6187SOL    HW230021   1.857   1.308   7.369  1.7452 -0.6854 -1.0123
 6188SOL     OW30022   2.026   0.868   3.033 -0.1116  0.2972 -0.0026
 6188SOL    HW130023   2.093   0.846   3.097 -0.4536  4.3148  1.7328
 6188SOL    HW230024   1.982   0.786   3.013  0.9875 -0.5094  0.9153
 6189SOL     OW30025   1.154   2.481   9.158  0.2228 -0.0242 -0.0300
 6189SOL    HW130026   1.175   2.554   9.216 -2.7704  0.6945  0.1543
 6189SOL    HW230027   1.064   2.471   9.189 -0.1705  0.7424 -0.9498
 6190SOL     OW30028   3.217   3.812   0.003  0.0451 -0.0732  0.3904
 6190SOL    HW130029   3.148   3.747  17.674  0.3127  0.2813 -2.2646
 6190SOL    HW230030   3.161   3.890   0.013  3.1282  2.2112 -0.3366
 6191SOL     OW30031   3.493   0.229   4.464 -0.5740  0.6315  0.4370
 6191SOL    HW130032   3.485   0.210   4.557 -2.7662  1.8949  0.5126
 6191SOL    HW230033   3.427   0.167   4.434  2.2981 -2.3561  0.3331
 6192SOL     OW30034   0.078   1.671   8.874  0.0000 -0.1323  0.2857
 6192SOL    HW130035   0.153   1.682   8.932 -1.4506  0.5875  2.0108
 6192SOL    HW230036   0.068   1.762   8.844 -0.2523 -0.4095 -0.4855
 6193SOL     OW30037   3.436   2.967   8.739 -0.0406  0.3485 -0.0595
 6193SOL    HW130038   3.369   3.027   8.771 -0.2470  0.1817 -0.1838
 6193SOL    HW230039   3.441   2.900   8.807 -2.0356  0.8433  0.5842
 6194SOL     OW30040   4.571   4.123   4.561 -0.2588  0.3193 -0.0453
 6194SOL    HW130041   4.584   4.069   4.638 -3.7867 -0.1074  0.2340
 6194SOL    HW230042   4.489   4.084   4.532  0.1045 -1.6915  1.6116
 6195SOL     OW30043   2.101   0.997   4.517 -0.2728 -0.2435  0.0348
 6195SOL    HW130044   2.131   0.979   4.606  2.0928  0.7248 -0.5763
 6195SOL    HW230045   2.078   0.907   4.491 -1.8950  0.2865 -0.3509
 6196SOL     OW30046   0.031   3.346   3.207  0.2156 -0.6316 -0.0402
 6196SOL    HW130047   0.071   3.424   3.170 -0.8109  0.0518  0.3016
 6196SOL    HW230048   4.672   3.383   3.244  1.4837 -0.2874  2.3936
 6197SOL     OW30049   2.696   4.545   6.730  0.0735 -0.3995 -0.1604
 6197SOL    HW130050   2.620   4.542   6.673 -1.1989  2.0860  1.3717
 6197SOL    HW230051   2.663   4.496   6.806  0.8798 -0.3620  0.2118
 6198SOL     OW30052   1.199   1.934  13.096  0.4572 -0.1964  0.2784
 6198SOL    HW130053   1.114   1.950  13.055  1.1505 -0.0797 -1.1455
 6198SOL    HW230054   1.269   1.979  13.047  1.2986  1.6721  3.2221
 6199SOL     OW30055   2.483   4.556   4.383 -0.0212  0.5411 -0.4037
 6199SOL    HW130056   2.430   4.635   4.379  1.7827  1.7151 -1.0514
 6199SOL    HW230057   2.498   4.536   4.291 -0.5113 -0.4701 -0.2592
 6200SOL     OW30058   2.716   1.141   4.540  0.6865 -0.4781 -0.1107
 6200SOL    HW130059   2.651   1.158   4.608 -1.1615 -0.3525 -1.9019
 6200SOL    HW230060   2.803   1.127   4.577  0.2845  0.9864  1.3855
 6201SOL     OW30061   0.371   3.620   2.386 -0.3200 -0.1961  0.5402
 6201SOL    HW130062   0.384   3.526   2.377 -2.2246 -0.6599  2.4648
 6201SOL    HW230063   0.359   3.647   2.295  0.2865 -2.6117 -0.2383
 6202SOL     OW30064   0.087   2.906   9.298  0.0034 -0.2775 -0.1649
 6202SOL    HW130065   0.088   2.842   9.226  0.2748 -1.3135  0.7529
 6202SOL    HW230066   0.181   2.925   9.292 -0.4264  2.3704  1.8202
 6203SOL     OW30067   1.424   2.925   3.570  0.1422 -0.2235  0.2186
 6203SOL    HW130068   1.517   2.946   3.569  0.2017 -0.6002 -2.3248
 6203SOL    HW230069   1.410   2.924   3.475 -0.4950  1.8238  0.2896
 6204SOL     OW30070   3.893   3.446  11.103 -0.0402  0.3447 -0.4998
 6204SOL    HW130071   3.892   3.473  11.195 -1.0148 -1.3109 -0.0160
 6204SOL    HW230072   3.857   3.526  11.065  2.2306  1.6948  0.2001
 6205SOL     OW30073   4.166   0.945   5.080  0.1532  0.1805 -0.1371
 6205SOL    HW130074   4.084   0.909   5.046 -0.8981  0.7866  1.7854
 6205SOL    HW230075   4.153   0.938   5.175 -0.6666 -2.5443 -0.4309
 6206SOL     OW30076   0.167   4.024   8.053 -0.5434  0.5609 -0.8086
 6206SOL    HW130077   0.171   3.933   8.022  1.6342  0.1540  0.5884
 6206SOL    HW230078   0.260   4.029   8.077 -0.9877  0.3204  0.9524
 6207SOL     OW30079   1.667   4.062   6.967 -0.0325 -0.1731  0.3808
 6207SOL    HW130080   1.678   4.101   7.053 -1.7102  0.2563  0.4034
 6207SOL    HW230081   1.617   3.984   6.993 -0.9760  0.3698  0.1948
 6208SOL     OW30082   4.444   0.119   4.163  0.3653 -0.4881  0.1078
 6208SOL    HW130083   4.467   0.209   4.141 -2.4763  0.0739 -0.5205
 6208SOL    HW230084   4.351   0.134   4.148  0.3168  0.9237  1.9301
 6209SOL     OW30085   3.993   0.716   0.487  0.1857  0.0146 -0.5549
 6209SOL    HW130086   4.042   0.671   0.555 -0.5982 -2.5111 -1.6822
 6209SOL    HW230087   4.067   0.733   0.429  0.6101  2.2301  0.6398
 6210SOL     OW30088   2.681   3.278   2.129 -0.5224  0.3885 -0.4026
 6210SOL    HW130089   2.625   3.347   2.165  0.5955  2.0893 -1.9232
 6210SOL    HW230090   2.657   3.276   2.036 -3.2481 -2.8142  0.3809
 6211SOL     OW30091   3.242   4.629  17.526 -0.6169  0.0993 -0.1593
 6211SOL    HW130092   3.261   4.636  17.433  2.1200  0.9972  0.4691
 6211SOL    HW230093   3.319   4.580  17.554  0.4524  2.5937  1.2734
 6212SOL     OW30094   2.263   2.512   9.440  0.6401 -0.5479  0.6263
 6212SOL    HW130095   2.212   2.509   9.359 -0.8369  0.8102  1.5077
 6212SOL    HW230096   2.226   2.593   9.477  0.5893 -1.2485  2.1245
 6213SOL     OW30097   2.084   2.521   9.932  0.1596 -0.4508 -0.0725
 6213SOL    HW130098   2.052   2.570   9.856 -0.1906  0.0186  0.3746
 6213SOL    HW230099   2.137   2.458   9.885  2.1336  1.9239 -1.0482
 6214SOL     OW30100   1.866   3.451   4.680 -0.2965  0.1076  0.2443
 6214SOL    HW130101   1.842   3.488   4.595 -1.5081 -1.0826  0.0670
 6214SOL    HW230102   1.786   3.400   4.693  0.8031 -1.7202 -0.2461
 6215SOL     OW30103   1.655   2.722   2.625  0.3190  0.0898 -0.0221
 6215SOL    HW130104   1.640   2.628   2.639  1.4727 -0.6050 -3.4791
 6215SOL    HW230105   1.749   2.716   2.639  0.6902  1.4599 -2.0175
 6216SOL     OW30106   0.014   0.813   6.242  0.0274 -0.1559  0.1442
 6216SOL    HW130107   0.102   0.830   6.273 -0.1960 -0.9009  1.1972
 6216SOL    HW230108   4.699   0.798   6.329  1.1344  0.1203  0.6484
 6217SOL     OW30109   2.041   0.607  17.563  0.6076 -0.1668  0.1588
 6217SOL    HW130110   2.108   0.539  17.573 -0.2893 -1.2864 -1.3916
 6217SOL    HW230111   1.966   0.562  17.523 -1.1611  0.4518  2.7592
 6218SOL     OW30112   4.171   2.915   2.123  0.5911  0.1703 -0.3658
 6218SOL    HW130113   4.097   2.957   2.167 -0.0424 -0.3609 -0.9217
 6218SOL    HW230114   4.197   2.867   2.201  0.2383 -1.9527 -1.5509
 6219SOL     OW30115   1.677   1.462   2.153  0.2446  0.1017  0.4596
 6219SOL    HW130116   1.600   1.416   2.120  0.3043 -1.2068  2.0990
 6219SOL    HW230117   1.737   1.387   2.157  1.6847  1.2070 -0.4530
 6220SOL     OW30118   3.039   1.231   6.545 -0.3486  0.4606 -0.5720
 6220SOL    HW130119   2.950   1.255   6.518  0.0455  1.5187 -0.9257
 6220SOL    HW230120   3.020   1.157   6.602  0.1516  1.0797  0.4004
 6221SOL     OW30121   3.102   0.404   5.547  0.1199 -0.0449  0.2650
 6221SOL    HW130122   3.013   0.375   5.531 -0.1092 -0.3548  2.1065
 6221SOL    HW230123   3.121   0.350   5.623  0.3968 -0.6099 -0.2060
 6222SOL     OW30124   3.331   4.303  10.887  0.3710  0.2453  0.0554
 6222SOL    HW130125   3.323   4.333  10.796 -2.0959  3.3796  1.2944
 6222SOL    HW230126   3.410   4.249  10.898  1.7481  2.9251  2.9849
 6223SOL     OW30127   0.632   1.086   7.619  0.1672  0.1319  0.4616
 6223SOL    HW130128   0.645   0.999   7.659  1.8909  0.5044  0.7128
 6223SOL    HW230129   0.589   1.065   7.535 -1.6272  0.5388  1.2741
 6224SOL     OW30130   2.224   4.630   5.349  0.0384 -0.1708  0.0237
 6224SOL    HW130131   2.235   4.720   5.380 -0.8742 -0.8346  2.1941
 6224SOL    HW230132   2.157   4.597   5.408 -1.0046  0.2508 -0.9121
 6225SOL     OW30133   4.720   3.795   7.033 -0.5243 -0.0229  0.3744
 6225SOL    HW130134   4.665   3.717   7.023  0.0798 -0.3890 -0.0576
 6225SOL    HW230135   4.646   3.846   7.068 -0.7207 -0.0976  0.0695
 6226SOL     OW30136   1.057   2.569   3.800  0.1539 -0.1045  0.2981
 6226SOL    HW130137   1.061   2.558   3.705  0.4275  0.9467  0.1922
 6226SOL    HW230138   1.136   2.621   3.811  0.3898 -0.8317  2.2066
 6227SOL     OW30139   3.181   0.911   3.272 -0.3489  0.0053 -0.1481
 6227SOL    HW130140   3.126   0.905   3.194  1.2682  1.4160 -1.3845
 6227SOL    HW230141   3.140   0.977   3.329  0.9097  1.9605 -1.5276
 6228SOL     OW30142   2.331   3.657   9.039 -0.1674 -0.5837  0.7294
 6228SOL    HW130143   2.424   3.637   9.040 -0.0770 -0.1687  0.3569
 6228SOL    HW230144   2.327   3.746   9.075 -0.4916 -1.0281  1.8126
 6229SOL     OW30145   3.333   1.339  16.590 -0.1356 -0.0266 -0.7383
 6229SOL    HW130146   3.276   1.330  16.513  0.6264  1.0068 -1.4293
 6229SOL    HW230147   3.415   1.333  16.540  0.7865 -0.3446  0.8270
 6230SOL     OW30148   3.250   0.529   3.421 -0.0537  0.1433  0.1216
 6230SOL    HW130149   3.280   0.561   3.336 -0.6932  0.7821  0.1419
 6230SOL    HW230150   3.324   0.479   3.456 -0.5564  0.2674  1.3530
 6231SOL     OW30151   0.760   2.780  11.277 -0.2598 -0.1631  0.0969
 6231SOL    HW130152   0.734   2.792  11.369  0.0121  0.5711  0.0703
 6231SOL    HW230153   0.747   2.685  11.280 -0.8157 -0.0864  0.3077
 6232SOL     OW30154   2.009   3.693  17.346  0.4570 -0.2646 -0.0042
 6232SOL    HW130155   1.996   3.677  17.252  0.0095 -0.3316  0.0665
 6232SOL    HW230156   1.982   3.613  17.391  0.5893  0.3042  1.0956
 6233SOL     OW30157   1.081   0.258   5.381 -0.0134  0.2394  0.2168
 6233SOL    HW130158   1.112   0.168   5.391  0.3292  0.4411  1.0315
 6233SOL    HW230159   0.993   0.250   5.418 -0.5084 -0.6498 -1.1446
 6234SOL     OW30160   4.009   4.113   5.015  0.0575 -0.5219 -0.0839
 6234SOL    HW130161   4.063   4.170   4.961  1.8140 -1.3084  0.8519
 6234SOL    HW230162   3.967   4.056   4.952  3.0508 -1.7579 -0.9387
 6235SOL     OW30163   0.485   4.436   3.191  0.2712 -0.1593  0.6846
 6235SOL    HW130164   0.579   4.434   3.171  0.5600 -1.2739  2.1315
 6235SOL    HW230165   0.452   4.375   3.125 -0.4150 -1.7307  2.4910
 6236SOL     OW30166   2.847   0.702   7.616 -0.1259  0.0092  0.1834
 6236SOL    HW130167   2.780   0.643   7.582  0.6534 -0.6106 -0.2841
 6236SOL    HW230168   2.925   0.646   7.611  0.0893  0.3518 -0.2860
 6237SOL     OW30169   3.946   0.112  12.724  0.2333  0.7633 -0.4834
 6237SOL    HW130170   3.913   0.189  12.771  0.3245 -0.1278  1.0442
 6237SOL    HW230171   4.013   0.084  12.786 -0.0471  0.7507 -0.1860
 6238SOL     OW30172   1.329   1.598   2.003 -0.0791  0.1614  0.1562
 6238SOL    HW130173   1.322   1.590   1.908  1.2130 -1.7186  0.2152
 6238SOL    HW230174   1.389   1.673   2.006  2.3832 -1.8352  0.7777
 6239SOL     OW30175   3.868   4.142   3.866 -0.2362  0.3235  0.5903
 6239SOL    HW130176   3.953   4.174   3.835 -0.5682  0.6560  0.0167
 6239SOL    HW230177   3.894   4.061   3.910 -3.0947 -0.9577 -0.1071
 6240SOL     OW30178   1.742   1.381   0.997  0.0697 -0.3690 -0.2048
 6240SOL    HW130179   1.769   1.297   0.960  0.3383  0.3441 -1.6506
 6240SOL    HW230180   1.763   1.444   0.928  0.6174 -0.0565  0.2520
 6241SOL     OW30181   0.861   2.232   6.717 -0.2762 -0.0117 -0.1959
 6241SOL    HW130182   0.953   2.215   6.697 -0.6160 -2.7305  0.5826
 6241SOL    HW230183   0.811   2.191   6.646 -0.5602 -0.8492  0.4934
 6242SOL     OW30184   4.710   3.119   9.149 -0.0059 -0.7181  0.1908
 6242SOL    HW130185   4.621   3.095   9.120 -0.4873  1.5809 -0.2051
 6242SOL    HW230186   0.008   3.043   9.204  0.5485 -1.4882 -1.0605
 6243SOL     OW30187   1.675   4.030   5.298 -0.0588 -0.1215 -0.2623
 6243SOL    HW130188   1.676   4.116   5.255  3.1892  0.5701  1.2304
 6243SOL    HW230189   1.608   3.989   5.243  0.1217 -1.4138  0.4757
 6244SOL     OW30190   1.484   2.426  12.414  0.0671  0.0318  0.0509
 6244SOL    HW130191   1.519   2.349  12.368 -0.9854  0.0411 -0.7757
 6244SOL    HW230192   1.569   2.454  12.448  1.9424 -0.6014 -4.0204
 6245SOL     OW30193   1.092   1.992   2.304  0.6168 -0.2075 -0.2579
 6245SOL    HW130194   1.044   2.014   2.224 -0.7036  0.3096  0.6727
 6245SOL    HW230195   1.109   1.903   2.274  0.0381 -0.8871  1.3759
 6246SOL     OW30196   1.404   2.791   2.523 -0.3206 -0.1805 -0.3719
 6246SOL    HW130197   1.430   2.818   2.434  2.3837  1.6928  0.9746
 6246SOL    HW230198   1.488   2.768   2.563  0.4196  1.4179 -0.9813
 6247SOL     OW30199   1.043   1.966   4.871  0.4858  0.5097  0.3378
 6247SOL    HW130200   0.972   1.907   4.846  1.1718  0.4205 -1.3554
 6247SOL    HW230201   1.005   2.051   4.894 -1.4446  0.1524 -1.6269
 6248SOL     OW30202   4.266   2.727  14.329 -0.2770  0.1788 -0.3655
 6248SOL    HW130203   4.224   2.750  14.412 -0.5176 -1.2489 -0.0949
 6248SOL    HW230204   4.226   2.792  14.272  2.1831  0.4031 -1.8151
 6249SOL     OW30205   2.337   2.012  11.197 -0.6589 -0.5985  0.1013
 6249SOL    HW130206   2.409   2.017  11.134  0.2401  0.1645  1.1819
 6249SOL    HW230207   2.343   1.916  11.198 -1.0648 -0.6452 -3.0137
 6250SOL     OW30208   3.020   2.103  14.586  0.1637  0.7679  0.0705
 6250SOL    HW130209   3.098   2.158  14.576  0.0650  0.5966 -1.6141
 6250SOL    HW230210   2.994   2.086  14.496 -0.7972 -0.8098  0.6380
 6251SOL     OW30211   0.333   4.436   6.371 -0.0904 -0.5103 -0.1366
 6251SOL    HW130212   0.333   4.527   6.342 -1.7521 -0.4350  0.0853
 6251SOL    HW230213   0.287   4.385   6.305 -0.1932 -0.7286  0.1040
 6252SOL     OW30214   3.703   1.955  12.387 -0.0643  0.1630  0.4449
 6252SOL    HW130215   3.640   1.964  12.316  1.1981  0.8857 -0.5883
 6252SOL    HW230216   3.757   2.030  12.360 -1.5171  1.0888  0.1446
 6253SOL     OW30217   0.886   2.027   0.697  0.2785 -0.3032  0.1459
 6253SOL    HW130218   0.795   1.998   0.692  0.5912 -0.4487 -4.9644
 6253SOL    HW230219   0.923   1.944   0.726  1.6554 -0.1188 -1.1203
 6254SOL     OW30220   1.039   3.917   9.739  0.0739 -0.1407  0.7251
 6254SOL    HW130221   1.009   3.937   9.828  0.4348  0.2375  0.7646
 6254SOL    HW230222   0.966   3.862   9.712 -0.1219 -0.1220  1.2109
 6255SOL     OW30223   0.163   2.592   2.473 -0.0232  0.3730 -0.1290
 6255SOL    HW130224   0.191   2.509   2.433 -0.8642  1.3532 -2.7768
 6255SOL    HW230225   0.247   2.634   2.493 -0.8366  0.4737  3.0211
 6256SOL     OW30226   1.826   2.870  12.668 -0.6037  0.1181 -0.7884
 6256SOL    HW130227   1.817   2.874  12.573  2.3646  0.7251 -1.0698
 6256SOL    HW230228   1.750   2.814  12.685  0.3434 -1.1494 -0.7112
 6257SOL     OW30229   3.111   3.351   1.411  0.6936 -0.4327  0.0535
 6257SOL    HW130230   3.203   3.341   1.434  1.2456 -0.5183 -2.1752
 6257SOL    HW230231   3.062   3.375   1.490  1.7277  5.2803 -1.0541
 6258SOL     OW30232   0.419   0.271   6.467 -0.5548 -0.3260 -0.0437
 6258SOL    HW130233   0.369   0.277   6.386 -0.6543  1.3481  0.1377
 6258SOL    HW230234   0.348   0.290   6.528  1.2284 -0.6130  2.1238
 6259SOL     OW30235   0.946   2.567  12.779 -0.2923  0.2366 -0.1853
 6259SOL    HW130236   0.880   2.510  12.819 -0.6909  2.3525  2.1967
 6259SOL    HW230237   1.003   2.585  12.854 -0.1859  0.2698 -0.2756
 6260SOL     OW30238   1.942   1.037   3.752  0.2103 -0.2327 -0.0004
 6260SOL    HW130239   1.887   1.104   3.793  0.4502 -0.9071  1.4457
 6260SOL    HW230240   1.915   1.039   3.661  1.1289  0.5664 -0.2615
 6261SOL     OW30241   3.091   1.311   1.878  0.0723  0.0748 -0.0969
 6261SOL    HW130242   3.170   1.326   1.826  0.3557  2.5546  1.0571
 6261SOL    HW230243   3.120   1.241   1.936  2.4608 -0.2732 -1.6982
 6262SOL     OW30244   0.432   1.767   5.958  0.1623  0.1978 -0.0444
 6262SOL    HW130245   0.411   1.696   5.897  1.5375  1.0608 -1.5053
 6262SOL    HW230246   0.464   1.840   5.905 -0.0209  2.2009  2.6096
 6263SOL     OW30247   1.337   4.416   6.608  0.2731 -0.3404 -0.2817
 6263SOL    HW130248   1.395   4.484   6.642  0.5493 -1.8954  2.3069
 6263SOL    HW230249   1.322   4.364   6.687  0.4651 -0.7612 -0.5200
 6264SOL     OW30250   3.721   4.625   3.259 -0.1559 -0.3763 -0.1412
 6264SOL    HW130251   3.641   4.653   3.304  0.5669  2.9051 -0.9344
 6264SOL    HW230252   3.745   4.551   3.314  1.8418  0.5984  0.3060
 6265SOL     OW30253   3.911   1.921   6.531  0.1136  0.0316  0.1960
 6265SOL    HW130254   3.926   1.951   6.442 -0.5656 -2.4259 -0.7423
 6265SOL    HW230255   3.822   1.953   6.549 -0.4696 -0.8446 -1.1626
 6266SOL     OW30256   3.701   3.617  10.681 -0.1605 -0.4455  0.3286
 6266SOL    HW130257   3.788   3.606  10.641 -0.8993  0.2409 -1.4751
 6266SOL    HW230258   3.703   3.706  10.716 -0.5993 -0.3067  0.0008
 6267SOL     OW30259   0.844   1.649  10.200 -0.2441  0.2762  0.6740
 6267SOL    HW130260   0.750   1.640  10.216 -0.3231  0.7706  0.4956
 6267SOL    HW230261   0.878   1.586  10.263  2.0346 -1.0630 -1.8954
 6268SOL     OW30262   0.394   1.351   8.805  0.0241  0.1446 -0.0860
 6268SOL    HW130263   0.429   1.364   8.717  0.3156  1.7403  0.2583
 6268SOL    HW230264   0.458   1.289   8.839  1.2368  1.3721 -0.1282
 6269SOL     OW30265   2.979   0.831   2.527 -0.1221 -0.0189  0.4666
 6269SOL    HW130266   2.977   0.742   2.492 -1.6853  0.2507 -0.1337
 6269SOL    HW230267   3.010   0.811   2.615 -2.0332  0.6014  1.2741
 6270SOL     OW30268   4.023   0.048   6.294 -0.0853 -0.1460 -0.1820
 6270SOL    HW130269   3.982   0.128   6.261  0.2045  0.4499  0.9129
 6270SOL    HW230270   3.980   4.696   6.251 -0.4484 -0.9862  1.6043
 6271SOL     OW30271   0.755   0.921   2.174  0.6323 -0.4369  0.1269
 6271SOL    HW130272   0.775   1.015   2.181 -2.0517  0.0820  0.9261
 6271SOL    HW230273   0.797   0.894   2.093  2.7664  3.5947 -0.1115
 6272SOL     OW30274   1.978   0.395   6.998  0.0931 -0.0856 -0.1960
 6272SOL    HW130275   2.060   0.406   7.047  0.3045 -0.4405 -0.4693
 6272SOL    HW230276   1.920   0.382   7.073 -1.9365  1.3020 -1.5198
 6273SOL     OW30277   0.193   2.409   3.276  0.0870 -0.0651  0.4126
 6273SOL    HW130278   0.122   2.361   3.317  0.0735 -2.3332 -2.2548
 6273SOL    HW230279   0.240   2.344   3.225  1.0681 -0.1460  1.4213
 6274SOL     OW30280   4.168   4.713   6.535 -0.1061 -0.0290 -0.0016
 6274SOL    HW130281   4.125   0.037   6.462 -1.5115 -1.2118  0.1085
 6274SOL    HW230282   4.258   4.710   6.502 -0.0133  2.0288  0.0603
 6275SOL     OW30283   3.821   2.003  12.040  0.2351 -0.0154 -0.4845
 6275SOL    HW130284   3.748   2.058  12.012  0.8001  1.0108  0.0819
 6275SOL    HW230285   3.860   2.075  12.090  2.4675  0.1883 -2.5808
 6276SOL     OW30286   2.290   3.256  16.723 -0.1701 -0.1843 -0.1015
 6276SOL    HW130287   2.304   3.234  16.815  1.5871 -1.0729 -0.5765
 6276SOL    HW230288   2.243   3.176  16.699  0.9849 -1.1753  0.8889
 6277SOL     OW30289   1.329   3.343   4.983  0.0597  0.0266  0.1799
 6277SOL    HW130290   1.331   3.292   4.902  0.2517  0.3925 -0.0431
 6277SOL    HW230291   1.419   3.334   5.013  0.2389  1.3813  0.0434
 6278SOL     OW30292   3.437   2.491  12.801  0.0614  0.0625  0.4377
 6278SOL    HW130293   3.450   2.582  12.776 -1.7621 -0.4564 -2.4437
 6278SOL    HW230294   3.472   2.446  12.724  1.3281 -0.9202  1.5819
 6279SOL     OW30295   1.956   4.532   8.121 -0.5431 -0.1830 -0.3006
 6279SOL    HW130296   1.979   4.584   8.197  1.6020 -0.4913 -0.7283
 6279SOL    HW230297   2.040   4.485   8.114 -1.2568 -1.4828 -0.2441
 6280SOL     OW30298   4.647   1.750   3.141  0.2097  0.0801 -0.6365
 6280SOL    HW130299   4.650   1.762   3.046  0.5982  0.4299 -0.5812
 6280SOL    HW230300   4.660   1.656   3.145  2.0696  0.3384 -0.6130
 6281SOL     OW30301   0.344   3.030   2.125 -0.0790  0.6965 -0.6113
 6281SOL    HW130302   0.294   2.997   2.050  0.7449 -0.5875 -0.5952
 6281SOL    HW230303   0.324   2.969   2.196  1.8705  1.6940  0.7976
 6282SOL     OW30304   4.226   2.209   0.399 -0.6507  0.5072 -0.6983
 6282SOL    HW130305   4.283   2.171   0.332  0.5086 -0.5686  0.8674
 6282SOL    HW230306   4.200   2.295   0.366  0.1645  0.6209 -1.0513
 6283SOL     OW30307   0.747   1.715   4.940  0.2249  0.1594 -0.3823
 6283SOL    HW130308   0.784   1.701   4.852 -1.9040 -2.9038 -0.7836
 6283SOL    HW230309   0.807   1.659   4.988  1.6651  2.0861  0.0736
 6284SOL     OW30310   0.800   1.452   1.723  0.1492 -0.0797  0.2808
 6284SOL    HW130311   0.786   1.508   1.799  2.4751 -2.3086  2.3198
 6284SOL    HW230312   0.710   1.424   1.706 -1.0686  3.9864 -0.0055
 6285SOL     OW30313   1.469   0.783   9.505 -0.4973  0.0762  0.0006
 6285SOL    HW130314   1.559   0.805   9.479 -0.5096  1.2537  0.9535
 6285SOL    HW230315   1.479   0.710   9.566  0.3090  0.2938  0.1351
 6286SOL     OW30316   3.686   2.678  13.037  0.3130 -0.1137  0.7773
 6286SOL    HW130317   3.668   2.766  13.003  0.4678 -0.0828  0.7780
 6286SOL    HW230318   3.682   2.631  12.954  2.0968  1.7454 -0.3607
 6287SOL     OW30319   1.514   0.638   7.888  0.8907  0.2010  0.4417
 6287SOL    HW130320   1.584   0.675   7.943  1.3290 -1.5393  1.0637
 6287SOL    HW230321   1.463   0.713   7.858 -0.4232 -1.0756 -0.5304
 6288SOL     OW30322   1.050   2.408   9.880  0.4695  0.3959 -0.3264
 6288SOL    HW130323   1.017   2.482   9.930  0.6617 -0.1600  0.6166
 6288SOL    HW230324   1.144   2.425   9.891  0.3254  0.8123  0.2933
 6289SOL     OW30325   3.809   0.390   4.276  0.4076  0.0582 -0.3203
 6289SOL    HW130326   3.745   0.397   4.347 -1.3163 -1.4179 -1.7453
 6289SOL    HW230327   3.830   0.476   4.240  1.4792 -0.1979 -0.3337
 6290SOL     OW30328   0.116   2.688  11.783 -1.1079 -0.2825 -0.1501
 6290SOL    HW130329   0.204   2.711  11.813 -0.1981 -4.5138  0.4820
 6290SOL    HW230330   0.080   2.639  11.857  0.5964 -2.4645 -0.7755
 6291SOL     OW30331   4.284   2.329  15.637  0.0627  0.8171  0.1138
 6291SOL    HW130332   4.301   2.275  15.714  2.2321  1.1193 -0.1259
 6291SOL    HW230333   4.295   2.258  15.573  1.8014  0.7094  0.5129
 6292SOL     OW30334   4.348   1.219  13.846  0.1926  0.1742  0.0030
 6292SOL    HW130335   4.332   1.163  13.922  0.5774  0.9751  0.6691
 6292SOL    HW230336   4.321   1.306  13.876  0.1008  0.1964 -0.1408
 6293SOL     OW30337   1.788   2.301   7.693  0.0422  0.1198 -0.1070
 6293SOL    HW130338   1.749   2.248   7.762  0.4169  0.1866  0.1549
 6293SOL    HW230339   1.842   2.348   7.757 -0.4557 -0.2812  0.5933
 6294SOL     OW30340   3.967   3.287   5.037  0.2836  0.1815  0.3144
 6294SOL    HW130341   3.999   3.200   5.016 -1.7003 -0.5765  0.4717
 6294SOL    HW230342   4.053   3.330   5.046 -0.3230  1.2591  0.9053
 6295SOL     OW30343   1.068   4.195  17.684 -0.1775 -0.0416 -0.3695
 6295SOL    HW130344   1.139   4.132   0.015 -1.7782 -1.4360  1.0004
 6295SOL    HW230345   1.040   4.212   0.087 -3.0992 -1.7320 -0.9771
 6296SOL     OW30346   1.993   0.386   7.688  0.3749  0.1514  0.0630
 6296SOL    HW130347   2.069   0.330   7.706 -0.2563 -0.9303 -0.6050
 6296SOL    HW230348   1.962   0.345   7.607 -0.2677  2.1675 -0.6998
 6297SOL     OW30349   3.192   3.240   2.246  0.2800 -0.2623  0.1357
 6297SOL    HW130350   3.189   3.144   2.239 -1.7674 -0.1967  0.0825
 6297SOL    HW230351   3.106   3.257   2.206  0.2486 -1.1281 -0.1731
 6298SOL     OW30352   2.323   1.467   7.752 -0.0795 -0.3486  0.2397
 6298SOL    HW130353   2.298   1.411   7.826  0.1134 -0.0820  0.5073
 6298SOL    HW230354   2.405   1.508   7.780 -1.0666 -0.0599  2.6990
 6299SOL     OW30355   0.074   4.011   7.737  0.5319 -0.5284  0.1935
 6299SOL    HW130356   0.147   3.972   7.689  1.3702  0.8176  0.3773
 6299SOL    HW230357   0.111   4.032   7.823  1.9677 -1.4306 -0.1870
 6300SOL     OW30358   3.962   3.948  11.193  0.0525  1.1831  0.2010
 6300SOL    HW130359   4.046   3.908  11.218  1.4743  4.2305  0.3417
 6300SOL    HW230360   3.993   4.022  11.141 -0.2931  0.0920 -1.5373
 6301SOL     OW30361   1.291   3.147   3.920  0.3334  0.8408 -0.1750
 6301SOL    HW130362   1.197   3.159   3.933 -0.0390 -0.6726 -1.4872
 6301SOL    HW230363   1.309   3.221   3.863  3.0211  0.0160 -0.3681
 6302SOL     OW30364   0.972   1.895   6.502 -0.0018  0.0065  0.4917
 6302SOL    HW130365   0.935   1.980   6.482  3.0382  1.0151 -0.8115
 6302SOL    HW230366   0.988   1.909   6.596 -2.0920 -0.4938  0.9323
 6303SOL     OW30367   2.907   0.667  11.132  0.3475 -0.5004 -0.3703
 6303SOL    HW130368   2.823   0.691  11.173  0.9315  0.3068  0.3505
 6303SOL    HW230369   2.926   0.588  11.181  1.0420  1.4507  2.4989
 6304SOL     OW30370   0.613   4.027  16.036  0.1386  0.2897 -0.4207
 6304SOL    HW130371   0.630   4.112  16.076  0.9334 -0.6906  1.3460
 6304SOL    HW230372   0.701   3.992  16.027 -0.1582 -0.9139  1.3550
 6305SOL     OW30373   4.668   2.698  13.413  0.4189  0.0052  0.4102
 6305SOL    HW130374   4.713   2.690  13.498 -0.9785 -1.6655  0.9718
 6305SOL    HW230375   4.711   2.774  13.373 -2.3115  0.8488 -0.9031
 6306SOL     OW30376   4.708   4.323   5.826  0.5455 -0.3667  0.5828
 6306SOL    HW130377   0.058   4.371   5.867 -1.2125  0.5422  2.5609
 6306SOL    HW230378   4.633   4.371   5.860  1.0654  0.0458  1.1534
 6307SOL     OW30379   4.050   0.831  13.492  0.0183 -0.0392  0.2854
 6307SOL    HW130380   3.955   0.820  13.501  0.1568 -1.3532  0.1279
 6307SOL    HW230381   4.065   0.754  13.437  0.4258 -0.3458  0.8274
 6308SOL     OW30382   4.440   0.129   3.306 -0.1221  0.0816 -0.0090
 6308SOL    HW130383   4.469   0.113   3.396 -0.9853  0.6109  0.3667
 6308SOL    HW230384   4.516   0.177   3.274 -0.3587 -0.6325 -1.6474
 6309SOL     OW30385   1.379   0.324   0.611 -0.0928  0.9347 -0.0728
 6309SOL    HW130386   1.339   0.263   0.549 -1.2333  1.3039  0.2949
 6309SOL    HW230387   1.304   0.357   0.661 -0.4729 -1.2992  0.8285
 6310SOL     OW30388   2.067   3.523   9.515 -0.3174 -0.0334 -0.3304
 6310SOL    HW130389   2.077   3.561   9.428  1.0411 -0.0677 -0.1793
 6310SOL    HW230390   2.133   3.580   9.554 -1.0717  0.4021  0.3067
 6311SOL     OW30391   1.419   0.322   4.045 -0.1923  0.2470 -0.1131
 6311SOL    HW130392   1.325   0.335   4.029  0.5213  1.6506 -3.1127
 6311SOL    HW230393   1.434   0.342   4.138 -1.6275 -0.4101  0.2547
 6312SOL     OW30394   1.884   4.227   7.198  0.2614  0.1981 -0.6373
 6312SOL    HW130395   1.825   4.152   7.193 -0.5887  0.9653 -2.0810
 6312SOL    HW230396   1.855   4.270   7.278  2.1049 -0.4030  0.3526
 6313SOL     OW30397   3.058   0.293   5.111 -0.4569  0.3623  0.6647
 6313SOL    HW130398   3.008   0.373   5.130 -1.1792  0.6029 -2.1903
 6313SOL    HW230399   3.001   0.245   5.051  0.7738  1.0555 -1.0723
 6314SOL     OW30400   1.348   1.663  15.225 -0.3546 -0.3939  0.3449
 6314SOL    HW130401   1.440   1.687  15.239  0.2796 -0.7400 -3.2929
 6314SOL    HW230402   1.305   1.741  15.260 -0.2396  0.4539 -1.4191
 6315SOL     OW30403   2.133   3.282  14.597  0.2972  0.3434 -0.0564
 6315SOL    HW130404   2.094   3.330  14.670 -0.8837  1.9238 -1.7444
 6315SOL    HW230405   2.139   3.190  14.623  1.0051  0.1610 -0.8690
 6316SOL     OW30406   0.388   0.013  13.165 -0.4276 -0.0719  0.4190
 6316SOL    HW130407   0.464   0.050  13.210 -0.3498 -2.0117  1.8790
 6316SOL    HW230408   0.417   0.025  13.075  2.3883 -2.0043  1.0727
 6317SOL     OW30409   0.618   3.850   8.002 -0.6173 -0.2988  0.1317
 6317SOL    HW130410   0.693   3.836   7.944 -0.8111 -0.7556 -0.0063
 6317SOL    HW230411   0.628   3.772   8.056 -2.2537 -0.7788 -0.2428
 6318SOL     OW30412   4.183   1.718   7.795  0.6774 -0.4255  0.3359
 6318SOL    HW130413   4.099   1.692   7.756  1.1932 -0.9526 -0.4216
 6318SOL    HW230414   4.234   1.672   7.728 -0.9555  0.0002 -1.1866
 6319SOL     OW30415   0.403   3.915   2.811 -0.0629 -0.4785 -0.0552
 6319SOL    HW130416   0.371   3.900   2.723 -1.6584 -0.4926  0.5303
 6319SOL    HW230417   0.480   3.857   2.807  0.4509  0.2098 -0.0915
 6320SOL     OW30418   4.162   1.867   9.949  0.3830  0.0020 -0.3338
 6320SOL    HW130419   4.192   1.788   9.904 -0.9492 -0.1173 -1.0033
 6320SOL    HW230420   4.246   1.911   9.966 -0.3821  1.6184 -0.7236
 6321SOL     OW30421   3.732   2.430   8.496  0.5426  0.1894 -0.0964
 6321SOL    HW130422   3.678   2.363   8.538  0.9332 -0.9436 -1.3663
 6321SOL    HW230423   3.723   2.419   8.401  1.4444 -0.4072 -0.1072
 6322SOL     OW30424   1.070   1.716   3.587 -0.2182  0.3258  0.2060
 6322SOL    HW130425   1.020   1.683   3.661 -0.5750  2.7205  1.0049
 6322SOL    HW230426   1.116   1.790   3.627  0.3849 -0.1891  0.4674
 6323SOL     OW30427   4.322   1.743   5.902  0.2249  0.3296 -0.1820
 6323SOL    HW130428   4.403   1.789   5.880 -0.8250  1.7303 -1.0878
 6323SOL    HW230429   4.321   1.758   5.997  2.0061  0.0497 -0.1291
 6324SOL     OW30430   2.866   1.771   3.784 -0.0233  0.5132  0.3511
 6324SOL    HW130431   2.958   1.798   3.773  0.1636 -1.4623 -2.7682
 6324SOL    HW230432   2.880   1.687   3.740 -0.4404  0.9585 -0.6308
 6325SOL     OW30433   2.883   0.496   8.458  0.2345  0.2039  0.2450
 6325SOL    HW130434   2.824   0.567   8.432 -0.7047 -0.6379  0.0827
 6325SOL    HW230435   2.933   0.495   8.377  1.0890 -2.1487  0.8249
 6326SOL     OW30436   3.255   4.431  14.538  0.4033  0.2551  0.2467
 6326SOL    HW130437   3.168   4.422  14.576  0.9793  1.8183  1.9257
 6326SOL    HW230438   3.305   4.401  14.615  0.6293  1.4086  0.5462
 6327SOL     OW30439   0.797   2.329  12.039 -0.2856  0.0659  0.2631
 6327SOL    HW130440   0.813   2.275  12.116 -2.1231  0.2079  0.7450
 6327SOL    HW230441   0.888   2.350  12.018  0.1381 -0.2822  1.7365
 6328SOL     OW30442   3.265   3.139   8.807 -0.5714 -0.5403  1.0256
 6328SOL    HW130443   3.288   3.232   8.806  1.0550 -0.9240  2.4314
 6328SOL    HW230444   3.235   3.130   8.897 -3.1409 -2.5537 -0.0530
 6329SOL     OW30445   1.756   2.144  10.899  0.0319  0.2714  0.0778
 6329SOL    HW130446   1.714   2.069  10.940  0.6883  0.4627  1.0936
 6329SOL    HW230447   1.712   2.216  10.944  0.6180  0.8209 -0.2235
 6330SOL     OW30448   2.898   2.389   1.917  0.1202  0.6540  0.6200
 6330SOL    HW130449   2.975   2.391   1.975 -0.4104  2.9431  1.2516
 6330SOL    HW230450   2.921   2.459   1.857 -0.6619  0.1128 -0.3049
 6331SOL     OW30451   1.108   2.154   4.392 -0.1143  0.5648 -0.1025
 6331SOL    HW130452   1.033   2.201   4.355 -0.0490  0.1111 -0.8126
 6331SOL    HW230453   1.077   2.125   4.477 -3.4913 -0.6675 -1.7625
 6332SOL     OW30454   2.889   4.465   8.279  0.0898  0.5625 -0.2798
 6332SOL    HW130455   2.860   4.533   8.218  1.3502  1.4608  0.1400
 6332SOL    HW230456   2.846   4.497   8.358  0.3601  1.5019 -0.5149
 6333SOL     OW30457   0.696   3.146   7.336  0.9896 -0.1589 -0.3527
 6333SOL    HW130458   0.668   3.079   7.274  0.2758 -0.2825  0.0951
 6333SOL    HW230459   0.707   3.217   7.274 -0.0486  0.1792 -0.1414
 6334SOL     OW30460   0.544   0.542   5.887  0.7731 -0.2331  0.1009
 6334SOL    HW130461   0.470   0.586   5.846  0.5523  1.1733  1.9920
 6334SOL    HW230462   0.517   0.545   5.979  0.8763 -0.6521  0.1450
 6335SOL     OW30463   3.922   0.556   2.694 -0.1410 -0.5274 -0.4942
 6335SOL    HW130464   3.906   0.645   2.725  1.5496 -0.6322  0.6610
 6335SOL    HW230465   3.943   0.572   2.602 -2.2996  3.1356 -0.3512
 6336SOL     OW30466   4.346   1.934   7.784  0.0738 -0.3134 -0.3391
 6336SOL    HW130467   4.340   1.967   7.874 -1.4259 -1.5684  0.0251
 6336SOL    HW230468   4.283   1.862   7.790  2.2413 -2.3018 -1.1223
 6337SOL     OW30469   3.590   2.973   6.042 -0.1206 -0.3305 -0.2952
 6337SOL    HW130470   3.511   2.921   6.054 -1.4196  1.7381 -0.0195
 6337SOL    HW230471   3.630   2.959   6.128 -0.5261 -0.3687 -0.1121
 6338SOL     OW30472   3.091   3.807   6.911 -0.4281  0.1289 -0.1342
 6338SOL    HW130473   3.023   3.740   6.915  0.0793 -0.2781  1.7685
 6338SOL    HW230474   3.154   3.768   6.850 -0.6409  0.1588 -0.3693
 6339SOL     OW30475   1.183   4.568   6.313  0.1059  0.1800  0.0509
 6339SOL    HW130476   1.178   4.570   6.408 -1.7939 -0.5039 -0.0262
 6339SOL    HW230477   1.244   4.496   6.298  0.7715  0.8082 -0.2945
 6340SOL     OW30478   1.253   4.322  11.417  0.1605 -0.4133  0.3548
 6340SOL    HW130479   1.241   4.271  11.497 -0.5252  0.7299  0.9907
 6340SOL    HW230480   1.345   4.347  11.427  0.4908 -0.9793 -1.2862
 6341SOL     OW30481   3.928   1.640   6.662  0.8415  0.4299 -0.3478
 6341SOL    HW130482   3.895   1.725   6.633 -1.3262  0.0176  0.8811
 6341SOL    HW230483   4.018   1.660   6.686  0.8050  1.7168 -1.2990
 6342SOL     OW30484   1.726   2.216   5.815  0.4896  0.1662  0.0517
 6342SOL    HW130485   1.652   2.275   5.828  1.2839  1.2594 -0.3976
 6342SOL    HW230486   1.704   2.180   5.729 -2.0339  1.9671 -0.0601
 6343SOL     OW30487   2.653   3.621   4.220  0.6899 -0.0575  0.0114
 6343SOL    HW130488   2.575   3.604   4.274 -0.2287  4.1260 -0.0641
 6343SOL    HW230489   2.645   3.714   4.200 -3.0160 -0.0901  1.3252
 6344SOL     OW30490   3.514   3.302   2.833 -0.2137  0.6911 -0.0482
 6344SOL    HW130491   3.608   3.288   2.849 -0.4803 -1.2682 -0.2710
 6344SOL    HW230492   3.490   3.359   2.907  1.4573 -0.0243  1.0447
 6345SOL     OW30493   0.985   4.480   5.891  0.5712  0.3195  0.5256
 6345SOL    HW130494   0.962   4.388   5.880  0.2844  0.3688  0.7313
 6345SOL    HW230495   0.943   4.502   5.974  0.4523  2.2088 -0.0305
 6346SOL     OW30496   0.763   1.682   8.109 -0.2299  0.5507 -0.1392
 6346SOL    HW130497   0.815   1.663   8.187 -0.7405 -1.2363 -0.2213
 6346SOL    HW230498   0.686   1.626   8.117  0.0224  0.2397  0.1483
 6347SOL     OW30499   3.707   4.502   7.421 -0.3589 -0.3070 -0.2416
 6347SOL    HW130500   3.667   4.536   7.501  0.5646  3.0000 -1.1720
 6347SOL    HW230501   3.656   4.551   7.356  3.2621  1.4829 -1.7485
 6348SOL     OW30502   3.380   0.798  17.176  0.0508  0.4067  1.0512
 6348SOL    HW130503   3.429   0.879  17.192 -0.0052  0.9645 -1.5552
 6348SOL    HW230504   3.332   0.815  17.095 -2.4461 -1.1727  2.2383
 6349SOL     OW30505   3.129   0.374  10.971  0.5206 -0.2662 -0.8960
 6349SOL    HW130506   3.092   0.385  10.883 -1.2799 -1.1050 -0.2322
 6349SOL    HW230507   3.209   0.425  10.958 -0.1217  1.3171  1.4309
 6350SOL     OW30508   3.631   2.067   8.389 -0.3845  0.0150 -0.1432
 6350SOL    HW130509   3.617   1.984   8.435 -3.1809  1.2178  1.1900
 6350SOL    HW230510   3.544   2.098   8.365 -0.5044 -0.0137  0.2568
 6351SOL     OW30511   1.453   1.463   1.146  0.2264  0.3858  0.3883
 6351SOL    HW130512   1.539   1.497   1.171 -0.3747  0.3599  2.4977
 6351SOL    HW230513   1.429   1.418   1.227 -2.9803 -0.3499 -0.9629
 6352SOL     OW30514   4.525   3.371   1.268  0.0218 -0.1293 -0.4108
 6352SOL    HW130515   4.468   3.442   1.299 -0.2076 -0.6150  0.2862
 6352SOL    HW230516   4.459   3.309   1.235  2.3547 -1.4687 -2.5676
 6353SOL     OW30517   1.586   4.663  13.931 -0.1504  0.8565  0.3334
 6353SOL    HW130518   1.568   4.663  13.837  0.0177 -1.6345  0.3008
 6353SOL    HW230519   1.665   4.610  13.929 -0.9212 -0.2398 -1.3080
 6354SOL     OW30520   1.748   1.895   7.526 -0.1509  0.4248  0.2264
 6354SOL    HW130521   1.794   1.829   7.579  1.3025  1.7085  0.5660
 6354SOL    HW230522   1.657   1.886   7.551  0.0431  0.1618  0.8441
 6355SOL     OW30523   2.609   3.835   0.417  0.4318  0.0605  0.2051
 6355SOL    HW130524   2.516   3.831   0.397  0.8613  0.4214 -1.8557
 6355SOL    HW230525   2.631   3.913   0.366  0.6407  0.5080  0.9849
 6356SOL     OW30526   4.394   3.873   3.294 -0.2687  0.1301  0.2915
 6356SOL    HW130527   4.448   3.800   3.325 -0.3143  0.2555  0.6642
 6356SOL    HW230528   4.449   3.943   3.328 -0.4473  1.4263 -2.0667
 6357SOL     OW30529   2.777   2.126   7.444  0.0546  0.4454  0.1713
 6357SOL    HW130530   2.708   2.182   7.477 -1.9696 -1.7083 -0.3765
 6357SOL    HW230531   2.744   2.110   7.355  0.2395  1.2105 -0.0302
 6358SOL     OW30532   2.767   3.179   9.634 -0.7303  0.2728  0.3822
 6358SOL    HW130533   2.765   3.248   9.701 -3.9570  1.0969 -0.5601
 6358SOL    HW230534   2.751   3.095   9.677  0.5349 -0.1835 -0.0342
 6359SOL     OW30535   2.565   4.713  17.517 -0.5222  0.1923 -0.2379
 6359SOL    HW130536   2.632   0.056  17.491  0.7159 -0.2517  1.8595
 6359SOL    HW230537   2.573   4.644  17.451 -1.2994 -0.5887  0.4957
 6360SOL     OW30538   3.003   2.450  13.527  0.2279  0.6257  0.4227
 6360SOL    HW130539   3.070   2.385  13.504 -1.1694 -1.1457  1.4010
 6360SOL    HW230540   3.043   2.533  13.499 -2.3638  1.9446  0.6176
 6361SOL     OW30541   4.183   1.162   5.424 -0.0866  0.1196 -0.7709
 6361SOL    HW130542   4.148   1.152   5.336 -0.0057  0.6750 -0.8641
 6361SOL    HW230543   4.112   1.152   5.487  0.5186 -2.5453 -0.4700
 6362SOL     OW30544   1.133   3.087   3.255 -0.3016 -0.2888 -0.3513
 6362SOL    HW130545   1.060   3.029   3.275 -0.0007 -1.3481 -2.3625
 6362SOL    HW230546   1.116   3.112   3.165 -2.9895 -0.2786  0.1707
 6363SOL     OW30547   2.369   2.359   9.947 -0.3826  0.5451  0.3007
 6363SOL    HW130548   2.325   2.308   9.879 -0.3908  1.9476 -0.7277
 6363SOL    HW230549   2.350   2.307  10.025  0.5513 -0.4919 -0.1694
 6364SOL     OW30550   1.702   1.167  15.637  0.1741  0.1266 -1.3731
 6364SOL    HW130551   1.743   1.249  15.610 -0.0458  0.6419 -0.1729
 6364SOL    HW230552   1.651   1.140  15.561 -2.7777 -0.3374  0.7551
 6365SOL     OW30553   4.257   2.002   3.182 -0.2621  0.1423 -0.1035
 6365SOL    HW130554   4.234   2.078   3.235  1.5599  0.6823 -0.0786
 6365SOL    HW230555   4.347   2.025   3.156  0.7778 -1.1009  2.3589
 6366SOL     OW30556   2.607   0.444   2.961  0.3106  0.9361  0.9758
 6366SOL    HW130557   2.551   0.416   3.034 -1.1085  0.8584 -0.1437
 6366SOL    HW230558   2.545   0.477   2.896  1.0447  1.1646  0.4016
 6367SOL     OW30559   1.255   3.985   6.597  0.5948  0.5381 -0.0104
 6367SOL    HW130560   1.313   4.060   6.582 -1.4194  1.6188 -2.2750
 6367SOL    HW230561   1.308   3.926   6.650  1.6888  1.4677 -0.0460
 6368SOL     OW30562   0.091   0.493   7.963 -0.0892  0.1461  0.6612
 6368SOL    HW130563   0.087   0.403   7.996 -3.0943 -0.2055 -0.6251
 6368SOL    HW230564   0.085   0.486   7.868 -1.7325  3.4140  0.5188
 6369SOL     OW30565   1.650   3.698   3.247  0.4180 -0.2692 -0.4595
 6369SOL    HW130566   1.736   3.662   3.272  0.9935  0.6853 -1.0508
 6369SOL    HW230567   1.651   3.669   3.156  0.0045  0.8034 -0.8030
 6370SOL     OW30568   4.359   3.466   9.940 -0.3372 -0.2094 -0.0165
 6370SOL    HW130569   4.316   3.548   9.966  2.0759  1.0336  0.1503
 6370SOL    HW230570   4.306   3.392   9.966 -1.2343 -0.6842 -3.1829
 6371SOL     OW30571   4.503   2.383   7.091  1.4740 -0.6319  0.1712
 6371SOL    HW130572   4.535   2.300   7.125  1.8855  0.3221  2.0870
 6371SOL    HW230573   4.472   2.430   7.168 -1.1939 -0.1115 -1.2109
 6372SOL     OW30574   2.758   0.936   4.314 -0.2964 -0.0263  0.5130
 6372SOL    HW130575   2.724   1.004   4.373 -2.9997 -0.8395 -0.0767
 6372SOL    HW230576   2.844   0.974   4.299 -0.9773  1.2310 -0.2540
 6373SOL     OW30577   0.105   4.232  10.427 -0.1643  0.1326  0.7731
 6373SOL    HW130578   0.168   4.274  10.369 -0.4771 -0.7072 -0.1891
 6373SOL    HW230579   0.082   4.305  10.484  1.2056  0.3491  1.0381
 6374SOL     OW30580   3.407   2.008   7.695 -0.3563 -0.0035 -0.2358
 6374SOL    HW130581   3.428   1.922   7.731  0.0106  0.4782  0.6756
 6374SOL    HW230582   3.487   2.055   7.720 -1.7223  1.2298  1.7795
 6375SOL     OW30583   3.628   3.537   5.505  0.0634 -0.0844 -0.2752
 6375SOL    HW130584   3.653   3.537   5.598 -0.5248  0.9035 -0.1150
 6375SOL    HW230585   3.626   3.444   5.485 -0.7561  0.2585 -1.7751
 6376SOL     OW30586   1.088   4.684   1.801  0.0473  0.2857 -0.4656
 6376SOL    HW130587   1.048   4.712   1.719  0.6201  3.2821  0.2985
 6376SOL    HW230588   1.096   4.589   1.790 -3.2359  0.0662 -1.1018
 6377SOL     OW30589   2.560   2.980   2.085 -0.1588  0.3243 -0.1251
 6377SOL    HW130590   2.641   2.993   2.135  0.9903  1.3141 -2.2811
 6377SOL    HW230591   2.508   3.059   2.101  0.1897  0.3709  0.8219
 6378SOL     OW30592   2.314   1.276   7.043 -0.3278 -0.5609  0.0228
 6378SOL    HW130593   2.330   1.319   6.959  1.8332  0.0741  0.7655
 6378SOL    HW230594   2.322   1.353   7.100 -1.2406  0.2912 -1.0058
 6379SOL     OW30595   4.248   0.430  15.818  0.3299  0.5654 -0.9476
 6379SOL    HW130596   4.284   0.502  15.870  0.6216  1.9042 -3.0031
 6379SOL    HW230597   4.171   0.479  15.789 -0.2078 -1.5745 -3.1190
 6380SOL     OW30598   0.504   4.335   3.980 -0.2718  0.2737  0.2496
 6380SOL    HW130599   0.485   4.245   4.005  0.6250 -0.2204 -0.8945
 6380SOL    HW230600   0.446   4.385   4.038 -0.8668 -1.1624  0.8814
 6381SOL     OW30601   3.285   1.904   8.822  0.1608  0.2578 -0.0708
 6381SOL    HW130602   3.307   1.830   8.766  0.5691  1.7048 -1.8597
 6381SOL    HW230603   3.295   1.858   8.905 -1.2050  0.2018  0.0588
 6382SOL     OW30604   1.272   2.660  13.647 -0.2592 -0.0187 -0.0060
 6382SOL    HW130605   1.284   2.613  13.729 -0.4169 -0.0137  0.0204
 6382SOL    HW230606   1.264   2.750  13.679  1.5082 -0.4742  1.6999
 6383SOL     OW30607   4.357   4.213   5.640  0.5538 -0.6749  0.1175
 6383SOL    HW130608   4.371   4.299   5.599 -0.3947  0.0666  1.3286
 6383SOL    HW230609   4.443   4.174   5.629 -0.4806 -2.4659 -1.5767
 6384SOL     OW30610   1.182   2.700   0.392 -0.3255  0.4361 -0.2197
 6384SOL    HW130611   1.110   2.658   0.344  0.0817 -0.9511  0.3925
 6384SOL    HW230612   1.142   2.777   0.433 -1.6616  0.2197 -1.1137
 6385SOL     OW30613   4.499   3.957   5.287 -0.0083  0.1537 -0.4683
 6385SOL    HW130614   4.409   3.944   5.318 -0.0206  1.0940 -0.1111
 6385SOL    HW230615   4.502   3.937   5.193  0.1018 -0.9046 -0.2441
 6386SOL     OW30616   0.696   2.498   8.661 -0.0095  0.7900  0.5182
 6386SOL    HW130617   0.733   2.585   8.674  1.0513  0.7761 -2.2942
 6386SOL    HW230618   0.621   2.500   8.720 -1.1623  2.7885 -1.0399
 6387SOL     OW30619   0.937   4.228   0.222 -0.1804  0.3905 -0.5749
 6387SOL    HW130620   0.936   4.248   0.316 -0.1288 -1.9750 -0.0834
 6387SOL    HW230621   0.845   4.256   0.211 -0.2811  0.2035 -0.2004
 6388SOL     OW30622   2.617   1.421  15.531 -0.0059  0.2462 -0.8600
 6388SOL    HW130623   2.697   1.370  15.526  0.1221  0.3530  0.3222
 6388SOL    HW230624   2.555   1.350  15.511 -0.2755  0.7921 -1.9551
 6389SOL     OW30625   1.694   1.369   8.350  0.5396 -0.6714  0.4152
 6389SOL    HW130626   1.708   1.460   8.326 -0.3365 -0.5436  0.3914
 6389SOL    HW230627   1.759   1.320   8.300  0.4992 -1.6460  1.3269
 6390SOL     OW30628   4.551   3.762  14.862 -0.4231  0.0057  0.4452
 6390SOL    HW130629   4.495   3.742  14.787  0.7625 -0.5234 -0.3050
 6390SOL    HW230630   4.628   3.789  14.812 -0.9795  2.1024  0.6881
 6391SOL     OW30631   0.402   0.581  10.994 -0.4865  0.4018  0.9368
 6391SOL    HW130632   0.349   0.511  11.032 -0.7571  0.9421  1.5711
 6391SOL    HW230633   0.353   0.593  10.913  1.2389  1.0373  0.0052
 6392SOL     OW30634   3.548   4.333  11.123 -0.0093  0.4374  1.0399
 6392SOL    HW130635   3.595   4.343  11.040 -2.3996 -0.0229 -0.3638
 6392SOL    HW230636   3.461   4.366  11.103 -0.5567 -1.5417  0.1715
 6393SOL     OW30637   1.385   2.086   8.824 -0.2976 -0.0054 -0.1086
 6393SOL    HW130638   1.363   2.131   8.905  2.1945  1.0050 -0.0090
 6393SOL    HW230639   1.421   2.161   8.777  1.9044 -0.7930  0.2990
 6394SOL     OW30640   2.093   4.480  12.717  0.2386 -0.2080  0.3315
 6394SOL    HW130641   2.073   4.527  12.636  1.3544 -1.8168 -0.8714
 6394SOL    HW230642   2.154   4.542  12.757  0.7079 -1.3342  1.3488
 6395SOL     OW30643   3.019   1.534  17.327 -0.4835 -0.5749  0.1161
 6395SOL    HW130644   3.110   1.508  17.316 -0.2426 -0.3406  1.6128
 6395SOL    HW230645   2.989   1.537  17.236  0.3872  2.1366 -0.0908
 6396SOL     OW30646   1.220   3.903   7.593 -0.3057 -0.2172 -0.3930
 6396SOL    HW130647   1.126   3.905   7.610 -0.0199 -0.3442  1.2988
 6396SOL    HW230648   1.224   3.964   7.520 -0.2709  0.4678  0.1703
 6397SOL     OW30649   3.198   0.528   7.030 -0.1934  0.4814 -0.1169
 6397SOL    HW130650   3.218   0.520   6.937 -0.2045 -1.5092  0.0493
 6397SOL    HW230651   3.284   0.542   7.070 -0.6754 -1.8407  1.7010
 6398SOL     OW30652   2.347   3.728   1.799  0.0268  0.9515 -0.0140
 6398SOL    HW130653   2.278   3.714   1.864  1.0952 -0.5316  0.7910
 6398SOL    HW230654   2.309   3.804   1.755 -2.5341  0.4105  1.2816
 6399SOL     OW30655   1.949   2.675   5.356 -0.8750 -0.2913  0.4914
 6399SOL    HW130656   1.896   2.707   5.283 -1.6388 -1.6784  0.4364
 6399SOL    HW230657   1.882   2.676   5.424 -1.3621 -0.5581  0.0194
 6400SOL     OW30658   0.520   3.726   7.443 -0.5645  0.1787  0.4242
 6400SOL    HW130659   0.589   3.671   7.479 -0.2832 -0.5709 -1.2774
 6400SOL    HW230660   0.525   3.709   7.349 -1.0778  2.8905 -0.1048
 6401SOL     OW30661   4.175   2.589   7.653  0.1295  0.3540  0.3176
 6401SOL    HW130662   4.144   2.665   7.604 -0.6145  0.0711  0.3455
 6401SOL    HW230663   4.240   2.631   7.710 -0.0718 -0.6370  1.2805
 6402SOL     OW30664   4.433   1.826   8.312  0.0906  0.2336  0.4703
 6402SOL    HW130665   4.425   1.894   8.379 -2.1424  1.3500 -0.9496
 6402SOL    HW230666   4.418   1.745   8.361 -2.0630  0.7575  0.7093
 6403SOL     OW30667   0.066   4.334   5.536 -0.2723  0.5548  0.2373
 6403SOL    HW130668   0.005   4.376   5.474  0.0821  2.0049  0.8868
 6403SOL    HW230669   4.721   4.276   5.575  0.4788 -0.6477 -0.2797
 6404SOL     OW30670   0.270   1.394  12.680  0.4757 -0.0483 -0.1712
 6404SOL    HW130671   0.336   1.342  12.726  0.4462  2.3728  2.6099
 6404SOL    HW230672   0.206   1.332  12.644 -0.4823  1.3169 -0.7945
 6405SOL     OW30673   3.784   2.778   0.528  0.7649  0.4534 -0.3278
 6405SOL    HW130674   3.745   2.786   0.615  0.5228  0.5305 -0.4429
 6405SOL    HW230675   3.708   2.808   0.478  0.2838 -1.6500 -0.8536
 6406SOL     OW30676   0.286   3.668   4.669  0.2581  0.0290 -0.2509
 6406SOL    HW130677   0.245   3.643   4.587  0.0727  0.5329 -0.3165
 6406SOL    HW230678   0.212   3.653   4.728  0.8298  1.7721  0.9142
 6407SOL     OW30679   2.181   4.464  13.831 -0.3258 -0.1076 -0.3200
 6407SOL    HW130680   2.188   4.440  13.923 -0.3611  1.9493  0.2224
 6407SOL    HW230681   2.089   4.439  13.818  0.0630 -1.3365 -0.7311
 6408SOL     OW30682   2.896   3.074  14.947 -0.2249  0.2042  0.2353
 6408SOL    HW130683   2.900   3.018  15.024 -0.0575 -1.5505 -1.0465
 6408SOL    HW230684   2.989   3.090  14.934  0.2294 -3.0205 -0.4931
 6409SOL     OW30685   4.172   1.690   4.518  0.0911  0.3099  0.0018
 6409SOL    HW130686   4.091   1.737   4.535 -0.8070 -1.3396  0.2762
 6409SOL    HW230687   4.166   1.607   4.566 -1.2475 -0.0327 -0.7496
 6410SOL     OW30688   3.293   3.724   7.502 -0.2025 -0.7007  0.4859
 6410SOL    HW130689   3.339   3.641   7.492  0.4510 -0.1339 -1.2107
 6410SOL    HW230690   3.335   3.757   7.582  1.3955 -0.6150 -0.3928
 6411SOL     OW30691   1.950   0.428   4.232  0.2562  0.0677  0.1803
 6411SOL    HW130692   1.921   0.492   4.297 -0.3589  0.3398 -0.3676
 6411SOL    HW230693   1.995   0.377   4.300 -0.7180 -1.2789 -0.1991
 6412SOL     OW30694   3.742   2.138   9.859 -0.2151  0.4697  0.5385
 6412SOL    HW130695   3.817   2.106   9.909  1.0329 -0.5852 -2.0256
 6412SOL    HW230696   3.735   2.064   9.798 -0.2463  1.8785 -1.1530
 6413SOL     OW30697   2.222   2.888  15.945 -0.0053  0.9022 -0.3122
 6413SOL    HW130698   2.178   2.803  15.949 -1.1049  1.3708 -2.3201
 6413SOL    HW230699   2.307   2.864  15.910 -1.1805 -0.3079 -2.2895
 6414SOL     OW30700   2.934   3.895  16.249 -0.3332 -0.5969 -0.2199
 6414SOL    HW130701   2.983   3.852  16.179 -0.4172 -2.5806  0.9254
 6414SOL    HW230702   2.897   3.961  16.191 -0.9859 -0.2819  0.5621
 6415SOL     OW30703   2.944   1.555  17.065 -0.1111  0.4693  0.2163
 6415SOL    HW130704   2.976   1.638  17.028  2.7758 -0.6827  0.1390
 6415SOL    HW230705   2.926   1.512  16.981 -1.8016  0.8134  0.4033
 6416SOL     OW30706   4.188   0.702   0.291  0.3018 -0.2521 -0.5215
 6416SOL    HW130707   4.268   0.755   0.291  0.8873 -1.1421  0.1296
 6416SOL    HW230708   4.218   0.612   0.305  1.6071 -0.0305 -1.8469
 6417SOL     OW30709   1.722   1.649   5.993 -0.3252  0.1162  0.3275
 6417SOL    HW130710   1.742   1.743   5.985 -2.2781  0.4534 -0.5773
 6417SOL    HW230711   1.627   1.648   6.007 -0.5374 -1.3067 -1.2783
 6418SOL     OW30712   1.469   1.842   2.062  0.5782 -0.0888  0.4202
 6418SOL    HW130713   1.545   1.882   2.021 -0.0604 -0.9140 -1.5923
 6418SOL    HW230714   1.413   1.911   2.097  1.6770  0.0618  1.9118
 6419SOL     OW30715   3.599   2.120  10.327  0.2891 -1.2346  0.6168
 6419SOL    HW130716   3.645   2.078  10.254  0.4542  0.0712 -0.0301
 6419SOL    HW230717   3.560   2.041  10.363  0.3609 -1.2635  0.6311
 6420SOL     OW30718   3.444   1.033  11.058 -0.1158 -0.4007 -0.1290
 6420SOL    HW130719   3.386   1.072  10.993 -2.9683 -3.1328  0.7692
 6420SOL    HW230720   3.528   1.037  11.013  0.5721  1.3524  1.3432
 6421SOL     OW30721   1.602   1.866  13.357  0.0941  0.5563 -0.1764
 6421SOL    HW130722   1.541   1.797  13.331  0.7538 -0.0230 -0.1767
 6421SOL    HW230723   1.671   1.803  13.375 -0.2139  0.0690 -0.7092
 6422SOL     OW30724   0.490   1.840   2.188  0.2668 -0.2562 -0.5717
 6422SOL    HW130725   0.516   1.902   2.119  1.9996  1.7774  1.9146
 6422SOL    HW230726   0.491   1.755   2.145 -0.5803 -0.5615  0.0097
 6423SOL     OW30727   0.967   1.103   6.523 -0.4990 -0.6314  0.5190
 6423SOL    HW130728   0.976   1.148   6.607  1.5376  1.6666 -0.9476
 6423SOL    HW230729   1.053   1.111   6.481 -0.8148  2.1581  0.4466
 6424SOL     OW30730   1.004   2.723   7.134  0.2210  0.3968  0.7711
 6424SOL    HW130731   0.938   2.698   7.199 -1.4723 -2.0059 -1.8936
 6424SOL    HW230732   0.964   2.695   7.052 -1.7037  4.6314  0.2416
 6425SOL     OW30733   1.643   3.486   1.300  0.6456 -0.3917  0.1722
 6425SOL    HW130734   1.573   3.461   1.361 -1.3109 -0.5081 -2.1244
 6425SOL    HW230735   1.604   3.468   1.215  1.5382  0.2450 -0.3747
 6426SOL     OW30736   2.831   4.118   1.738 -0.2998  0.5434 -0.1904
 6426SOL    HW130737   2.887   4.181   1.692  1.3790  0.4475  1.7372
 6426SOL    HW230738   2.767   4.176   1.778  0.6906 -0.0278  2.2235
 6427SOL     OW30739   3.045   4.268   4.445  0.3149 -0.1762  0.2185
 6427SOL    HW130740   3.099   4.311   4.379 -0.7679  0.0261 -0.5256
 6427SOL    HW230741   3.099   4.281   4.524  0.7868 -1.8175  0.1776
 6428SOL     OW30742   0.681   3.461   5.810 -0.1733  0.2398  0.3646
 6428SOL    HW130743   0.710   3.502   5.729 -0.1486 -0.1294  0.1835
 6428SOL    HW230744   0.608   3.409   5.777  1.7918 -2.2148 -0.2157
 6429SOL     OW30745   4.322   4.594   2.297 -0.5112 -0.2151 -0.1200
 6429SOL    HW130746   4.387   4.523   2.296 -0.9066 -0.5694 -0.9209
 6429SOL    HW230747   4.290   4.602   2.207 -0.9083 -0.4807 -0.0002
 6430SOL     OW30748   2.483   1.345  12.745 -0.5342  0.0033 -0.0273
 6430SOL    HW130749   2.409   1.294  12.711  0.5613 -1.3210 -0.4041
 6430SOL    HW230750   2.510   1.409  12.678 -3.2392  1.6051  0.4085
 6431SOL     OW30751   2.976   1.722  11.037  0.6770 -0.1462 -0.2461
 6431SOL    HW130752   3.060   1.762  11.013 -0.1336  1.4799 -0.3874
 6431SOL    HW230753   2.999   1.693  11.125  3.1294  2.1569 -0.1143
 6432SOL     OW30754   2.653   0.256   5.121  0.3794 -0.2024 -0.1189
 6432SOL    HW130755   2.588   0.188   5.103  0.8082 -1.1051  1.7679
 6432SOL    HW230756   2.727   0.218   5.074 -1.0465  0.2502 -2.7344
 6433SOL     OW30757   0.671   0.971   0.589  0.4320 -0.2429 -0.1256
 6433SOL    HW130758   0.601   0.978   0.525  1.5377 -0.1677 -1.3378
 6433SOL    HW230759   0.743   0.937   0.535 -1.7248 -2.4621 -1.5789
 6434SOL     OW30760   2.537   2.875   1.835  0.3315 -0.3053  0.1134
 6434SOL    HW130761   2.464   2.818   1.858 -0.0978 -0.3816 -1.4690
 6434SOL    HW230762   2.558   2.905   1.924  1.6132  1.7043 -0.8836
 6435SOL     OW30763   1.668   2.573   1.898 -0.4257  0.6007  0.0105
 6435SOL    HW130764   1.636   2.652   1.853  3.0904  1.7673 -0.4463
 6435SOL    HW230765   1.621   2.562   1.980 -1.0248  1.8453 -0.1634
 6436SOL     OW30766   3.775   1.932   2.957 -0.0679 -0.1009  0.5961
 6436SOL    HW130767   3.850   1.924   3.016  0.9816  1.6199 -0.5136
 6436SOL    HW230768   3.818   1.937   2.872  0.6456 -0.0900  0.9559
 6437SOL     OW30769   3.013   2.893   8.377  0.2044 -0.2758  0.2217
 6437SOL    HW130770   2.996   2.934   8.292 -1.5788 -2.1143 -0.3205
 6437SOL    HW230771   3.059   2.966   8.418 -1.6104  0.7093  0.5296
 6438SOL     OW30772   2.896   0.115   1.100 -0.0933 -0.2322 -0.1031
 6438SOL    HW130773   2.975   0.139   1.050 -0.2003 -0.3998 -0.3481
 6438SOL    HW230774   2.927   0.055   1.168  0.4148  0.0479 -0.0822
 6439SOL     OW30775   0.219   2.693   1.695 -0.0610  0.0511  0.2320
 6439SOL    HW130776   0.273   2.772   1.693 -2.0300  1.3775 -0.3961
 6439SOL    HW230777   0.265   2.642   1.762 -0.7229  1.1871  1.5524
 6440SOL     OW30778   4.647   1.785   2.881  0.1917 -0.5821 -0.0052
 6440SOL    HW130779   4.564   1.781   2.835 -0.3657 -0.3145  0.9684
 6440SOL    HW230780   4.682   1.700   2.855  0.3317 -0.2170 -0.9918
 6441SOL     OW30781   4.633   0.699   4.347  0.9341 -0.1062 -0.2928
 6441SOL    HW130782   4.595   0.696   4.435  0.0636  2.9457 -0.5694
 6441SOL    HW230783   4.608   0.610   4.320  0.9712  0.1149 -1.0430
 6442SOL     OW30784   1.769   4.699  15.187 -0.5684  0.3091 -0.2325
 6442SOL    HW130785   1.786   4.635  15.256  1.7334  0.6961 -0.4465
 6442SOL    HW230786   1.857   4.692  15.152 -0.5949  2.5331 -0.7458
 6443SOL     OW30787   3.156   3.166  13.421 -0.0133 -0.2399  0.2848
 6443SOL    HW130788   3.093   3.222  13.376 -0.5192 -0.5090  0.6586
 6443SOL    HW230789   3.242   3.208  13.411  0.2740 -1.2664 -1.7353
 6444SOL     OW30790   2.823   0.385   6.155 -0.3700 -0.2197 -0.5219
 6444SOL    HW130791   2.865   0.322   6.096  0.9563  0.7445 -0.6176
 6444SOL    HW230792   2.834   0.332   6.234 -0.3625  0.9396  0.2548
 6445SOL     OW30793   2.824   0.493   6.441 -0.1789 -0.3590  0.4129
 6445SOL    HW130794   2.781   0.579   6.448  0.0526 -0.1242 -1.0458
 6445SOL    HW230795   2.768   0.441   6.497  0.4803 -0.0747  1.3346
 6446SOL     OW30796   1.270   1.626   7.103 -0.2393  0.0525 -0.7599
 6446SOL    HW130797   1.310   1.626   7.190 -1.7317 -1.3951 -0.0686
 6446SOL    HW230798   1.338   1.679   7.062 -0.5518  2.1825  1.4636
 6447SOL     OW30799   1.878   2.318  14.353 -0.5645 -0.4535  0.1130
 6447SOL    HW130800   1.819   2.244  14.342 -1.5675  0.4424 -0.6310
 6447SOL    HW230801   1.900   2.329  14.260 -0.4032 -1.6446  0.0151
 6448SOL     OW30802   1.148   4.051   3.491  0.3529 -0.1713 -0.1547
 6448SOL    HW130803   1.069   3.998   3.489 -0.1942  0.6764 -1.1054
 6448SOL    HW230804   1.119   4.142   3.487 -2.1019 -0.9429  0.1795
 6449SOL     OW30805   1.512   3.225  15.207  0.4370 -0.6509 -0.6246
 6449SOL    HW130806   1.554   3.200  15.290  1.1192  0.6511 -0.5678
 6449SOL    HW230807   1.555   3.307  15.181  0.7717 -0.2195  1.2081
 6450SOL     OW30808   4.281   0.124  15.788 -0.1185 -0.0496 -0.1727
 6450SOL    HW130809   4.282   0.214  15.823 -0.9931 -0.4576  0.8926
 6450SOL    HW230810   4.297   0.134  15.694 -2.9090  1.9381 -0.4202
 6451SOL     OW30811   4.229   1.562  12.066  0.0688  0.6232  0.2217
 6451SOL    HW130812   4.300   1.503  12.092  0.4010  0.0217 -2.0367
 6451SOL    HW230813   4.265   1.618  11.997 -1.1569 -1.5770 -2.2099
 6452SOL     OW30814   1.898   3.207   7.272  0.4954 -0.0917 -0.0891
 6452SOL    HW130815   1.870   3.117   7.288 -0.7606  0.3629  0.2312
 6452SOL    HW230816   1.987   3.183   7.247  0.3902 -1.4314  0.8048
 6453SOL     OW30817   2.525   4.479   5.911  0.1532  0.2344  0.2331
 6453SOL    HW130818   2.493   4.564   5.881  2.0482  0.3939 -1.3932
 6453SOL    HW230819   2.594   4.474   5.844 -0.6111  1.8920 -0.6913
 6454SOL     OW30820   1.164   0.218  13.408  0.0676 -0.5562  0.4142
 6454SOL    HW130821   1.184   0.141  13.460 -0.3221  1.8166  4.0310
 6454SOL    HW230822   1.227   0.211  13.336 -0.6607  1.4412 -0.4197
 6455SOL     OW30823   4.620   2.347  15.570 -0.1227  0.2662 -0.2727
 6455SOL    HW130824   4.667   2.360  15.653 -1.1274 -0.5571  0.4375
 6455SOL    HW230825   4.687   2.365  15.505  0.2399  1.0384  0.3191
 6456SOL     OW30826   4.356   2.491  15.407  0.1377  0.0745 -0.0516
 6456SOL    HW130827   4.294   2.541  15.460  0.6038  0.4295  0.1629
 6456SOL    HW230828   4.385   2.437  15.480 -0.3094 -0.4384 -0.2465
 6457SOL     OW30829   2.737   0.222   3.360  0.0481  0.0642  0.7651
 6457SOL    HW130830   2.656   0.269   3.340  0.6441  0.8557  0.2103
 6457SOL    HW230831   2.806   0.282   3.333  0.3243 -0.9024 -0.6098
 6458SOL     OW30832   0.924   1.389  12.077  0.3386  0.1070 -0.2535
 6458SOL    HW130833   0.890   1.300  12.088  0.4898  0.3153  2.0082
 6458SOL    HW230834   0.847   1.446  12.068  1.2131  1.2235 -0.5305
 6459SOL     OW30835   1.057   0.800   0.927  0.2396  0.0021 -0.4731
 6459SOL    HW130836   1.045   0.736   0.857  0.6903 -0.1045 -0.4515
 6459SOL    HW230837   1.124   0.759   0.981  1.5214  1.0084 -1.3078
 6460SOL     OW30838   1.063   2.489   3.561 -0.2894 -0.6328 -0.0850
 6460SOL    HW130839   0.991   2.433   3.532 -0.2174 -0.9652  0.3766
 6460SOL    HW230840   1.116   2.502   3.482 -1.3391 -4.0816 -1.3443
 6461SOL     OW30841   0.185   0.267   2.406 -0.0164 -0.4476  0.1479
 6461SOL    HW130842   0.158   0.298   2.320 -1.5040 -0.8341  0.4890
 6461SOL    HW230843   0.102   0.230   2.433 -0.1199 -1.6423 -1.7648
 6462SOL     OW30844   1.983   3.754   0.800  0.1845 -0.1163 -0.1707
 6462SOL    HW130845   1.926   3.812   0.850  2.1515 -0.8948  2.9334
 6462SOL    HW230846   2.034   3.713   0.870  1.5176  2.2453  0.2440
 6463SOL     OW30847   3.373   2.029  15.570 -0.3142 -0.0663 -0.0231
 6463SOL    HW130848   3.466   2.015  15.549  0.0027  1.2736  0.4605
 6463SOL    HW230849   3.327   2.008  15.489  0.6374  0.0589 -0.5993
 6464SOL     OW30850   4.609   0.278   3.875  0.2572 -0.0172  0.2663
 6464SOL    HW130851   4.531   0.326   3.845  0.0371 -0.2672  0.4413
 6464SOL    HW230852   4.669   0.298   3.803  0.3980  1.2747  0.7392
 6465SOL     OW30853   0.282   0.324  12.079  0.4491 -0.4182 -0.1214
 6465SOL    HW130854   0.265   0.296  11.989  2.6533  1.4850 -1.1224
 6465SOL    HW230855   0.315   0.241  12.112  0.0261 -0.6399 -0.2563
 6466SOL     OW30856   4.520   4.275   8.432  0.2361 -0.1020  0.1662
 6466SOL    HW130857   4.447   4.218   8.407  1.5433 -0.0991 -3.6573
 6466SOL    HW230858   4.535   4.247   8.522 -0.4524  2.2441  1.0000
 6467SOL     OW30859   2.601   3.428   8.518  0.3301 -0.0496 -0.7488
 6467SOL    HW130860   2.633   3.338   8.527 -0.4601 -0.1230  1.3585
 6467SOL    HW230861   2.590   3.451   8.611 -2.9404 -1.0760 -0.8773
 6468SOL     OW30862   3.859   1.371   4.539  0.5312 -0.2929 -0.4105
 6468SOL    HW130863   3.952   1.352   4.556  0.0486 -0.9788  1.5170
 6468SOL    HW230864   3.819   1.287   4.561 -0.0701  0.2731  0.7030
 6469SOL     OW30865   4.337   3.775  15.365 -0.6026 -0.0935  0.0405
 6469SOL    HW130866   4.278   3.749  15.436  1.3838  1.0783  2.1321
 6469SOL    HW230867   4.400   3.703  15.358  0.4360  0.7452  0.6507
 6470SOL     OW30868   0.754   3.382   3.234  0.8137 -0.1577  0.3905
 6470SOL    HW130869   0.756   3.287   3.220  1.3777  0.1765 -1.7384
 6470SOL    HW230870   0.764   3.409   3.143 -0.1903 -1.2218 -0.0261
 6471SOL     OW30871   1.437   2.859  15.294 -0.2087 -0.0856 -0.0440
 6471SOL    HW130872   1.507   2.880  15.232  0.0251  0.0294  0.2587
 6471SOL    HW230873   1.486   2.851  15.375 -0.1092 -0.6636 -0.1642
 6472SOL     OW30874   2.221   3.462   7.357  0.2539 -0.2195 -0.4416
 6472SOL    HW130875   2.182   3.549   7.345  1.3655  0.5824  1.8419
 6472SOL    HW230876   2.200   3.432   7.445  0.9661 -0.6415 -0.4140
 6473SOL     OW30877   0.096   4.044   0.982 -0.2441 -0.2913 -0.1936
 6473SOL    HW130878   0.040   3.973   0.949 -1.1692 -0.0643  0.8652
 6473SOL    HW230879   0.050   4.054   1.066 -0.5942  0.9560 -0.5385
 6474SOL     OW30880   2.232   3.826   0.669 -0.5457 -0.2681 -0.1776
 6474SOL    HW130881   2.266   3.816   0.759 -1.5022  1.7405  0.3852
 6474SOL    HW230882   2.139   3.838   0.685 -0.7824 -1.0353 -1.0093
 6475SOL     OW30883   2.204   3.377   1.244  0.7650 -0.1006  0.1264
 6475SOL    HW130884   2.268   3.429   1.196  1.6772 -0.3395  1.0767
 6475SOL    HW230885   2.143   3.448   1.265  1.3695  1.0402 -2.0565
 6476SOL     OW30886   3.575   0.241   6.605  0.0562 -0.1847 -0.0591
 6476SOL    HW130887   3.666   0.268   6.596 -0.4024  1.9095  1.5977
 6476SOL    HW230888   3.588   0.167   6.665 -0.4368 -0.2009  0.0354
 6477SOL     OW30889   1.437   1.420   8.462  0.1060 -0.4058  0.3983
 6477SOL    HW130890   1.514   1.437   8.408 -1.1709  3.3178 -0.2725
 6477SOL    HW230891   1.374   1.448   8.395  0.0466  0.5430  0.8486
 6478SOL     OW30892   1.920   2.423   7.889  0.2749 -0.3135 -0.1022
 6478SOL    HW130893   1.989   2.488   7.905 -1.7344  1.6962  0.4440
 6478SOL    HW230894   1.902   2.395   7.979  0.7046  0.6723  0.2915
 6479SOL     OW30895   3.480   2.467   5.927  0.1880 -0.3635 -0.4536
 6479SOL    HW130896   3.512   2.557   5.932  0.1284 -0.1615 -3.4299
 6479SOL    HW230897   3.517   2.416   5.999  0.3435 -0.9460 -0.9396
 6480SOL     OW30898   3.389   1.500   6.169  0.0139  0.1185 -0.0219
 6480SOL    HW130899   3.457   1.471   6.108  0.9262  1.6923  0.2683
 6480SOL    HW230900   3.314   1.513   6.110 -0.3577  0.9542  0.6405
 6481SOL     OW30901   2.185   2.385   2.022 -0.1317 -0.5651  0.6161
 6481SOL    HW130902   2.103   2.342   2.047 -0.1918 -1.0316 -0.3484
 6481SOL    HW230903   2.153   2.466   1.983 -2.0828  0.0359  3.5411
 6482SOL     OW30904   2.282   2.121   7.026  0.1456 -0.1903  0.0233
 6482SOL    HW130905   2.326   2.182   6.967  0.2991  2.4056  2.8544
 6482SOL    HW230906   2.356   2.097   7.081  0.1937  0.4067  0.2145
 6483SOL     OW30907   1.420   0.132  16.259  0.5480 -0.2738 -0.2000
 6483SOL    HW130908   1.329   0.102  16.249  0.7115  0.2740 -3.5243
 6483SOL    HW230909   1.448   0.116  16.168  1.6347 -1.0581  0.2720
 6484SOL     OW30910   1.314   1.028  15.739 -0.2021 -0.0360 -0.9423
 6484SOL    HW130911   1.387   1.078  15.702 -1.5972  1.4986 -1.6560
 6484SOL    HW230912   1.319   0.945  15.692  1.8621 -1.0993  1.1561
 6485SOL     OW30913   2.513   3.891   5.640  0.3430 -0.3237 -0.3710
 6485SOL    HW130914   2.475   3.917   5.724  1.5678 -0.1678  0.1427
 6485SOL    HW230915   2.588   3.951   5.642  0.6678 -0.7081 -1.5596
 6486SOL     OW30916   4.024   3.680   4.989 -0.5587 -0.3765 -0.0989
 6486SOL    HW130917   3.965   3.645   5.056  0.1314 -1.8290 -0.2498
 6486SOL    HW230918   4.098   3.621   5.004 -1.1534 -1.8899 -2.9354
 6487SOL     OW30919   4.691   4.252   3.599  0.3958  0.2931 -0.0711
 6487SOL    HW130920   0.059   4.247   3.563  0.9203  1.7594  0.9918
 6487SOL    HW230921   4.672   4.177   3.656 -0.5987  0.0740 -0.7119
 6488SOL     OW30922   0.591   2.163   3.772 -0.7381 -0.1438  0.5698
 6488SOL    HW130923   0.670   2.217   3.772  0.2628 -1.6457 -1.3761
 6488SOL    HW230924   0.616   2.103   3.842 -1.5786 -0.0960  0.9065
 6489SOL     OW30925   4.291   3.885   2.500 -0.1788 -0.3116  0.5732
 6489SOL    HW130926   4.289   3.979   2.479  0.0260 -0.2927  0.6366
 6489SOL    HW230927   4.249   3.876   2.586  1.7129  1.2319  1.6740
 6490SOL     OW30928   2.248   3.565   2.071 -0.2996 -0.1101 -0.1945
 6490SOL    HW130929   2.172   3.612   2.036  1.0929  2.9880  0.9733
 6490SOL    HW230930   2.271   3.612   2.151  0.7943  2.1633 -1.8731
 6491SOL     OW30931   1.469   4.450   6.136  0.0375  0.3282 -0.3334
 6491SOL    HW130932   1.426   4.400   6.205  1.9065 -1.1478 -0.2457
 6491SOL    HW230933   1.546   4.398   6.113  1.4510  2.9461 -1.3905
 6492SOL     OW30934   1.621   3.409   5.490  0.3450  0.4924 -0.6226
 6492SOL    HW130935   1.691   3.344   5.483 -0.4595 -0.6112  1.4495
 6492SOL    HW230936   1.657   3.497   5.493  0.2422  0.5095  0.2961
 6493SOL     OW30937   2.263   3.715   9.632 -0.0984  0.0843  0.0871
 6493SOL    HW130938   2.276   3.714   9.727 -0.8153 -0.8617  0.1810
 6493SOL    HW230939   2.197   3.782   9.616  0.6164  0.2451 -2.2033
 6494SOL     OW30940   2.084   0.129  12.143 -0.3971 -0.2061 -0.1561
 6494SOL    HW130941   2.072   0.036  12.125  0.9722 -0.5350  0.7167
 6494SOL    HW230942   2.179   0.134  12.135 -0.5443  1.4977 -0.9736
 6495SOL     OW30943   3.650   1.981   5.292 -0.0730  0.6221  0.4258
 6495SOL    HW130944   3.641   1.887   5.307 -0.8091  0.0788 -3.3738
 6495SOL    HW230945   3.716   2.001   5.358 -0.3912  2.0197  0.3076
 6496SOL     OW30946   3.497   0.924   4.548  0.0769 -0.1583 -0.0930
 6496SOL    HW130947   3.502   0.937   4.643  3.0877  3.2257 -0.6813
 6496SOL    HW230948   3.537   0.837   4.551  0.5145  0.0671  0.4911
 6497SOL     OW30949   2.075   2.675   7.177 -0.2741 -0.0463  0.2324
 6497SOL    HW130950   2.013   2.603   7.172 -1.4384  0.9589  0.2030
 6497SOL    HW230951   2.040   2.724   7.251  1.0583  0.6395  0.4040
 6498SOL     OW30952   1.959   4.536  14.217 -0.8026 -0.2098  0.1707
 6498SOL    HW130953   1.942   4.512  14.308 -0.6046 -2.4522 -0.4023
 6498SOL    HW230954   1.922   4.624  14.226  0.0231  0.1989 -0.4771
 6499SOL     OW30955   1.808   1.062   1.958  0.4489  0.1839 -0.6269
 6499SOL    HW130956   1.831   1.132   2.018 -1.9891  0.1552  0.3249
 6499SOL    HW230957   1.773   0.995   2.017 -1.6871  0.9840 -0.9809
 6500SOL     OW30958   4.202   4.180   4.428 -0.2921 -0.4312  0.7661
 6500SOL    HW130959   4.231   4.248   4.489  0.0951  1.0143 -1.0034
 6500SOL    HW230960   4.242   4.101   4.464  1.9486  0.6065  0.5832
 6501SOL     OW30961   3.674   0.626   6.548  0.1208  0.8065 -0.3791
 6501SOL    HW130962   3.680   0.718   6.573  0.8709  0.1838  1.7876
 6501SOL    HW230963   3.584   0.611   6.520 -0.7231  2.8183  1.2991
 6502SOL     OW30964   4.471   0.918  16.058 -0.2663  0.1679 -0.1126
 6502SOL    HW130965   4.420   0.847  16.020  1.1204  0.1588 -1.9562
 6502SOL    HW230966   4.418   0.939  16.135 -2.1643 -0.7076 -1.1926
 6503SOL     OW30967   4.614   4.186   6.732 -0.4640 -0.8667  0.1120
 6503SOL    HW130968   4.581   4.214   6.817 -2.0915  0.4277 -0.9551
 6503SOL    HW230969   4.703   4.161   6.757  1.4054  3.9873 -1.6382
 6504SOL     OW30970   1.421   2.019   9.262 -0.2869  0.1295  0.2207
 6504SOL    HW130971   1.464   2.031   9.347 -0.2948 -1.0626  0.4006
 6504SOL    HW230972   1.396   1.927   9.261  1.4660 -0.3388 -0.0695
 6505SOL     OW30973   2.336   3.951   2.677  0.5826 -0.1298  0.1129
 6505SOL    HW130974   2.425   3.917   2.667  0.9937  1.0180 -0.1147
 6505SOL    HW230975   2.356   4.043   2.662 -0.8024  0.9437  4.6781
 6506SOL     OW30976   0.448   2.693   9.430  0.3293 -0.3162  0.4269
 6506SOL    HW130977   0.526   2.639   9.413  0.2926  0.5435 -2.5956
 6506SOL    HW230978   0.392   2.630   9.476 -2.4920  1.9039  0.0445
 6507SOL     OW30979   0.679   2.506   7.806  0.3437 -0.0644  0.5653
 6507SOL    HW130980   0.774   2.506   7.814  0.2936  0.3578  1.1521
 6507SOL    HW230981   0.650   2.527   7.895 -2.3008  0.9663 -0.5337
 6508SOL     OW30982   1.147   2.888  16.981 -0.4593  0.1107 -0.1045
 6508SOL    HW130983   1.214   2.838  17.028 -1.5605 -1.6067 -0.3731
 6508SOL    HW230984   1.121   2.956  17.044  1.8023 -0.9176  1.9554
 6509SOL     OW30985   1.984   3.546   8.877 -0.0274 -0.8170 -0.2675
 6509SOL    HW130986   1.940   3.470   8.838  1.3842 -1.1525 -1.1588
 6509SOL    HW230987   1.936   3.618   8.836  2.0200  0.8077  0.1788
 6510SOL     OW30988   1.052   4.214   2.830 -0.3896 -0.1298 -0.1003
 6510SOL    HW130989   0.978   4.264   2.795 -1.3529 -0.0810  2.0404
 6510SOL    HW230990   1.104   4.282   2.872 -2.4698 -0.1764  2.5319
 6511SOL     OW30991   0.763   2.968  10.535 -0.3653 -0.2761 -0.0234
 6511SOL    HW130992   0.822   2.958  10.461  0.1133  0.4242  0.2619
 6511SOL    HW230993   0.813   2.923  10.603 -2.2573  0.8445  2.1386
 6512SOL     OW30994   3.071   3.090   9.006  0.1623  0.5239  0.4911
 6512SOL    HW130995   3.009   3.037   8.956  1.6206  0.5085 -1.2686
 6512SOL    HW230996   3.067   3.045   9.091  1.8942 -0.3308  0.1075
 6513SOL     OW30997   2.486   3.105   1.353  0.6049 -0.4367  0.0024
 6513SOL    HW130998   2.402   3.113   1.398  1.4424  2.6230  1.0334
 6513SOL    HW230999   2.508   3.013   1.371 -0.3788 -0.8910 -1.1218
 6514SOL     OW31000   4.297   1.007   3.932 -0.5022 -0.4589 -0.0884
 6514SOL    HW131001   4.342   1.021   4.015 -1.7838  1.0621  0.3482
 6514SOL    HW231002   4.214   1.054   3.944  0.0388  0.7788 -1.2285
 6515SOL     OW31003   0.607   0.797   0.154 -0.0990  0.2000  0.1482
 6515SOL    HW131004   0.639   0.830   0.070 -1.4971 -1.4242 -1.0089
 6515SOL    HW231005   0.548   0.868   0.179 -0.1532  1.6085 -3.9682
 6516SOL     OW31006   2.338   3.280   8.730  0.1346 -0.3899  0.0003
 6516SOL    HW131007   2.410   3.343   8.719  0.6346 -0.7966  0.9063
 6516SOL    HW231008   2.294   3.328   8.800 -1.9812 -1.3367 -0.6804
 6517SOL     OW31009   3.960   1.220   2.702  0.0252 -0.6069  0.1067
 6517SOL    HW131010   3.927   1.153   2.643 -0.3261  0.1175 -0.5108
 6517SOL    HW231011   4.054   1.204   2.692  0.8082  3.6285  0.3413
 6518SOL     OW31012   3.268   3.038   1.678  0.0085 -0.3509 -0.3327
 6518SOL    HW131013   3.338   3.035   1.743  0.9633 -2.0531 -1.4465
 6518SOL    HW231014   3.205   3.093   1.724 -2.0212 -2.9092 -0.0459
 6519SOL     OW31015   2.727   1.398   9.292  0.3150  0.1864 -0.7794
 6519SOL    HW131016   2.638   1.431   9.279  0.0946 -0.2476 -0.3849
 6519SOL    HW231017   2.748   1.452   9.369 -0.2013  1.7833 -1.7634
 6520SOL     OW31018   0.785   1.369  13.622  0.2889 -0.1362 -0.3273
 6520SOL    HW131019   0.720   1.311  13.661 -1.1981  1.3902 -0.5241
 6520SOL    HW231020   0.759   1.458  13.648 -0.0906  0.0388 -1.3055
 6521SOL     OW31021   0.479   2.209   6.135 -0.0820 -0.8527  0.0825
 6521SOL    HW131022   0.467   2.261   6.056  1.2779  0.0472  0.4623
 6521SOL    HW231023   0.399   2.228   6.183 -0.8767  0.3196 -1.7041
 6522SOL     OW31024   0.809   3.800   9.652  0.3470  0.2730  0.9030
 6522SOL    HW131025   0.737   3.744   9.623  0.9275  0.9539 -1.8626
 6522SOL    HW231026   0.784   3.883   9.613 -0.3905 -1.4007 -2.2273
 6523SOL     OW31027   1.051   1.270   7.773  0.1156  0.0503 -0.3658
 6523SOL    HW131028   0.964   1.246   7.804 -0.3984 -0.8036 -2.4959
 6523SOL    HW231029   1.036   1.275   7.679 -0.2382  0.6006 -0.2825
 6524SOL     OW31030   0.738   0.969   3.103 -0.0770 -0.2654 -0.8017
 6524SOL    HW131031   0.764   1.024   3.029 -2.5435  0.4919 -1.0932
 6524SOL    HW231032   0.644   0.979   3.093 -0.2727 -3.0895 -1.6170
 6525SOL     OW31033   0.165   1.765  13.308  0.3262  0.4039 -1.4709
 6525SOL    HW131034   0.186   1.703  13.239  3.9788  0.0672 -0.0380
 6525SOL    HW231035   0.070   1.751  13.303  0.3295  0.4065 -1.5367
 6526SOL     OW31036   3.759   0.453   7.826  0.5442  0.9319  0.1900
 6526SOL    HW131037   3.775   0.434   7.734  1.7037 -0.8103  0.7569
 6526SOL    HW231038   3.796   0.541   7.834 -1.8684  1.8531  1.2803
 6527SOL     OW31039   2.205   3.417   8.977 -0.5723 -0.4000 -0.5780
 6527SOL    HW131040   2.120   3.459   8.960 -0.5860 -0.2418 -0.1186
 6527SOL    HW231041   2.264   3.487   9.004 -1.1264 -1.1544  2.5626
 6528SOL     OW31042   4.676   2.255   4.920  0.1386 -0.2003  0.6108
 6528SOL    HW131043   0.001   2.180   4.883  2.6546  1.0826  1.1672
 6528SOL    HW231044   4.586   2.222   4.913 -0.0819  0.6203 -0.4089
 6529SOL     OW31045   1.853   1.357   3.005 -0.2891 -0.3821  0.1684
 6529SOL    HW131046   1.811   1.318   2.929 -2.1074  0.5787  0.6653
 6529SOL    HW231047   1.785   1.422   3.025 -0.9342 -1.4383  1.4071
 6530SOL     OW31048   3.354   1.457   7.468  0.2806  0.5363  0.2224
 6530SOL    HW131049   3.320   1.404   7.395 -0.6507  0.4133  0.7414
 6530SOL    HW231050   3.433   1.489   7.424  1.8821  0.2737  2.9589
 6531SOL     OW31051   0.400   4.197   6.535 -0.4041  0.1429 -0.0698
 6531SOL    HW131052   0.330   4.165   6.593  1.3486  0.9107  2.4827
 6531SOL    HW231053   0.377   4.285   6.505 -1.2626  0.7031  2.2269
 6532SOL     OW31054   3.584   0.690  14.091  0.5082 -0.1804 -0.0851
 6532SOL    HW131055   3.490   0.681  14.076  0.1395  1.7885  1.0239
 6532SOL    HW231056   3.590   0.776  14.134 -0.4570  0.3770 -1.0701
 6533SOL     OW31057   3.921   1.057   4.743  0.3557 -0.1552  0.5321
 6533SOL    HW131058   4.000   1.086   4.788  0.5352 -3.5990  2.4431
 6533SOL    HW231059   3.854   1.070   4.810  1.0048  3.2437  0.5048
 6534SOL     OW31060   4.219   1.801   4.888  0.0488 -0.5306 -0.3308
 6534SOL    HW131061   4.131   1.798   4.849  0.4211  0.7481 -1.2759
 6534SOL    HW231062   4.230   1.707   4.901 -3.5177 -0.7884  0.9995
 6535SOL     OW31063   4.413   2.287   8.087 -0.2908  0.2649  0.2498
 6535SOL    HW131064   4.444   2.203   8.120  0.5223  0.6444  0.4435
 6535SOL    HW231065   4.463   2.292   8.005 -1.3449 -1.1103 -0.4868
 6536SOL     OW31066   3.936   1.067   8.423 -0.1405 -0.6480  0.9731
 6536SOL    HW131067   3.925   0.992   8.482  0.3105  0.9919  3.1382
 6536SOL    HW231068   4.030   1.082   8.431 -0.2799  1.6357 -1.7706
 6537SOL     OW31069   0.809   3.345   8.538  0.3851 -0.1030  0.0659
 6537SOL    HW131070   0.760   3.394   8.472  0.3588 -0.6779 -0.3443
 6537SOL    HW231071   0.777   3.385   8.618 -0.0606 -0.8977  0.2866
 6538SOL     OW31072   4.092   2.800  14.542 -0.4675 -0.8324 -0.5782
 6538SOL    HW131073   4.053   2.720  14.507 -0.4266 -0.4606 -1.4794
 6538SOL    HW231074   4.079   2.783  14.635  1.2854  0.8787 -0.0316
 6539SOL     OW31075   1.913   3.274  16.906  0.7180 -0.3180 -0.2867
 6539SOL    HW131076   1.916   3.297  16.813 -1.3206 -1.2978 -0.5926
 6539SOL    HW231077   1.903   3.180  16.898  0.9098 -0.1664 -2.5471
 6540SOL     OW31078   0.708   2.690   9.964 -0.2928  0.2989 -0.1487
 6540SOL    HW131079   0.788   2.641   9.986 -0.4278  0.3582  0.4746
 6540SOL    HW231080   0.665   2.697  10.049 -1.6746 -1.0957 -0.7500
 6541SOL     OW31081   2.476   2.362  17.570 -0.7973 -0.8135  0.5231
 6541SOL    HW131082   2.393   2.391  17.608 -0.0861  2.7545 -0.6332
 6541SOL    HW231083   2.448   2.317  17.490  0.5568 -1.5314  0.4676
 6542SOL     OW31084   2.323   4.464   8.288  0.2157  0.0150  0.1412
 6542SOL    HW131085   2.234   4.458   8.323 -0.2105  1.8495 -0.6167
 6542SOL    HW231086   2.313   4.427   8.200  1.3168  1.5375 -0.6230
 6543SOL     OW31087   4.200   0.608   6.737 -0.0746  0.6083 -0.3617
 6543SOL    HW131088   4.127   0.670   6.740 -1.1067 -0.4952 -1.9758
 6543SOL    HW231089   4.214   0.597   6.830 -0.1059  1.1489 -0.2927
 6544SOL     OW31090   3.618   0.920   6.934  0.1195 -0.2893 -0.2366
 6544SOL    HW131091   3.552   0.984   6.905 -0.7363 -0.4706  1.3255
 6544SOL    HW231092   3.569   0.843   6.904 -0.7523  1.4055 -3.2762
 6545SOL     OW31093   0.999   0.711   1.672  0.0864  0.5259 -0.3506
 6545SOL    HW131094   0.906   0.687   1.666  0.0505  0.6677 -0.3513
 6545SOL    HW231095   1.002   0.806   1.673 -1.3238  0.5615  0.5544
 6546SOL     OW31096   0.397   0.813  12.705  0.6594  0.1420 -0.2889
 6546SOL    HW131097   0.351   0.897  12.700 -1.0272 -0.6880  1.2345
 6546SOL    HW231098   0.413   0.790  12.613 -0.5767  1.2376 -0.7859
 6547SOL     OW31099   3.947   3.980  15.861 -0.4572  0.1381 -0.1192
 6547SOL    HW131100   3.851   3.979  15.859 -0.4576 -2.4686  0.4424
 6547SOL    HW231101   3.956   3.953  15.952 -1.3628 -0.8500 -0.3111
 6548SOL     OW31102   4.062   3.831   7.983  0.0262  0.3126  0.8038
 6548SOL    HW131103   4.046   3.923   8.006 -1.3373  0.6767 -1.6003
 6548SOL    HW231104   4.103   3.840   7.897  1.1594 -0.3967  1.2701
 6549SOL     OW31105   3.288   2.491   5.721 -0.2140 -0.3819  0.0161
 6549SOL    HW131106   3.353   2.449   5.665  0.7869  1.2535 -0.0649
 6549SOL    HW231107   3.348   2.534   5.781 -0.7365 -1.9694  1.6841
 6550SOL     OW31108   2.772   2.463   0.871 -0.4313 -0.7180  0.3775
 6550SOL    HW131109   2.809   2.435   0.787 -1.6037  2.7310 -1.2854
 6550SOL    HW231110   2.687   2.419   0.877 -0.6550  0.0602  3.1954
 6551SOL     OW31111   0.077   2.274   0.749 -0.3696  0.0618 -0.2833
 6551SOL    HW131112   0.127   2.200   0.782 -1.2608 -0.1376  0.6290
 6551SOL    HW231113   4.712   2.235   0.763  0.5717 -1.2095  2.0260
 6552SOL     OW31114   2.184   4.408   3.269 -0.2294  0.1122  0.6476
 6552SOL    HW131115   2.098   4.440   3.240 -0.7580 -1.6664  0.2141
 6552SOL    HW231116   2.232   4.478   3.226 -0.0692 -0.1032  0.4770
 6553SOL     OW31117   4.055   3.386   9.660  0.2792  0.0621 -0.0519
 6553SOL    HW131118   4.014   3.300   9.659  0.1167  0.1333  0.3666
 6553SOL    HW231119   4.019   3.422   9.741  1.0792  0.1562  0.2607
 6554SOL     OW31120   4.336   2.774  10.337  0.4835  0.2974  0.1542
 6554SOL    HW131121   4.291   2.758  10.420  0.7768  0.8577  0.4271
 6554SOL    HW231122   4.389   2.851  10.361 -1.3527  0.6346  3.1245
 6555SOL     OW31123   1.524   4.535   2.848 -0.3193 -0.5860  0.5488
 6555SOL    HW131124   1.464   4.604   2.821  0.8043 -0.4714 -1.6026
 6555SOL    HW231125   1.596   4.583   2.889 -0.2088  0.3078 -0.7082
 6556SOL     OW31126   0.437   2.199   0.728  0.0603  0.2589 -0.1277
 6556SOL    HW131127   0.375   2.133   0.759 -0.2327  1.0775  1.0360
 6556SOL    HW231128   0.368   2.262   0.708 -0.1056  0.4704  1.1112
 6557SOL     OW31129   2.360   1.975   7.895  0.5227 -0.6970  0.8266
 6557SOL    HW131130   2.452   1.999   7.889  0.2771 -0.4529 -1.9592
 6557SOL    HW231131   2.345   1.975   7.990 -1.7649 -2.7785  0.4719
 6558SOL     OW31132   1.534   3.673   8.285  0.1806 -0.3634 -0.6237
 6558SOL    HW131133   1.600   3.611   8.316  0.5266  0.6904  0.7490
 6558SOL    HW231134   1.459   3.627   8.322  1.5110 -0.7736  1.5606
 6559SOL     OW31135   1.221   4.016   6.926 -0.5353 -0.4206 -0.0450
 6559SOL    HW131136   1.218   3.933   6.879 -1.4471 -0.1965 -0.3832
 6559SOL    HW231137   1.146   4.009   6.984  1.1791  1.4999  2.4320
 6560SOL     OW31138   1.073   1.367  12.486  0.0255  0.1336  0.6097
 6560SOL    HW131139   1.112   1.334  12.568  0.1672 -1.2953 -0.0372
 6560SOL    HW231140   1.145   1.386  12.426 -1.1357 -0.0671 -0.8345
 6561SOL     OW31141   4.256   1.801  15.564 -0.3138  0.1776  0.1247
 6561SOL    HW131142   4.207   1.850  15.630 -1.2941 -0.3110 -0.2387
 6561SOL    HW231143   4.212   1.818  15.481 -0.1285  0.5522  0.1042
 6562SOL     OW31144   2.144   4.080  10.631  0.5969 -0.1142 -0.0157
 6562SOL    HW131145   2.068   4.138  10.630  0.8654  0.2525  0.9182
 6562SOL    HW231146   2.210   4.140  10.667 -0.9431  0.6522  1.5178
 6563SOL     OW31147   1.562   2.443  16.375 -0.8399  0.4091 -0.2511
 6563SOL    HW131148   1.490   2.505  16.387  2.2022  3.6780  0.9363
 6563SOL    HW231149   1.593   2.457  16.286 -1.5090 -0.3784 -0.6172
 6564SOL     OW31150   0.376   2.676   9.766  0.3019  0.1336 -0.0744
 6564SOL    HW131151   0.465   2.683   9.731 -0.2400  0.8399 -1.3005
 6564SOL    HW231152   0.388   2.637   9.852  2.3618  0.2507 -0.3173
 6565SOL     OW31153   4.672   1.828   2.499 -0.6094  0.8482 -0.2996
 6565SOL    HW131154   4.647   1.736   2.487 -1.3992  1.0996 -0.5428
 6565SOL    HW231155   4.590   1.876   2.490  0.1417  2.5711  2.1073
 6566SOL     OW31156   3.043   2.045  10.663  0.7511 -0.2019 -0.6223
 6566SOL    HW131157   3.054   1.974  10.600  0.5005  0.3249 -1.2617
 6566SOL    HW231158   2.994   1.998  10.729 -0.8459  0.9293 -1.0083
 6567SOL     OW31159   0.712   4.177  12.919 -0.1980 -0.0104  0.0577
 6567SOL    HW131160   0.789   4.122  12.933 -0.2712  0.3676  1.9616
 6567SOL    HW231161   0.715   4.187  12.824 -0.9667 -0.9087 -0.0625
 6568SOL     OW31162   2.452   0.652  13.242  0.0026  0.1667 -0.2588
 6568SOL    HW131163   2.453   0.731  13.189  1.3511 -0.8851 -1.8211
 6568SOL    HW231164   2.362   0.624  13.229 -0.1734  1.3514 -1.5080
 6569SOL     OW31165   4.280   3.567   9.670 -0.7379  0.6165 -0.1806
 6569SOL    HW131166   4.205   3.508   9.669  0.1370 -0.5136  0.0780
 6569SOL    HW231167   4.322   3.539   9.751 -2.9028  0.5513  0.9293
 6570SOL     OW31168   1.604   4.314  16.641 -0.0548 -0.4812  0.2459
 6570SOL    HW131169   1.597   4.306  16.546 -0.1833 -2.2414  0.4076
 6570SOL    HW231170   1.674   4.252  16.664  1.2959  0.8143 -0.3961
 6571SOL     OW31171   2.544   0.424  16.515  0.1014  0.1609 -0.8427
 6571SOL    HW131172   2.477   0.376  16.467  0.8623  0.3998 -2.1241
 6571SOL    HW231173   2.507   0.447  16.601  2.1907  0.0927  0.0844
 6572SOL     OW31174   1.426   0.128  15.753  0.6011  0.3288  0.2220
 6572SOL    HW131175   1.361   0.197  15.740  0.9488  0.9665  1.8668
 6572SOL    HW231176   1.500   0.155  15.698 -1.3504 -0.1130 -2.6763
 6573SOL     OW31177   0.782   1.268   7.782 -0.3358 -0.4200  0.1698
 6573SOL    HW131178   0.706   1.297   7.833 -0.1193  0.5542 -0.0691
 6573SOL    HW231179   0.736   1.201   7.730  0.7540 -1.8660  1.0854
 6574SOL     OW31180   3.969   2.764  17.034  0.3491  0.5455  0.3533
 6574SOL    HW131181   4.047   2.766  17.088 -0.1386 -0.5051  1.1057
 6574SOL    HW231182   3.919   2.813  17.099  0.3754  0.2167  0.6250
 6575SOL     OW31183   1.500   2.926   8.541 -0.9066  0.2395  0.0801
 6575SOL    HW131184   1.465   2.990   8.603  0.6879  1.9358 -0.7201
 6575SOL    HW231185   1.418   2.903   8.499 -0.8749 -0.0691  0.1899
 6576SOL     OW31186   2.752   3.010   0.215  0.2735  0.5055 -0.1075
 6576SOL    HW131187   2.755   2.971   0.127  0.8518 -1.5317  0.8156
 6576SOL    HW231188   2.842   3.041   0.219 -0.5434  2.7980  0.5379
 6577SOL     OW31189   1.960   2.172  17.320 -0.0873 -0.4283  0.0882
 6577SOL    HW131190   1.870   2.193  17.342 -0.0040  3.1552 -3.0073
 6577SOL    HW231191   2.017   2.227  17.374  1.0781  0.2383 -1.8038
 6578SOL     OW31192   4.235   0.276   3.814  0.2744 -1.1442 -0.4308
 6578SOL    HW131193   4.143   0.301   3.801 -0.1436 -2.0258  0.8709
 6578SOL    HW231194   4.231   0.182   3.832 -1.0202 -1.2620 -1.3700
 6579SOL     OW31195   4.560   1.609  12.336  0.5241 -0.4564 -0.5407
 6579SOL    HW131196   4.569   1.549  12.261 -2.3013  0.0408 -1.2665
 6579SOL    HW231197   4.515   1.545  12.391  1.8600 -0.6425  0.3219
 6580SOL     OW31198   2.961   2.502   2.349 -0.2014  0.4792  0.2407
 6580SOL    HW131199   3.020   2.487   2.423 -0.1686  1.6826  0.4479
 6580SOL    HW231200   3.008   2.483   2.267  0.6699  2.2958  0.3136
 6581SOL     OW31201   2.628   3.655   5.870  0.0875  0.3385  0.4043
 6581SOL    HW131202   2.639   3.640   5.777 -2.3530 -1.7154  0.4808
 6581SOL    HW231203   2.607   3.749   5.874  0.5162  0.5378 -2.1189
 6582SOL     OW31204   2.897   0.409  15.363 -0.1542 -0.0845  0.1444
 6582SOL    HW131205   2.954   0.441  15.293 -1.0453 -1.3245 -1.1403
 6582SOL    HW231206   2.896   0.485  15.421 -2.4699  0.7030 -0.9189
 6583SOL     OW31207   1.725   2.155  13.212  0.1549 -0.2267  0.1518
 6583SOL    HW131208   1.677   2.085  13.168 -1.0699  0.4089  0.4580
 6583SOL    HW231209   1.658   2.224  13.208 -0.9960 -1.3310  0.4142
 6584SOL     OW31210   4.040   2.905   4.482 -0.1432 -0.4079  0.2915
 6584SOL    HW131211   4.089   2.967   4.428  1.1857 -0.6785  1.1937
 6584SOL    HW231212   4.110   2.854   4.521 -0.0840 -1.4694 -1.2062
 6585SOL     OW31213   4.442   4.177   5.986 -0.2535 -0.8400  0.4890
 6585SOL    HW131214   4.462   4.270   5.989  2.0073 -1.2036 -2.6300
 6585SOL    HW231215   4.367   4.175   6.045 -0.7512  0.2681 -0.1062
 6586SOL     OW31216   2.144   0.303   6.077 -0.2546 -0.9661  0.5049
 6586SOL    HW131217   2.162   0.218   6.036  0.8814  0.3458 -1.6955
 6586SOL    HW231218   2.223   0.331   6.124  0.3526  0.1968 -1.2022
 6587SOL     OW31219   3.432   3.756   6.765 -0.1284 -0.2512  0.0390
 6587SOL    HW131220   3.442   3.661   6.769  2.1692 -0.0120 -0.0535
 6587SOL    HW231221   3.486   3.762   6.686 -3.1731 -3.0719 -2.2697
 6588SOL     OW31222   0.401   1.373   7.314 -0.2605 -0.8780  0.6380
 6588SOL    HW131223   0.451   1.292   7.323 -1.1764 -1.4647  0.3488
 6588SOL    HW231224   0.464   1.437   7.280 -0.4939 -0.2592  1.3565
 6589SOL     OW31225   1.472   4.083   7.341 -0.5853 -0.0292 -0.6951
 6589SOL    HW131226   1.463   4.036   7.258  1.6022 -0.8236 -0.4886
 6589SOL    HW231227   1.502   4.012   7.397 -2.4227  1.0012  1.5859
 6590SOL     OW31228   0.226   0.390   5.123  0.3078  0.3202  0.4495
 6590SOL    HW131229   0.217   0.470   5.071  2.0243  1.2164  1.5317
 6590SOL    HW231230   0.175   0.410   5.202 -1.1387  1.6344 -0.8263
 6591SOL     OW31231   0.329   3.345   3.803  0.9896  0.3356 -0.2163
 6591SOL    HW131232   0.355   3.437   3.814  3.2963 -0.3003 -0.2051
 6591SOL    HW231233   0.241   3.352   3.766  1.7671  0.0138 -2.1412
 6592SOL     OW31234   4.409   3.064  14.771  0.2357  0.1101  0.3421
 6592SOL    HW131235   4.406   2.970  14.755  0.8782  0.1230  0.1741
 6592SOL    HW231236   4.490   3.096  14.732 -0.0501 -1.8111 -1.7980
 6593SOL     OW31237   0.503   0.713  13.747  0.0016 -0.7163  0.3311
 6593SOL    HW131238   0.457   0.629  13.747 -2.1093  0.4292  0.1751
 6593SOL    HW231239   0.446   0.782  13.781  0.4987  0.5273 -1.3598
 6594SOL     OW31240   1.105   0.851   4.212  0.2630  0.1450 -0.3344
 6594SOL    HW131241   1.129   0.765   4.248 -1.4858 -0.6272 -1.0194
 6594SOL    HW231242   1.194   0.879   4.191  0.6197 -0.1107  0.8268
 6595SOL     OW31243   2.247   4.040   4.459 -0.2111 -0.2603  0.2547
 6595SOL    HW131244   2.307   4.110   4.432 -0.1935 -1.2631 -2.3134
 6595SOL    HW231245   2.161   4.081   4.450  1.1036  2.4718  0.1131
 6596SOL     OW31246   1.920   1.317  15.286 -0.1729  0.0239 -0.2046
 6596SOL    HW131247   1.892   1.326  15.377  1.3552  0.8640  0.1812
 6596SOL    HW231248   1.998   1.373  15.282 -0.2003 -0.0471 -1.6733
 6597SOL     OW31249   3.106   2.265   8.203  0.9210  0.0749  0.0283
 6597SOL    HW131250   3.092   2.213   8.124 -0.5991 -1.6845  1.4704
 6597SOL    HW231251   3.081   2.354   8.179 -0.3001 -0.8310 -2.0634
 6598SOL     OW31252   0.195   3.443   2.587 -0.3939  0.4361  0.2090
 6598SOL    HW131253   0.223   3.436   2.678 -2.4756  1.0555  0.9046
 6598SOL    HW231254   0.263   3.504   2.559 -0.1343 -0.2309 -0.6066
 6599SOL     OW31255   0.002   4.184   0.613  0.1732 -0.2972 -0.3128
 6599SOL    HW131256   4.680   4.200   0.530 -0.4188  0.3758  0.1238
 6599SOL    HW231257   0.073   4.120   0.605 -0.6634 -1.4448  1.3761
 6600SOL     OW31258   3.309   1.739   4.694 -1.1173 -0.2564  0.1583
 6600SOL    HW131259   3.323   1.793   4.772 -0.9166  1.2824 -0.9585
 6600SOL    HW231260   3.369   1.665   4.708  0.1371 -0.0423 -4.1515
 6601SOL     OW31261   3.453   3.078   8.276 -0.6671  0.0132  0.1958
 6601SOL    HW131262   3.380   3.121   8.320 -0.1752  1.3424 -0.2819
 6601SOL    HW231263   3.529   3.130   8.302 -1.6580  0.3252  2.5118
 6602SOL     OW31264   1.348   0.189   2.296 -0.3794  0.7054 -0.0875
 6602SOL    HW131265   1.294   0.268   2.298  1.0102  1.7456 -3.4053
 6602SOL    HW231266   1.311   0.149   2.375  3.4369 -0.8519  0.9075
 6603SOL     OW31267   0.840   2.075   8.726 -0.8490 -0.1893  0.3052
 6603SOL    HW131268   0.896   2.147   8.696  0.6017 -0.2149  2.9441
 6603SOL    HW231269   0.890   2.046   8.802 -0.7145 -4.8722 -1.5297
 6604SOL     OW31270   3.395   3.241   6.530  0.3299  0.0471  0.1645
 6604SOL    HW131271   3.378   3.245   6.625  0.1592 -0.0582  0.1389
 6604SOL    HW231272   3.344   3.163   6.507 -1.3841  0.4068  2.6549
 6605SOL     OW31273   2.682   4.352   6.929 -0.0757  0.2037 -0.2408
 6605SOL    HW131274   2.725   4.300   6.997 -0.2780 -2.2882 -1.9727
 6605SOL    HW231275   2.685   4.289   6.856  0.5367  0.5497 -0.5109
 6606SOL     OW31276   1.234   4.719  12.890  0.2121 -0.7089  0.4104
 6606SOL    HW131277   1.282   0.027  12.813  3.3692  0.5836  2.8536
 6606SOL    HW231278   1.148   0.035  12.870  0.7503 -0.2906 -1.1437
 6607SOL     OW31279   3.375   0.740  10.098  0.4852 -0.0498  0.1598
 6607SOL    HW131280   3.332   0.749  10.013 -0.3370  1.0632  0.6811
 6607SOL    HW231281   3.305   0.733  10.163 -1.1801 -0.7220 -1.7248
 6608SOL     OW31282   2.772   4.230  13.555 -0.0142  0.0008  0.4470
 6608SOL    HW131283   2.768   4.137  13.533  0.9048 -0.0729  0.5828
 6608SOL    HW231284   2.712   4.233  13.630 -1.5233  0.4225 -0.7864
 6609SOL     OW31285   2.968   4.222   9.108  0.2636  1.0631 -0.3400
 6609SOL    HW131286   2.931   4.133   9.105  1.6574  0.5649 -2.4313
 6609SOL    HW231287   2.917   4.272   9.172  4.2376  2.9822  1.3429
 6610SOL     OW31288   4.720   0.974   0.100  0.0785 -0.7201  0.0994
 6610SOL    HW131289   0.070   1.035   0.120 -0.4257 -0.2448  0.4661
 6610SOL    HW231290   0.049   0.894   0.087  0.3468 -0.2430 -1.8540
 6611SOL     OW31291   4.175   1.591   6.125  0.4348  0.1831 -0.2916
 6611SOL    HW131292   4.175   1.592   6.221 -0.1269  1.1317 -0.3002
 6611SOL    HW231293   4.158   1.497   6.117  1.3893  0.1376 -1.6566
 6612SOL     OW31294   1.685   3.237   9.646  0.4149 -0.0104 -0.0328
 6612SOL    HW131295   1.716   3.249   9.736  4.9054 -1.0882 -1.4584
 6612SOL    HW231296   1.744   3.303   9.611 -0.9572  0.1373 -2.0705
 6613SOL     OW31297   0.699   2.796  15.887 -0.2260 -0.3465  0.0598
 6613SOL    HW131298   0.787   2.812  15.921 -0.4785 -1.2816  1.1432
 6613SOL    HW231299   0.645   2.845  15.948 -2.3701 -1.9828 -0.5107
 6614SOL     OW31300   3.280   0.467   8.347 -0.4432  0.2559  0.0186
 6614SOL    HW131301   3.342   0.400   8.376  0.4379  1.1304  0.1710
 6614SOL    HW231302   3.341   0.531   8.311  1.2895 -0.2139  2.1045
 6615SOL     OW31303   1.518   1.664   9.776  0.6238  0.0401 -0.0742
 6615SOL    HW131304   1.584   1.659   9.845  0.3662 -0.2140  0.1545
 6615SOL    HW231305   1.564   1.708   9.705  2.0478  1.2450  1.5881
 6616SOL     OW31306   3.012   1.543   6.361 -0.2911 -0.5034 -0.2533
 6616SOL    HW131307   3.015   1.587   6.276  0.0264 -0.7859 -0.3901
 6616SOL    HW231308   2.983   1.457   6.329 -2.7653  0.3011 -0.1730
 6617SOL     OW31309   0.907   2.363   9.246 -0.4444  0.3301  0.3266
 6617SOL    HW131310   0.839   2.297   9.260  0.2642 -0.4356  0.1073
 6617SOL    HW231311   0.926   2.340   9.156 -2.3271  0.8464 -0.2092
 6618SOL     OW31312   3.362   0.020   5.554  0.8246 -0.4711  0.1735
 6618SOL    HW131313   3.307   4.664   5.566 -1.1172  0.7490 -0.8626
 6618SOL    HW231314   3.395   0.048   5.640  1.2567 -0.2553 -0.0661
 6619SOL     OW31315   1.877   4.025   3.040 -0.2873 -0.2698 -0.6602
 6619SOL    HW131316   1.826   3.968   2.982  0.3725 -0.3169 -1.1861
 6619SOL    HW231317   1.890   3.968   3.116  0.9281  1.4439  0.4124
 6620SOL     OW31318   3.727   1.349   5.930  0.0289  0.3190  0.1392
 6620SOL    HW131319   3.791   1.410   5.968 -1.4352  1.4538  0.7730
 6620SOL    HW231320   3.661   1.337   5.998  0.0041 -0.6866 -0.0614
 6621SOL     OW31321   4.640   4.266   9.087 -0.8287 -0.2740  0.2397
 6621SOL    HW131322   4.593   4.197   9.039 -0.7665  0.9935 -1.6457
 6621SOL    HW231323   0.009   4.251   9.057 -0.1646 -1.4129  2.8028
 6622SOL     OW31324   4.107   0.270  10.156 -0.1091  0.4659  0.0049
 6622SOL    HW131325   4.070   0.343  10.206 -0.3217  1.1114 -1.0875
 6622SOL    HW231326   4.195   0.303  10.139 -0.7533  2.0198 -0.2953
 6623SOL     OW31327   4.133   3.294   0.286 -0.2179  0.0727 -0.1864
 6623SOL    HW131328   4.208   3.339   0.247 -0.9257 -0.2270 -1.9297
 6623SOL    HW231329   4.059   3.322   0.232 -2.2831 -1.9762  1.6083
 6624SOL     OW31330   2.932   3.926   3.183  0.0150  0.1801  0.4403
 6624SOL    HW131331   3.009   3.886   3.224 -0.7832 -0.5917  1.1883
 6624SOL    HW231332   2.866   3.918   3.252  0.4335 -1.6609  0.6210
 6625SOL     OW31333   3.618   0.015   2.502 -0.1870 -0.1189 -0.5876
 6625SOL    HW131334   3.704   4.695   2.505  0.5029  1.3469 -0.4709
 6625SOL    HW231335   3.585   4.702   2.419  1.5169 -0.6632 -1.0276
 6626SOL     OW31336   2.518   4.050   0.937 -0.5202  0.3391  0.0820
 6626SOL    HW131337   2.566   4.111   0.994  1.1284  0.0868 -1.0284
 6626SOL    HW231338   2.461   4.112   0.891 -0.4069  1.2906  1.2029
 6627SOL     OW31339   4.462   1.195  10.104 -0.4659  0.0524  0.3981
 6627SOL    HW131340   4.391   1.251  10.073  1.4427  2.1914 -0.0857
 6627SOL    HW231341   4.439   1.109  10.067 -0.3006  1.1707 -2.2966
 6628SOL     OW31342   1.587   3.742   6.927 -0.6907 -0.2253 -0.0086
 6628SOL    HW131343   1.520   3.690   6.973 -0.0227 -0.9464  0.1496
 6628SOL    HW231344   1.543   3.770   6.847  1.1907  1.0645 -0.5647
 6629SOL     OW31345   4.269   3.658   0.241  0.2606  0.1226  0.0954
 6629SOL    HW131346   4.298   3.645   0.331 -0.1726  1.4394  0.4294
 6629SOL    HW231347   4.300   3.581   0.194 -0.8581  0.3300 -0.9936
 6630SOL     OW31348   0.712   3.568  16.077  0.2684 -0.0193 -0.2619
 6630SOL    HW131349   0.643   3.550  16.014 -2.1283  0.9884  2.0795
 6630SOL    HW231350   0.721   3.476  16.100  2.5966  0.2628 -0.0034
 6631SOL     OW31351   4.205   3.138   2.299  0.7469  0.0502  0.3663
 6631SOL    HW131352   4.250   3.099   2.224 -3.0593 -0.3781 -1.6748
 6631SOL    HW231353   4.117   3.101   2.301 -0.1184  2.0973 -0.2907
 6632SOL     OW31354   2.412   3.083   0.670 -0.1714 -0.0641 -0.4655
 6632SOL    HW131355   2.407   3.162   0.615  0.4201  0.6228  0.4615
 6632SOL    HW231356   2.431   3.013   0.607 -0.8999  0.4638 -1.2659
 6633SOL     OW31357   2.473   2.605   9.868 -0.4180  0.3766  0.8694
 6633SOL    HW131358   2.527   2.622   9.945  0.4693  0.2669  0.2709
 6633SOL    HW231359   2.441   2.517   9.887 -0.3595  0.6041  2.0228
 6634SOL     OW31360   3.475   1.504   5.334  0.5200 -0.1667 -0.0746
 6634SOL    HW131361   3.537   1.434   5.354  0.7990 -0.2185 -1.1765
 6634SOL    HW231362   3.420   1.457   5.272 -2.0992  0.0532  2.0360
 6635SOL     OW31363   3.642   3.273   5.481  0.7247  0.3551  0.2442
 6635SOL    HW131364   3.619   3.256   5.390  1.2362 -1.2913  0.4343
 6635SOL    HW231365   3.710   3.208   5.493 -0.0842 -0.3094  1.2135
 6636SOL     OW31366   0.515   0.732   9.491  0.3701  0.1309 -0.3736
 6636SOL    HW131367   0.540   0.665   9.427  0.6732  0.6240 -0.7748
 6636SOL    HW231368   0.554   0.811   9.453  1.7482  0.5378  1.8771
 6637SOL     OW31369   1.324   0.058   1.905  0.4947 -0.3069 -0.5844
 6637SOL    HW131370   1.313   0.153   1.898 -0.1271 -0.3140  0.3164
 6637SOL    HW231371   1.236   0.035   1.878  0.2997  0.2703 -0.4419
 6638SOL     OW31372   4.228   1.512   4.937 -0.4916  0.4789  0.9531
 6638SOL    HW131373   4.140   1.479   4.918 -0.2936  0.8668 -0.6238
 6638SOL    HW231374   4.270   1.434   4.973  0.8842  1.0004  0.4516
 6639SOL     OW31375   3.858   3.411   1.004  0.3723  0.3821 -0.2149
 6639SOL    HW131376   3.834   3.418   1.096 -0.7858 -0.4406 -0.4462
 6639SOL    HW231377   3.845   3.318   0.985 -1.3048  0.8680 -1.4126
 6640SOL     OW31378   0.699   4.261   7.121  0.5828 -0.1878  0.2292
 6640SOL    HW131379   0.717   4.354   7.108  1.6258 -0.3815  0.2508
 6640SOL    HW231380   0.736   4.240   7.035  0.3184 -0.2819  0.1373
 6641SOL     OW31381   3.874   0.309   1.834 -0.2708  0.1644  0.0174
 6641SOL    HW131382   3.789   0.340   1.866  0.0705  0.6855  0.4004
 6641SOL    HW231383   3.933   0.331   1.906  0.7186 -1.3749 -0.3083
 6642SOL     OW31384   1.136   1.305   8.300  0.4109 -0.1150  0.1391
 6642SOL    HW131385   1.166   1.394   8.283  1.0195 -0.7030 -1.7801
 6642SOL    HW231386   1.149   1.262   8.216  0.0145 -0.7589  0.4078
 6643SOL     OW31387   2.749   0.702   4.423 -0.2681  0.4190 -0.5319
 6643SOL    HW131388   2.745   0.791   4.390 -0.2390 -0.2047 -2.2203
 6643SOL    HW231389   2.701   0.654   4.356  0.1192  1.3197 -1.4471
 6644SOL     OW31390   2.652   1.624   7.539  0.2917 -0.5318  0.8173
 6644SOL    HW131391   2.671   1.707   7.495  0.6323 -1.3391 -0.5335
 6644SOL    HW231392   2.713   1.567   7.493  1.6787 -1.5335  3.8375
 6645SOL     OW31393   1.060   0.161  14.401  0.0578 -0.5839  0.0604
 6645SOL    HW131394   1.120   0.207  14.461  0.7684  0.6146 -1.5794
 6645SOL    HW231395   0.977   0.206  14.418 -0.7560 -1.9024 -0.4010
 6646SOL     OW31396   4.527   2.590   6.838  0.3058  0.1014  0.2846
 6646SOL    HW131397   4.577   2.661   6.799 -0.4654  0.9737  0.8622
 6646SOL    HW231398   4.541   2.611   6.930  0.0191 -1.9766  0.8069
 6647SOL     OW31399   1.279   0.425   8.628 -0.3143 -0.2689  0.7598
 6647SOL    HW131400   1.256   0.460   8.715 -1.7192  0.4317  0.1123
 6647SOL    HW231401   1.361   0.380   8.649 -0.8483 -2.2474 -1.3288
 6648SOL     OW31402   0.728   2.070   2.654  0.7016 -0.0739 -0.2080
 6648SOL    HW131403   0.763   2.055   2.742 -1.7992 -0.5273  0.6901
 6648SOL    HW231404   0.777   2.008   2.600 -0.7600 -1.4840  0.0909
 6649SOL     OW31405   4.375   3.366   2.287  0.1805 -0.1138 -0.6163
 6649SOL    HW131406   4.418   3.283   2.264 -0.1043 -0.2180 -0.7734
 6649SOL    HW231407   4.283   3.345   2.304  0.4386 -0.7219  0.0315
 6650SOL     OW31408   0.422   4.229   8.357 -0.5756 -0.2200  0.5176
 6650SOL    HW131409   0.437   4.134   8.361  1.6622 -0.0451 -3.2634
 6650SOL    HW231410   0.513   4.252   8.337  0.4783 -2.8762  2.1546
 6651SOL     OW31411   2.960   2.181   5.128  0.0262 -0.3611 -0.2500
 6651SOL    HW131412   2.889   2.245   5.123 -0.7501 -1.1999 -0.1223
 6651SOL    HW231413   2.943   2.120   5.055  0.6257 -0.4669 -0.3037
 6652SOL     OW31414   0.167   3.837   5.644 -0.3021 -0.0436  0.3319
 6652SOL    HW131415   0.088   3.810   5.598  0.8257 -3.7224  0.5563
 6652SOL    HW231416   0.148   3.829   5.737  1.1165 -0.4502  0.5921
 6653SOL     OW31417   4.164   3.963  13.435  0.5071 -0.3812 -0.4230
 6653SOL    HW131418   4.195   3.972  13.345  0.9391  1.7949 -0.0551
 6653SOL    HW231419   4.074   3.937  13.416 -0.2659  1.3320  0.9076
 6654SOL     OW31420   1.444   1.640   7.344 -0.5832 -0.3077  0.5352
 6654SOL    HW131421   1.425   1.618   7.435 -1.7629 -0.0057  0.3733
 6654SOL    HW231422   1.496   1.719   7.363 -0.5449 -0.5035  1.2185
 6655SOL     OW31423   1.360   0.942   4.232  0.5703 -0.5544  0.1136
 6655SOL    HW131424   1.403   0.915   4.313 -1.4506  0.6114  1.5807
 6655SOL    HW231425   1.406   1.025   4.222 -2.9808  1.4284  0.5075
 6656SOL     OW31426   0.540   3.209   2.169 -0.7383  0.4535  0.4788
 6656SOL    HW131427   0.459   3.163   2.149  1.5520 -3.1984 -0.3966
 6656SOL    HW231428   0.602   3.141   2.143  0.9235  2.2242 -0.1841
 6657SOL     OW31429   1.451   3.137   1.368  0.0448 -0.1417 -0.4268
 6657SOL    HW131430   1.513   3.164   1.300  2.1416  0.8058  1.8610
 6657SOL    HW231431   1.459   3.212   1.427  1.2562  1.2972 -2.3787
 6658SOL     OW31432   2.912   0.210   6.340 -0.6290 -0.3626 -0.1176
 6658SOL    HW131433   2.905   0.119   6.368 -3.8439 -0.4563 -1.2601
 6658SOL    HW231434   2.906   0.248   6.428 -0.7393 -0.1454 -0.2181
 6659SOL     OW31435   2.119   3.043   7.036  0.9833  0.5279  0.1025
 6659SOL    HW131436   2.025   3.049   7.020  0.9099  0.3682  0.4857
 6659SOL    HW231437   2.139   3.102   7.109 -0.3494  1.8295 -0.5892
 6660SOL     OW31438   4.451   2.054   9.168  0.0618  0.1258  0.3573
 6660SOL    HW131439   4.368   2.029   9.126 -0.1625  1.8127 -0.2249
 6660SOL    HW231440   4.474   1.970   9.207  0.5181  0.0281 -0.1237
 6661SOL     OW31441   3.970   2.638   2.836  0.3024  0.2873 -0.2098
 6661SOL    HW131442   4.045   2.578   2.834 -0.2696 -0.5062  1.7707
 6661SOL    HW231443   3.924   2.610   2.915 -0.4051  2.5110  0.1712
 6662SOL     OW31444   1.852   2.236  12.698  0.1313  0.5533 -0.1734
 6662SOL    HW131445   1.876   2.328  12.698 -0.3701  0.6854  0.6182
 6662SOL    HW231446   1.855   2.214  12.605 -2.8773  0.1801 -0.1943
 6663SOL     OW31447   2.456   4.063   3.930  0.4194  0.1136  0.2065
 6663SOL    HW131448   2.470   4.112   4.011 -1.9108  0.2307  0.5532
 6663SOL    HW231449   2.438   3.975   3.963 -0.4901 -0.2715 -1.2919
 6664SOL     OW31450   1.940   0.907  12.326 -0.8071 -1.0902  0.3757
 6664SOL    HW131451   1.956   0.916  12.232 -3.2596  0.1578  0.0868
 6664SOL    HW231452   1.876   0.976  12.343  0.3627  0.0201  0.3321
 6665SOL     OW31453   2.422   0.524   5.613 -0.3113  0.2227  0.5447
 6665SOL    HW131454   2.354   0.463   5.641  0.0262 -0.5392 -0.2976
 6665SOL    HW231455   2.417   0.533   5.518  0.9144  1.2976  0.5789
 6666SOL     OW31456   0.907   1.929   2.509 -0.3652 -0.1184  0.7151
 6666SOL    HW131457   0.953   1.973   2.437 -1.7639  0.6809  0.3057
 6666SOL    HW231458   0.841   1.885   2.456  0.2834 -1.8583  1.3523
 6667SOL     OW31459   3.631   3.985   4.486  0.5112  0.1915 -0.1433
 6667SOL    HW131460   3.683   4.045   4.433  0.7714  0.8235  0.8291
 6667SOL    HW231461   3.698   3.917   4.495 -0.6055 -0.9945 -0.8111
 6668SOL     OW31462   1.850   4.244   4.634  0.4062  0.1038 -0.2429
 6668SOL    HW131463   1.828   4.176   4.570 -1.8956  1.3049 -0.7097
 6668SOL    HW231464   1.945   4.234   4.640  0.3139 -1.8099 -1.8743
 6669SOL     OW31465   0.057   0.179   8.093 -0.1468 -0.3758 -0.1896
 6669SOL    HW131466   0.024   0.089   8.098  2.0999 -1.2606 -1.6599
 6669SOL    HW231467   0.140   0.169   8.047 -0.0348 -2.1776  0.3809
 6670SOL     OW31468   1.897   1.492   6.941 -0.3410 -0.1105  0.0080
 6670SOL    HW131469   1.917   1.409   6.985  2.5602  1.1012  0.8951
 6670SOL    HW231470   1.953   1.553   6.988 -0.7794  0.9732 -0.8675
 6671SOL     OW31471   4.176   1.849   2.431 -0.5090  0.1131 -0.1964
 6671SOL    HW131472   4.088   1.811   2.421 -0.8046  1.0308 -1.0848
 6671SOL    HW231473   4.188   1.825   2.522 -1.1690 -0.5815 -0.2871
 6672SOL     OW31474   0.020   1.451   5.162 -0.0808 -0.3417  0.4398
 6672SOL    HW131475   4.647   1.444   5.174  0.0740 -1.1927  1.1589
 6672SOL    HW231476   0.022   1.448   5.066  0.7732  0.0807  0.4467
 6673SOL     OW31477   2.532   1.533  13.513  0.5415  0.2459 -0.3507
 6673SOL    HW131478   2.587   1.605  13.545 -0.3524  0.1924  1.2959
 6673SOL    HW231479   2.545   1.541  13.419  2.5688  0.8210 -0.0247
 6674SOL     OW31480   0.751   0.589   1.967  0.1639  0.0781 -0.1617
 6674SOL    HW131481   0.779   0.536   1.892  0.4877 -0.9068  0.6557
 6674SOL    HW231482   0.749   0.678   1.931  0.5504 -0.4062 -1.3828
 6675SOL     OW31483   2.398   1.611   1.593 -0.3787  0.3666  0.0157
 6675SOL    HW131484   2.383   1.670   1.519  2.0022  1.0142  0.0527
 6675SOL    HW231485   2.493   1.608   1.602 -0.4403  0.1776  0.5521
 6676SOL     OW31486   2.275   1.616  11.522 -0.0434 -0.3020  0.2969
 6676SOL    HW131487   2.242   1.529  11.543  2.2772 -1.0911  0.6667
 6676SOL    HW231488   2.349   1.601  11.463 -0.3165  1.9815 -0.6409
 6677SOL     OW31489   2.853   4.371  15.653 -0.5701  0.4757 -0.0170
 6677SOL    HW131490   2.932   4.387  15.602 -0.5981 -0.3237 -0.3161
 6677SOL    HW231491   2.888   4.406  15.735  0.3780 -2.7165  0.9709
 6678SOL     OW31492   4.390   3.929   1.779 -0.0919 -0.4056 -0.2220
 6678SOL    HW131493   4.426   3.868   1.844  0.5015 -1.8065 -1.8569
 6678SOL    HW231494   4.398   4.017   1.817 -0.5358  0.2087 -1.5633
 6679SOL     OW31495   0.660   2.381   3.204  0.0415 -0.2077 -0.0533
 6679SOL    HW131496   0.642   2.296   3.244 -0.1620 -0.7871 -1.4091
 6679SOL    HW231497   0.631   2.359   3.116  0.7466 -1.7014  0.0909
 6680SOL     OW31498   4.421   1.678   3.746  0.3009  0.2451  0.3914
 6680SOL    HW131499   4.498   1.643   3.701 -0.9983 -0.9390 -0.9392
 6680SOL    HW231500   4.351   1.617   3.722  1.7093 -1.8058  1.5295
 6681SOL     OW31501   2.033   1.001  10.006 -0.0322 -0.0357  0.1015
 6681SOL    HW131502   2.070   1.089  10.006  0.7708 -0.3764  0.2686
 6681SOL    HW231503   1.944   1.020  10.035 -1.0689 -0.2482 -2.9698
 6682SOL     OW31504   4.234   3.316   6.703  0.2318  0.1968 -0.0961
 6682SOL    HW131505   4.308   3.268   6.739  0.2561  0.4961  0.2604
 6682SOL    HW231506   4.248   3.286   6.614 -2.9520  1.6198 -1.0724
 6683SOL     OW31507   4.655   0.784   5.971 -0.2821 -0.4132 -0.1974
 6683SOL    HW131508   4.669   0.788   6.066 -2.5339  1.3639  0.0557
 6683SOL    HW231509   4.587   0.851   5.965  1.4968  1.4318  0.3605
 6684SOL     OW31510   0.659   2.134   4.335 -0.3310 -0.8349  0.3095
 6684SOL    HW131511   0.585   2.179   4.378  0.4666 -0.7347  1.5602
 6684SOL    HW231512   0.678   2.197   4.265 -0.1721  1.0891  2.0598
 6685SOL     OW31513   3.009   3.198   4.124 -0.5187  0.3073  0.6124
 6685SOL    HW131514   2.994   3.179   4.216 -0.8522 -1.8706  0.1140
 6685SOL    HW231515   2.933   3.174   4.071  0.1935 -0.7115  0.0675
 6686SOL     OW31516   0.812   1.111  11.044  0.1333  0.7521 -0.6201
 6686SOL    HW131517   0.850   1.199  11.044  0.9454  0.3975  0.3410
 6686SOL    HW231518   0.753   1.107  11.119 -0.6887 -4.0969 -1.5211
 6687SOL     OW31519   1.313   2.212   8.082  0.5592  0.3626 -0.2010
 6687SOL    HW131520   1.372   2.251   8.146  1.4973 -0.9527 -0.2742
 6687SOL    HW231521   1.350   2.124   8.081 -0.8070 -0.2131  0.6439
 6688SOL     OW31522   1.437   0.198   8.734 -0.1109  0.6000 -0.0502
 6688SOL    HW131523   1.514   0.144   8.753 -0.4083 -0.0848 -0.7688
 6688SOL    HW231524   1.397   0.203   8.821  0.1384  0.5758  0.0655
 6689SOL     OW31525   1.173   2.052   5.955  0.2995  0.2588  0.0301
 6689SOL    HW131526   1.202   1.962   5.972  0.6073  0.3001 -0.2617
 6689SOL    HW231527   1.236   2.074   5.886 -0.6334  1.2114 -0.4923
 6690SOL     OW31528   0.970   4.377  12.882 -1.5038 -0.4724 -0.4660
 6690SOL    HW131529   1.033   4.335  12.940 -0.4542 -1.0536 -2.0476
 6690SOL    HW231530   0.889   4.368  12.932  0.1054 -0.6301  2.1267
 6691SOL     OW31531   3.825   0.632   3.682  0.0262 -0.1243  0.2653
 6691SOL    HW131532   3.732   0.631   3.704  0.1563  0.0830  0.8187
 6691SOL    HW231533   3.840   0.546   3.642  0.7325  0.0799  0.0930
 6692SOL     OW31534   0.088   2.021  17.094 -0.1844 -0.0405 -0.2447
 6692SOL    HW131535   0.128   1.952  17.042  2.3907  0.8755  0.5145
 6692SOL    HW231536   0.092   2.097  17.037 -1.2032  0.2620  0.0758
 6693SOL     OW31537   0.133   2.948   4.234  0.8618 -0.1797  0.1604
 6693SOL    HW131538   0.195   2.980   4.299 -0.4384  2.3754  0.1179
 6693SOL    HW231539   0.051   2.992   4.256 -0.4709 -2.9138  0.7397
 6694SOL     OW31540   2.432   4.565  13.792  0.3815  0.2843 -0.4314
 6694SOL    HW131541   2.406   4.656  13.776 -2.5125 -0.7243 -1.4092
 6694SOL    HW231542   2.343   4.530  13.798  0.3708  0.3627 -0.1401
 6695SOL     OW31543   2.782   2.826  13.793  0.0718 -0.2176 -0.1222
 6695SOL    HW131544   2.785   2.731  13.805  0.1540 -0.3423 -1.1114
 6695SOL    HW231545   2.867   2.838  13.749 -1.2460  0.3518 -2.5266
 6696SOL     OW31546   4.351   2.308   9.760  0.1310  0.4336  0.1713
 6696SOL    HW131547   4.364   2.381   9.820 -0.2363 -0.0504  0.8388
 6696SOL    HW231548   4.414   2.331   9.691 -1.4126  1.4833 -0.9094
 6697SOL     OW31549   1.791   2.947   2.234  0.2065 -0.0788  0.0270
 6697SOL    HW131550   1.860   2.903   2.283  0.4763  0.1245 -0.1638
 6697SOL    HW231551   1.807   3.039   2.257 -0.5321 -0.1955  0.9951
 6698SOL     OW31552   0.190   1.422   5.368 -0.3035  0.2259  0.0874
 6698SOL    HW131553   0.126   1.429   5.297  2.2152  0.2600 -2.1939
 6698SOL    HW231554   0.246   1.495   5.342 -1.2231  1.9712  3.0014
 6699SOL     OW31555   3.673   1.704  12.893  0.3440  0.5768 -0.4360
 6699SOL    HW131556   3.653   1.761  12.967 -3.6628  1.0138 -1.8304
 6699SOL    HW231557   3.725   1.765  12.841 -1.1972  0.7261 -1.8121
 6700SOL     OW31558   2.274   1.257   9.425  0.0993  0.3451  0.1221
 6700SOL    HW131559   2.348   1.281   9.481 -0.0740  1.2960 -0.0536
 6700SOL    HW231560   2.320   1.224   9.347 -0.0803 -0.8873  0.5337
 6701SOL     OW31561   1.596   2.611   6.164 -0.2946  0.5664  0.1499
 6701SOL    HW131562   1.585   2.706   6.172  1.2675  0.7727 -0.0316
 6701SOL    HW231563   1.686   2.607   6.132 -0.8084 -2.2497 -0.9511
 6702SOL     OW31564   3.753   1.792   7.922  0.1028 -0.1863 -0.1086
 6702SOL    HW131565   3.813   1.855   7.884  0.5928  0.6734  2.1005
 6702SOL    HW231566   3.711   1.760   7.842 -0.7098 -0.6854  0.5078
 6703SOL     OW31567   0.776   2.949   5.552 -0.0202 -0.3494  0.1719
 6703SOL    HW131568   0.764   2.862   5.514 -0.1317 -0.6764  0.9438
 6703SOL    HW231569   0.784   2.996   5.469  0.6346  0.1202  0.4999
 6704SOL     OW31570   1.053   2.745   5.682  0.2661 -0.1967 -0.3748
 6704SOL    HW131571   0.981   2.803   5.706  1.0133  0.9905 -1.0332
 6704SOL    HW231572   1.098   2.802   5.620 -0.0130  0.9736  0.4985
 6705SOL     OW31573   0.978   3.162   8.600 -0.0749 -0.0854 -0.6159
 6705SOL    HW131574   0.907   3.224   8.585 -0.3828 -0.1113  0.7704
 6705SOL    HW231575   1.018   3.213   8.670 -3.2913  1.5317  0.0164
 6706SOL     OW31576   4.552   3.988  14.515 -0.4977 -0.1274  0.6694
 6706SOL    HW131577   4.465   3.958  14.542 -0.6869  0.0819  0.2963
 6706SOL    HW231578   4.590   3.901  14.501 -1.1105 -0.0963 -1.1146
 6707SOL     OW31579   4.717   1.456   7.935  0.0848 -0.0024 -0.3870
 6707SOL    HW131580   0.086   1.453   7.903  0.3992 -2.4379  0.7060
 6707SOL    HW231581   0.017   1.496   8.019  1.1201  0.2940 -0.7945
 6708SOL     OW31582   1.312   2.153   5.734  0.2557  0.2602  0.3919
 6708SOL    HW131583   1.238   2.164   5.675  0.1812 -1.5345  0.1512
 6708SOL    HW231584   1.389   2.160   5.677  0.1230  1.1637  0.3347
 6709SOL     OW31585   2.684   0.579   6.861 -0.3456  0.1877 -0.2027
 6709SOL    HW131586   2.751   0.591   6.928  0.8505  0.3345 -1.4233
 6709SOL    HW231587   2.699   0.658   6.809  2.4819  0.7920  1.4729
 6710SOL     OW31588   1.026   4.161   8.098  0.1956 -0.1876  0.4485
 6710SOL    HW131589   1.035   4.256   8.105 -1.2602 -0.2077  2.7322
 6710SOL    HW231590   1.096   4.131   8.156  0.1917  0.0456  0.5767
 6711SOL     OW31591   1.093   3.430   3.119  0.8204 -0.7625  0.2829
 6711SOL    HW131592   1.173   3.378   3.121  0.9617 -0.6378 -2.7920
 6711SOL    HW231593   1.059   3.406   3.033 -1.1991 -0.1646  0.9249
 6712SOL     OW31594   2.027   2.363   8.994 -0.7701 -0.6085 -0.3396
 6712SOL    HW131595   2.077   2.333   8.917  1.3899  0.7844  0.5249
 6712SOL    HW231596   1.975   2.287   9.021 -0.7183 -0.5765 -0.1515
 6713SOL     OW31597   4.311   2.104   2.743 -0.1654  0.2469 -0.2004
 6713SOL    HW131598   4.373   2.088   2.815 -1.4500 -0.3333  0.7752
 6713SOL    HW231599   4.234   2.090   2.797 -0.6808  0.1512 -0.9722
 6714SOL     OW31600   3.595   2.763   0.747  0.4933 -0.0889 -0.4517
 6714SOL    HW131601   3.557   2.755   0.834 -2.8842  1.4082 -1.7961
 6714SOL    HW231602   3.538   2.716   0.686  0.2131  1.2853 -1.2507
 6715SOL     OW31603   0.605   1.552   5.497 -0.0932 -0.0852 -0.0745
 6715SOL    HW131604   0.692   1.546   5.537  0.4928 -0.0991 -1.3385
 6715SOL    HW231605   0.565   1.615   5.557  0.9488  0.5858 -0.0698
 6716SOL     OW31606   2.569   3.107   0.402 -0.1208  0.1467  0.8575
 6716SOL    HW131607   2.641   3.074   0.348  0.7046 -1.6632  3.0817
 6716SOL    HW231608   2.496   3.051   0.374  1.5246 -0.6793 -1.8219
 6717SOL     OW31609   2.968   2.275   9.074  0.6449 -0.1563  0.3636
 6717SOL    HW131610   2.984   2.188   9.111 -2.7255 -0.4070  1.1783
 6717SOL    HW231611   2.961   2.339   9.145 -2.1567  1.9752 -1.8235
 6718SOL     OW31612   2.601   2.699   5.642 -0.1617  0.1631 -0.1082
 6718SOL    HW131613   2.694   2.698   5.662 -0.7166  0.4212  2.5120
 6718SOL    HW231614   2.568   2.764   5.704  0.1155  0.8348 -0.6758
 6719SOL     OW31615   3.409   0.897   9.262  0.4047 -0.2405 -0.0465
 6719SOL    HW131616   3.448   0.870   9.346 -2.6616 -0.1393  1.4291
 6719SOL    HW231617   3.359   0.821   9.232  0.8621  0.2969 -2.1488
 6720SOL     OW31618   2.428   3.266  10.746 -0.0390  0.0793  0.2129
 6720SOL    HW131619   2.349   3.213  10.741 -0.2302  0.5168 -1.4497
 6720SOL    HW231620   2.383   3.350  10.734  0.7474  0.5956  0.8522
 6721SOL     OW31621   2.764   3.679   0.099 -0.4597 -0.2127 -0.8444
 6721SOL    HW131622   2.692   3.693   0.039 -0.9511 -5.3524 -1.3811
 6721SOL    HW231623   2.724   3.623   0.165 -0.9515 -0.5934 -1.4733
 6722SOL     OW31624   4.379   3.199   3.659  0.0565  0.5589 -0.1496
 6722SOL    HW131625   4.336   3.116   3.677  1.9575 -0.0309  1.6590
 6722SOL    HW231626   4.314   3.239   3.601  0.2470 -1.2036 -1.5797
 6723SOL     OW31627   3.408   0.734   8.223  0.2638  0.0768 -0.4801
 6723SOL    HW131628   3.319   0.749   8.191  0.3449 -1.8233 -1.6029
 6723SOL    HW231629   3.440   0.823   8.213 -0.3739  0.3337 -0.2062
 6724SOL     OW31630   2.261   2.533   3.182  0.1616  0.1150  0.0520
 6724SOL    HW131631   2.275   2.627   3.167  0.8177  0.4976  3.0909
 6724SOL    HW231632   2.166   2.522   3.171  0.4028 -2.4471  0.7075
 6725SOL     OW31633   1.660   0.049   8.788 -0.2958 -0.0179 -0.0571
 6725SOL    HW131634   1.681   4.705   8.720 -1.1539 -1.3247  0.9251
 6725SOL    HW231635   1.732   0.112   8.785  0.3806 -0.7343  0.9201
 6726SOL     OW31636   2.477   2.641  16.914  0.4658  0.4696 -0.0383
 6726SOL    HW131637   2.479   2.732  16.885 -1.7524  1.3144  2.4323
 6726SOL    HW231638   2.515   2.646  17.002  2.2699 -1.4118 -0.7277
 6727SOL     OW31639   2.454   0.490  16.013 -0.0036  0.2215  0.1842
 6727SOL    HW131640   2.496   0.564  15.969 -1.5779 -0.3512 -2.3073
 6727SOL    HW231641   2.372   0.469  15.968 -0.7747  0.6094  1.4210
 6728SOL     OW31642   2.039   2.583   7.634 -0.6362  0.3873  0.0182
 6728SOL    HW131643   2.056   2.515   7.568  0.2171  2.2448 -1.6523
 6728SOL    HW231644   1.964   2.544   7.678 -1.1897  1.1513 -0.2645
 6729SOL     OW31645   1.452   2.658   6.385 -0.5131 -0.4592 -0.1615
 6729SOL    HW131646   1.505   2.632   6.310  1.7254  1.5503  0.6788
 6729SOL    HW231647   1.409   2.581   6.420  1.7254 -1.8095 -0.3435
 6730SOL     OW31648   0.693   3.876  16.479  0.7425 -0.0401 -0.2610
 6730SOL    HW131649   0.734   3.853  16.396  0.1959  1.0012 -0.8189
 6730SOL    HW231650   0.768   3.908  16.528 -0.5251  1.0941  0.9553
 6731SOL     OW31651   4.372   0.378   4.077 -0.2144  0.6277  0.2679
 6731SOL    HW131652   4.298   0.438   4.085  0.2148  0.9749  1.6548
 6731SOL    HW231653   4.358   0.338   3.991 -2.9609 -0.8630  1.4041
 6732SOL     OW31654   3.632   0.922   3.839  0.9924  0.0669 -0.4916
 6732SOL    HW131655   3.702   0.906   3.903 -0.3107  0.2414  0.9905
 6732SOL    HW231656   3.628   0.832   3.805  1.0687 -1.2728  3.0443
 6733SOL     OW31657   0.626   3.959   2.347  0.2017 -0.1090  0.0909
 6733SOL    HW131658   0.684   4.006   2.287 -1.1211  1.9387  0.4187
 6733SOL    HW231659   0.637   3.868   2.319 -2.1487 -0.4244  0.1221
 6734SOL     OW31660   1.557   1.764  11.893  0.6387 -0.3328 -0.5468
 6734SOL    HW131661   1.495   1.693  11.909  1.9648 -1.2665  0.4610
 6734SOL    HW231662   1.599   1.784  11.977  1.8156 -0.9453 -0.9884
 6735SOL     OW31663   1.283   3.673   0.537 -0.2991  0.5361  0.1211
 6735SOL    HW131664   1.197   3.637   0.561  0.6611 -1.3822  0.7047
 6735SOL    HW231665   1.255   3.764   0.546  0.4393  0.6514  1.2637
 6736SOL     OW31666   1.004   0.289   9.156 -0.5427  0.5938 -0.1595
 6736SOL    HW131667   0.977   0.234   9.229  0.7131 -0.1135 -0.2294
 6736SOL    HW231668   1.093   0.257   9.146 -0.3901  0.5029  1.5052
 6737SOL     OW31669   1.592   4.708   7.870 -0.1201 -0.1211  0.3412
 6737SOL    HW131670   1.603   4.659   7.951  0.8365 -1.9186 -0.8831
 6737SOL    HW231671   1.641   0.065   7.897 -1.5724  0.3962  1.5339
 6738SOL     OW31672   2.931   3.618   6.485  0.2720 -0.5789 -0.4245
 6738SOL    HW131673   3.021   3.650   6.483 -0.1378  0.6363  1.1468
 6738SOL    HW231674   2.875   3.675   6.537  0.2460 -0.1859 -0.8839
 6739SOL     OW31675   2.789   2.561   4.342  0.2695 -0.0579 -0.3183
 6739SOL    HW131676   2.803   2.634   4.402  0.7724 -0.4440  0.0408
 6739SOL    HW231677   2.755   2.494   4.402  2.7233 -0.8388  0.1931
 6740SOL     OW31678   1.366   0.243   5.374  0.3904  0.0141  0.0966
 6740SOL    HW131679   1.384   0.216   5.464  1.0716  0.6164  0.1404
 6740SOL    HW231680   1.272   0.226   5.378  0.3980 -0.3377 -1.1855
 6741SOL     OW31681   3.822   2.244   6.830 -0.4857 -0.7930  0.4106
 6741SOL    HW131682   3.747   2.291   6.865 -1.4292 -1.7693 -0.2717
 6741SOL    HW231683   3.791   2.181   6.764 -1.7056 -1.6327  1.7752
 6742SOL     OW31684   2.265   0.891   7.332 -0.1743 -0.0257 -0.4166
 6742SOL    HW131685   2.236   0.968   7.282  0.7432 -1.0056 -2.4785
 6742SOL    HW231686   2.209   0.887   7.409  1.5005  1.2142  0.8782
 6743SOL     OW31687   3.935   4.543   6.507  0.2179 -0.3744 -0.2902
 6743SOL    HW131688   3.892   4.605   6.447  0.4264 -0.6042 -0.6816
 6743SOL    HW231689   4.016   4.592   6.521  0.2364 -0.3692 -0.4141
 6744SOL     OW31690   0.768   2.552  15.773  0.4300 -0.4082  0.7950
 6744SOL    HW131691   0.725   2.613  15.834 -1.3240 -0.5948 -0.2663
 6744SOL    HW231692   0.785   2.613  15.702 -1.8335  1.4041  1.8116
 6745SOL     OW31693   0.128   4.444   2.907  0.0392 -0.4114  0.0616
 6745SOL    HW131694   0.078   4.434   2.826 -0.0944  1.2985 -0.0558
 6745SOL    HW231695   0.064   4.505   2.943  0.6821  0.6971 -0.6988
 6746SOL     OW31696   0.452   4.413   8.638  0.3041  0.0177 -0.6970
 6746SOL    HW131697   0.447   4.334   8.691 -1.8131 -0.2153 -1.2388
 6746SOL    HW231698   0.364   4.415   8.601 -0.5658  0.0879  1.3821
 6747SOL     OW31699   4.306   1.020  16.926  0.2505  0.3327  0.0004
 6747SOL    HW131700   4.373   0.951  16.926  0.8878  0.9421 -0.8788
 6747SOL    HW231701   4.363   1.088  16.889 -0.9338  0.7058 -1.1437
 6748SOL     OW31702   1.065   3.188  16.164 -0.4081  0.1335 -0.0269
 6748SOL    HW131703   1.121   3.159  16.092  2.2002 -1.7433  2.7544
 6748SOL    HW231704   1.092   3.129  16.235  2.2963 -0.2738 -1.3959
 6749SOL     OW31705   1.257   2.366  13.280  0.3412 -0.4965  0.2574
 6749SOL    HW131706   1.234   2.310  13.354  1.1868 -2.5163 -1.0298
 6749SOL    HW231707   1.266   2.447  13.330 -0.3751 -0.4268  0.2723
 6750SOL     OW31708   4.613   4.248   7.222  0.1468  0.7403  0.3212
 6750SOL    HW131709   4.574   4.178   7.275 -1.2971 -0.2447 -2.0240
 6750SOL    HW231710   4.659   4.196   7.156  0.1204  1.1264  0.0018
 6751SOL     OW31711   2.207   1.605   6.171 -0.7214 -0.1349  0.3285
 6751SOL    HW131712   2.225   1.693   6.205  0.9853 -1.0191  1.6971
 6751SOL    HW231713   2.113   1.608   6.154 -0.4966  1.5604 -0.6411
 6752SOL     OW31714   3.524   3.625   0.818  0.1600 -0.9019 -0.0224
 6752SOL    HW131715   3.527   3.530   0.828 -0.5642 -1.2796 -3.3417
 6752SOL    HW231716   3.608   3.640   0.774 -0.0251 -0.0949 -0.1026
 6753SOL     OW31717   4.588   1.610  11.845 -0.0480  0.0598 -0.2006
 6753SOL    HW131718   4.679   1.625  11.818  1.0354 -1.1426  2.7885
 6753SOL    HW231719   4.556   1.565  11.767  1.1352  0.4974 -0.9399
 6754SOL     OW31720   0.150   4.562   6.913 -0.2337 -0.1035 -0.2663
 6754SOL    HW131721   0.124   4.535   6.825 -0.2956  0.6714 -0.4818
 6754SOL    HW231722   0.171   4.654   6.897 -2.5559  0.5396  0.4424
 6755SOL     OW31723   1.185   0.455   2.606  0.1834  0.1841 -0.1115
 6755SOL    HW131724   1.146   0.542   2.616 -4.0299 -1.8275  1.1858
 6755SOL    HW231725   1.140   0.409   2.535  0.1392 -1.6228  1.1037
 6756SOL     OW31726   0.633   1.013   9.656 -0.1268 -0.5680  0.5058
 6756SOL    HW131727   0.563   1.078   9.654  0.2369 -0.2870 -3.1088
 6756SOL    HW231728   0.708   1.044   9.705 -0.6072  0.8415  0.3387
 6757SOL     OW31729   4.331   2.676  15.180  0.0003 -0.7187  0.1724
 6757SOL    HW131730   4.343   2.619  15.256  1.6720 -2.0855 -1.1105
 6757SOL    HW231731   4.285   2.620  15.118 -0.6022  0.0628 -0.0743
 6758SOL     OW31732   4.309   3.815  10.766  0.0976  0.2516 -0.4265
 6758SOL    HW131733   4.299   3.766  10.685 -0.0771  0.7505 -0.7073
 6758SOL    HW231734   4.316   3.747  10.832 -2.1332  1.0163  0.5993
 6759SOL     OW31735   3.483   2.071   4.058 -0.1970 -0.5368 -0.2381
 6759SOL    HW131736   3.454   1.980   4.052 -0.6247 -0.4160 -0.0197
 6759SOL    HW231737   3.543   2.069   4.132  0.6011 -0.5994 -0.8851
 6760SOL     OW31738   2.700   2.101   8.463 -0.4324  0.2032 -0.3823
 6760SOL    HW131739   2.753   2.104   8.543 -1.9459  0.7469  0.5970
 6760SOL    HW231740   2.737   2.175   8.415  1.9454 -0.9885 -0.4204
 6761SOL     OW31741   1.252   0.075   7.397 -0.0639 -0.4500  0.2180
 6761SOL    HW131742   1.187   0.143   7.377 -1.3574 -1.8011 -0.1911
 6761SOL    HW231743   1.194   4.721   7.387 -0.1844 -0.2723 -0.4326
 6762SOL     OW31744   2.361   3.304  17.675 -0.0178 -0.4965 -0.2314
 6762SOL    HW131745   2.346   3.282  17.583  0.1264  1.2356 -0.6594
 6762SOL    HW231746   2.404   3.224   0.021  0.6535  0.5726  1.4818
 6763SOL     OW31747   4.093   0.177  17.502  0.4568 -0.1212 -0.3709
 6763SOL    HW131748   4.123   0.195  17.591  0.4885  1.1899 -0.6392
 6763SOL    HW231749   4.155   0.107  17.482  2.6748  1.4660  0.8343
 6764SOL     OW31750   2.194   1.984   6.701 -0.1368 -0.2581 -0.1454
 6764SOL    HW131751   2.215   1.891   6.700 -2.1012 -0.6944 -1.3837
 6764SOL    HW231752   2.212   2.010   6.791  2.5527  0.1224 -0.7926
 6765SOL     OW31753   2.711   1.851   3.189  0.0548 -0.5717  0.2433
 6765SOL    HW131754   2.784   1.909   3.169  0.5017 -0.0644  3.2942
 6765SOL    HW231755   2.657   1.888   3.119  0.3711  0.9538  0.7957
 6766SOL     OW31756   3.437   1.130   7.579  0.0298  0.1324 -0.1422
 6766SOL    HW131757   3.482   1.135   7.663  0.2964  0.4684 -0.3024
 6766SOL    HW231758   3.345   1.124   7.604  0.0979 -0.2060  0.0254
 6767SOL     OW31759   1.534   0.617  14.757 -0.0957  0.3572 -0.5162
 6767SOL    HW131760   1.618   0.634  14.714  0.4426 -1.4450 -0.2131
 6767SOL    HW231761   1.555   0.596  14.848 -1.3617  0.9986 -0.0862
 6768SOL     OW31762   1.494   0.552   7.110 -0.0072  0.1633  0.2760
 6768SOL    HW131763   1.505   0.456   7.113 -0.0422  0.1580  0.2214
 6768SOL    HW231764   1.582   0.577   7.137 -0.7148  0.1158  2.6796
 6769SOL     OW31765   0.833   2.709   3.615  0.1043 -0.0891  0.2393
 6769SOL    HW131766   0.809   2.668   3.531 -1.1285  1.6743 -0.2516
 6769SOL    HW231767   0.915   2.664   3.637 -0.0928 -0.6425 -0.1447
 6770SOL     OW31768   4.398   4.623   5.334  0.2697 -0.2029 -0.3021
 6770SOL    HW131769   4.353   4.660   5.257  0.2542  1.6568  0.6126
 6770SOL    HW231770   4.453   4.697   5.359  0.1949 -0.0761 -0.5111
 6771SOL     OW31771   4.317   4.064  15.514 -0.3152 -0.0899 -0.4319
 6771SOL    HW131772   4.400   4.091  15.553 -1.1730  1.2766  0.4577
 6771SOL    HW231773   4.259   4.042  15.587 -0.3382  1.6599  0.0918
 6772SOL     OW31774   3.612   0.552   8.161  0.3002 -0.1474 -0.4673
 6772SOL    HW131775   3.552   0.617   8.196  0.0986 -0.3836 -0.3709
 6772SOL    HW231776   3.694   0.600   8.169  0.1316  0.1984 -0.8277
 6773SOL     OW31777   2.025   0.495   6.320 -0.2117 -0.5232 -0.3171
 6773SOL    HW131778   2.054   0.421   6.267 -1.0685 -2.0524  1.3645
 6773SOL    HW231779   2.081   0.491   6.398  0.5369  1.1582 -0.7691
 6774SOL     OW31780   3.288   2.549   0.665 -0.1562 -0.2116 -0.0978
 6774SOL    HW131781   3.277   2.507   0.750 -0.2494  1.2401  0.5960
 6774SOL    HW231782   3.198   2.577   0.648  1.2511  4.0186 -0.6114
 6775SOL     OW31783   2.474   2.749   2.806  0.2910 -0.0047 -0.2288
 6775SOL    HW131784   2.463   2.654   2.805  1.0631 -0.1072  1.3989
 6775SOL    HW231785   2.563   2.761   2.839 -0.1841 -1.4993  1.5981
 6776SOL     OW31786   0.288   0.440   3.260 -0.1898  0.0116  0.0779
 6776SOL    HW131787   0.373   0.408   3.229 -1.5057 -1.9157 -1.4915
 6776SOL    HW231788   0.281   0.532   3.233  4.6016  0.7394  1.3149
 6777SOL     OW31789   0.010   2.699   2.693  0.1183 -0.1430 -0.1108
 6777SOL    HW131790   0.045   2.658   2.773  0.3259  1.7042  0.7319
 6777SOL    HW231791   0.058   2.653   2.624  2.4229  2.1656 -0.0341
 6778SOL     OW31792   3.247   4.383  17.167 -0.0109  0.6933  0.6285
 6778SOL    HW131793   3.276   4.400  17.077  0.1156 -0.0994  0.5152
 6778SOL    HW231794   3.198   4.464  17.181  1.1834  1.6277 -0.5972
 6779SOL     OW31795   3.797   3.468   2.553  0.0698 -0.1746 -0.0116
 6779SOL    HW131796   3.836   3.448   2.639  3.5857 -1.2073 -1.8491
 6779SOL    HW231797   3.866   3.438   2.494 -0.4486  1.9694 -1.6737
 6780SOL     OW31798   2.064   4.378  15.683 -0.1524  0.3154 -0.1309
 6780SOL    HW131799   2.095   4.448  15.624  2.5975  1.4136  2.5808
 6780SOL    HW231800   2.138   4.319  15.672 -0.4878  0.0355 -0.8604
 6781SOL     OW31801   1.179   4.692   5.190  0.0374 -0.3309  0.5011
 6781SOL    HW131802   1.200   4.662   5.279 -1.2779  0.1876  0.9751
 6781SOL    HW231803   1.124   4.623   5.154  2.6060 -2.0925 -0.0979
 6782SOL     OW31804   1.571   3.177   6.716  0.1409  0.0942 -0.2991
 6782SOL    HW131805   1.626   3.124   6.774 -1.1494  0.3705  1.1678
 6782SOL    HW231806   1.593   3.266   6.741 -1.2347 -0.1605  1.7729
 6783SOL     OW31807   1.518   2.273   8.666 -0.1039 -0.9013 -0.7364
 6783SOL    HW131808   1.530   2.330   8.590  3.4009 -1.2723 -0.4721
 6783SOL    HW231809   1.578   2.203   8.639  1.0545  0.1953 -0.9937
 6784SOL     OW31810   1.067   3.375   5.124 -0.4517 -0.4815  0.8331
 6784SOL    HW131811   1.160   3.351   5.122 -0.0618  1.0575 -0.0780
 6784SOL    HW231812   1.032   3.286   5.124 -0.5023 -0.4671 -0.4561
 6785SOL     OW31813   1.056   4.546  10.131 -0.4551  0.5054 -0.0727
 6785SOL    HW131814   1.009   4.597  10.065 -0.3661  1.0620  0.2952
 6785SOL    HW231815   1.059   4.609  10.203 -0.9861  1.2444 -0.6900
 6786SOL     OW31816   4.392   2.522  14.229 -0.4276 -0.1579  0.0568
 6786SOL    HW131817   4.358   2.601  14.273 -1.4309 -0.2027 -0.6199
 6786SOL    HW231818   4.318   2.491  14.177 -0.3464  1.4556 -1.0432
 6787SOL     OW31819   0.402   3.525   8.379 -0.1039 -0.0062 -0.1818
 6787SOL    HW131820   0.365   3.452   8.429 -0.5392 -0.4353 -1.1347
 6787SOL    HW231821   0.371   3.606   8.420  3.5005  0.9460  0.7208
 6788SOL     OW31822   1.775   2.380   3.430  0.0508  0.7351  0.4720
 6788SOL    HW131823   1.706   2.316   3.446  0.7771 -0.5894 -1.7528
 6788SOL    HW231824   1.809   2.398   3.517 -0.5323  4.3426 -0.0021
 6789SOL     OW31825   3.174   1.273   0.575  0.2806 -0.1548  0.1756
 6789SOL    HW131826   3.232   1.233   0.509  1.1419  1.4155 -0.0122
 6789SOL    HW231827   3.240   1.327   0.618  2.2402 -2.0544 -0.4446
 6790SOL     OW31828   1.284   1.166   7.167  0.2118 -0.3831  0.1282
 6790SOL    HW131829   1.378   1.183   7.176  0.0590 -0.7176  2.3631
 6790SOL    HW231830   1.258   1.257   7.183 -0.7644 -0.4573 -1.1081
 6791SOL     OW31831   0.183   2.245   5.472 -0.1636  0.1598  0.1790
 6791SOL    HW131832   0.162   2.175   5.535 -0.8657  0.2031 -0.0031
 6791SOL    HW231833   0.176   2.194   5.392  1.8695 -3.1767  2.1107
 6792SOL     OW31834   4.634   1.176   8.080  0.3211 -0.3184  0.2614
 6792SOL    HW131835   4.667   1.241   8.142  0.8802  0.1264 -0.5030
 6792SOL    HW231836   4.679   1.194   7.997  3.4630 -1.5403  1.7156
 6793SOL     OW31837   4.208   1.910   4.033 -0.0272  0.1715  0.4921
 6793SOL    HW131838   4.239   1.827   4.069  0.4604  0.3187  0.4140
 6793SOL    HW231839   4.216   1.960   4.114 -0.2406  1.7675 -0.4684
 6794SOL     OW31840   1.642   2.089   6.947 -0.0874  0.4778 -0.0817
 6794SOL    HW131841   1.597   2.096   7.031 -0.8426 -0.5970 -0.3971
 6794SOL    HW231842   1.693   2.170   6.949 -1.5909  1.3727  2.5696
 6795SOL     OW31843   2.434   2.273  16.288  0.0476 -0.1444 -0.3574
 6795SOL    HW131844   2.464   2.229  16.208  0.4234  0.1807 -0.3973
 6795SOL    HW231845   2.462   2.205  16.349 -0.1655 -1.1661 -1.4023
 6796SOL     OW31846   2.847   3.345   6.145  0.0061  0.1155 -0.0759
 6796SOL    HW131847   2.892   3.355   6.061 -4.0410 -1.3257 -2.4544
 6796SOL    HW231848   2.767   3.394   6.125  0.3219  0.7856  0.2887
 6797SOL     OW31849   2.739   2.619   9.106 -1.3040  0.3279 -0.4204
 6797SOL    HW131850   2.769   2.711   9.105 -1.1445  0.2870  0.9665
 6797SOL    HW231851   2.662   2.620   9.050 -0.5728 -1.6563 -1.4395
 6798SOL     OW31852   0.628   3.348  10.489 -0.4113 -0.0208 -0.0880
 6798SOL    HW131853   0.622   3.298  10.570 -3.6611 -1.5101 -1.2545
 6798SOL    HW231854   0.606   3.275  10.432  4.2122 -1.3831 -0.1007
 6799SOL     OW31855   3.662   1.702   5.313 -0.5296 -0.0535  0.3826
 6799SOL    HW131856   3.708   1.651   5.246 -1.1437  2.1135 -1.6818
 6799SOL    HW231857   3.589   1.644   5.334 -0.2392 -1.3567 -2.1970
 6800SOL     OW31858   0.122   3.079   8.842  0.0049 -0.6261  0.4801
 6800SOL    HW131859   0.147   3.056   8.931  0.7354  0.1783  0.4855
 6800SOL    HW231860   0.193   3.031   8.799  1.2357 -0.1692  2.0126
 6801SOL     OW31861   2.043   4.172   4.950 -0.2660  0.0706 -0.0783
 6801SOL    HW131862   2.038   4.265   4.931  0.8225  0.4132  1.2725
 6801SOL    HW231863   2.135   4.166   4.977 -0.5360 -0.4047  0.7599
 6802SOL     OW31864   3.371   4.607  17.278 -0.2050  0.0660  0.0833
 6802SOL    HW131865   3.363   4.667  17.204  1.0039 -0.3450 -0.3627
 6802SOL    HW231866   3.461   4.576  17.278 -1.0708 -2.3559 -3.5659
 6803SOL     OW31867   0.274   2.517  13.917 -0.6224 -0.7549 -0.6566
 6803SOL    HW131868   0.202   2.556  13.966 -0.1039  1.0848 -1.3582
 6803SOL    HW231869   0.344   2.538  13.978 -1.0503  3.3823 -1.6267
 6804SOL     OW31870   1.491   0.701  10.242 -0.1330 -0.1079  0.1526
 6804SOL    HW131871   1.458   0.614  10.266 -1.3977  0.5694  0.8888
 6804SOL    HW231872   1.438   0.757  10.299  0.6242  1.8513 -1.1072
 6805SOL     OW31873   3.667   4.667  15.051  0.3505 -0.2663  0.1437
 6805SOL    HW131874   3.736   4.668  14.984 -0.3312 -0.2910 -0.5678
 6805SOL    HW231875   3.673   4.580  15.091 -0.3116 -1.3910 -2.1604
 6806SOL     OW31876   1.979   3.883   4.604 -0.5456  0.2968 -0.5579
 6806SOL    HW131877   2.025   3.825   4.665  0.0829 -0.0270 -1.3360
 6806SOL    HW231878   1.915   3.922   4.664 -1.8072  1.1000 -2.4344
 6807SOL     OW31879   1.085   1.799   0.272 -0.4379 -0.1513 -0.3033
 6807SOL    HW131880   1.007   1.851   0.254  0.0723  0.1127 -1.7520
 6807SOL    HW231881   1.081   1.782   0.366 -1.3233  1.8725  0.0350
 6808SOL     OW31882   1.814   1.560   5.167 -0.1587 -0.2587  0.1732
 6808SOL    HW131883   1.881   1.607   5.116 -0.8530  0.7410  0.1842
 6808SOL    HW231884   1.857   1.540   5.250 -1.4866 -2.6097  0.2988
 6809SOL     OW31885   4.672   3.238   2.506  0.2099 -0.8510  0.6383
 6809SOL    HW131886   0.001   3.284   2.573  1.1318 -2.4998  1.0796
 6809SOL    HW231887   4.720   3.221   2.425  1.8799  2.4659  0.9511
 6810SOL     OW31888   4.359   0.672   3.902  0.4716 -0.2529 -0.4613
 6810SOL    HW131889   4.336   0.760   3.930  1.6557 -0.3567  0.8177
 6810SOL    HW231890   4.327   0.628   3.981 -1.6058  1.0758 -0.5589
 6811SOL     OW31891   1.502   1.024   9.777 -0.7773  0.0590  0.2883
 6811SOL    HW131892   1.587   1.004   9.817 -0.9048  1.2836  1.1873
 6811SOL    HW231893   1.442   0.960   9.814 -0.3636 -0.5379 -0.0756
 6812SOL     OW31894   4.419   1.172   7.377 -0.0828  0.5973  0.0051
 6812SOL    HW131895   4.419   1.134   7.465 -0.7360  1.2517  0.2793
 6812SOL    HW231896   4.389   1.261   7.394 -1.3483 -0.0799  1.2680
 6813SOL     OW31897   1.489   0.712   7.547  0.2515 -0.2441 -0.3025
 6813SOL    HW131898   1.503   0.807   7.543 -1.5711  0.0418 -0.1945
 6813SOL    HW231899   1.437   0.696   7.468 -0.0418  3.3606 -0.8449
 6814SOL     OW31900   2.373   1.666   3.076  0.7869 -0.2993  0.0550
 6814SOL    HW131901   2.427   1.600   3.033  1.8811 -1.2776  2.8950
 6814SOL    HW231902   2.352   1.720   3.000  2.7578  1.9822  1.1167
 6815SOL     OW31903   3.141   0.579   0.124 -0.0994 -0.6132 -0.1183
 6815SOL    HW131904   3.160   0.563   0.217  1.2450  0.2603 -0.2507
 6815SOL    HW231905   3.146   0.489   0.092 -0.0191  0.3896 -2.9107
 6816SOL     OW31906   1.953   4.542   7.861  0.0464 -0.7938 -0.2547
 6816SOL    HW131907   1.900   4.463   7.861  1.0525 -1.4599 -1.6353
 6816SOL    HW231908   1.950   4.556   7.956 -0.9364 -2.8703  0.0114
 6817SOL     OW31909   3.235   4.091   3.926  0.0286 -0.1568  0.0857
 6817SOL    HW131910   3.170   4.115   3.860  0.7527  0.8354 -0.2735
 6817SOL    HW231911   3.287   4.027   3.877 -0.6326  0.9354 -2.0870
 6818SOL     OW31912   0.726   0.051   0.469  0.3847  0.6362  0.0539
 6818SOL    HW131913   0.695   0.074   0.381 -1.9110  0.9251  0.9337
 6818SOL    HW231914   0.715   4.677   0.462  1.6032  0.7556 -3.5133
 6819SOL     OW31915   2.677   1.441   4.088  0.3174  0.1505 -0.2145
 6819SOL    HW131916   2.680   1.380   4.161  1.3850 -0.7654 -1.0204
 6819SOL    HW231917   2.766   1.477   4.088 -0.6366  2.5088  4.3625
 6820SOL     OW31918   3.016   3.245   6.542 -0.0268 -0.1017  0.9599
 6820SOL    HW131919   2.941   3.294   6.507 -0.9063 -0.6099  2.1563
 6820SOL    HW231920   3.084   3.264   6.477  0.2665 -3.1680  0.3863
 6821SOL     OW31921   1.095   0.024   4.131 -0.2641 -0.1733 -0.0422
 6821SOL    HW131922   1.083   0.088   4.061  3.4385 -0.1080 -0.6243
 6821SOL    HW231923   1.145   4.679   4.082  0.9124  1.0555 -0.5327
 6822SOL     OW31924   0.132   0.259   3.150  0.0561 -0.4960  0.4530
 6822SOL    HW131925   0.051   0.301   3.180 -0.2135 -2.0616  1.9037
 6822SOL    HW231926   0.189   0.333   3.173  0.0948 -0.5849  0.6404
 6823SOL     OW31927   1.891   2.119  12.105  0.2349  0.5668  0.0111
 6823SOL    HW131928   1.836   2.075  12.170  0.3583 -0.4715 -0.5760
 6823SOL    HW231929   1.860   2.209  12.112  0.4087  0.6983 -0.8867
 6824SOL     OW31930   4.696   1.443   8.767 -0.4785  0.3805 -0.3375
 6824SOL    HW131931   0.023   1.520   8.796  0.1814  0.3755 -1.4449
 6824SOL    HW231932   4.712   1.449   8.673 -0.7808  1.6436 -0.3021
 6825SOL     OW31933   1.953   3.768   4.368 -0.2159 -0.1961 -0.0754
 6825SOL    HW131934   1.931   3.851   4.327  0.8037 -0.1138 -0.4563
 6825SOL    HW231935   1.975   3.802   4.455  1.3108  0.9731 -0.9364
 6826SOL     OW31936   0.801   4.584   2.135  0.3645  0.4943 -0.6234
 6826SOL    HW131937   0.877   4.637   2.112  2.5990 -1.5477  2.0292
 6826SOL    HW231938   0.793   4.603   2.228 -1.1480 -0.9114 -0.4630
 6827SOL     OW31939   2.418   2.151  15.645 -0.0748  0.2938 -0.0013
 6827SOL    HW131940   2.391   2.067  15.682  0.7623  0.5837  1.2416
 6827SOL    HW231941   2.473   2.117  15.575  2.2475  2.7379  0.6337
 6828SOL     OW31942   1.878   3.157   4.748  0.2838  0.2000  0.5814
 6828SOL    HW131943   1.801   3.101   4.740  0.0470  0.5283  0.5628
 6828SOL    HW231944   1.899   3.158   4.654 -1.3348 -1.5395  0.2056
 6829SOL     OW31945   3.035   2.121   6.729  0.5947 -0.3839 -0.2282
 6829SOL    HW131946   2.970   2.106   6.661  1.1021  1.9849 -1.2169
 6829SOL    HW231947   2.987   2.184   6.782 -0.1869 -2.1914  1.2246
 6830SOL     OW31948   1.378   3.422   7.576  0.0792 -0.1632 -0.1414
 6830SOL    HW131949   1.287   3.439   7.552 -0.5422 -3.3838 -0.0093
 6830SOL    HW231950   1.373   3.388   7.666  0.2653  0.9485  0.2993
 6831SOL     OW31951   3.164   4.418   3.439  0.2438  0.2785  0.0186
 6831SOL    HW131952   3.183   4.485   3.505 -1.7279  0.2989  0.5498
 6831SOL    HW231953   3.074   4.396   3.463  0.7103 -2.8246 -1.1266
 6832SOL     OW31954   0.953   4.656   5.693 -0.1861 -0.8492 -0.3749
 6832SOL    HW131955   0.975   4.599   5.767 -2.6662 -0.7180  0.4897
 6832SOL    HW231956   0.907   0.004   5.742  2.4286  1.6204 -1.4449
 6833SOL     OW31957   2.503   0.958  10.765  0.2104 -0.1466  0.4221
 6833SOL    HW131958   2.449   0.913  10.700 -1.0540  0.2109  1.2158
 6833SOL    HW231959   2.450   1.037  10.763  0.5396  0.0363 -0.9915
 6834SOL     OW31960   3.138   2.096   3.722 -0.6030  0.5202  0.3780
 6834SOL    HW131961   3.096   2.091   3.636 -0.0444 -0.3637  0.1623
 6834SOL    HW231962   3.064   2.115   3.779 -2.1810 -0.4534 -1.3737
 6835SOL     OW31963   1.674   1.939   9.389 -0.5620  0.2364  0.5933
 6835SOL    HW131964   1.666   1.877   9.461  0.2714 -1.7235 -1.0036
 6835SOL    HW231965   1.715   2.017   9.426  2.4702  0.7444 -3.8781
 6836SOL     OW31966   3.094   3.517   4.474 -0.0133 -0.8527 -0.2374
 6836SOL    HW131967   3.159   3.448   4.490 -0.9194 -1.6957 -0.2077
 6836SOL    HW231968   3.086   3.568   4.554  0.1919 -0.2663 -0.5933
 6837SOL     OW31969   1.043   3.835   4.724  0.0433  0.4959 -0.4967
 6837SOL    HW131970   0.995   3.768   4.773  0.1043  1.4158  0.7959
 6837SOL    HW231971   1.104   3.775   4.681 -0.0338  1.9451 -2.6386
 6838SOL     OW31972   2.826   2.111   2.883  0.4226  0.2024  0.0306
 6838SOL    HW131973   2.782   2.151   2.808 -2.4849 -0.8705  1.1377
 6838SOL    HW231974   2.768   2.036   2.899  1.1991 -1.0646 -3.1499
 6839SOL     OW31975   3.558   1.417  17.339  0.3560 -0.5973  0.6922
 6839SOL    HW131976   3.627   1.483  17.340  0.4867 -0.7481  1.3987
 6839SOL    HW231977   3.616   1.341  17.341  1.6918  0.4123 -0.2210
 6840SOL     OW31978   4.240   3.220  16.594  0.2599  0.9259 -0.0645
 6840SOL    HW131979   4.223   3.260  16.679 -1.0643  1.7506 -0.7230
 6840SOL    HW231980   4.322   3.263  16.568 -0.1730  0.5989 -1.9229
 6841SOL     OW31981   3.587   4.199  16.862 -0.1560  0.2529 -0.2670
 6841SOL    HW131982   3.612   4.111  16.833 -0.0007  0.0885  0.3633
 6841SOL    HW231983   3.633   4.213  16.945  0.4251  0.9126 -0.6968
 6842SOL     OW31984   0.569   1.109   2.018  0.9581  0.6034 -0.0102
 6842SOL    HW131985   0.573   1.086   1.925 -2.6536  0.3493 -0.1193
 6842SOL    HW231986   0.618   1.191   2.014  0.8814  0.6831  0.6183
 6843SOL     OW31987   2.145   0.055   2.391 -0.4684 -0.6465 -0.5398
 6843SOL    HW131988   2.121   0.117   2.460  1.7683 -1.0139  0.5682
 6843SOL    HW231989   2.091   0.077   2.315 -0.1671 -1.1400 -0.8964
 6844SOL     OW31990   2.548   1.195   3.126 -0.3869 -0.9045 -0.7826
 6844SOL    HW131991   2.467   1.173   3.173  1.3750 -0.0025  2.7212
 6844SOL    HW231992   2.583   1.274   3.167 -0.4135 -1.9068  1.1808
 6845SOL     OW31993   0.644   4.419  13.969 -0.2402  0.0931 -0.1099
 6845SOL    HW131994   0.669   4.327  13.961 -0.4961 -0.1586  2.1054
 6845SOL    HW231995   0.729   4.455  13.945 -0.1185 -0.6327 -0.7747
 6846SOL     OW31996   4.323   3.676   8.065 -0.0375  0.1510 -0.4053
 6846SOL    HW131997   4.233   3.706   8.049 -0.0212  0.2772 -0.2634
 6846SOL    HW231998   4.314   3.670   8.160  0.1251  0.9078 -0.3426
 6847SOL     OW31999   0.539   2.741  17.019  0.1941 -0.2663 -0.0929
 6847SOL    HW132000   0.464   2.690  17.049  1.4730 -2.4558 -0.6126
 6847SOL    HW232001   0.578   2.769  17.101 -3.9558  2.5365  0.8929
 6848SOL     OW32002   0.936   2.352   5.086  0.0382 -0.1327 -0.2861
 6848SOL    HW132003   0.868   2.288   5.064  0.4614 -0.4902 -0.5338
 6848SOL    HW232004   0.975   2.370   5.000 -1.1339 -0.9520 -0.9978
 6849SOL     OW32005   2.526   3.702  11.658  0.0565 -0.2321 -0.6497
 6849SOL    HW132006   2.523   3.646  11.735 -1.8871  0.2560 -0.3594
 6849SOL    HW232007   2.537   3.793  11.686  2.9800 -0.5677 -0.7644
 6850SOL     OW32008   0.106   4.153   3.351 -0.1134 -1.1573 -0.4226
 6850SOL    HW132009   0.046   4.227   3.352  0.4574 -0.7342  1.3992
 6850SOL    HW232010   0.158   4.172   3.272  0.2788 -0.5461 -0.0170
 6851SOL     OW32011   0.946   2.509   5.766 -0.0461  0.3622  0.3659
 6851SOL    HW132012   0.979   2.588   5.723  0.2456  0.7245  1.2487
 6851SOL    HW232013   0.855   2.529   5.787 -0.5980 -0.1247 -1.5567
 6852SOL     OW32014   3.536   3.642   3.295 -0.5248 -0.1450  0.8766
 6852SOL    HW132015   3.571   3.720   3.339  0.1280 -0.0397  0.1784
 6852SOL    HW232016   3.518   3.588   3.372 -1.6343 -3.9748 -2.0940
 6853SOL     OW32017   2.834   3.123   8.016  0.3583  0.2326 -0.1629
 6853SOL    HW132018   2.832   3.086   7.928 -2.8226 -1.5018  0.6461
 6853SOL    HW232019   2.873   3.062   8.078 -1.6554 -1.6424 -0.7722
 6854SOL     OW32020   2.097   3.933   5.965 -0.3584 -0.2760 -0.8859
 6854SOL    HW132021   2.102   4.027   5.979  0.3229 -0.3627 -0.5248
 6854SOL    HW232022   2.014   3.910   5.923 -1.7258  0.2154  1.5445
 6855SOL     OW32023   3.812   0.084   5.579  0.5036  0.3358 -0.0442
 6855SOL    HW132024   3.761   0.086   5.660  0.8367  1.0426  0.1517
 6855SOL    HW232025   3.753   0.135   5.523  2.2563 -0.1157 -2.2749
 6856SOL     OW32026   2.929   2.652   1.226 -0.2192 -0.0020  0.5017
 6856SOL    HW132027   2.899   2.700   1.149 -2.9887 -0.0640  1.5558
 6856SOL    HW232028   2.895   2.706   1.298 -0.5358 -0.0364  0.3775
 6857SOL     OW32029   1.018   4.101   6.518 -0.0943 -0.4691 -0.7906
 6857SOL    HW132030   0.942   4.071   6.568  0.9359 -0.6265  0.6608
 6857SOL    HW232031   1.093   4.057   6.557 -0.3945  1.5810  2.1144
 6858SOL     OW32032   0.668   1.005   5.795 -0.3026  0.2772 -0.3888
 6858SOL    HW132033   0.690   0.911   5.799  3.6471  1.2222 -0.1805
 6858SOL    HW232034   0.573   0.996   5.787 -0.3259 -1.7310  1.9532
 6859SOL     OW32035   3.941   0.020   4.166 -0.0944  0.2529 -0.1488
 6859SOL    HW132036   3.899   0.043   4.249  1.2232 -0.2973  0.6604
 6859SOL    HW232037   3.968   4.650   4.178  0.0939  0.5063  1.3342
 6860SOL     OW32038   4.523   3.556   9.556 -0.4198 -0.1307  0.2473
 6860SOL    HW132039   4.434   3.558   9.590 -0.6599  3.1186 -0.5240
 6860SOL    HW232040   4.536   3.462   9.546  0.9142  0.2522 -1.6776
 6861SOL     OW32041   2.637   4.557   0.343 -0.2383 -0.3919 -0.0767
 6861SOL    HW132042   2.566   4.553   0.408  0.5472 -1.3821  0.7261
 6861SOL    HW232043   2.587   4.554   0.262 -0.8098 -3.1971  0.3753
 6862SOL     OW32044   1.664   0.367   6.139 -0.0167  0.6535 -0.2230
 6862SOL    HW132045   1.748   0.368   6.095  0.4279 -3.0550  0.5530
 6862SOL    HW232046   1.659   0.272   6.151 -1.1885  0.9864  1.9989
 6863SOL     OW32047   2.916   4.720   9.181 -0.6747  0.0009  0.0941
 6863SOL    HW132048   2.925   4.694   9.090 -0.3520 -0.4814  0.2609
 6863SOL    HW232049   2.828   0.036   9.183 -0.2816  0.8818  1.3912
 6864SOL     OW32050   1.459   0.050  16.526 -0.6911  0.1973  0.5279
 6864SOL    HW132051   1.511   4.709  16.475 -4.9688 -1.6861 -1.4750
 6864SOL    HW232052   1.394   0.059  16.456  2.0631  0.5566 -2.0190
 6865SOL     OW32053   3.104   2.894   3.321  0.0159 -0.4557 -0.2449
 6865SOL    HW132054   3.178   2.935   3.364 -1.2546 -1.2030  2.6570
 6865SOL    HW232055   3.054   2.967   3.285 -0.3920  0.4106  2.1267
 6866SOL     OW32056   3.247   0.386  16.856  0.2691 -0.1884 -0.6475
 6866SOL    HW132057   3.267   0.414  16.946  0.1139  1.9877 -1.3110
 6866SOL    HW232058   3.294   0.303  16.850 -1.0035 -0.8166 -1.8886
 6867SOL     OW32059   4.498   1.917   5.827 -0.0155  0.1291 -0.1653
 6867SOL    HW132060   4.568   1.889   5.887  1.7405 -1.9829 -3.1909
 6867SOL    HW232061   4.490   2.011   5.841 -0.3424  0.4446 -2.6080
 6868SOL     OW32062   2.023   0.894  11.572  0.0013  0.4484  0.6349
 6868SOL    HW132063   1.965   0.870  11.501  0.9021  0.5780 -0.1421
 6868SOL    HW232064   2.023   0.817  11.630  0.4747 -0.6646 -0.8502
 6869SOL     OW32065   4.417   3.105   0.341 -0.0466  0.0665 -0.2653
 6869SOL    HW132066   4.473   3.183   0.334 -0.1641  0.1997  0.2982
 6869SOL    HW232067   4.373   3.109   0.256 -1.3099 -3.4237  0.2552
 6870SOL     OW32068   1.866   2.522   2.275 -0.3128 -0.0878 -0.0205
 6870SOL    HW132069   1.932   2.506   2.344 -0.1530  0.9378  0.0570
 6870SOL    HW232070   1.906   2.590   2.221 -1.6919  0.0599 -0.8481
 6871SOL     OW32071   3.248   0.689  10.318 -0.4539  0.2738 -0.3639
 6871SOL    HW132072   3.319   0.661  10.377 -0.8509  0.4529  0.2038
 6871SOL    HW232073   3.209   0.753  10.378 -1.2563 -2.6169  2.1942
 6872SOL     OW32074   3.057   3.805   1.779 -0.3321  0.6696 -0.0975
 6872SOL    HW132075   3.152   3.789   1.778 -0.1191  1.9845 -0.5691
 6872SOL    HW232076   3.044   3.876   1.842  0.5369  0.6189  0.1473
 6873SOL     OW32077   2.033   0.294   2.014 -0.3370  0.4176 -0.4524
 6873SOL    HW132078   1.994   0.252   2.091  3.8913  0.4606  1.7074
 6873SOL    HW232079   2.071   0.372   2.056  2.6169 -0.5319 -1.3888
 6874SOL     OW32080   0.765   1.493   2.444 -0.1092  0.1375  0.2481
 6874SOL    HW132081   0.700   1.529   2.505  2.5940  1.1666  2.5083
 6874SOL    HW232082   0.707   1.464   2.374  0.5880  0.8935 -0.6259
 6875SOL     OW32083   3.599   4.278   6.489 -0.2395 -1.0330 -0.2066
 6875SOL    HW132084   3.624   4.222   6.563  0.1462  1.7471  1.7362
 6875SOL    HW232085   3.641   4.362   6.507  1.8116 -1.7266 -1.7159
 6876SOL     OW32086   2.943   4.684  12.405  0.1867  0.0924 -0.3291
 6876SOL    HW132087   3.026   0.003  12.427  0.5029 -1.6663  1.7600
 6876SOL    HW232088   2.975   4.637  12.328 -0.9906  0.0659 -0.8027
 6877SOL     OW32089   4.690   0.056  16.311 -0.1568  0.4660  0.1976
 6877SOL    HW132090   4.606   0.097  16.334 -0.0851  1.2887 -1.0269
 6877SOL    HW232091   4.705   0.013  16.395 -1.1464  1.1799  0.7496
 6878SOL     OW32092   1.634   3.588  10.255  1.0757  0.4337 -0.3516
 6878SOL    HW132093   1.633   3.615  10.346  0.2400 -0.5704 -0.0737
 6878SOL    HW232094   1.721   3.602  10.216  0.9472  2.0574 -0.0593
 6879SOL     OW32095   2.687   0.068   0.063 -0.0271  0.2979 -0.4636
 6879SOL    HW132096   2.610   0.126   0.068 -0.0452  0.2148  0.1980
 6879SOL    HW232097   2.662   0.025  17.668  0.6270  1.5360 -1.3091
 6880SOL     OW32098   1.746   2.070   2.346  0.0147  0.1972 -0.2891
 6880SOL    HW132099   1.666   2.041   2.392  1.2605  0.3553  1.9819
 6880SOL    HW232100   1.773   1.988   2.305  0.0249 -0.6277  1.3614
 6881SOL     OW32101   2.832   2.281   4.214  0.2220  0.0464  0.3052
 6881SOL    HW132102   2.739   2.280   4.192 -0.3763  0.1125  2.8208
 6881SOL    HW232103   2.830   2.289   4.310  0.7852 -1.8911  0.4907
 6882SOL     OW32104   0.952   2.044   2.071  0.4014  0.0174  0.2533
 6882SOL    HW132105   0.965   2.139   2.068 -1.5974  0.3282  1.7862
 6882SOL    HW232106   0.872   2.048   2.018 -0.1976 -1.3369  1.0786
 6883SOL     OW32107   3.492   1.310  10.060 -0.7958 -0.8320 -0.4031
 6883SOL    HW132108   3.419   1.347  10.110 -0.7841  0.8437 -1.6265
 6883SOL    HW232109   3.528   1.388  10.018 -1.3759 -0.5071 -0.2974
 6884SOL     OW32110   2.347   4.603   7.999  0.2589 -0.1486  0.2281
 6884SOL    HW132111   2.287   4.534   8.029  1.1638  0.5690  3.6906
 6884SOL    HW232112   2.365   4.576   7.909 -1.6810  0.6387 -0.4188
 6885SOL     OW32113   1.258   2.841   8.441 -0.3507  0.1389 -0.2403
 6885SOL    HW132114   1.236   2.856   8.349  3.0261 -1.4348 -1.3287
 6885SOL    HW232115   1.184   2.870   8.494 -0.6412  1.4234 -1.3394
 6886SOL     OW32116   4.586   4.108   2.391  0.1686 -0.0282  0.1468
 6886SOL    HW132117   4.637   4.106   2.472  3.2400  1.6085 -1.7806
 6886SOL    HW232118   4.577   4.013   2.386  0.7872 -0.0596 -0.3855
 6887SOL     OW32119   2.271   3.556   6.767 -0.1991 -0.0531 -0.3821
 6887SOL    HW132120   2.209   3.485   6.748 -0.8529  0.5065 -0.3366
 6887SOL    HW232121   2.344   3.527   6.711 -0.5551  0.6198 -1.1942
 6888SOL     OW32122   3.507   3.050   9.630 -0.5534 -0.0094  0.1172
 6888SOL    HW132123   3.553   2.966   9.626  0.3665  0.4484  1.1558
 6888SOL    HW232124   3.431   3.028   9.683 -1.0505 -1.5172 -1.2440
 6889SOL     OW32125   0.658   3.002   2.759  0.1020  0.2293  0.4335
 6889SOL    HW132126   0.721   2.962   2.698  0.3753  0.7833  0.3503
 6889SOL    HW232127   0.721   3.064   2.796  0.3035  1.2615 -1.6103
 6890SOL     OW32128   0.694   2.022   4.003 -0.3365  0.4977  0.3193
 6890SOL    HW132129   0.789   2.032   4.008 -0.5076  1.8969  0.8819
 6890SOL    HW232130   0.671   2.080   4.076 -2.3088 -1.1717  1.0435
 6891SOL     OW32131   0.828   1.795   8.952 -0.2551 -0.0579  0.3212
 6891SOL    HW132132   0.743   1.791   8.907  1.1116  1.1551 -2.3059
 6891SOL    HW232133   0.863   1.707   8.939 -1.5187 -0.4622 -0.3830
 6892SOL     OW32134   3.570   0.061   6.985 -0.2460 -0.7202 -0.5399
 6892SOL    HW132135   3.584   0.154   6.967 -2.0931 -0.1507  1.0030
 6892SOL    HW232136   3.651   0.026   6.948  1.1653  2.0574 -0.1014
 6893SOL     OW32137   2.325   0.637   0.593  0.0500 -0.4265 -0.8913
 6893SOL    HW132138   2.233   0.662   0.595  0.6521  1.8388 -1.1493
 6893SOL    HW232139   2.366   0.723   0.581  1.0297 -0.6256  1.1387
 6894SOL     OW32140   3.283   2.689  11.074  0.2896  0.7629 -0.5738
 6894SOL    HW132141   3.363   2.737  11.054 -0.2146  1.3880 -1.0840
 6894SOL    HW232142   3.274   2.696  11.169  0.5433 -1.3017 -0.3855
 6895SOL     OW32143   3.045   3.749   8.285  0.7154  0.0353  0.1772
 6895SOL    HW132144   3.096   3.705   8.352 -1.1096 -0.2555  1.3746
 6895SOL    HW232145   3.111   3.759   8.216 -0.3862  0.5539 -0.8105
 6896SOL     OW32146   0.476   0.456  14.697 -0.7083  0.4094  0.4697
 6896SOL    HW132147   0.444   0.406  14.772 -4.1831 -0.8166 -1.8048
 6896SOL    HW232148   0.531   0.517  14.745 -1.3577  0.8212  0.6991
 6897SOL     OW32149   1.664   1.894  12.988  0.1768  0.2486  0.2772
 6897SOL    HW132150   1.737   1.916  12.930 -0.9262  2.4796 -0.2585
 6897SOL    HW232151   1.678   1.800  13.003  1.2435  0.7034  2.1709
 6898SOL     OW32152   3.805   1.446  15.122  0.5768  0.1360 -0.0096
 6898SOL    HW132153   3.876   1.396  15.161  0.8738  0.1780 -0.4977
 6898SOL    HW232154   3.738   1.386  15.155  0.7942  0.8564  1.7262
 6899SOL     OW32155   3.386   1.269   3.593  0.2965 -0.4449  0.2368
 6899SOL    HW132156   3.414   1.349   3.548  0.0729 -0.1001  0.7226
 6899SOL    HW232157   3.473   1.230   3.596 -0.3101 -1.7548  0.7901
 6900SOL     OW32158   2.479   2.443   4.781  0.2654  0.1335  0.0244
 6900SOL    HW132159   2.411   2.377   4.796  0.4771 -0.0110  0.3481
 6900SOL    HW232160   2.493   2.467   4.873  0.8923  0.9676 -0.2969
 6901SOL     OW32161   3.844   1.566   4.739 -0.1768 -0.1094 -0.1078
 6901SOL    HW132162   3.874   1.641   4.688 -0.3203 -0.0782 -0.1461
 6901SOL    HW232163   3.821   1.503   4.671 -1.9493  2.7133 -2.1376
 6902SOL     OW32164   4.703   0.584   2.940  0.3132  0.2468  0.6910
 6902SOL    HW132165   4.677   0.510   2.885  1.5234  1.4273 -1.4717
 6902SOL    HW232166   4.691   0.548   3.028  1.3367  0.4712  0.9234
 6903SOL     OW32167   2.411   2.226   0.542 -0.3387  0.1077  0.3423
 6903SOL    HW132168   2.397   2.135   0.570  1.5421 -0.2309  0.1958
 6903SOL    HW232169   2.444   2.212   0.453  0.1121 -0.7904  0.6472
 6904SOL     OW32170   3.356   3.117  16.325 -0.3195 -0.1332  0.1490
 6904SOL    HW132171   3.350   3.199  16.277 -1.8526 -0.2163  0.1936
 6904SOL    HW232172   3.401   3.060  16.263  0.2318  1.7444 -1.1950
 6905SOL     OW32173   3.535   3.517  10.893  0.1793  0.3950  0.1466
 6905SOL    HW132174   3.548   3.425  10.915 -1.3279  0.5529  1.7535
 6905SOL    HW232175   3.590   3.523  10.816 -0.2811  0.7142 -0.1607
 6906SOL     OW32176   2.185   0.003  14.239 -0.3420 -0.1518  0.0245
 6906SOL    HW132177   2.160   4.642  14.198 -1.9586  0.5859 -0.4774
 6906SOL    HW232178   2.117   0.063  14.207 -1.2376  0.5613  3.2317
 6907SOL     OW32179   1.624   3.244   7.725 -0.4474 -0.2349  0.7292
 6907SOL    HW132180   1.678   3.286   7.659 -0.7018 -1.8544 -0.5187
 6907SOL    HW232181   1.579   3.324   7.753 -0.2587  0.2476 -0.3567
 6908SOL     OW32182   3.863   2.358   9.680  0.1335 -0.4157  0.3934
 6908SOL    HW132183   3.799   2.355   9.609  0.6257 -0.4643 -0.0486
 6908SOL    HW232184   3.809   2.308   9.741  1.4287 -0.3577  1.5749
 6909SOL     OW32185   1.467   0.616   5.535 -0.5101  0.1002  0.3446
 6909SOL    HW132186   1.419   0.555   5.592 -0.8798  0.2597  0.2044
 6909SOL    HW232187   1.450   0.702   5.575  0.4216  0.1038  0.7220
 6910SOL     OW32188   0.588   3.231   9.156  0.2154 -0.1567 -0.6384
 6910SOL    HW132189   0.604   3.140   9.131  0.5529  0.3925 -2.4121
 6910SOL    HW232190   0.514   3.220   9.215 -0.4121  2.2663 -0.9707
 6911SOL     OW32191   2.979   0.649  10.836 -0.0253  0.0649 -0.0056
 6911SOL    HW132192   2.921   0.582  10.799  0.3280 -0.3149  0.1333
 6911SOL    HW232193   2.962   0.641  10.929 -1.7836  1.3456 -0.2171
 6912SOL     OW32194   3.439   4.292  13.092 -0.2267 -0.1180 -0.5767
 6912SOL    HW132195   3.409   4.221  13.149  2.3186  1.1344  2.3642
 6912SOL    HW232196   3.534   4.278  13.089 -0.5743 -2.5785 -0.9081
 6913SOL     OW32197   3.845   2.428   2.313  0.3821 -0.5941  0.1163
 6913SOL    HW132198   3.896   2.359   2.270  0.6569 -0.5447  0.3643
 6913SOL    HW232199   3.803   2.377   2.382 -0.8116  2.1032  1.3795
 6914SOL     OW32200   4.281   0.053   5.156  0.5097  0.2811 -0.1646
 6914SOL    HW132201   4.271   0.145   5.183  0.5802  0.1928  0.1630
 6914SOL    HW232202   4.195   0.012   5.169 -0.5607  2.0033 -1.8147
 6915SOL     OW32203   0.176   0.231  16.342  0.0885 -0.2159  0.2373
 6915SOL    HW132204   0.215   0.182  16.270 -1.9586  2.4087 -2.6397
 6915SOL    HW232205   0.084   0.206  16.333  0.5741 -2.0221  0.4026
 6916SOL     OW32206   3.013   1.876   8.570 -0.1736  0.3197 -0.0790
 6916SOL    HW132207   3.091   1.929   8.557  0.3490 -0.9030 -1.8702
 6916SOL    HW232208   2.971   1.895   8.486  0.9806 -0.8934 -0.9268
 6917SOL     OW32209   0.181   3.561   4.418  0.0328  0.5748 -0.1600
 6917SOL    HW132210   0.215   3.500   4.352  2.3855  2.9678 -1.1646
 6917SOL    HW232211   0.092   3.533   4.437  0.6460 -0.8448  0.6928
 6918SOL     OW32212   2.677   2.681   3.721  0.0219  1.0425 -0.0167
 6918SOL    HW132213   2.653   2.594   3.690  1.8896 -0.0498  1.6220
 6918SOL    HW232214   2.614   2.689   3.792  0.5855  0.1732  0.5758
 6919SOL     OW32215   4.370   2.668   3.789  0.1361  0.0270 -0.4201
 6919SOL    HW132216   4.463   2.680   3.804  0.1651 -1.4391  0.5674
 6919SOL    HW232217   4.350   2.591   3.841 -0.7936 -0.1043 -0.9669
 6920SOL     OW32218   2.104   1.395  15.660 -0.2068 -0.0265  0.5872
 6920SOL    HW132219   2.118   1.424  15.750 -1.7385 -0.2409  0.8957
 6920SOL    HW232220   2.027   1.338  15.653  0.7190 -0.8236 -3.5267
 6921SOL     OW32221   4.400   2.720   4.240 -0.7501  0.5160  0.1770
 6921SOL    HW132222   4.312   2.715   4.278 -0.8256  2.6716  0.2860
 6921SOL    HW232223   4.424   2.629   4.221 -2.1452  0.1551  0.1681
 6922SOL     OW32224   0.368   3.770   0.123 -0.1793 -0.2516  0.1186
 6922SOL    HW132225   0.295   3.815   0.082  0.9242 -0.3314 -1.9511
 6922SOL    HW232226   0.319   3.692   0.151  0.2800 -0.5940 -0.0290
 6923SOL     OW32227   1.972   4.513   4.857  0.0533  0.3757 -0.0075
 6923SOL    HW132228   1.889   4.493   4.814 -0.2102 -0.7425  1.0264
 6923SOL    HW232229   1.957   4.531   4.950  0.0503 -1.4965  0.3440
 6924SOL     OW32230   0.085   1.152   6.433 -0.0503 -0.1393 -0.0576
 6924SOL    HW132231   0.127   1.066   6.425 -0.0969  0.0891 -2.8014
 6924SOL    HW232232   0.037   1.133   6.514  1.7752 -0.3953  0.9881
 6925SOL     OW32233   2.484   2.899  17.506  0.0815 -0.1193 -0.7114
 6925SOL    HW132234   2.558   2.885  17.564 -0.7995 -2.1910 -0.1055
 6925SOL    HW232235   2.417   2.944  17.557  1.2156  1.2762 -0.4624
 6926SOL     OW32236   1.117   0.063   9.425  0.0449  0.4884  0.3642
 6926SOL    HW132237   1.068   0.118   9.486 -0.6083 -1.9056  2.0062
 6926SOL    HW232238   1.160   0.001   9.484  1.5928  1.1229 -0.1236
 6927SOL     OW32239   3.346   3.329   8.444  0.6235  0.1825 -0.5477
 6927SOL    HW132240   3.310   3.398   8.387  0.4034  1.8948  1.6672
 6927SOL    HW232241   3.432   3.368   8.462  1.4229 -1.4321 -0.9093
 6928SOL     OW32242   3.207   2.908   0.688 -0.1070 -0.5219 -0.0751
 6928SOL    HW132243   3.168   2.847   0.751  0.2452  0.0964  0.7414
 6928SOL    HW232244   3.222   2.986   0.742 -0.0648 -0.0765 -0.7322
 6929SOL     OW32245   0.289   4.185   5.133 -0.0588  0.4212 -0.1310
 6929SOL    HW132246   0.208   4.222   5.167  0.1373  0.3781  0.3859
 6929SOL    HW232247   0.268   4.117   5.070 -2.8898  0.3528  0.9047
 6930SOL     OW32248   1.113   4.208   9.892 -0.4717 -0.0934 -0.3993
 6930SOL    HW132249   1.047   4.139   9.892 -0.8433  0.2743  1.5422
 6930SOL    HW232250   1.112   4.230   9.985  2.3603 -1.7221  0.0313
 6931SOL     OW32251   0.097   1.515   8.202 -0.0533 -0.8341  0.1077
 6931SOL    HW132252   0.045   1.595   8.215  1.6418  0.3594 -0.4837
 6931SOL    HW232253   0.039   1.444   8.231  1.7673 -2.9999 -1.5415
 6932SOL     OW32254   2.319   3.061   5.754 -0.0165  0.1494 -0.2164
 6932SOL    HW132255   2.254   3.072   5.823  0.3218 -1.6295  0.3876
 6932SOL    HW232256   2.265   3.050   5.676 -1.4153  3.0607  0.3371
 6933SOL     OW32257   1.712   0.762   9.430 -0.2724  0.3388  0.0447
 6933SOL    HW132258   1.747   0.847   9.404  0.8558  0.2891  1.4195
 6933SOL    HW232259   1.757   0.752   9.514  0.2488 -1.1655 -0.4046
 6934SOL     OW32260   0.626   1.290   5.763  0.6329  0.2089  0.3645
 6934SOL    HW132261   0.701   1.325   5.811 -0.9211  0.9368  2.3277
 6934SOL    HW232262   0.637   1.202   5.797 -1.9322 -0.2334  0.0573
 6935SOL     OW32263   2.693   1.770  13.453 -0.4820 -0.1704  0.2004
 6935SOL    HW132264   2.744   1.798  13.529  1.5724 -0.9608 -0.8962
 6935SOL    HW232265   2.748   1.817  13.390 -1.3592  0.3284 -0.1832
 6936SOL     OW32266   1.290   4.635  13.162 -0.0653  0.1675 -0.0913
 6936SOL    HW132267   1.301   0.009  13.173 -0.7975  0.5771 -2.9646
 6936SOL    HW232268   1.261   4.630  13.071  1.6517  2.0817 -0.7596
 6937SOL     OW32269   1.019   0.066   4.855  0.1864  0.0119  0.1006
 6937SOL    HW132270   0.969   0.039   4.778  1.2964 -2.4738  0.2513
 6937SOL    HW232271   1.022   4.703   4.900  0.3520  0.9217  1.7709
 6938SOL     OW32272   2.589   2.516   4.539  0.7617 -0.1745 -0.6015
 6938SOL    HW132273   2.592   2.609   4.561 -1.8030 -0.2968  0.3187
 6938SOL    HW232274   2.541   2.483   4.615  0.5746  2.9862  0.6532
 6939SOL     OW32275   2.274   2.372   7.497  0.8060  0.0687 -0.3066
 6939SOL    HW132276   2.248   2.336   7.583 -1.3993 -0.3712 -1.1419
 6939SOL    HW232277   2.263   2.299   7.437  0.1648 -0.0507 -0.0480
 6940SOL     OW32278   1.197   0.878  10.112 -0.0784  0.4451  0.3844
 6940SOL    HW132279   1.144   0.836  10.180 -2.6222  0.2682 -1.7059
 6940SOL    HW232280   1.206   0.955  10.168  0.5161 -0.5084  1.6029
 6941SOL     OW32281   3.747   1.174  14.838  0.1562 -0.2152 -0.4837
 6941SOL    HW132282   3.679   1.129  14.888 -2.2077  2.3839 -1.3372
 6941SOL    HW232283   3.819   1.180  14.901  0.6012 -1.7598 -0.8522
 6942SOL     OW32284   0.443   4.433  16.956  0.6233  0.1020 -0.0722
 6942SOL    HW132285   0.433   4.406  17.047 -1.4873  0.2056 -0.2660
 6942SOL    HW232286   0.538   4.445  16.958  0.8737 -2.1515  1.0209
 6943SOL     OW32287   2.963   4.008  14.872  0.0098 -0.0665  0.0256
 6943SOL    HW132288   2.990   4.098  14.857 -1.2051 -0.0413 -1.9446
 6943SOL    HW232289   3.002   3.990  14.957  1.3095 -0.0870 -0.5807
 6944SOL     OW32290   4.629   4.546   3.019 -0.0397  0.0846  0.0592
 6944SOL    HW132291   4.552   4.600   3.036  0.4416  0.2119  1.9273
 6944SOL    HW232292   4.590   4.461   3.000  1.5966 -0.3596 -1.3385
 6945SOL     OW32293   4.601   0.592   8.123  0.1735 -0.1721  0.4464
 6945SOL    HW132294   4.689   0.594   8.086  0.4634 -0.0774  1.1399
 6945SOL    HW232295   4.593   0.501   8.151  0.0492  0.3860  2.2222
 6946SOL     OW32296   3.933   0.466  12.528 -0.4005 -0.7423  0.4439
 6946SOL    HW132297   4.005   0.527  12.515 -1.6655  0.5462 -0.6015
 6946SOL    HW232298   3.867   0.514  12.477 -0.4139 -1.7657 -0.5057
 6947SOL     OW32299   2.159   2.522  14.252 -0.2372 -0.6204 -1.0024
 6947SOL    HW132300   2.183   2.582  14.181 -0.0840 -1.4037 -1.6206
 6947SOL    HW232301   2.094   2.466  14.208 -1.8593  0.8981 -0.5197
 6948SOL     OW32302   3.922   0.089  10.224  0.4180 -0.2856  0.2075
 6948SOL    HW132303   3.971   0.164  10.191 -1.0756 -1.1471 -4.0024
 6948SOL    HW232304   3.946   0.084  10.317 -1.8849  3.8830  1.0121
 6949SOL     OW32305   2.768   2.474   6.827  0.3320 -0.0081  0.2356
 6949SOL    HW132306   2.710   2.503   6.757 -0.1243 -0.5422  0.3874
 6949SOL    HW232307   2.702   2.478   6.896  0.4206  1.2785  0.2477
 6950SOL     OW32308   1.835   2.944   6.706 -0.0753  0.8693  0.4094
 6950SOL    HW132309   1.823   2.856   6.741  3.1791  1.3172  2.7122
 6950SOL    HW232310   1.879   2.928   6.622  1.3739 -0.8148  1.4783
 6951SOL     OW32311   2.008   1.167   2.394 -0.2331  0.6968  0.0054
 6951SOL    HW132312   2.100   1.171   2.419 -0.1351 -1.5814 -0.0525
 6951SOL    HW232313   1.992   1.073   2.384 -1.1443  1.1940 -3.2542
 6952SOL     OW32314   2.989   1.669   7.646  0.0508  0.3772 -0.0887
 6952SOL    HW132315   2.943   1.735   7.595  0.2600  0.7603  0.2190
 6952SOL    HW232316   3.067   1.658   7.592 -0.0721 -0.9119 -0.0081
 6953SOL     OW32317   4.664   3.451   3.972 -0.3460 -0.0376  0.2096
 6953SOL    HW132318   4.608   3.440   3.896  0.2088 -0.8827 -0.0858
 6953SOL    HW232319   4.608   3.420   4.043 -0.1449 -0.8746  0.0012
 6954SOL     OW32320   3.719   0.664   7.170  0.3245  0.1009 -0.1038
 6954SOL    HW132321   3.736   0.580   7.215 -3.0539  0.2652  1.5376
 6954SOL    HW232322   3.770   0.662   7.090 -2.5747 -0.0523 -1.9716
 6955SOL     OW32323   0.198   0.454   2.624  0.1164 -0.3230 -0.2438
 6955SOL    HW132324   0.281   0.502   2.627 -1.0663  1.6792  0.5287
 6955SOL    HW232325   0.194   0.412   2.538  0.5500 -0.9324  0.0412
 6956SOL     OW32326   3.709   4.285   3.030  0.1473  0.2458 -0.3396
 6956SOL    HW132327   3.771   4.354   3.005  0.1915  0.5797  0.6610
 6956SOL    HW232328   3.657   4.276   2.951 -0.1030  4.2950 -0.6519
 6957SOL     OW32329   1.274   3.460  16.192  0.3165 -0.1840 -0.3106
 6957SOL    HW132330   1.194   3.493  16.152 -0.2023 -2.4469 -1.1434
 6957SOL    HW232331   1.336   3.534  16.190  0.4666 -0.3057 -0.2139
 6958SOL     OW32332   4.438   3.219  17.271 -0.0287 -0.0408 -0.1213
 6958SOL    HW132333   4.523   3.246  17.237  0.0677 -0.8653 -0.5382
 6958SOL    HW232334   4.383   3.293  17.246  1.3496  0.4710 -1.6691
 6959SOL     OW32335   2.876   4.680   8.041 -0.4595  0.0504  0.3340
 6959SOL    HW132336   2.840   0.023   7.980  2.6334  2.3209  0.8820
 6959SOL    HW232337   2.914   0.018   8.107 -0.1361 -0.5246  0.6713
 6960SOL     OW32338   3.908   4.352   3.297 -0.0561  0.4821  0.2663
 6960SOL    HW132339   3.989   4.326   3.340  0.7112 -0.9555 -2.0178
 6960SOL    HW232340   3.854   4.372   3.373  1.2021 -3.7280  2.3020
 6961SOL     OW32341   0.337   2.521  10.641 -0.5761 -0.1836 -0.3930
 6961SOL    HW132342   0.275   2.513  10.569 -0.4137  1.1628 -0.6822
 6961SOL    HW232343   0.295   2.473  10.713  0.1828  0.9767  0.8156
 6962SOL     OW32344   3.386   4.255   5.076  0.1647 -0.8322  0.2565
 6962SOL    HW132345   3.323   4.183   5.082  1.8674 -2.4141 -0.6888
 6962SOL    HW232346   3.414   4.269   5.166 -1.8763 -0.1984  0.8058
 6963SOL     OW32347   2.816   1.906  13.237 -0.4536  0.0984  0.4858
 6963SOL    HW132348   2.821   1.934  13.146  1.8016  0.9242  0.8834
 6963SOL    HW232349   2.899   1.862  13.253 -0.6463  0.0829  1.4384
 6964SOL     OW32350   0.574   1.393   2.270  0.1135  0.3725  0.3569
 6964SOL    HW132351   0.524   1.470   2.241  0.8609  1.1623  1.1828
 6964SOL    HW232352   0.510   1.335   2.311 -0.2362  0.3134 -0.2670
 6965SOL     OW32353   0.724   1.361   6.806  0.5605 -0.6858 -0.5735
 6965SOL    HW132354   0.674   1.403   6.736 -1.3141  1.0466  1.7571
 6965SOL    HW232355   0.658   1.306   6.849 -1.0059  0.5421 -1.3596
 6966SOL     OW32356   1.620   4.501   9.245 -0.2310 -0.4445  0.0604
 6966SOL    HW132357   1.679   4.503   9.170  0.2467 -2.3029  0.4053
 6966SOL    HW232358   1.678   4.504   9.322  1.4724  1.5652 -1.2767
 6967SOL     OW32359   2.072   2.371   6.292 -0.0496 -0.5135 -0.0999
 6967SOL    HW132360   2.103   2.331   6.211  1.3867 -2.1410  1.2535
 6967SOL    HW232361   2.022   2.293   6.318 -0.3579 -0.0948  0.5624
 6968SOL     OW32362   3.125   2.463   2.567 -0.6561 -0.4596  0.2562
 6968SOL    HW132363   3.216   2.452   2.541 -0.6359 -0.2673  0.2464
 6968SOL    HW232364   3.134   2.460   2.662 -0.4441 -1.2949  0.2050
 6969SOL     OW32365   3.587   3.572   6.287  0.2832 -0.2869 -0.0794
 6969SOL    HW132366   3.666   3.606   6.246  0.8302 -0.4943  0.8075
 6969SOL    HW232367   3.528   3.568   6.211 -0.8390  1.1949  0.7130
 6970SOL     OW32368   4.004   3.916   3.964 -1.1532  0.4959 -0.3271
 6970SOL    HW132369   4.013   3.826   3.995  1.0581  1.3773  1.5704
 6970SOL    HW232370   4.047   3.963   4.036  1.1423 -0.8235 -0.8768
 6971SOL     OW32371   0.291   1.654   6.331  0.1166 -0.4292 -0.0164
 6971SOL    HW132372   0.265   1.690   6.247 -0.2619 -0.0639  0.2581
 6971SOL    HW232373   0.264   1.562   6.320 -2.2344 -0.0904  2.8006
 6972SOL     OW32374   2.481   0.764   8.297 -0.2266  0.6295  0.2071
 6972SOL    HW132375   2.555   0.709   8.323 -0.5010 -0.1851 -0.7713
 6972SOL    HW232376   2.512   0.798   8.213  0.0789 -0.0625  0.0416
 6973SOL     OW32377   1.365   2.606   8.571  0.3607 -0.4505  0.1700
 6973SOL    HW132378   1.371   2.695   8.536 -1.0149 -1.6449 -3.0836
 6973SOL    HW232379   1.296   2.608   8.637  1.3243 -5.2457  1.3413
 6974SOL     OW32380   4.319   3.305   0.599 -0.1363  0.1425  0.3106
 6974SOL    HW132381   4.244   3.325   0.656 -0.4587 -0.8499  0.2341
 6974SOL    HW232382   4.300   3.349   0.516  3.9281  1.1394 -0.0887
 6975SOL     OW32383   1.173   2.992   5.664  0.1974  0.1358 -0.2392
 6975SOL    HW132384   1.261   3.029   5.671  0.3118 -0.1003 -0.4476
 6975SOL    HW232385   1.156   2.975   5.757 -0.2994 -1.7105 -0.6509
 6976SOL     OW32386   3.576   3.618   7.515 -0.2617  0.3416 -0.1472
 6976SOL    HW132387   3.601   3.707   7.542  0.0655 -0.0191  0.7167
 6976SOL    HW232388   3.618   3.565   7.582 -0.3062  0.5167  0.0197
 6977SOL     OW32389   4.378   2.675   2.439 -0.0455 -0.0210  0.0413
 6977SOL    HW132390   4.434   2.619   2.493 -0.3834 -0.2684  0.1303
 6977SOL    HW232391   4.447   2.733   2.407  0.0417 -0.4416 -0.5393
 6978SOL     OW32392   1.967   1.324   4.885  0.0832  0.3834  0.2014
 6978SOL    HW132393   1.972   1.235   4.921  1.0514 -0.0690 -1.0826
 6978SOL    HW232394   1.871   1.330   4.889  0.0081 -0.2293 -0.7017
 6979SOL     OW32395   2.970   3.056  16.926  0.1131 -0.0495 -0.5737
 6979SOL    HW132396   2.875   3.049  16.922  0.2022 -1.4941 -0.3122
 6979SOL    HW232397   2.995   3.036  16.836  0.6607  1.0830 -0.6710
 6980SOL     OW32398   2.140   4.155   1.859 -0.2493 -0.2376 -0.0738
 6980SOL    HW132399   2.113   4.089   1.923  0.7947  0.0135  0.6239
 6980SOL    HW232400   2.064   4.215   1.858 -0.1474 -0.1399 -2.0496
 6981SOL     OW32401   2.823   4.702  10.228  0.2240  0.1411 -0.1088
 6981SOL    HW132402   2.903   4.650  10.215 -1.4665 -3.0177  2.2409
 6981SOL    HW232403   2.794   4.678  10.316  2.0997  1.2579  0.7926
 6982SOL     OW32404   4.036   1.154   2.972 -0.0921  0.3215  0.2961
 6982SOL    HW132405   3.997   1.195   3.049 -1.3792 -1.8937  0.8102
 6982SOL    HW232406   3.969   1.167   2.905 -0.0989 -0.6403  0.1165
 6983SOL     OW32407   1.735   1.212   2.786 -0.1946 -0.1921 -0.5291
 6983SOL    HW132408   1.776   1.240   2.704  0.5955  0.7512  0.2062
 6983SOL    HW232409   1.762   1.121   2.775 -1.2143 -0.6859  1.0838
 6984SOL     OW32410   2.192   2.435  15.703  0.1909  0.3684 -0.1220
 6984SOL    HW132411   2.232   2.515  15.670  0.5945  0.3533  0.3388
 6984SOL    HW232412   2.205   2.449  15.797  0.7158  0.8634 -0.2704
 6985SOL     OW32413   3.133   4.577   6.975  0.0483  0.4914 -0.0072
 6985SOL    HW132414   3.042   4.594   6.998 -0.5940 -2.8541 -0.1056
 6985SOL    HW232415   3.158   4.533   7.056 -1.3908  1.4496  0.9570
 6986SOL     OW32416   2.220   3.362  12.647 -0.5886 -0.4932  0.1723
 6986SOL    HW132417   2.221   3.326  12.736 -0.3558  1.5798  1.0237
 6986SOL    HW232418   2.228   3.457  12.653  1.8988 -0.7786  1.6202
 6987SOL     OW32419   2.305   4.151   8.122  1.1946 -0.2807 -0.3340
 6987SOL    HW132420   2.332   4.125   8.210 -2.1131 -0.3624  0.6473
 6987SOL    HW232421   2.283   4.067   8.082 -0.8391 -0.0195  0.2534
 6988SOL     OW32422   2.854   2.745   7.772  0.0507 -0.0237  0.0648
 6988SOL    HW132423   2.839   2.839   7.760 -1.6997 -0.1185  1.5300
 6988SOL    HW232424   2.885   2.744   7.863  0.0328  2.4157  0.0915
 6989SOL     OW32425   3.564   3.476  14.856  0.0931 -0.0437  0.0962
 6989SOL    HW132426   3.651   3.478  14.896  1.1956  0.4582 -2.3346
 6989SOL    HW232427   3.567   3.388  14.817 -0.4277 -0.1139  0.2167
 6990SOL     OW32428   2.660   2.077   5.489  0.4481  0.0054  0.3042
 6990SOL    HW132429   2.572   2.046   5.469  0.0611  0.2781  1.5447
 6990SOL    HW232430   2.646   2.110   5.578  0.0812  1.1718 -0.1851
 6991SOL     OW32431   3.106   2.944  11.604  0.3480  0.3601  0.1554
 6991SOL    HW132432   3.193   2.908  11.624  0.0912 -0.5257 -0.3670
 6991SOL    HW232433   3.055   2.878  11.652 -0.4805  0.5399 -0.4847
 6992SOL     OW32434   4.110   2.226   8.442  0.5906  0.8106 -0.6228
 6992SOL    HW132435   4.145   2.172   8.513 -1.6101 -0.9276 -0.8478
 6992SOL    HW232436   4.026   2.185   8.422  1.5764 -1.4890 -0.0829
 6993SOL     OW32437   3.060   3.788   4.714  0.2736 -0.3900  0.2063
 6993SOL    HW132438   3.110   3.808   4.794 -0.9283  0.0575  0.8359
 6993SOL    HW232439   3.065   3.868   4.662 -1.0956  0.2654  1.1044
 6994SOL     OW32440   1.102   3.617  17.041  0.1215 -0.0114  0.5036
 6994SOL    HW132441   1.147   3.628  16.957 -0.6093 -0.2294  0.0842
 6994SOL    HW232442   1.132   3.527  17.054  2.6007  0.6652 -0.4061
 6995SOL     OW32443   1.324   1.103   7.982  0.2143 -0.1588  0.5077
 6995SOL    HW132444   1.376   1.181   7.962  1.1268 -1.1165 -0.9100
 6995SOL    HW232445   1.242   1.136   8.019 -0.1038 -1.3026  0.8119
 6996SOL     OW32446   2.155   0.589   7.942 -0.5056  0.2690  0.2717
 6996SOL    HW132447   2.238   0.548   7.918  0.4086  1.4262  1.4655
 6996SOL    HW232448   2.112   0.523   7.996 -0.3416  1.1992  1.5384
 6997SOL     OW32449   4.544   2.090   3.501 -0.0916 -0.0617  0.8072
 6997SOL    HW132450   4.503   2.018   3.453  1.1344 -1.0820  1.2754
 6997SOL    HW232451   4.593   2.046   3.571 -0.5260 -0.0640  1.1105
 6998SOL     OW32452   4.035   3.774  17.121 -0.0801 -0.2308 -0.7535
 6998SOL    HW132453   4.048   3.869  17.124  0.6630 -0.3696  0.3663
 6998SOL    HW232454   4.123   3.741  17.105 -0.5801 -2.1151  0.3801
 6999SOL     OW32455   4.405   1.953   0.741  0.1297  0.1144 -0.1662
 6999SOL    HW132456   4.315   1.984   0.735 -1.1607 -3.2249  2.0103
 6999SOL    HW232457   4.420   1.938   0.647  1.7329  1.9125 -0.1756
 7000SOL     OW32458   3.465   0.126   0.313  0.3681 -0.7087 -0.6102
 7000SOL    HW132459   3.379   0.169   0.314  0.2700 -0.9489  1.3408
 7000SOL    HW232460   3.524   0.193   0.277 -0.4985 -0.0670 -0.8433
 7001SOL     OW32461   0.425   1.313  15.730 -0.6972 -0.5397 -0.4396
 7001SOL    HW132462   0.500   1.261  15.758 -0.0996  0.3019 -0.4430
 7001SOL    HW232463   0.467   1.394  15.700 -1.4755  1.2401  3.2902
 7002SOL     OW32464   2.940   3.787   7.852  0.9001 -0.0590 -0.4077
 7002SOL    HW132465   2.956   3.834   7.770  1.0939  0.1484 -0.2495
 7002SOL    HW232466   2.903   3.852   7.911 -1.7189 -2.7560  0.9317
 7003SOL     OW32467   4.148   1.388   9.466 -0.0545 -0.0506 -0.0327
 7003SOL    HW132468   4.199   1.308   9.466  0.7920  0.4919 -0.6611
 7003SOL    HW232469   4.158   1.414   9.558  1.7660  0.5687 -0.4157
 7004SOL     OW32470   2.142   3.336   5.098 -0.8278  0.3233 -0.3525
 7004SOL    HW132471   2.054   3.365   5.072 -0.4330  2.0703  0.2991
 7004SOL    HW232472   2.148   3.337   5.194 -2.6324 -0.1743 -0.2278
 7005SOL     OW32473   2.189   3.223  17.454 -0.3154  0.3283 -0.4735
 7005SOL    HW132474   2.102   3.241  17.417 -1.4917  0.2781  2.2690
 7005SOL    HW232475   2.170   3.164  17.526 -0.9651 -1.3789 -2.0633
 7006SOL     OW32476   3.677   0.930  16.687  0.3208 -0.0278  0.4752
 7006SOL    HW132477   3.760   0.975  16.671  0.4851 -0.3725  0.3506
 7006SOL    HW232478   3.704   0.840  16.707 -0.7304 -0.8890 -2.0332
 7007SOL     OW32479   1.496   0.003   2.100  0.4323 -0.3191 -0.3370
 7007SOL    HW132480   1.436   0.011   2.174 -1.6791  0.5134 -2.1241
 7007SOL    HW232481   1.432   0.021   2.030 -1.6546  0.7012  1.8205
 7008SOL     OW32482   0.499   4.202   6.827 -0.3669  0.2411 -0.3344
 7008SOL    HW132483   0.584   4.177   6.862 -2.6880 -2.1137  3.5967
 7008SOL    HW232484   0.507   4.164   6.739  1.7713 -2.0765  0.8632
 7009SOL     OW32485   3.466   0.033   1.657  0.4698 -0.0338 -0.0379
 7009SOL    HW132486   3.438   0.108   1.709 -0.1851  0.2753 -0.8270
 7009SOL    HW232487   3.433   0.054   1.569  0.3589 -1.8897 -0.4306
 7010SOL     OW32488   0.351   4.214  11.858 -0.1421 -0.3814  0.0329
 7010SOL    HW132489   0.351   4.198  11.953  1.1807 -1.6153 -0.1667
 7010SOL    HW232490   0.424   4.275  11.847 -0.1650 -0.4496 -0.4984
 7011SOL     OW32491   3.396   2.200   4.470  0.5715 -0.3645  0.0459
 7011SOL    HW132492   3.357   2.273   4.518  2.0570  0.6467 -0.2601
 7011SOL    HW232493   3.346   2.198   4.388  0.3960  1.4524  0.0984
 7012SOL     OW32494   2.986   2.781   2.721 -0.1432 -0.2373 -0.2901
 7012SOL    HW132495   2.954   2.769   2.631 -0.5493 -0.1603 -0.1557
 7012SOL    HW232496   3.081   2.794   2.719  0.1340 -2.2110  0.2418
 7013SOL     OW32497   3.002   3.128   0.248  0.3362 -0.2466 -0.5314
 7013SOL    HW132498   3.055   3.067   0.197  0.3859 -1.0753  0.5216
 7013SOL    HW232499   3.063   3.158   0.315  1.9806  0.1519 -2.2058
 7014SOL     OW32500   4.488   0.096   7.362 -0.0004 -0.5594  0.0068
 7014SOL    HW132501   4.513   0.146   7.439 -2.3991  0.6685  0.0091
 7014SOL    HW232502   4.570   0.101   7.313 -0.2137 -2.3745 -0.5221
 7015SOL     OW32503   0.058   2.397   5.774  1.0494  0.6308  0.1113
 7015SOL    HW132504   4.690   2.410   5.742  0.1391 -0.8458  2.0542
 7015SOL    HW232505   0.064   2.301   5.778 -0.2050  0.4782 -1.4614
 7016SOL     OW32506   3.450   0.352   7.285  0.2231  0.1991 -0.4391
 7016SOL    HW132507   3.469   0.380   7.375 -1.6524  2.9109 -0.8962
 7016SOL    HW232508   3.483   0.427   7.236  0.6635  0.2658 -0.0444
 7017SOL     OW32509   3.779   4.238  11.754 -0.1207  0.2069  0.0830
 7017SOL    HW132510   3.780   4.249  11.849 -2.3801  1.2221  0.0028
 7017SOL    HW232511   3.785   4.143  11.750  2.3351  0.4508 -2.4007
 7018SOL     OW32512   2.291   2.409   5.127 -0.0169  0.9902 -0.1173
 7018SOL    HW132513   2.357   2.353   5.086 -0.8584  0.1577 -0.3229
 7018SOL    HW232514   2.217   2.406   5.066 -0.3913 -1.0317  0.4579
 7019SOL     OW32515   4.300   3.522   8.437  0.3075  0.4635 -0.3934
 7019SOL    HW132516   4.384   3.562   8.414  0.7296 -0.0661  0.2212
 7019SOL    HW232517   4.236   3.586   8.405  1.1242  0.9090 -1.1539
 7020SOL     OW32518   4.027   3.577   7.873  0.8359 -0.3619 -0.3537
 7020SOL    HW132519   4.063   3.628   7.945  0.0515  2.0746 -1.6830
 7020SOL    HW232520   3.949   3.629   7.855  0.3935 -0.8465  0.1669
 7021SOL     OW32521   4.506   1.864  15.266  0.0426 -0.2475  0.1729
 7021SOL    HW132522   4.500   1.803  15.340 -2.0769  1.5040  1.4565
 7021SOL    HW232523   4.501   1.946  15.315  2.2412 -0.8481  1.4026
 7022SOL     OW32524   0.207   1.233   8.623  0.0129  0.1130  0.2503
 7022SOL    HW132525   0.275   1.282   8.578  0.5282 -0.1864  0.6865
 7022SOL    HW232526   0.198   1.282   8.705  0.2967  1.3460 -0.4680
 7023SOL     OW32527   0.349   1.340   8.228  0.3796 -0.0320 -0.0461
 7023SOL    HW132528   0.333   1.249   8.255  0.9458 -0.2192 -0.3237
 7023SOL    HW232529   0.263   1.375   8.208  0.9721  3.0998  2.9723
 7024SOL     OW32530   3.472   3.412   7.930  0.4050  0.2243 -0.1590
 7024SOL    HW132531   3.462   3.317   7.924 -1.5848  0.2920  1.8224
 7024SOL    HW232532   3.389   3.431   7.886  0.8351  2.0278 -0.2158
 7025SOL     OW32533   1.154   0.979   5.460 -0.6702  0.5075 -0.4425
 7025SOL    HW132534   1.131   1.060   5.415 -0.2200  1.3468  0.8309
 7025SOL    HW232535   1.183   1.023   5.540 -0.5807 -1.4171  0.5829
 7026SOL     OW32536   3.546   1.366  10.768 -0.2077  0.0421 -0.1016
 7026SOL    HW132537   3.617   1.362  10.832  1.6170 -3.0977 -2.3016
 7026SOL    HW232538   3.497   1.288  10.796  1.0840 -0.7613 -0.0959
 7027SOL     OW32539   1.605   0.870   5.140  0.0413 -0.0239 -0.4024
 7027SOL    HW132540   1.546   0.946   5.144  0.9997  0.6826  0.4564
 7027SOL    HW232541   1.545   0.796   5.133 -1.0351  0.7445  0.7610
 7028SOL     OW32542   0.590   0.478  13.294 -0.0024 -0.0673  0.3205
 7028SOL    HW132543   0.644   0.432  13.359  0.7599 -1.4613 -1.3138
 7028SOL    HW232544   0.505   0.469  13.337  0.2684  0.8508  1.0456
 7029SOL     OW32545   1.330   2.049   3.716  0.3288  0.0795  0.5128
 7029SOL    HW132546   1.359   2.139   3.698  1.5794 -0.0583  1.8321
 7029SOL    HW232547   1.244   2.044   3.673  0.1882 -1.6571  1.0105
 7030SOL     OW32548   3.762   3.659   6.107 -0.1502 -0.0825 -0.4528
 7030SOL    HW132549   3.836   3.703   6.064  1.0384 -0.1859  1.4707
 7030SOL    HW232550   3.810   3.578   6.125 -2.0738 -1.2413 -0.5385
 7031SOL     OW32551   0.594   3.578  13.227 -0.1378 -0.2904 -0.6875
 7031SOL    HW132552   0.606   3.590  13.133 -1.8113 -0.5909 -0.9391
 7031SOL    HW232553   0.499   3.566  13.233  0.0367 -0.8908  0.8999
 7032SOL     OW32554   4.100   4.113   5.599 -0.2048  0.0339  0.0735
 7032SOL    HW132555   4.087   4.118   5.694 -0.1868  3.1176 -0.0668
 7032SOL    HW232556   4.192   4.138   5.609 -0.3796  0.2121  1.2277
 7033SOL     OW32557   0.509   4.497  10.965  0.2578  0.0404 -0.4079
 7033SOL    HW132558   0.422   4.536  10.954 -0.3155 -0.5268  2.0934
 7033SOL    HW232559   0.546   4.500  10.877 -1.1585  0.3557 -0.9846
 7034SOL     OW32560   0.540   2.856   8.547 -0.1636 -0.6787  0.2721
 7034SOL    HW132561   0.629   2.853   8.581 -0.6478  0.1264  1.6042
 7034SOL    HW232562   0.548   2.941   8.503  0.7294 -0.0903  1.5842
 7035SOL     OW32563   0.500   0.942   8.690  0.4350  0.2884 -0.0290
 7035SOL    HW132564   0.535   0.943   8.601 -0.2478  1.0193 -0.2920
 7035SOL    HW232565   0.544   1.022   8.718 -1.6182  1.2172  0.5100
 7036SOL     OW32566   4.635   0.855  14.816 -0.2964  0.0360  0.4796
 7036SOL    HW132567   4.705   0.803  14.777 -1.4343 -0.7233 -0.5354
 7036SOL    HW232568   4.584   0.887  14.743  1.6226 -0.2079 -0.9727
 7037SOL     OW32569   1.136   0.015   5.485 -0.0311 -0.0969  0.0964
 7037SOL    HW132570   1.197   0.017   5.559 -1.3623  0.2777  1.1831
 7037SOL    HW232571   1.066   4.704   5.541 -1.5544  2.5995 -0.2658
 7038SOL     OW32572   1.723   4.412   8.699 -0.0702 -0.1392  0.2283
 7038SOL    HW132573   1.677   4.349   8.643 -0.8741 -0.9160  1.7402
 7038SOL    HW232574   1.769   4.461   8.631 -0.1808 -1.0577 -0.5090
 7039SOL     OW32575   2.976   2.878   9.853  0.3021  0.4361  0.2661
 7039SOL    HW132576   3.005   2.825   9.779 -0.9897  0.1076 -0.0051
 7039SOL    HW232577   2.900   2.929   9.823 -0.8487 -1.2154  0.3777
 7040SOL     OW32578   3.599   1.239  16.283 -0.0800 -0.4710 -0.2891
 7040SOL    HW132579   3.616   1.305  16.216 -0.2238  0.5610  0.6953
 7040SOL    HW232580   3.538   1.287  16.339 -0.7588 -1.3850 -0.2378
 7041SOL     OW32581   2.247   2.525   4.360  0.1249  0.1843  0.1791
 7041SOL    HW132582   2.195   2.558   4.286  0.1246 -0.8877 -0.3083
 7041SOL    HW232583   2.214   2.579   4.432 -1.6905 -0.0132 -0.5101
 7042SOL     OW32584   3.127   3.810   3.372  0.3046  0.3674  0.8825
 7042SOL    HW132585   3.163   3.882   3.424  3.3549 -1.4778  1.2887
 7042SOL    HW232586   3.079   3.757   3.435  1.3547  1.5219  2.6671
 7043SOL     OW32587   2.648   3.371  17.282 -0.7384 -0.8182  0.1773
 7043SOL    HW132588   2.674   3.339  17.195 -0.1369  0.2672 -0.0434
 7043SOL    HW232589   2.566   3.324  17.296 -0.4894 -0.7940  1.6889
 7044SOL     OW32590   2.367   3.913   5.891  0.1587  0.6140  0.0151
 7044SOL    HW132591   2.384   3.819   5.889  2.6094  1.1211 -2.8190
 7044SOL    HW232592   2.273   3.909   5.908  0.0886  1.7661 -0.0596
 7045SOL     OW32593   2.148   2.485   3.860 -0.2792  0.3365 -0.1114
 7045SOL    HW132594   2.188   2.572   3.866 -0.3717  0.3285  0.6284
 7045SOL    HW232595   2.084   2.489   3.789  0.5861 -0.3072 -0.9194
 7046SOL     OW32596   1.693   4.297  11.767  0.5478  0.1243  0.3117
 7046SOL    HW132597   1.728   4.317  11.680 -0.5592  0.9399  0.0487
 7046SOL    HW232598   1.672   4.386  11.794 -1.3599  0.3579 -1.8562
 7047SOL     OW32599   4.672   2.752   2.386 -0.2676  0.0777  0.3433
 7047SOL    HW132600   4.707   2.776   2.300 -1.4843 -1.6780 -0.6486
 7047SOL    HW232601   0.020   2.708   2.435  0.6172  1.3732  0.2481
 7048SOL     OW32602   4.516   2.498  11.991  0.4563  0.1503  0.3109
 7048SOL    HW132603   4.563   2.573  11.953  1.3742 -0.8972 -0.6644
 7048SOL    HW232604   4.501   2.526  12.081 -1.8807  3.7916 -1.2223
 7049SOL     OW32605   0.105   4.417  14.392  0.4361  0.0712 -0.0616
 7049SOL    HW132606   0.089   4.325  14.412  1.9931  0.1263  1.4560
 7049SOL    HW232607   0.103   4.456  14.480  3.7216  0.4832 -0.1501
 7050SOL     OW32608   1.297   1.715  17.169 -0.2205  0.0391  0.2986
 7050SOL    HW132609   1.237   1.651  17.207 -1.3734  0.1323 -1.3953
 7050SOL    HW232610   1.375   1.661  17.158  0.2807  0.7171  0.4502
 7051SOL     OW32611   4.533   4.053  17.552  0.6330  0.7458  0.4455
 7051SOL    HW132612   4.498   3.966  17.533 -0.3367  1.9111 -3.0940
 7051SOL    HW232613   4.558   4.080  17.464 -2.6726  0.5165 -0.5838
 7052SOL     OW32614   0.993   0.960   8.013 -0.6238 -0.4519 -0.0026
 7052SOL    HW132615   1.044   0.973   8.093 -1.4541 -1.6120  0.7140
 7052SOL    HW232616   1.016   1.033   7.956 -1.4984 -0.0560  0.1459
 7053SOL     OW32617   4.122   2.183   1.851 -0.4520 -0.0930  0.4684
 7053SOL    HW132618   4.175   2.208   1.927  1.5349  1.9293 -1.6038
 7053SOL    HW232619   4.186   2.159   1.785  0.1926  0.1522  0.9958
 7054SOL     OW32620   4.440   4.465   7.226 -0.7223  0.0562 -0.2876
 7054SOL    HW132621   4.470   4.418   7.304 -1.2416 -0.0648 -0.1619
 7054SOL    HW232622   4.516   4.452   7.169 -0.1701  1.9837  0.0135
 7055SOL     OW32623   3.636   3.767   5.296  0.7158 -0.2928 -0.3923
 7055SOL    HW132624   3.608   3.702   5.232 -0.4392 -0.7440  0.5669
 7055SOL    HW232625   3.643   3.721   5.380  2.3012 -0.9205 -0.8750
 7056SOL     OW32626   3.835   0.594   6.145  0.1714  0.2230  0.7900
 7056SOL    HW132627   3.788   0.597   6.062 -0.6805  0.3659  1.2743
 7056SOL    HW232628   3.779   0.533   6.193 -0.9364  0.5716 -0.0645
 7057SOL     OW32629   0.215   0.271  13.005 -0.4643  0.1432  0.0122
 7057SOL    HW132630   0.277   0.331  13.045  0.2597 -0.1170 -0.7074
 7057SOL    HW232631   0.260   0.266  12.920 -0.4498  1.2831 -0.0377
 7058SOL     OW32632   3.532   0.367   7.967  0.2229 -0.3827  0.0090
 7058SOL    HW132633   3.543   0.409   8.053  2.3018 -2.1156  0.6088
 7058SOL    HW232634   3.602   0.415   7.923 -0.6585  1.3539  0.4796
 7059SOL     OW32635   2.973   3.604   5.641  0.7083  0.3468  0.1166
 7059SOL    HW132636   3.033   3.679   5.631  0.5413  0.4423 -0.1771
 7059SOL    HW232637   3.028   3.530   5.616  0.7787  0.7863 -1.0326
 7060SOL     OW32638   1.639   4.229   2.218  0.2702 -0.1491  0.0685
 7060SOL    HW132639   1.652   4.323   2.209  0.0705 -0.1871 -0.6587
 7060SOL    HW232640   1.693   4.196   2.146  0.0394  1.6086 -0.9091
 7061SOL     OW32641   2.081   0.532   8.792 -0.6869 -0.1425 -0.7028
 7061SOL    HW132642   2.157   0.536   8.850  0.2030 -1.4073 -1.7720
 7061SOL    HW232643   2.090   0.609   8.736  0.9472  1.0360  1.1869
 7062SOL     OW32644   3.481   2.060  16.549 -0.3680 -0.9375  0.2143
 7062SOL    HW132645   3.461   2.043  16.457 -0.0171  1.2512 -0.2451
 7062SOL    HW232646   3.559   2.114  16.544 -0.0361 -1.4446 -0.1231
 7063SOL     OW32647   2.753   0.659   8.277 -0.2571 -0.2269 -0.0571
 7063SOL    HW132648   2.785   0.643   8.188 -2.5134 -3.1262 -0.3473
 7063SOL    HW232649   2.781   0.750   8.288  0.8454 -0.5135 -0.5084
 7064SOL     OW32650   2.874   4.159   8.573 -0.6149 -0.0582  0.2871
 7064SOL    HW132651   2.944   4.222   8.591  0.5940 -0.9401 -1.2581
 7064SOL    HW232652   2.911   4.099   8.508  1.9832 -0.3608  2.0593
 7065SOL     OW32653   1.877   3.918  17.584 -0.1208  0.0157 -0.0668
 7065SOL    HW132654   1.855   3.966  17.505 -1.1086 -1.4237 -0.6697
 7065SOL    HW232655   1.840   3.834  17.557 -2.2580  0.4826  1.4256
 7066SOL     OW32656   1.594   2.289  14.546  0.3608  0.8930  0.2371
 7066SOL    HW132657   1.583   2.279  14.451  0.8280  0.3599  0.2422
 7066SOL    HW232658   1.688   2.273  14.544 -0.3842 -3.3248 -1.4801
 7067SOL     OW32659   0.471   3.844   1.872 -0.4945  0.1378  0.1719
 7067SOL    HW132660   0.485   3.776   1.938 -0.5071 -0.7398 -0.7196
 7067SOL    HW232661   0.550   3.852   1.819  0.9315  0.3469  2.3133
 7068SOL     OW32662   1.010   4.534  15.618  0.3779  0.6930 -0.1725
 7068SOL    HW132663   0.956   4.608  15.590  1.2142  2.0442  1.7768
 7068SOL    HW232664   1.094   4.573  15.595  0.9627 -1.9775 -2.5396
 7069SOL     OW32665   3.884   4.514   8.135  0.3458  0.4816  0.1985
 7069SOL    HW132666   3.907   4.429   8.171  0.2946 -0.9840 -3.2426
 7069SOL    HW232667   3.806   4.531   8.189  1.2498  2.2501  0.9500
 7070SOL     OW32668   1.270   1.376   9.082 -0.2057  0.1408  0.4458
 7070SOL    HW132669   1.297   1.438   9.150 -0.9429  0.1304  0.7370
 7070SOL    HW232670   1.308   1.422   9.006  1.2818 -0.9576  0.5102
 7071SOL     OW32671   4.308   2.452   3.940 -0.2039 -0.0366 -0.4910
 7071SOL    HW132672   4.258   2.504   4.004 -2.1036 -0.0317 -1.9683
 7071SOL    HW232673   4.317   2.366   3.982 -0.2268  1.2003  2.0814
 7072SOL     OW32674   1.559   4.612   5.003  0.4023  0.5570 -0.1542
 7072SOL    HW132675   1.485   4.670   5.020 -0.3413 -0.6452  0.7862
 7072SOL    HW232676   1.515   4.527   5.001  1.2230  0.1103  0.5715
 7073SOL     OW32677   1.823   2.559  15.200 -0.0699 -0.5220 -0.1400
 7073SOL    HW132678   1.908   2.603  15.197  0.0079 -0.5166  2.5795
 7073SOL    HW232679   1.839   2.465  15.204 -1.9810 -0.8415  0.3112
 7074SOL     OW32680   3.119   4.306   5.387  0.1830  0.5881  0.0130
 7074SOL    HW132681   3.193   4.246   5.397 -1.1349 -1.1904 -0.9347
 7074SOL    HW232682   3.083   4.291   5.300  0.7663  1.6718 -0.4166
 7075SOL     OW32683   0.706   3.543   5.251  0.0033  0.0375 -0.3965
 7075SOL    HW132684   0.795   3.556   5.284 -0.9600 -0.5950  2.4410
 7075SOL    HW232685   0.707   3.595   5.171 -0.4613 -2.0758 -1.7762
 7076SOL     OW32686   2.865   3.660  13.024 -0.3332  0.2575  0.2957
 7076SOL    HW132687   2.848   3.668  13.118 -1.1456 -1.7113  0.3258
 7076SOL    HW232688   2.797   3.714  12.985  0.9467  2.4297  1.0849
 7077SOL     OW32689   1.413   2.594   6.770 -0.6306  0.4833 -0.0416
 7077SOL    HW132690   1.343   2.578   6.834  0.9939  3.1526  2.4101
 7077SOL    HW232691   1.490   2.556   6.812 -0.9935 -1.1051 -0.8388
 7078SOL     OW32692   3.794   0.623  15.748  0.4172  0.3242 -0.6731
 7078SOL    HW132693   3.739   0.598  15.822  0.7752 -0.8059 -0.7905
 7078SOL    HW232694   3.744   0.604  15.669  0.8548  1.3372 -1.1915
 7079SOL     OW32695   1.939   1.044  13.459  0.5531 -0.1232 -0.5862
 7079SOL    HW132696   1.928   1.069  13.367  0.2475 -0.2442 -0.5842
 7079SOL    HW232697   2.020   1.088  13.484  1.6140 -0.9831 -2.4796
 7080SOL     OW32698   3.009   3.672  17.629  0.5614  0.2115  0.4685
 7080SOL    HW132699   2.944   3.618  17.585  1.6220 -0.7676  0.0924
 7080SOL    HW232700   2.974   3.692   0.030  1.1529  1.8699  0.3335
 7081SOL     OW32701   4.124   2.903   5.173 -0.2645 -0.0289  0.3255
 7081SOL    HW132702   4.102   2.948   5.091 -1.6931  1.5859  1.5907
 7081SOL    HW232703   4.042   2.857   5.191 -0.8558  1.0986  0.5300
 7082SOL     OW32704   1.476   2.377  14.758  0.9928  0.7041  0.3468
 7082SOL    HW132705   1.534   2.333  14.696  1.3157  1.9385 -0.2409
 7082SOL    HW232706   1.519   2.367  14.843  0.6746  0.5809  0.4958
 7083SOL     OW32707   0.029   0.910   4.808 -0.6284 -0.2317  0.3417
 7083SOL    HW132708   0.094   0.879   4.745 -0.6338 -0.2598  0.3502
 7083SOL    HW232709   0.080   0.911   4.889  2.9167 -0.9860 -1.8919
 7084SOL     OW32710   3.958   0.291   5.941  0.3939 -0.4241 -0.2530
 7084SOL    HW132711   4.014   0.213   5.945 -0.7462 -1.2841 -1.1903
 7084SOL    HW232712   3.987   0.335   5.861 -0.7209 -2.1080 -1.5669
 7085SOL     OW32713   2.216   2.090   3.033 -0.1575 -0.5085 -0.1762
 7085SOL    HW132714   2.159   2.031   3.081  0.5265 -0.9838  0.0515
 7085SOL    HW232715   2.294   2.095   3.088 -1.3449  0.8963  1.4038
 7086SOL     OW32716   3.718   2.329  11.403  0.3092  0.2820 -0.0274
 7086SOL    HW132717   3.670   2.411  11.417  0.0555  0.1271  0.0099
 7086SOL    HW232718   3.762   2.354  11.322  0.0876  3.7761  0.9296
 7087SOL     OW32719   0.699   1.185   4.411 -0.4913  0.0427  0.0969
 7087SOL    HW132720   0.729   1.273   4.434  2.9644 -1.1689  0.2586
 7087SOL    HW232721   0.745   1.128   4.473 -2.0621  0.0165  1.2654
 7088SOL     OW32722   1.652   4.262   5.136  0.4158  0.2012  0.0724
 7088SOL    HW132723   1.656   4.207   5.058 -1.0014  1.1270 -0.6576
 7088SOL    HW232724   1.575   4.311   5.108  0.5397  0.6525  0.5189
 7089SOL     OW32725   3.840   0.234   2.214  0.0740  0.2042 -0.5843
 7089SOL    HW132726   3.754   0.216   2.175 -0.1347 -0.9795  0.4329
 7089SOL    HW232727   3.873   0.144   2.221  0.2304  0.0911 -2.6143
 7090SOL     OW32728   1.681   3.679  10.782  0.5141  0.9089 -0.1118
 7090SOL    HW132729   1.774   3.686  10.806  0.7136 -1.1350 -0.2715
 7090SOL    HW232730   1.654   3.759  10.829 -2.2094 -0.0416 -0.0754
 7091SOL     OW32731   3.372   0.859   6.478  0.0916 -0.1706 -0.5140
 7091SOL    HW132732   3.403   0.838   6.390 -0.2291  2.2544 -1.2053
 7091SOL    HW232733   3.277   0.864   6.469  0.1259 -1.3574 -1.5779
 7092SOL     OW32734   2.425   3.234   1.671  0.0231  0.4126 -0.0600
 7092SOL    HW132735   2.363   3.184   1.617 -0.5011  0.3449  0.6033
 7092SOL    HW232736   2.375   3.225   1.752  0.2810  2.5414  0.3345
 7093SOL     OW32737   3.653   3.620   8.802 -0.0467  0.1513  0.1447
 7093SOL    HW132738   3.721   3.686   8.788 -0.9881  1.1608  0.3585
 7093SOL    HW232739   3.693   3.535   8.781  0.8509  0.0100  2.5082
 7094SOL     OW32740   3.328   3.945   3.543  0.3478  0.0041 -0.7581
 7094SOL    HW132741   3.404   3.910   3.495  0.3484  1.4063 -1.7712
 7094SOL    HW232742   3.344   3.900   3.626  1.2523 -1.9391 -1.9898
 7095SOL     OW32743   2.126   1.964   3.655 -0.8331 -0.5777 -0.3479
 7095SOL    HW132744   2.059   1.992   3.593 -1.1941  1.0965  0.8002
 7095SOL    HW232745   2.077   1.961   3.737 -4.3685  1.2555 -2.4078
 7096SOL     OW32746   3.505   1.953  11.865 -0.6633 -0.4770  0.1348
 7096SOL    HW132747   3.498   1.945  11.960 -1.6681 -0.3358  0.0756
 7096SOL    HW232748   3.472   2.042  11.855  1.1029  0.3262  1.4149
 7097SOL     OW32749   4.477   1.618  15.474  0.3984 -0.6741 -0.5372
 7097SOL    HW132750   4.409   1.667  15.520 -0.3343 -1.4469 -0.7940
 7097SOL    HW232751   4.531   1.580  15.544  2.1502 -0.4429 -1.7610
 7098SOL     OW32752   2.474   2.558   0.692 -0.3635  0.7857  0.4578
 7098SOL    HW132753   2.421   2.562   0.612 -0.8073 -0.8619  0.6804
 7098SOL    HW232754   2.507   2.648   0.690  0.0467  0.6418  0.7964
 7099SOL     OW32755   0.500   2.141   7.195  0.0972  0.2272  0.4990
 7099SOL    HW132756   0.507   2.161   7.102 -1.1619 -1.5335  0.0256
 7099SOL    HW232757   0.405   2.143   7.209 -0.2780  0.7529 -2.2038
 7100SOL     OW32758   4.381   1.383   0.736 -0.3756  0.2374  0.0271
 7100SOL    HW132759   4.308   1.386   0.797 -0.8061 -2.7490 -0.3264
 7100SOL    HW232760   4.406   1.475   0.743 -1.1622  0.2482  2.8408
 7101SOL     OW32761   1.346   2.275   6.843 -0.4917  0.1561 -0.8810
 7101SOL    HW132762   1.418   2.292   6.782 -2.2391  4.6588 -1.7199
 7101SOL    HW232763   1.367   2.189   6.879 -2.5551  0.2112  0.4591
 7102SOL     OW32764   4.573   1.599   4.346  0.1763 -0.4339 -0.7493
 7102SOL    HW132765   4.592   1.568   4.258  0.6474 -1.0094 -0.4467
 7102SOL    HW232766   4.572   1.511   4.383 -1.5675 -0.8716 -1.8209
 7103SOL     OW32767   0.087   1.502  15.412  0.2762 -0.3957  0.5320
 7103SOL    HW132768   0.094   1.569  15.479  1.6735 -2.2557  2.2411
 7103SOL    HW232769   0.109   1.425  15.464 -0.3035 -1.4252 -0.7282
 7104SOL     OW32770   3.310   2.894  15.136 -0.2061  0.0267  0.4027
 7104SOL    HW132771   3.221   2.901  15.103 -0.9342 -1.6636  1.9969
 7104SOL    HW232772   3.367   2.955  15.089  0.3771 -2.0330 -1.5560
 7105SOL     OW32773   4.707   2.748   7.701 -0.1234 -1.0348 -0.4729
 7105SOL    HW132774   0.058   2.808   7.683  1.4386 -2.7045  0.1862
 7105SOL    HW232775   0.016   2.663   7.668 -2.6211 -1.3473 -1.9596
 7106SOL     OW32776   0.695   4.138  14.011 -0.5069  0.2976 -0.1473
 7106SOL    HW132777   0.712   4.142  14.105  0.5207 -1.0027 -0.2718
 7106SOL    HW232778   0.640   4.060  14.006  0.4681 -0.3130 -1.2537
 7107SOL     OW32779   2.470   2.530   3.533  0.1192  0.4444  0.3873
 7107SOL    HW132780   2.517   2.543   3.451 -1.3303 -0.8384 -0.6509
 7107SOL    HW232781   2.505   2.450   3.572 -2.1137 -0.2909  0.8809
 7108SOL     OW32782   3.030   3.151   8.291 -0.1944  0.0257 -0.3275
 7108SOL    HW132783   3.032   3.166   8.385  1.4792  1.3735 -0.5798
 7108SOL    HW232784   2.954   3.205   8.272 -0.4759 -0.1773  0.2190
 7109SOL     OW32785   4.516   4.412   7.981 -1.0581  0.4678  0.4156
 7109SOL    HW132786   4.493   4.388   7.891 -0.3231 -1.2705  0.6905
 7109SOL    HW232787   4.557   4.331   8.011 -1.6051 -0.0019 -0.1049
 7110SOL     OW32788   2.101   3.932   0.293 -0.2879  0.3276  0.3262
 7110SOL    HW132789   2.011   3.925   0.261  0.0600 -0.5952 -0.4160
 7110SOL    HW232790   2.147   3.886   0.223 -1.2074 -0.2047  0.0748
 7111SOL     OW32791   2.053   2.071   3.936  0.2068  0.0497 -0.2061
 7111SOL    HW132792   2.130   2.118   3.904  0.4796 -1.1514 -1.3086
 7111SOL    HW232793   2.043   2.123   4.016  2.8502 -0.4830  0.4901
 7112SOL     OW32794   3.551   3.777   4.021 -0.2907  0.2399  0.2049
 7112SOL    HW132795   3.537   3.766   4.116  1.7532  1.4752  0.6470
 7112SOL    HW232796   3.626   3.837   4.024 -0.8381  0.9141  0.2878
 7113SOL     OW32797   2.964   2.894   3.642 -0.2137  0.3007 -0.3719
 7113SOL    HW132798   2.918   2.947   3.707  2.6663  0.8165  1.2682
 7113SOL    HW232799   3.047   2.872   3.685  0.5987  0.3912 -1.8871
 7114SOL     OW32800   0.266   0.894   6.937  0.1085  0.1464  0.4949
 7114SOL    HW132801   0.360   0.883   6.923  0.4555  1.2458  1.9587
 7114SOL    HW232802   0.255   0.801   6.957  2.0873  0.0718  1.2372
 7115SOL     OW32803   2.569   4.196   4.144  0.0197 -0.6583 -0.5206
 7115SOL    HW132804   2.629   4.191   4.218 -3.7300  2.2650  2.7063
 7115SOL    HW232805   2.491   4.231   4.188 -0.4614  1.0721 -2.7591
 7116SOL     OW32806   0.748   0.416   9.526 -0.3152 -0.2249  0.0125
 7116SOL    HW132807   0.748   0.477   9.452  0.9711  1.5095  1.4312
 7116SOL    HW232808   0.678   0.454   9.579 -0.6163 -1.2783  0.3679
 7117SOL     OW32809   0.444   2.127   1.475  0.1367  0.3722  0.0646
 7117SOL    HW132810   0.426   2.068   1.401 -1.0250  0.6613  0.1258
 7117SOL    HW232811   0.503   2.071   1.527 -0.5012 -0.2362  0.1310
 7118SOL     OW32812   3.415   3.944   2.750 -0.2260  0.5103 -0.3850
 7118SOL    HW132813   3.464   4.022   2.774 -2.9021  1.5383  1.7057
 7118SOL    HW232814   3.466   3.875   2.792  1.0536  2.4965  1.3154
 7119SOL     OW32815   2.490   0.716   5.016 -0.5647 -0.3455 -0.4037
 7119SOL    HW132816   2.517   0.746   5.102 -1.1905  0.6243 -0.5449
 7119SOL    HW232817   2.399   0.700   5.039  0.1386 -3.1900  0.3592
 7120SOL     OW32818   2.206   0.009  15.201  0.0826  0.1248  0.1565
 7120SOL    HW132819   2.216   0.021  15.106  0.5275 -0.8209  0.0754
 7120SOL    HW232820   2.277   0.060  15.240  0.3882  1.4294 -2.0642
 7121SOL     OW32821   1.463   0.457   7.670 -0.2588 -0.2056  0.0883
 7121SOL    HW132822   1.452   0.535   7.615  1.7628  0.1172  0.1246
 7121SOL    HW232823   1.481   0.491   7.757  0.0229  2.0628 -0.8617
 7122SOL     OW32824   4.440   2.428   4.203  0.4224 -0.2703 -0.3405
 7122SOL    HW132825   4.489   2.404   4.124  1.9988  0.3241  0.4631
 7122SOL    HW232826   4.351   2.395   4.194  0.5647 -1.3666  2.3134
 7123SOL     OW32827   0.641   4.551  15.231 -0.2080 -0.5201  0.3290
 7123SOL    HW132828   0.570   4.587  15.284  1.8671  0.3430  2.4922
 7123SOL    HW232829   0.717   4.598  15.266  0.1454 -2.2597  1.9002
 7124SOL     OW32830   0.496   2.966  10.548 -0.6126  0.2055  0.2799
 7124SOL    HW132831   0.591   2.965  10.549 -0.6039  0.3356 -0.1644
 7124SOL    HW232832   0.474   2.993  10.458  1.7322 -0.1888 -0.4123
 7125SOL     OW32833   3.800   2.033  16.079  1.2065  0.1299  0.3784
 7125SOL    HW132834   3.889   2.028  16.113  1.2064 -1.2231  0.1907
 7125SOL    HW232835   3.758   2.024  16.164 -0.1895 -1.7186 -0.5007
 7126SOL     OW32836   2.288   2.534  14.500  0.4135  0.3945 -0.4965
 7126SOL    HW132837   2.234   2.522  14.422  0.1559  0.0944 -0.2725
 7126SOL    HW232838   2.358   2.469  14.496 -0.4552 -0.4342 -2.2617
 7127SOL     OW32839   0.697   0.107  10.604 -0.5256  0.2032  0.0916
 7127SOL    HW132840   0.647   0.187  10.588  0.7540  0.8222 -0.8341
 7127SOL    HW232841   0.760   0.111  10.531 -0.5534 -2.4671 -0.1081
 7128SOL     OW32842   3.766   4.034   7.780 -0.1956 -0.1401  0.5906
 7128SOL    HW132843   3.707   4.109   7.774 -0.2205 -0.3504 -1.5902
 7128SOL    HW232844   3.845   4.086   7.760  0.1291 -0.7056  0.4114
 7129SOL     OW32845   0.127   3.351   0.387 -0.2533 -0.4073  0.5878
 7129SOL    HW132846   0.168   3.359   0.473 -0.7339 -2.0720  0.9864
 7129SOL    HW232847   0.134   3.256   0.373 -0.0017 -0.1762 -0.8761
 7130SOL     OW32848   3.714   1.692   6.832  0.7243 -0.2613 -0.3444
 7130SOL    HW132849   3.797   1.669   6.790  0.2536 -0.0124 -1.3939
 7130SOL    HW232850   3.731   1.756   6.902  1.4494  0.9930 -1.6770
 7131SOL     OW32851   1.939   3.050   7.899 -0.1159  0.1234  0.0593
 7131SOL    HW132852   1.944   2.954   7.892 -2.1984 -0.1276  1.9880
 7131SOL    HW232853   1.943   3.082   7.808  2.1229 -3.5788 -1.1211
 7132SOL     OW32854   4.563   3.345   5.469  0.0611 -0.0738  0.3853
 7132SOL    HW132855   4.561   3.417   5.406  0.6318 -1.2967 -1.0510
 7132SOL    HW232856   4.651   3.308   5.455  2.2747  3.8886  3.9973
 7133SOL     OW32857   3.539   3.519  11.729 -0.0192  0.4185 -0.2955
 7133SOL    HW132858   3.522   3.613  11.734  2.2831  0.8259 -0.0865
 7133SOL    HW232859   3.617   3.522  11.674  0.3884 -3.2645  0.0715
 7134SOL     OW32860   0.442   0.058   1.226  0.1468 -0.4601 -0.0861
 7134SOL    HW132861   0.364   0.020   1.185  0.3375 -1.0329  0.0840
 7134SOL    HW232862   0.493   4.699   1.244  0.6207 -0.0196  0.5387
 7135SOL     OW32863   4.106   2.600   2.141  0.0238 -0.2580 -0.5910
 7135SOL    HW132864   4.191   2.570   2.107  0.0120 -1.2811  0.2819
 7135SOL    HW232865   4.050   2.613   2.065 -1.6262  1.3345  0.8934
 7136SOL     OW32866   4.251   3.687  12.939  0.3365  0.0498  0.1826
 7136SOL    HW132867   4.174   3.631  12.950  0.0406  0.1206 -1.5345
 7136SOL    HW232868   4.239   3.739  12.860  2.2800 -0.9753 -0.7980
 7137SOL     OW32869   4.458   1.863   3.353 -0.2818 -0.3782 -0.3548
 7137SOL    HW132870   4.416   1.783   3.386 -1.2338  0.0662 -0.4830
 7137SOL    HW232871   4.533   1.832   3.303  0.0234  1.7625 -1.2229
 7138SOL     OW32872   3.410   0.084   6.386 -0.2641  0.0935  0.2068
 7138SOL    HW132873   3.466   0.012   6.415  0.0580  0.4376  0.4376
 7138SOL    HW232874   3.396   0.134   6.466 -1.2767 -0.2852  0.2666
 7139SOL     OW32875   0.429   1.359   8.549 -0.6481 -0.1172  0.2295
 7139SOL    HW132876   0.448   1.450   8.528 -0.2974 -0.0496  0.8356
 7139SOL    HW232877   0.483   1.311   8.486  2.2954  1.0569  1.8176
 7140SOL     OW32878   4.668   1.162   3.258 -0.4042  0.4815 -0.1252
 7140SOL    HW132879   0.037   1.162   3.292 -0.6460  0.9158  0.5099
 7140SOL    HW232880   4.619   1.213   3.321 -0.5424  1.1265 -0.7590
 7141SOL     OW32881   4.022   3.517   8.886 -0.2859  0.2483  0.1428
 7141SOL    HW132882   4.081   3.582   8.924 -2.3913  1.8356  0.7401
 7141SOL    HW232883   4.005   3.477   8.971 -1.5723 -0.0090 -0.2378
 7142SOL     OW32884   2.978   3.298   7.632  0.3418 -0.3285  0.0063
 7142SOL    HW132885   2.985   3.276   7.725 -0.0740 -0.9028 -0.0923
 7142SOL    HW232886   3.001   3.218   7.585 -0.8171 -0.6576  0.0084
 7143SOL     OW32887   0.502   3.390   6.946 -0.3682 -0.2357 -0.3424
 7143SOL    HW132888   0.513   3.297   6.964 -0.6625 -0.6083 -2.0826
 7143SOL    HW232889   0.564   3.411   6.877  2.0185  0.0936  1.8833
 7144SOL     OW32890   1.791   2.308  13.849 -0.0623  0.4245  0.2357
 7144SOL    HW132891   1.847   2.234  13.872 -2.2159 -1.8122 -1.7535
 7144SOL    HW232892   1.767   2.325  13.941 -3.0940 -3.0881  0.0977
 7145SOL     OW32893   3.894   4.444   1.646  0.7802  0.1220  0.6284
 7145SOL    HW132894   3.873   4.391   1.723 -0.0524  1.4713  1.3370
 7145SOL    HW232895   3.817   4.500   1.648  0.7497  0.0910  0.2862
 7146SOL     OW32896   0.271   0.422   3.549 -0.0368  0.1765  0.1880
 7146SOL    HW132897   0.349   0.367   3.552 -0.7626 -0.8221  0.6691
 7146SOL    HW232898   0.250   0.426   3.456  2.4790  1.1263 -0.3185
 7147SOL     OW32899   2.094   2.558   4.746 -0.1385  0.2883 -0.2469
 7147SOL    HW132900   2.060   2.469   4.738  2.6152 -0.8106  0.1049
 7147SOL    HW232901   2.025   2.593   4.802  2.7438  1.3726  2.6589
 7148SOL     OW32902   2.295   2.014  10.554 -0.3900 -0.2167 -0.0657
 7148SOL    HW132903   2.391   2.015  10.552 -0.3384 -0.9395  2.6346
 7148SOL    HW232904   2.275   2.050  10.467  0.0221  0.6792  0.2062
 7149SOL     OW32905   3.362   1.681   3.114  0.1526 -0.7179  0.0529
 7149SOL    HW132906   3.432   1.745   3.127 -2.9319  2.7512 -0.2608
 7149SOL    HW232907   3.407   1.620   3.055  0.1540  0.3709 -1.0723
 7150SOL     OW32908   4.559   3.265   3.418 -0.1772  0.4827  0.3592
 7150SOL    HW132909   4.490   3.231   3.361  1.0096 -0.6450 -0.4079
 7150SOL    HW232910   4.529   3.237   3.504  3.7885  0.1439  1.6445
 7151SOL     OW32911   3.033   2.634   7.013 -0.0205  0.3894 -0.1703
 7151SOL    HW132912   2.967   2.574   7.048  0.9563 -0.2343  0.5965
 7151SOL    HW232913   3.105   2.607   7.071 -0.1774  2.1783  0.8732
 7152SOL     OW32914   3.020   4.443   2.906 -0.3260  0.4194  0.7110
 7152SOL    HW132915   3.036   4.456   2.813 -0.5455  3.7690  1.1468
 7152SOL    HW232916   3.086   4.388   2.947 -0.1050  1.0361  1.1857
 7153SOL     OW32917   2.320   3.703   5.208  1.1731  0.1880  0.5492
 7153SOL    HW132918   2.343   3.646   5.135  1.0294 -1.0189  1.4509
 7153SOL    HW232919   2.343   3.789   5.172  1.5026  0.5171  1.5224
 7154SOL     OW32920   0.564   1.506  12.374 -0.4289 -0.1035  0.4945
 7154SOL    HW132921   0.526   1.549  12.451 -1.2743 -0.0484  0.0447
 7154SOL    HW232922   0.644   1.468  12.409  0.4432  1.6803  0.4578
 7155SOL     OW32923   2.237   0.384   5.780 -0.1113  0.1906 -0.1113
 7155SOL    HW132924   2.157   0.343   5.748  0.3761 -0.3127 -0.6641
 7155SOL    HW232925   2.208   0.429   5.860  1.6023 -3.1190  2.3403
 7156SOL     OW32926   2.340   3.578   7.890 -0.5811 -0.5109 -0.6346
 7156SOL    HW132927   2.401   3.505   7.897  0.8921  0.4330 -3.6750
 7156SOL    HW232928   2.372   3.624   7.967  3.4240  0.0227 -2.6500
 7157SOL     OW32929   2.712   2.011   0.406 -0.7659 -0.1597  0.4983
 7157SOL    HW132930   2.636   2.062   0.380 -0.4636 -0.9555 -1.8947
 7157SOL    HW232931   2.680   1.922   0.392  0.1549 -0.5304  0.7658
 7158SOL     OW32932   1.214   4.199   4.527 -0.6866 -0.3190 -0.0340
 7158SOL    HW132933   1.131   4.159   4.501 -1.1686  1.7544 -1.6623
 7158SOL    HW232934   1.274   4.149   4.472 -0.5600  0.7734 -0.8744
 7159SOL     OW32935   3.565   1.923   6.783  0.0386 -0.1298 -0.4158
 7159SOL    HW132936   3.506   1.930   6.857  0.4738  2.0011 -0.2680
 7159SOL    HW232937   3.586   1.831   6.796 -0.6427 -0.0959  0.8841
 7160SOL     OW32938   4.151   2.386  15.212 -0.0015  0.6068  0.0177
 7160SOL    HW132939   4.229   2.369  15.160  0.7300  1.3108  0.8789
 7160SOL    HW232940   4.098   2.447  15.161 -0.3252 -0.9969 -1.5706
 7161SOL     OW32941   1.398   0.507   5.287  0.1122 -0.3056 -0.0699
 7161SOL    HW132942   1.419   0.527   5.378  1.4212  1.0182 -0.6592
 7161SOL    HW232943   1.346   0.427   5.297  1.3041 -0.9183  1.2674
 7162SOL     OW32944   3.281   3.543  12.930  0.3464  0.3054 -0.5285
 7162SOL    HW132945   3.185   3.535  12.923  0.2989 -0.5424  0.9406
 7162SOL    HW232946   3.306   3.472  12.871  1.5388 -1.2355  1.8253
 7163SOL     OW32947   4.144   2.435  11.357 -0.0524 -0.1185 -0.5933
 7163SOL    HW132948   4.218   2.419  11.298  1.5400 -0.4685  1.5103
 7163SOL    HW232949   4.175   2.518  11.392  2.8388 -1.4895  0.1310
 7164SOL     OW32950   1.951   3.887   3.277  0.3434 -0.0725 -0.4699
 7164SOL    HW132951   1.892   3.823   3.316  0.9909 -1.1185 -1.1960
 7164SOL    HW232952   2.024   3.833   3.246  0.4990 -0.4045  0.4640
 7165SOL     OW32953   2.704   3.521   5.587  0.2933  0.3436 -0.0403
 7165SOL    HW132954   2.789   3.541   5.626  1.8662 -1.6185 -2.3563
 7165SOL    HW232955   2.722   3.535   5.494 -0.4000 -0.6994 -0.3395
 7166SOL     OW32956   2.704   3.365   0.947 -0.0104  0.2559 -0.0701
 7166SOL    HW132957   2.739   3.276   0.945 -1.4820 -0.3073 -0.7448
 7166SOL    HW232958   2.647   3.356   1.023  0.0709 -3.4657 -0.4353
 7167SOL     OW32959   1.848   0.575   2.148 -0.2274  0.5632 -0.5047
 7167SOL    HW132960   1.882   0.599   2.062  1.5473 -0.4846 -0.0925
 7167SOL    HW232961   1.927   0.580   2.202  0.2805 -2.6622 -0.9652
 7168SOL     OW32962   0.006   3.577   0.751 -0.0938  0.3516  0.2815
 7168SOL    HW132963   0.038   3.542   0.834  1.7027  0.5097 -0.3426
 7168SOL    HW232964   4.643   3.531   0.744 -0.3562  1.1175 -1.7075
 7169SOL     OW32965   4.166   1.443   9.725  0.4881  0.5427 -0.3009
 7169SOL    HW132966   4.241   1.384   9.730 -1.1786 -1.4359  1.3010
 7169SOL    HW232967   4.203   1.513   9.778  0.1456 -0.1102  0.8011
 7170SOL     OW32968   0.129   0.409   5.372 -0.3429 -0.2435  0.4470
 7170SOL    HW132969   0.109   0.352   5.446  0.0082  1.7469  2.0839
 7170SOL    HW232970   0.216   0.442   5.396 -1.5389  1.5883  2.1574
 7171SOL     OW32971   2.866   3.934   6.146 -0.3050 -0.4068  0.2495
 7171SOL    HW132972   2.795   3.955   6.206 -1.8278 -1.0294 -1.3537
 7171SOL    HW232973   2.946   3.979   6.173 -0.2027  0.0104 -0.7882
 7172SOL     OW32974   1.252   2.164   1.575  0.0548 -0.3576 -0.5256
 7172SOL    HW132975   1.199   2.233   1.534  1.6336  1.3096  0.2529
 7172SOL    HW232976   1.340   2.192   1.551  0.2506  0.2274  0.8624
 7173SOL     OW32977   2.811   3.733  17.378  0.2062  0.0020 -0.4034
 7173SOL    HW132978   2.747   3.765  17.442 -1.6660 -0.3161 -2.1174
 7173SOL    HW232979   2.785   3.641  17.373  0.5012 -0.0247 -1.3588
 7174SOL     OW32980   3.629   4.275   5.542  0.1156 -0.0550  0.1401
 7174SOL    HW132981   3.719   4.301   5.522 -0.2884 -0.9989 -2.9289
 7174SOL    HW232982   3.652   4.186   5.568 -1.1094  0.1231  1.8143
 7175SOL     OW32983   2.122   1.791  12.686  0.4649 -0.2929 -0.1495
 7175SOL    HW132984   2.155   1.839  12.762 -0.1232 -1.8456  1.0851
 7175SOL    HW232985   2.113   1.860  12.620  1.9526 -0.2420 -0.2888
 7176SOL     OW32986   2.748   2.371   5.497 -0.0182 -0.0125  0.1768
 7176SOL    HW132987   2.666   2.404   5.534  0.6864  0.1486  1.6345
 7176SOL    HW232988   2.712   2.289   5.464  1.1711 -0.8512  0.9211
 7177SOL     OW32989   3.436   0.793   2.041 -0.8920  0.5215 -0.0876
 7177SOL    HW132990   3.418   0.705   2.074 -0.8619 -0.1894 -1.9339
 7177SOL    HW232991   3.482   0.777   1.958  0.5311 -1.6786  1.1252
 7178SOL     OW32992   1.908   1.342   8.150  0.9719 -0.4199 -0.5949
 7178SOL    HW132993   1.884   1.283   8.079  0.6278 -0.1326 -0.7187
 7178SOL    HW232994   2.003   1.328   8.157  1.3142  0.7341 -3.0023
 7179SOL     OW32995   2.255   0.465  16.999 -0.5860  0.2307  0.3416
 7179SOL    HW132996   2.242   0.438  17.090 -1.7507  0.3036  0.1968
 7179SOL    HW232997   2.276   0.559  17.005  3.3857 -0.6089 -0.4289
 7180SOL     OW32998   4.242   1.468  16.501  0.1672  0.1476 -0.2746
 7180SOL    HW132999   4.313   1.510  16.452  0.7136 -0.3073  0.1308
 7180SOL    HW233000   4.165   1.505  16.458  1.3472  1.4988 -1.1975
 7181SOL     OW33001   2.445   3.556  11.899  0.2011  0.6588 -0.5626
 7181SOL    HW133002   2.433   3.586  11.989  0.6900  0.0197 -0.2904
 7181SOL    HW233003   2.498   3.478  11.916 -2.1259 -0.7925  0.0008
 7182SOL     OW33004   4.612   2.766   5.611 -0.1193  0.6719 -0.3487
 7182SOL    HW133005   4.518   2.768   5.623  0.0190 -1.4997  1.0924
 7182SOL    HW233006   4.642   2.754   5.701 -0.0921 -0.3214 -0.4914
 7183SOL     OW33007   2.161   4.015   6.734  0.1617  0.6416 -0.4423
 7183SOL    HW133008   2.092   4.075   6.708  2.6640  3.6936  0.0268
 7183SOL    HW233009   2.237   4.072   6.742  0.3583  0.4940 -1.2920
 7184SOL     OW33010   3.499   1.889   2.500 -0.0580 -1.0522 -0.4530
 7184SOL    HW133011   3.419   1.836   2.496 -0.6534 -0.2102  0.2225
 7184SOL    HW233012   3.514   1.886   2.595 -0.3400  0.5461 -0.3571
 7185SOL     OW33013   1.161   4.715  13.816 -0.3596 -0.1349  0.2198
 7185SOL    HW133014   1.204   4.647  13.868  4.1925  2.5244  0.0178
 7185SOL    HW233015   1.223   0.068  13.820  1.8355 -1.7859 -3.3091
 7186SOL     OW33016   3.543   3.374   9.163  0.3936  0.2353  0.2146
 7186SOL    HW133017   3.502   3.400   9.081 -0.0804  1.5877  0.8856
 7186SOL    HW233018   3.565   3.286   9.135 -1.5635  0.1033 -0.8914
 7187SOL     OW33019   0.145   2.393  14.233  0.5033 -0.2045  0.1761
 7187SOL    HW133020   0.058   2.396  14.274  0.5425  2.5128  0.0933
 7187SOL    HW233021   0.134   2.459  14.164  0.2318  1.1218  1.4771
 7188SOL     OW33022   4.091   2.628   1.396 -0.2546  0.1247 -0.2772
 7188SOL    HW133023   4.100   2.568   1.322 -0.9033  0.5608 -0.7114
 7188SOL    HW233024   4.178   2.623   1.437 -0.9440 -1.2906  1.0489
 7189SOL     OW33025   1.013   0.322   1.277 -0.4477 -0.0406 -0.6102
 7189SOL    HW133026   1.091   0.357   1.320 -0.5097  1.2734 -1.5891
 7189SOL    HW233027   0.986   0.406   1.239  0.2651  1.7359  2.8416
 7190SOL     OW33028   1.446   0.346  15.404 -0.1533  0.4682 -0.1790
 7190SOL    HW133029   1.502   0.323  15.477 -2.0132  0.2029  1.1649
 7190SOL    HW233030   1.488   0.425  15.370  3.1760 -0.5025  1.7351
 7191SOL     OW33031   4.229   1.694  10.211  0.0590  0.0397  0.2743
 7191SOL    HW133032   4.189   1.771  10.171  2.7007  0.7779 -0.9268
 7191SOL    HW233033   4.229   1.725  10.301  0.6601 -1.9615  0.9539
 7192SOL     OW33034   4.661   2.397   3.945 -0.1423 -0.3042 -0.1614
 7192SOL    HW133035   4.628   2.385   3.856 -3.3224 -1.1860  1.1333
 7192SOL    HW233036   4.675   2.492   3.946 -1.6869 -0.0613 -0.5845
 7193SOL     OW33037   4.019   1.426   4.155  0.3762 -0.0101  0.4289
 7193SOL    HW133038   3.949   1.484   4.183 -0.1552 -0.5064  0.1361
 7193SOL    HW233039   4.048   1.455   4.069  0.3552 -0.2534  0.3390
 7194SOL     OW33040   3.625   2.481   3.526  0.4961 -0.2500  0.0636
 7194SOL    HW133041   3.652   2.525   3.607  0.8529 -1.7301  0.7313
 7194SOL    HW233042   3.534   2.509   3.517  0.7026 -0.2334 -2.0171
 7195SOL     OW33043   4.386   0.289  15.282 -0.7200  0.3186  0.3428
 7195SOL    HW133044   4.356   0.355  15.219  0.2613  0.2615 -0.1890
 7195SOL    HW233045   4.368   0.216  15.222 -1.3580  0.0573  0.8642
 7196SOL     OW33046   1.911   2.944   3.137 -0.7159  0.1886  0.9459
 7196SOL    HW133047   1.995   2.964   3.178 -0.1007 -1.4357  0.4821
 7196SOL    HW233048   1.846   3.003   3.175 -1.1641  1.2393 -1.4778
 7197SOL     OW33049   3.228   4.472  13.116  0.7234 -0.5456  0.0339
 7197SOL    HW133050   3.300   4.415  13.087  1.1966 -1.0721  2.2291
 7197SOL    HW233051   3.292   4.525  13.164 -0.0180 -1.1146  1.6482
 7198SOL     OW33052   1.059   3.446   3.697  0.4377 -0.2761  0.0213
 7198SOL    HW133053   0.994   3.514   3.715 -0.8180 -1.9810  1.9735
 7198SOL    HW233054   1.052   3.447   3.601  0.6028  0.4425  0.0190
 7199SOL     OW33055   2.715   1.318  12.132  0.6274 -0.2291 -0.0489
 7199SOL    HW133056   2.763   1.255  12.186  0.0699 -0.5774  0.0351
 7199SOL    HW233057   2.670   1.257  12.074 -0.3779  1.7476 -1.3371
 7200SOL     OW33058   3.348   3.874   2.252 -0.4293  0.0637 -0.1292
 7200SOL    HW133059   3.391   3.908   2.331 -2.1061 -0.8285  1.1623
 7200SOL    HW233060   3.356   3.779   2.255  3.8993  0.4741  2.0367
 7201SOL     OW33061   3.188   2.046   7.552 -0.2650 -0.0557 -0.0456
 7201SOL    HW133062   3.268   2.034   7.602 -1.0402  2.1062  1.7310
 7201SOL    HW233063   3.218   2.026   7.463 -0.5958  0.7186 -0.3354
 7202SOL     OW33064   2.481   1.306   9.572  0.0579 -0.1234 -0.3950
 7202SOL    HW133065   2.477   1.359   9.652  1.1476 -0.9730  0.2316
 7202SOL    HW233066   2.507   1.218   9.599 -1.1630 -0.3494  0.0637
 7203SOL     OW33067   2.481   3.768   3.416  0.1376  0.0253  0.1247
 7203SOL    HW133068   2.419   3.695   3.420  0.9157 -0.6298  0.1185
 7203SOL    HW233069   2.429   3.840   3.452  1.1978  0.4689  0.7853
 7204SOL     OW33070   4.708   3.667  16.212 -0.4982  0.3434  0.3759
 7204SOL    HW133071   4.619   3.640  16.234 -0.9194  1.5684  0.1328
 7204SOL    HW233072   4.710   3.689  16.120  1.7304 -1.4087 -0.0060
 7205SOL     OW33073   1.361   4.684   4.686  0.5601 -0.9662  0.2785
 7205SOL    HW133074   1.376   0.049   4.724 -0.9296 -0.2395 -0.7599
 7205SOL    HW233075   1.312   4.707   4.607 -1.0942 -2.6489  0.8222
 7206SOL     OW33076   1.146   0.578   6.525 -0.0712 -0.1724 -0.0056
 7206SOL    HW133077   1.162   0.630   6.604  0.6356 -4.7273  2.8796
 7206SOL    HW233078   1.059   0.601   6.494  0.1006  0.2346 -0.1766
 7207SOL     OW33079   4.498   3.558  17.589  0.5060 -0.3136  0.0778
 7207SOL    HW133080   4.463   3.503  17.659  1.6378 -1.1943 -0.0515
 7207SOL    HW233081   4.456   3.528  17.508 -2.6521  2.3399  0.7263
 7208SOL     OW33082   1.171   4.212   7.692  0.3083 -0.3308  0.2691
 7208SOL    HW133083   1.152   4.164   7.611 -1.6022  2.8340 -1.1236
 7208SOL    HW233084   1.252   4.174   7.727  1.2785  2.1512  0.6715
 7209SOL     OW33085   0.765   0.279   2.820 -0.6694  0.2156 -1.0188
 7209SOL    HW133086   0.781   0.185   2.809 -1.2005  0.2445 -2.0625
 7209SOL    HW233087   0.672   0.271   2.842 -0.7176  0.0564 -1.2824
 7210SOL     OW33088   2.881   1.341  15.486  0.1440  0.0348  0.2098
 7210SOL    HW133089   2.935   1.414  15.516  0.0455  0.1753  0.0441
 7210SOL    HW233090   2.949   1.287  15.447  0.0732 -0.7532  1.1615
 7211SOL     OW33091   1.683   2.406   5.141  0.0188 -0.2584  0.4781
 7211SOL    HW133092   1.630   2.329   5.163  2.9812 -1.8970  1.8551
 7211SOL    HW233093   1.752   2.384   5.204  0.0451  0.3674  0.6675
 7212SOL     OW33094   4.300   2.099   1.050 -0.1986 -0.6181 -0.1368
 7212SOL    HW133095   4.293   2.038   0.976  1.9151 -1.9864  0.8083
 7212SOL    HW233096   4.309   2.185   1.009 -1.6494 -0.7531 -0.7510
 7213SOL     OW33097   3.025   3.874  13.625  0.6534 -0.5116  0.0273
 7213SOL    HW133098   2.985   3.787  13.616 -0.1361 -0.2406  0.8575
 7213SOL    HW233099   2.951   3.927  13.653 -0.5511 -1.6369 -1.0391
 7214SOL     OW33100   3.616   2.124   7.841 -0.0658 -0.0674  0.6745
 7214SOL    HW133101   3.650   2.100   7.927 -1.3440 -2.0964  0.6117
 7214SOL    HW233102   3.657   2.209   7.828 -0.3496 -0.1612 -0.8695
 7215SOL     OW33103   2.903   2.167  15.063 -0.1996  0.1323  0.0972
 7215SOL    HW133104   2.952   2.237  15.019  0.2235  0.4446  1.0715
 7215SOL    HW233105   2.972   2.101  15.071 -1.3192 -0.8986  1.1409
 7216SOL     OW33106   0.631   2.656  11.716 -0.3678  0.0039 -0.5238
 7216SOL    HW133107   0.606   2.607  11.638  0.9761 -0.7623 -0.4622
 7216SOL    HW233108   0.678   2.732  11.682  1.7859 -1.6722 -1.3044
 7217SOL     OW33109   2.317   4.699   9.417 -0.2772 -0.4383 -0.2299
 7217SOL    HW133110   2.383   4.644   9.459 -3.0609 -1.8548  2.2699
 7217SOL    HW233111   2.335   0.067   9.448  0.9708 -0.6902 -0.2218
 7218SOL     OW33112   0.399   3.864   2.533 -0.4632 -0.1882  0.1705
 7218SOL    HW133113   0.456   3.906   2.469 -0.3025 -0.0497  0.4046
 7218SOL    HW233114   0.413   3.773   2.510  1.1248  0.0065  0.3591
 7219SOL     OW33115   3.553   3.921  13.072 -0.1572  0.0191 -0.0388
 7219SOL    HW133116   3.497   3.866  13.018  1.0929 -2.0438  0.7632
 7219SOL    HW233117   3.493   3.977  13.121  1.2266  0.6533  0.9414
 7220SOL     OW33118   0.050   3.331   7.103 -0.0136  0.7658  0.0554
 7220SOL    HW133119   0.110   3.353   7.175 -0.1421  0.6576  0.1943
 7220SOL    HW233120   0.094   3.380   7.034 -1.4778  1.4754 -0.3691
 7221SOL     OW33121   4.481   2.612   3.159 -0.0611  0.2561  0.3583
 7221SOL    HW133122   4.510   2.555   3.087  0.6149  0.6933  0.2795
 7221SOL    HW233123   4.402   2.649   3.119 -0.4265 -0.3606  0.5175
 7222SOL     OW33124   1.741   3.504   8.314  0.1674  0.1372  0.6127
 7222SOL    HW133125   1.827   3.522   8.277  0.7113  0.1887  1.9117
 7222SOL    HW233126   1.734   3.423   8.262  0.2524 -0.0990  0.9686
 7223SOL     OW33127   1.868   0.485   4.883 -0.4092  0.1464  0.5379
 7223SOL    HW133128   1.802   0.468   4.950  0.5532 -1.1420  1.1751
 7223SOL    HW233129   1.914   0.557   4.926  3.0638 -0.9376 -1.3443
 7224SOL     OW33130   1.487   0.712   3.649  0.1097 -0.1516  0.3661
 7224SOL    HW133131   1.478   0.632   3.597 -0.2907  0.5645 -0.6594
 7224SOL    HW233132   1.408   0.714   3.704 -0.0681 -1.8068  0.1798
 7225SOL     OW33133   4.345   4.301   4.135 -0.1748  0.1468  0.4828
 7225SOL    HW133134   4.328   4.240   4.205  0.4221  0.9263  1.3066
 7225SOL    HW233135   4.360   4.245   4.059 -2.6561 -0.4182  0.4342
 7226SOL     OW33136   3.983   0.950  15.440  0.5940 -0.1368 -0.3199
 7226SOL    HW133137   4.040   0.925  15.513  0.3304 -2.6715 -0.9869
 7226SOL    HW233138   4.038   0.954  15.362  0.7218  1.1633 -0.1655
 7227SOL     OW33139   1.534   0.589   9.263 -0.3428 -0.3190  0.1830
 7227SOL    HW133140   1.608   0.580   9.203  0.2590  2.0298  0.5706
 7227SOL    HW233141   1.577   0.628   9.338 -2.4874  3.3147 -0.4301
 7228SOL     OW33142   2.240   3.006  12.315 -0.2958  0.5986  0.0351
 7228SOL    HW133143   2.300   3.040  12.382 -0.6320 -1.2648  1.2899
 7228SOL    HW233144   2.157   3.045  12.343  0.3492  0.0973  2.6619
 7229SOL     OW33145   1.720   0.620   7.220  0.0825 -0.5511 -0.4887
 7229SOL    HW133146   1.763   0.578   7.295 -0.4112  1.7957  1.1169
 7229SOL    HW233147   1.785   0.667   7.167  1.6184 -3.1740 -0.9512
 7230SOL     OW33148   2.753   3.620   8.407  0.3917  0.3224 -0.4521
 7230SOL    HW133149   2.822   3.601   8.471  0.1695 -2.0366 -0.9033
 7230SOL    HW233150   2.685   3.557   8.432  0.2628  0.6034 -0.0945
 7231SOL     OW33151   3.816   4.008  14.392  0.9613 -0.8636  0.5647
 7231SOL    HW133152   3.752   4.020  14.462  0.0926  1.5384 -0.6665
 7231SOL    HW233153   3.770   3.945  14.336  0.0334 -1.3882  1.9045
 7232SOL     OW33154   4.034   2.815   1.572  0.0832 -0.3075  0.0509
 7232SOL    HW133155   4.012   2.756   1.644 -1.8753  0.1156 -0.1881
 7232SOL    HW233156   4.065   2.748   1.512  2.5456  0.0536  0.9472
 7233SOL     OW33157   3.473   0.777   2.946 -0.3130 -0.3290  0.5052
 7233SOL    HW133158   3.392   0.757   2.899  0.7740  0.5998 -1.7656
 7233SOL    HW233159   3.528   0.826   2.885 -0.2390 -0.7542  0.2303
 7234SOL     OW33160   4.374   2.728   7.308  0.2641  0.4731  0.1659
 7234SOL    HW133161   4.369   2.823   7.318 -0.5137  0.3555  0.9314
 7234SOL    HW233162   4.459   2.715   7.351  0.1916  0.7997  0.4058
 7235SOL     OW33163   2.751   0.977  17.048  0.2065  0.1429 -0.4926
 7235SOL    HW133164   2.762   0.885  17.072  1.3668  0.3393 -0.2609
 7235SOL    HW233165   2.737   1.012  17.136  0.1202 -0.6411 -0.1999
 7236SOL     OW33166   1.995   3.650   3.828 -0.1821  0.4080  0.3825
 7236SOL    HW133167   1.961   3.569   3.867  0.1630  0.3387  0.5346
 7236SOL    HW233168   1.995   3.700   3.910  0.2255 -0.7509  1.0891
 7237SOL     OW33169   2.834   3.058   3.807  0.4645 -0.6027 -0.3692
 7237SOL    HW133170   2.805   3.058   3.898 -1.1109  0.8199 -0.8707
 7237SOL    HW233171   2.877   3.143   3.797 -1.1041  0.0958 -1.1975
 7238SOL     OW33172   3.825   1.140  12.619  0.4986  0.6810  0.2055
 7238SOL    HW133173   3.760   1.146  12.689  0.5162  2.7012  0.0390
 7238SOL    HW233174   3.867   1.058  12.645 -2.5690 -0.6882  0.8928
 7239SOL     OW33175   0.153   2.336  15.407  0.7365 -0.7098 -0.7749
 7239SOL    HW133176   0.229   2.313  15.460 -0.7237  2.4185  2.6894
 7239SOL    HW233177   0.143   2.248  15.370  0.0085 -1.2902  0.7953
 7240SOL     OW33178   3.515   2.702   4.740  0.2532  0.4184 -0.5969
 7240SOL    HW133179   3.470   2.676   4.660  0.8349  1.5843 -1.3138
 7240SOL    HW233180   3.603   2.679   4.710  0.3951  2.8027 -2.0106
 7241SOL     OW33181   2.355   1.464   4.973  0.1834  0.3313  0.3322
 7241SOL    HW133182   2.286   1.420   5.022 -0.1260  0.6695  0.2019
 7241SOL    HW233183   2.314   1.463   4.887  0.3407 -1.3652  0.2768
 7242SOL     OW33184   4.626   2.156   2.425  0.4099  0.6978  0.0036
 7242SOL    HW133185   4.554   2.112   2.469 -0.4956  0.0813 -2.0671
 7242SOL    HW233186   4.600   2.145   2.333  0.9175 -1.5336  0.1211
 7243SOL     OW33187   0.074   1.739  15.272  0.1170 -0.0735 -0.5217
 7243SOL    HW133188   0.130   1.669  15.304  1.6723  1.1948 -0.4826
 7243SOL    HW233189   0.025   1.755  15.353 -0.9484  0.6397 -1.2914
 7244SOL     OW33190   1.127   3.408   8.031 -0.1336  0.3868 -0.3068
 7244SOL    HW133191   1.139   3.446   8.118 -0.1098 -2.6188  0.9795
 7244SOL    HW233192   1.039   3.374   8.042  0.1259 -0.3787 -0.6596
 7245SOL     OW33193   3.350   0.813   3.467 -0.2684 -0.0550 -0.2232
 7245SOL    HW133194   3.293   0.822   3.543  1.3137  1.6659  0.7675
 7245SOL    HW233195   3.298   0.842   3.391 -2.7458  1.7397  2.1724
 7246SOL     OW33196   0.136   3.034   0.372  0.1106 -0.4238 -0.6195
 7246SOL    HW133197   0.060   2.980   0.351  0.6708 -0.7491 -1.8038
 7246SOL    HW233198   0.203   2.990   0.319  0.1987  0.0658 -0.9146
 7247SOL     OW33199   2.355   2.352   5.847  0.1244  0.3001 -0.4206
 7247SOL    HW133200   2.291   2.313   5.786 -0.8697 -1.1600  1.5692
 7247SOL    HW233201   2.399   2.409   5.784  1.4090  0.6457  0.7922
 7248SOL     OW33202   4.361   2.783  13.476  0.1467 -0.3573 -0.0096
 7248SOL    HW133203   4.275   2.825  13.473  0.1301 -0.1227  4.0041
 7248SOL    HW233204   4.420   2.850  13.442 -3.4609  1.2685 -3.1626
 7249SOL     OW33205   1.436   3.942   8.271 -0.6727 -0.0406  0.3472
 7249SOL    HW133206   1.513   3.998   8.276 -1.2253  0.6798  0.7746
 7249SOL    HW233207   1.478   3.856   8.276  0.3256  0.4449  0.4031
 7250SOL     OW33208   0.530   4.297   2.685  0.4300 -0.2232  0.4655
 7250SOL    HW133209   0.596   4.229   2.670 -1.9488 -2.2176 -1.0091
 7250SOL    HW233210   0.566   4.368   2.632  0.8096 -0.3445  0.5604
 7251SOL     OW33211   4.610   1.592   2.423  0.0299 -0.4659 -0.5450
 7251SOL    HW133212   4.628   1.502   2.396  0.8792  0.1945 -2.1781
 7251SOL    HW233213   4.571   1.620   2.340  0.9500  0.7872 -0.5632
 7252SOL     OW33214   3.790   0.705   2.392 -0.5419  0.1981  0.1962
 7252SOL    HW133215   3.713   0.757   2.370  0.6268  2.3780  1.1653
 7252SOL    HW233216   3.762   0.615   2.378 -1.3824  0.4402  0.3247
 7253SOL     OW33217   2.727   2.729  16.839  0.2191 -0.1054  0.3842
 7253SOL    HW133218   2.686   2.644  16.851 -0.0882 -0.0295 -0.1076
 7253SOL    HW233219   2.731   2.748  16.745 -1.3918 -1.4400  0.0437
 7254SOL     OW33220   1.257   0.075  14.248  0.1871 -0.5797  0.0490
 7254SOL    HW133221   1.318   0.149  14.248  0.9647 -1.2215 -0.1141
 7254SOL    HW233222   1.181   0.101  14.300  0.3842 -1.3193  0.7214
 7255SOL     OW33223   4.351   0.378  10.091  0.8319  0.1118 -1.0358
 7255SOL    HW133224   4.407   0.380  10.169 -1.6722 -0.1277  0.7810
 7255SOL    HW233225   4.324   0.470  10.087  1.2618  0.2603 -0.4945
 7256SOL     OW33226   4.625   3.555  17.209  0.4992 -0.5342 -0.0456
 7256SOL    HW133227   4.667   3.526  17.290 -0.3793 -1.0119  0.2355
 7256SOL    HW233228   4.597   3.645  17.226 -2.8031 -1.5278 -0.2577
 7257SOL     OW33229   3.260   4.378   4.572  0.2090  0.4198 -0.7460
 7257SOL    HW133230   3.296   4.334   4.496 -1.9620 -3.0883  0.2407
 7257SOL    HW233231   3.340   4.418   4.607  0.2436 -1.4700  1.3479
 7258SOL     OW33232   1.439   3.430   7.848 -0.1275  0.7081  0.4392
 7258SOL    HW133233   1.491   3.438   7.928 -1.4308 -1.6086  1.5153
 7258SOL    HW233234   1.366   3.379   7.884  0.6128 -1.5015 -1.2338
 7259SOL     OW33235   2.991   0.340   4.734  0.6530  0.6536  0.0016
 7259SOL    HW133236   2.916   0.374   4.783 -0.5104  0.6004 -1.7614
 7259SOL    HW233237   3.042   0.418   4.711  3.0254 -0.7880  0.3825
 7260SOL     OW33238   3.742   0.889  15.552  0.0098 -0.3163 -0.0707
 7260SOL    HW133239   3.701   0.826  15.493  0.1234 -0.9786  0.5636
 7260SOL    HW233240   3.828   0.914  15.516 -1.2208  0.0742 -2.7307
 7261SOL     OW33241   3.700   4.020   5.594 -0.3983  0.2358  0.4972
 7261SOL    HW133242   3.741   3.941   5.560  0.3401  0.2658  1.3216
 7261SOL    HW233243   3.759   4.038   5.667 -2.5568 -1.7726  2.7579
 7262SOL     OW33244   2.751   4.070   5.604  0.9091  0.2619 -0.1230
 7262SOL    HW133245   2.797   4.154   5.595  0.6118  0.4001 -0.3385
 7262SOL    HW233246   2.814   4.007   5.568 -0.0801 -0.9818  0.3195
 7263SOL     OW33247   3.882   1.534   6.043 -0.8781  0.0859 -0.6637
 7263SOL    HW133248   3.959   1.545   5.987  0.3830 -0.9430  0.8501
 7263SOL    HW233249   3.912   1.505   6.129 -2.0379  0.1365 -0.2355
 7264SOL     OW33250   0.045   1.808   0.103 -0.0925  0.0500 -0.5594
 7264SOL    HW133251   0.117   1.748   0.086 -0.8703 -1.2388  0.7259
 7264SOL    HW233252   0.066   1.876   0.038 -0.9056  1.7198  0.9182
 7265SOL     OW33253   2.388   0.409   4.719 -0.0835  0.6067 -0.6205
 7265SOL    HW133254   2.415   0.342   4.782 -1.6384  0.6746  0.1110
 7265SOL    HW233255   2.321   0.448   4.775 -0.2069 -0.8248  0.2220
 7266SOL     OW33256   1.701   1.858   0.927  0.4672 -0.2806  0.6935
 7266SOL    HW133257   1.691   1.855   1.022 -0.6039 -0.1608  0.5865
 7266SOL    HW233258   1.744   1.940   0.902  0.1678 -0.3384  0.0016
 7267SOL     OW33259   0.985   0.499   0.473 -0.2919  0.5730  0.1724
 7267SOL    HW133260   0.933   0.494   0.393  1.4122 -0.8667 -0.8328
 7267SOL    HW233261   1.058   0.553   0.442  2.4245 -2.7657  0.8006
 7268SOL     OW33262   2.747   2.952   3.038  0.1911  0.1117 -0.0448
 7268SOL    HW133263   2.733   2.875   2.983 -0.4844  0.9762 -1.0777
 7268SOL    HW233264   2.775   3.009   2.967  1.2056 -0.9353 -0.5008
 7269SOL     OW33265   2.254   2.053  15.945  0.4942 -0.1226 -0.0234
 7269SOL    HW133266   2.188   2.062  15.876  1.5184 -0.5017 -1.0417
 7269SOL    HW233267   2.196   1.999  15.999  0.3158 -2.8785 -2.9850
 7270SOL     OW33268   3.117   4.656   1.627 -0.6095  0.2451 -0.0102
 7270SOL    HW133269   3.162   4.639   1.544  0.3223 -1.1715  0.7855
 7270SOL    HW233270   3.053   4.720   1.596 -1.4628  0.5358  2.3270
 7271SOL     OW33271   3.783   4.012   3.566  0.2850  0.4751 -0.4892
 7271SOL    HW133272   3.784   4.014   3.470  0.6727 -0.1629 -0.4963
 7271SOL    HW233273   3.864   4.058   3.588 -0.1270  1.2486 -0.5792
 7272SOL     OW33274   2.294   3.952   4.741  0.0888  0.3075  0.4832
 7272SOL    HW133275   2.303   4.041   4.775 -1.3142  0.9439 -0.8093
 7272SOL    HW233276   2.248   3.981   4.662  1.1031 -1.6797 -0.8347
 7273SOL     OW33277   2.670   4.542  14.552 -0.4667  0.6535  0.1663
 7273SOL    HW133278   2.589   4.588  14.533 -0.5660 -0.0094 -0.9968
 7273SOL    HW233279   2.737   4.610  14.548  0.5864 -0.4032 -0.4629
 7274SOL     OW33280   4.604   0.018   0.466 -0.4334  0.1980  0.1772
 7274SOL    HW133281   4.543   0.026   0.393 -1.1179 -1.5766  0.5623
 7274SOL    HW233282   4.623   4.646   0.453  1.7203  0.6797 -0.2360
 7275SOL     OW33283   0.826   4.413  13.137 -0.7891 -0.2233  0.2609
 7275SOL    HW133284   0.743   4.434  13.093  1.3204  1.7530 -2.8670
 7275SOL    HW233285   0.802   4.326  13.168  0.8251 -0.0227  2.0439
 7276SOL     OW33286   1.561   0.412   8.200 -0.2189 -0.0156  0.0969
 7276SOL    HW133287   1.650   0.432   8.172  0.2963  0.2605  1.9608
 7276SOL    HW233288   1.511   0.385   8.122  0.5086 -2.1774  0.3578
 7277SOL     OW33289   0.447   1.645   3.802 -0.3533 -0.5808  0.5655
 7277SOL    HW133290   0.543   1.640   3.806 -0.2766 -0.1844 -0.8684
 7277SOL    HW233291   0.411   1.580   3.741  0.9066 -2.4122  1.7850
 7278SOL     OW33292   0.656   1.848   7.151  0.2739 -0.2611 -0.0797
 7278SOL    HW133293   0.598   1.915   7.188 -0.0583  0.1367 -1.3065
 7278SOL    HW233294   0.593   1.806   7.092 -0.9760 -3.0620  3.2000
 7279SOL     OW33295   1.018   0.766   2.357 -0.1176 -0.0599 -0.4298
 7279SOL    HW133296   1.036   0.797   2.268 -1.9573 -0.4869 -0.9557
 7279SOL    HW233297   0.940   0.716   2.331  0.2914 -1.7447  1.6056
 7280SOL     OW33298   0.164   1.080   2.156 -0.1573  0.5107 -0.1808
 7280SOL    HW133299   0.098   1.025   2.198 -0.9422  1.2586 -0.4534
 7280SOL    HW233300   0.243   1.029   2.178 -1.4646 -0.4315  2.3038
 7281SOL     OW33301   3.607   1.193  12.801  0.0202 -0.2473 -0.3448
 7281SOL    HW133302   3.641   1.281  12.816  1.0810 -0.8772  0.9351
 7281SOL    HW233303   3.614   1.164  12.892 -0.3386  0.6523 -0.0338
 7282SOL     OW33304   3.616   4.329   8.233 -0.0306 -0.0737 -0.1997
 7282SOL    HW133305   3.561   4.275   8.289  1.6690 -0.1141  1.4123
 7282SOL    HW233306   3.609   4.406   8.290  1.4278  1.5332 -2.2112
 7283SOL     OW33307   2.581   1.929   2.915  0.5185 -0.3405  0.4724
 7283SOL    HW133308   2.522   1.874   2.864  0.6075  1.1126 -1.2152
 7283SOL    HW233309   2.542   2.014   2.892  2.1547  0.7467  1.6547
 7284SOL     OW33310   3.300   2.998   6.425 -0.2958  0.2132  0.2107
 7284SOL    HW133311   3.288   3.048   6.345 -0.0936 -1.7453 -1.0360
 7284SOL    HW233312   3.238   2.927   6.406 -2.3998  1.2596  3.0663
 7285SOL     OW33313   0.192   2.965   7.074 -0.3042 -0.8363  0.2533
 7285SOL    HW133314   0.133   3.036   7.049  2.1077  0.7241 -1.0447
 7285SOL    HW233315   0.275   3.013   7.080 -1.4725  1.2237  0.0367
 7286SOL     OW33316   3.330   2.998   9.183  0.1256 -0.2087  0.1660
 7286SOL    HW133317   3.376   3.032   9.260 -1.1434  1.3116  0.2386
 7286SOL    HW233318   3.277   3.077   9.172 -1.3785 -0.9957  1.7338
 7287SOL     OW33319   4.025   3.297  15.133 -0.0322 -0.0866  0.0357
 7287SOL    HW133320   4.114   3.269  15.113  0.1283 -0.5015  1.3181
 7287SOL    HW233321   4.047   3.390  15.139  2.8350 -0.8609  1.5803
 7288SOL     OW33322   0.550   0.619  12.860 -0.2298 -0.3365  0.4289
 7288SOL    HW133323   0.592   0.674  12.926  0.3846  2.6125 -2.3967
 7288SOL    HW233324   0.502   0.684  12.808 -1.4544 -1.4680  0.1361
 7289SOL     OW33325   1.309   3.108   6.133 -0.3091 -0.6005  0.1848
 7289SOL    HW133326   1.290   3.033   6.190  0.9847  0.3179  1.8005
 7289SOL    HW233327   1.267   3.180   6.180 -1.5395 -2.0410  1.2963
 7290SOL     OW33328   0.123   4.631  13.448  0.1944  0.5980 -0.3982
 7290SOL    HW133329   0.175   4.584  13.513  1.1529  2.3502  0.1232
 7290SOL    HW233330   0.032   4.613  13.473  0.3061 -0.7847 -1.0240
 7291SOL     OW33331   3.056   3.983   5.228 -0.2569 -0.3229  0.3496
 7291SOL    HW133332   2.997   3.916   5.261  1.0536 -0.9451  1.4046
 7291SOL    HW233333   3.057   4.055   5.291  2.8515 -1.8208  1.9555
 7292SOL     OW33334   2.458   0.427  16.784  0.3409  0.3287  0.1819
 7292SOL    HW133335   2.400   0.473  16.844 -2.2845  0.7144 -2.6695
 7292SOL    HW233336   2.433   0.334  16.788  0.5811  0.1791 -1.5465
 7293SOL     OW33337   3.811   1.965  15.210  0.9736 -0.2655  0.0716
 7293SOL    HW133338   3.850   2.052  15.215  0.1697 -0.0505  2.4154
 7293SOL    HW233339   3.743   1.969  15.142 -0.9819 -0.3233  2.0265
 7294SOL     OW33340   0.595   0.516   1.329  0.3030  0.0044  0.4249
 7294SOL    HW133341   0.661   0.545   1.391  0.7852 -3.6303  1.6382
 7294SOL    HW233342   0.655   0.453   1.289 -0.1272 -0.3965  0.3984
 7295SOL     OW33343   1.019   3.622   0.638  0.2530 -0.1097  0.2882
 7295SOL    HW133344   0.992   3.656   0.723 -2.4436  0.3840 -0.7701
 7295SOL    HW233345   0.937   3.585   0.604 -1.0703  1.6912  1.5263
 7296SOL     OW33346   3.963   2.607   0.391  0.1673 -0.3365  0.1033
 7296SOL    HW133347   4.052   2.630   0.417  0.0689  0.1860 -0.0287
 7296SOL    HW233348   3.902   2.656   0.445  0.4443 -0.8102  0.8324
 7297SOL     OW33349   2.222   0.825   5.371 -0.1893  0.4044  0.1331
 7297SOL    HW133350   2.182   0.759   5.428 -2.3578  2.0235  0.4912
 7297SOL    HW233351   2.137   0.866   5.355 -2.0276 -3.2471  0.4111
 7298SOL     OW33352   2.811   0.565  13.184 -0.2178  0.3365  0.2540
 7298SOL    HW133353   2.754   0.640  13.167 -0.8307 -0.9361 -3.3069
 7298SOL    HW233354   2.853   0.555  13.098  1.5418 -1.9518  1.3857
 7299SOL     OW33355   0.997   2.877   0.463 -0.2292  0.0124  0.3051
 7299SOL    HW133356   0.930   2.814   0.490 -1.3852  0.2975 -1.8427
 7299SOL    HW233357   1.028   2.915   0.545  1.0567 -1.2322  0.3903
 7300SOL     OW33358   0.877   0.010   4.617 -0.3286 -0.5471 -0.0933
 7300SOL    HW133359   0.910   4.698   4.533  1.2402  0.3224  0.1825
 7300SOL    HW233360   0.863   0.102   4.596  2.7545 -0.4536 -1.6461
 7301SOL     OW33361   1.610   2.593   2.187 -0.1587 -0.0630 -0.9252
 7301SOL    HW133362   1.680   2.547   2.234 -0.8490 -1.7043 -1.5071
 7301SOL    HW233363   1.535   2.540   2.213  0.4013 -1.6508 -2.5193
 7302SOL     OW33364   3.274   4.096   8.197 -0.5499  0.1112 -0.3946
 7302SOL    HW133365   3.346   4.067   8.141 -1.3024 -1.1021 -0.7245
 7302SOL    HW233366   3.203   4.071   8.138  0.1105  3.1782 -2.5047
 7303SOL     OW33367   3.000   1.137  16.703 -0.0707  0.5852  0.0654
 7303SOL    HW133368   3.090   1.150  16.730 -0.0427 -0.6275  0.5616
 7303SOL    HW233369   2.985   1.181  16.619  0.4188  0.8314  0.1079
 7304SOL     OW33370   0.206   1.068   2.781  0.1667 -0.1406 -0.1108
 7304SOL    HW133371   0.162   0.985   2.800  0.3174 -0.5578 -1.5544
 7304SOL    HW233372   0.207   1.063   2.685  2.1894  0.0459 -0.0889
 7305SOL     OW33373   2.774   1.955   3.955  0.0711 -0.0542  0.4686
 7305SOL    HW133374   2.794   1.888   3.890 -2.1243  1.0955 -1.4102
 7305SOL    HW233375   2.825   1.935   4.033 -0.2173  1.0296  0.9430
 7306SOL     OW33376   4.427   1.718   2.749  0.7500 -0.3826 -0.2382
 7306SOL    HW133377   4.338   1.754   2.740  0.4112 -1.8264 -2.7518
 7306SOL    HW233378   4.414   1.628   2.720  1.2026 -0.5540  0.0885
 7307SOL     OW33379   0.213   4.665   1.114  0.5454 -0.1970  0.0826
 7307SOL    HW133380   0.187   4.581   1.153 -0.9683  0.1750 -0.1479
 7307SOL    HW233381   0.192   4.647   1.022 -2.0049 -2.1093  1.0343
 7308SOL     OW33382   0.751   2.636  16.880  0.0923  0.2102  0.0059
 7308SOL    HW133383   0.683   2.677  16.934  0.5757 -0.0397  0.8076
 7308SOL    HW233384   0.700   2.603  16.806  0.1004  1.5030 -0.5667
 7309SOL     OW33385   2.592   3.650  14.223 -0.3009  0.3693 -0.7251
 7309SOL    HW133386   2.549   3.730  14.251 -1.9128 -0.3497 -1.1390
 7309SOL    HW233387   2.653   3.635  14.295 -0.5034 -0.9246 -0.8319
 7310SOL     OW33388   1.304   3.832  15.716  0.0718  0.3394  0.8821
 7310SOL    HW133389   1.228   3.792  15.672  1.3557 -0.7799 -0.3031
 7310SOL    HW233390   1.372   3.812  15.652  0.4860 -1.5680  1.9407
 7311SOL     OW33391   1.605   3.314   2.311 -0.3204  0.3116  0.1472
 7311SOL    HW133392   1.567   3.356   2.234 -0.9319 -2.9680 -1.3778
 7311SOL    HW233393   1.561   3.356   2.385 -1.7215 -1.6395  0.4152
 7312SOL     OW33394   0.093   1.012   1.686 -0.0540 -0.2483 -0.4098
 7312SOL    HW133395   0.162   0.979   1.744 -0.9338  1.2455  1.5021
 7312SOL    HW233396   0.138   1.060   1.616  2.5887 -0.3075  1.2502
 7313SOL     OW33397   3.786   4.574   3.630  0.5588 -0.6451 -0.2827
 7313SOL    HW133398   3.732   4.506   3.590  1.5567 -1.4745 -0.2236
 7313SOL    HW233399   3.709   4.619   3.665 -0.5100 -2.8245  0.1357
 7314SOL     OW33400   4.149   2.823   2.406  0.2763 -0.1204  0.2742
 7314SOL    HW133401   4.115   2.841   2.494  0.4438 -0.5427  0.4261
 7314SOL    HW233402   4.225   2.766   2.419  1.2100  1.0766  0.0158
 7315SOL     OW33403   2.063   1.595  15.082 -0.4726  0.8184  0.1707
 7315SOL    HW133404   2.103   1.512  15.109 -0.5111 -0.1334 -2.6702
 7315SOL    HW233405   2.114   1.612  15.003 -1.3277 -0.6720 -0.7142
 7316SOL     OW33406   2.108   1.893   8.358 -0.0310  0.0204 -0.0601
 7316SOL    HW133407   2.072   1.923   8.441  1.4697 -1.2355  1.0331
 7316SOL    HW233408   2.049   1.826   8.325  0.1639 -0.9440  1.5625
 7317SOL     OW33409   4.522   1.748   8.974 -0.1967 -0.3418  0.0596
 7317SOL    HW133410   4.494   1.656   8.971 -1.4004  0.0504 -0.7921
 7317SOL    HW233411   4.611   1.737   8.940  0.3584 -0.5241  1.5661
 7318SOL     OW33412   0.359   1.382   6.910 -0.1845  0.6303 -0.6804
 7318SOL    HW133413   0.269   1.377   6.939  0.0541  5.2443  0.7260
 7318SOL    HW233414   0.342   1.395   6.816  0.3280  1.8406 -0.6031
 7319SOL     OW33415   4.488   1.230   6.780 -0.2336 -0.2486 -0.7316
 7319SOL    HW133416   4.433   1.237   6.859  0.6850 -3.2889  0.1927
 7319SOL    HW233417   4.576   1.218   6.816 -0.0703 -1.4959 -1.5528
 7320SOL     OW33418   0.501   1.239   9.722 -0.2251 -0.2604  0.2435
 7320SOL    HW133419   0.544   1.267   9.804  1.3091  2.1413 -1.3598
 7320SOL    HW233420   0.494   1.322   9.674  1.6156  0.7813  1.7474
 7321SOL     OW33421   2.707   0.758   6.440  0.2016  0.4239  0.7629
 7321SOL    HW133422   2.753   0.834   6.404 -0.3237 -0.6411 -2.1711
 7321SOL    HW233423   2.618   0.784   6.417 -0.1014  0.8325  2.3979
 7322SOL     OW33424   1.567   1.596   0.917  0.8616 -0.1483 -0.4188
 7322SOL    HW133425   1.505   1.578   0.987 -0.4575  0.4739 -1.4398
 7322SOL    HW233426   1.588   1.690   0.918  0.4010 -0.0343 -1.6731
 7323SOL     OW33427   1.105   3.656  13.868 -0.8144 -0.2677 -0.6271
 7323SOL    HW133428   1.090   3.631  13.777 -0.9907 -1.2424 -0.3322
 7323SOL    HW233429   1.041   3.614  13.924 -2.0678  0.7519 -1.2984
 7324SOL     OW33430   2.159   1.984  13.811 -0.2593 -0.2015 -0.3952
 7324SOL    HW133431   2.180   1.897  13.845  1.7832  0.6805  0.6576
 7324SOL    HW233432   2.186   2.034  13.888 -1.5168  1.2903 -0.9182
 7325SOL     OW33433   3.154   1.867   8.082 -0.1315  0.1285 -0.4491
 7325SOL    HW133434   3.080   1.848   8.024 -0.2119  0.6317 -0.5137
 7325SOL    HW233435   3.199   1.936   8.033  0.3544 -0.1057 -0.3336
 7326SOL     OW33436   1.951   3.710   6.586 -0.3155 -0.6501  0.0060
 7326SOL    HW133437   1.966   3.657   6.664  0.2138  0.9692  1.0099
 7326SOL    HW233438   1.895   3.778   6.624  2.1603 -0.2531  2.9176
 7327SOL     OW33439   1.379   1.638  15.671  0.0486  0.3022  0.2382
 7327SOL    HW133440   1.287   1.615  15.685  0.0686 -0.5514 -1.0100
 7327SOL    HW233441   1.371   1.730  15.647 -2.9444  0.1757  0.7875
 7328SOL     OW33442   3.576   1.116   9.141 -0.2764 -0.5513 -0.7348
 7328SOL    HW133443   3.592   1.190   9.200 -2.0920  0.4860 -1.5366
 7328SOL    HW233444   3.584   1.040   9.199 -0.4967 -1.6420 -2.1340
 7329SOL     OW33445   2.017   4.707  14.983 -0.2584 -0.5692 -0.1283
 7329SOL    HW133446   2.109   0.002  14.961 -0.8547  0.9115 -1.5309
 7329SOL    HW233447   2.039   4.697  15.076  1.7364  2.7972 -0.2355
 7330SOL     OW33448   3.751   3.796   4.922 -0.4237 -0.2529 -0.4761
 7330SOL    HW133449   3.793   3.862   4.867  0.8421 -0.4849  0.2086
 7330SOL    HW233450   3.827   3.743   4.945  0.5759  1.4060  0.0876
 7331SOL     OW33451   4.475   0.432  15.658 -0.2091  0.2310  0.2318
 7331SOL    HW133452   4.398   0.399  15.704 -0.0170  0.6812  0.8777
 7331SOL    HW233453   4.428   0.483  15.592 -0.2461  0.0920  0.1507
 7332SOL     OW33454   3.804   2.499  17.183  0.1794  0.2664 -0.8357
 7332SOL    HW133455   3.800   2.416  17.230 -1.8055  0.8355 -0.0119
 7332SOL    HW233456   3.888   2.541  17.206  0.4816 -1.5575  1.3671
 7333SOL     OW33457   3.916   2.253   7.087 -0.6347 -0.1917  0.3688
 7333SOL    HW133458   3.907   2.256   6.992 -0.3456  1.0808  0.3855
 7333SOL    HW233459   3.826   2.239   7.116  0.7661 -0.9553  4.3735
 7334SOL     OW33460   1.960   3.825   4.070 -0.0520  0.9678 -0.4227
 7334SOL    HW133461   1.910   3.890   4.118 -1.1839 -0.1830 -0.0686
 7334SOL    HW233462   1.908   3.745   4.076  0.1904  0.7594 -1.0508
 7335SOL     OW33463   3.907   2.688   5.221 -0.4091  0.5746  0.6513
 7335SOL    HW133464   3.884   2.773   5.257 -2.8029  0.0058  0.4614
 7335SOL    HW233465   3.845   2.631   5.266 -1.3358 -0.4566 -1.9334
 7336SOL     OW33466   2.902   3.532   2.860 -0.4199 -0.3614  0.0585
 7336SOL    HW133467   2.926   3.567   2.945  0.7928  1.3957 -1.0099
 7336SOL    HW233468   2.968   3.463   2.848  1.3448  1.2202  0.7454
 7337SOL     OW33469   3.736   0.413   4.772  0.7194 -0.2019 -0.3912
 7337SOL    HW133470   3.723   0.416   4.866  0.5010 -2.6570 -0.3585
 7337SOL    HW233471   3.829   0.394   4.766  0.7296 -0.1002 -0.5615
 7338SOL     OW33472   0.221   4.223   3.111  0.2592  0.4006  0.2262
 7338SOL    HW133473   0.193   4.147   3.060 -1.6719  1.0851  0.2966
 7338SOL    HW233474   0.306   4.248   3.075  0.5194 -0.9512 -0.0839
 7339SOL     OW33475   0.510   0.266   3.842  0.9096  0.0541  0.4778
 7339SOL    HW133476   0.481   0.183   3.804  2.0228 -0.8479  1.6185
 7339SOL    HW233477   0.564   0.296   3.769  0.5474 -0.2290  0.0869
 7340SOL     OW33478   3.124   3.369  15.426  0.0518  0.3398  0.0512
 7340SOL    HW133479   3.043   3.323  15.449 -0.6986  1.4751 -0.3306
 7340SOL    HW233480   3.146   3.336  15.339  0.8573 -1.2635  0.8648
 7341SOL     OW33481   2.167   1.991   9.166 -0.1380 -0.2203 -0.2050
 7341SOL    HW133482   2.132   2.027   9.085  1.1660 -1.1500 -1.1755
 7341SOL    HW233483   2.139   2.064   9.221  1.9237  1.7801 -1.8138
 7342SOL     OW33484   0.305   0.758   1.975  0.2758  0.6718  0.2918
 7342SOL    HW133485   0.334   0.818   1.905 -2.1895  0.7236 -0.6892
 7342SOL    HW233486   0.352   0.797   2.049  0.8884  2.2228 -0.9071
 7343SOL     OW33487   0.938   0.305   4.239 -0.0870 -0.0762 -0.1724
 7343SOL    HW133488   0.874   0.330   4.173  0.1048 -0.6575 -0.5868
 7343SOL    HW233489   0.915   0.213   4.253 -0.6226  0.2166  0.8364
 7344SOL     OW33490   2.439   3.932  15.084 -0.4198 -0.2461  0.0302
 7344SOL    HW133491   2.448   3.837  15.077 -0.0733 -0.2689  0.7825
 7344SOL    HW233492   2.374   3.960  15.020 -0.4935  2.3164  1.2057
 7345SOL     OW33493   4.703   1.413  14.662 -0.0032  0.0128 -0.0500
 7345SOL    HW133494   0.029   1.377  14.737 -0.0756 -1.3306 -0.6619
 7345SOL    HW233495   4.666   1.333  14.625  0.3128 -0.1543  0.0004
 7346SOL     OW33496   4.185   3.143   9.018 -0.3868 -0.0430 -0.1671
 7346SOL    HW133497   4.115   3.188   8.971 -0.9902 -1.7767 -0.9106
 7346SOL    HW233498   4.155   3.053   9.005 -0.6354 -0.2262  1.6464
 7347SOL     OW33499   2.071   0.963   9.194  0.2313 -0.2504  0.4276
 7347SOL    HW133500   2.136   0.919   9.249  0.0987 -2.1735 -0.9756
 7347SOL    HW233501   2.037   0.899   9.131  1.1151  0.8858 -1.2110
 7348SOL     OW33502   2.750   3.970  16.971  0.0833  0.5991 -0.1238
 7348SOL    HW133503   2.812   3.923  17.026 -1.4747 -0.9829  0.2526
 7348SOL    HW233504   2.801   3.987  16.891  3.0301  2.5654  2.1582
 7349SOL     OW33505   4.314   3.422   1.001 -0.4576 -0.0280  0.0055
 7349SOL    HW133506   4.224   3.441   0.976 -0.8263 -1.3906  0.3394
 7349SOL    HW233507   4.296   3.362   1.073 -1.4614  1.7060  1.1893
 7350SOL     OW33508   2.315   4.588   7.116 -0.0540  0.7545 -0.0020
 7350SOL    HW133509   2.221   4.591   7.132 -0.1128 -1.9307  0.0688
 7350SOL    HW233510   2.332   4.647   7.190  0.4023  0.6278 -0.0058
 7351SOL     OW33511   0.130   3.906  14.989 -0.2668  0.1878  0.8710
 7351SOL    HW133512   0.107   3.999  14.979 -2.4345 -0.4516 -0.2309
 7351SOL    HW233513   0.060   3.886  15.051  2.1560  0.1408  3.5861
 7352SOL     OW33514   3.396   2.852  10.622  0.5780 -0.4312 -0.1591
 7352SOL    HW133515   3.475   2.797  10.619  0.3681 -0.6946 -0.8264
 7352SOL    HW233516   3.377   2.890  10.536  0.7077  1.1403  0.4987
 7353SOL     OW33517   1.553   3.181   7.416 -0.0912 -0.2937 -0.2499
 7353SOL    HW133518   1.518   3.252   7.470 -0.8745 -1.1859  0.4180
 7353SOL    HW233519   1.531   3.213   7.328  1.3982  1.0371 -0.1378
 7354SOL     OW33520   4.108   2.395  13.086 -0.2764 -0.6095 -0.3693
 7354SOL    HW133521   4.080   2.341  13.012  0.1456 -0.9558 -0.2764
 7354SOL    HW233522   4.131   2.323  13.145 -0.8932 -0.4615  0.0534
 7355SOL     OW33523   2.401   2.657   7.228  0.4769  0.6411 -0.3560
 7355SOL    HW133524   2.324   2.666   7.173  0.3471  0.3177 -0.2232
 7355SOL    HW233525   2.373   2.690   7.313 -1.9145  3.5328 -2.2532
 7356SOL     OW33526   3.558   2.523   2.260  0.3770  0.8087  0.0830
 7356SOL    HW133527   3.651   2.509   2.240  0.7404  1.0297  1.6201
 7356SOL    HW233528   3.519   2.506   2.175 -0.7645 -0.3336  0.8467
 7357SOL     OW33529   4.566   3.377   1.791  0.6297 -0.7586 -0.3477
 7357SOL    HW133530   4.642   3.419   1.750  0.1975  2.0148  1.6674
 7357SOL    HW233531   4.506   3.383   1.717  0.3295  0.1086 -0.0414
 7358SOL     OW33532   2.835   1.767   6.750 -0.4604  0.1095 -0.6593
 7358SOL    HW133533   2.860   1.757   6.658  0.9238 -0.0066 -0.2603
 7358SOL    HW233534   2.908   1.716   6.785  0.3166  1.7684  0.0966
 7359SOL     OW33535   4.174   1.804   2.734  0.1073  0.7012 -0.1562
 7359SOL    HW133536   4.158   1.888   2.777  0.2590  0.6569 -0.0166
 7359SOL    HW233537   4.144   1.742   2.800 -2.2408  3.3153  1.2730
 7360SOL     OW33538   1.178   2.775   0.054 -0.1885 -0.0356  0.3727
 7360SOL    HW133539   1.115   2.778  17.668  0.5112  0.2948 -0.2216
 7360SOL    HW233540   1.121   2.749   0.126  0.2312 -2.6273 -0.2113
 7361SOL     OW33541   0.025   1.518   2.824 -0.4162 -0.1995  0.2327
 7361SOL    HW133542   0.032   1.448   2.890  0.6264  0.9427  1.3320
 7361SOL    HW233543   0.027   1.474   2.739  0.2617 -0.1883  0.2394
 7362SOL     OW33544   3.804   1.263   5.657  0.6306 -0.1243  0.3871
 7362SOL    HW133545   3.817   1.357   5.642  2.0484 -0.0483  2.0825
 7362SOL    HW233546   3.769   1.266   5.746  2.2679  2.5553  0.9550
 7363SOL     OW33547   1.758   0.865   2.131 -0.0644 -0.0972 -0.1157
 7363SOL    HW133548   1.677   0.860   2.181  0.9058 -1.4230  1.3062
 7363SOL    HW233549   1.747   0.806   2.056  0.6641  0.4487 -0.6519
 7364SOL     OW33550   2.958   3.500   7.894  0.0211 -0.1347  0.1916
 7364SOL    HW133551   2.977   3.591   7.872  0.5351 -0.2771  0.0314
 7364SOL    HW233552   2.927   3.507   7.984 -0.8064 -1.1822 -0.0104
 7365SOL     OW33553   3.535   2.691  11.252  0.2766 -0.4951  0.1579
 7365SOL    HW133554   3.567   2.602  11.237 -0.6451 -0.6474 -0.8495
 7365SOL    HW233555   3.510   2.680  11.344 -0.2899  0.7592  0.1541
 7366SOL     OW33556   3.391   1.136   2.986  0.0738 -0.1396 -0.1455
 7366SOL    HW133557   3.365   1.224   3.015 -2.5397 -1.5840  1.8795
 7366SOL    HW233558   3.310   1.100   2.952  0.3843 -0.2144 -0.8026
 7367SOL     OW33559   2.247   2.166   9.770 -0.1085  0.3946  0.0670
 7367SOL    HW133560   2.257   2.112   9.692 -1.7496  2.4868 -1.6111
 7367SOL    HW233561   2.256   2.095   9.834 -1.2021  0.5309  0.3801
 7368SOL     OW33562   2.876   2.326   0.661 -0.2398 -0.7186  0.4298
 7368SOL    HW133563   2.793   2.342   0.617 -1.2086 -0.7294  2.2435
 7368SOL    HW233564   2.918   2.264   0.601 -0.1475 -2.1417  1.9663
 7369SOL     OW33565   3.903   4.315   5.552  0.0837  0.5104 -0.6475
 7369SOL    HW133566   3.953   4.369   5.613  0.5998  1.5609 -2.0195
 7369SOL    HW233567   3.954   4.234   5.551  1.4764  1.3994 -2.0846
 7370SOL     OW33568   3.537   1.898   3.096 -0.7837 -0.0775  0.2993
 7370SOL    HW133569   3.617   1.928   3.053 -1.2319 -0.4374 -0.7831
 7370SOL    HW233570   3.473   1.962   3.066  1.7371  2.3488  0.0593
 7371SOL     OW33571   2.882   1.783   4.527 -0.2870 -0.4989 -0.7388
 7371SOL    HW133572   2.839   1.858   4.485 -1.1726 -1.4892 -1.6288
 7371SOL    HW233573   2.928   1.827   4.598 -1.3409  1.8225 -1.4845
 7372SOL     OW33574   1.015   1.330   7.508 -1.0319 -0.4673  0.1317
 7372SOL    HW133575   0.944   1.394   7.511 -1.4372 -0.9026 -0.1682
 7372SOL    HW233576   0.991   1.279   7.431 -2.4092  0.5696 -0.1324
 7373SOL     OW33577   3.383   3.669  15.380  0.4786 -0.1877  0.3315
 7373SOL    HW133578   3.366   3.759  15.406 -1.3072 -0.7365  1.0320
 7373SOL    HW233579   3.475   3.679  15.354  1.4369 -0.4721  3.6675
 7374SOL     OW33580   3.732   2.240   2.514  0.3918 -0.0790  0.6589
 7374SOL    HW133581   3.746   2.311   2.577  0.5980  2.0743 -1.8001
 7374SOL    HW233582   3.814   2.192   2.517  1.8029  2.3202  0.4333
 7375SOL     OW33583   2.338   1.343   4.388  0.2568 -0.1430  0.2449
 7375SOL    HW133584   2.345   1.319   4.295  1.2508 -0.6731  0.4575
 7375SOL    HW233585   2.325   1.438   4.392 -1.9700 -0.4596  0.4768
 7376SOL     OW33586   2.114   2.006   8.870  0.6986  0.5346  0.3780
 7376SOL    HW133587   2.107   1.912   8.854 -2.0326  0.7409  0.3899
 7376SOL    HW233588   2.207   2.026   8.864 -0.0264  4.0537  0.9437
 7377SOL     OW33589   2.925   3.028  17.260 -0.1696 -0.2620  0.6993
 7377SOL    HW133590   3.003   3.082  17.262 -0.0677 -0.3631 -0.4139
 7377SOL    HW233591   2.863   3.085  17.214 -1.1541 -1.1124  0.9616
 7378SOL     OW33592   0.814   0.423   4.764  0.4166 -0.4084  0.1739
 7378SOL    HW133593   0.908   0.410   4.754  0.6224  0.7283  0.6431
 7378SOL    HW233594   0.783   0.358   4.701  2.2384 -0.2235 -0.9021
 7379SOL     OW33595   0.597   1.690  12.816 -0.4662 -0.0301 -0.3188
 7379SOL    HW133596   0.575   1.640  12.737 -1.3573  0.3702 -0.3322
 7379SOL    HW233597   0.685   1.653  12.822 -0.5917 -0.0800  1.0772
 7380SOL     OW33598   3.010   3.665   5.184  0.1796 -0.3240 -0.1190
 7380SOL    HW133599   2.925   3.685   5.145  0.1888  1.3048  0.7033
 7380SOL    HW233600   3.052   3.618   5.112 -0.6032 -2.2929  0.7236
 7381SOL     OW33601   2.345   3.641   5.872 -0.9444 -0.4944 -0.2839
 7381SOL    HW133602   2.292   3.581   5.925  1.3498 -1.1317  1.3213
 7381SOL    HW233603   2.430   3.596   5.873  0.3593  2.0412  0.9016
 7382SOL     OW33604   3.998   0.800   6.668 -0.6346  0.1132  0.1571
 7382SOL    HW133605   3.984   0.778   6.576  1.4904 -1.5390  0.2444
 7382SOL    HW233606   3.993   0.896   6.660 -0.2890 -0.0016 -1.2695
 7383SOL     OW33607   2.277   4.069   7.051  0.0070  0.3477 -0.0799
 7383SOL    HW133608   2.310   3.988   7.090 -2.1886 -0.4113  0.1610
 7383SOL    HW233609   2.353   4.127   7.043 -0.6303  1.3843  1.4588
 7384SOL     OW33610   0.280   0.927  13.056  0.5380  0.3258  0.0347
 7384SOL    HW133611   0.309   0.924  13.147  1.0005  0.6144 -0.1009
 7384SOL    HW233612   0.321   1.011  13.038  0.0303  0.1334 -2.0242
 7385SOL     OW33613   4.292   1.971   5.120  0.2168  0.3620 -0.4393
 7385SOL    HW133614   4.295   1.898   5.183  0.4025  1.5934  0.9634
 7385SOL    HW233615   4.216   1.950   5.065  0.1938 -0.6283 -0.0438
 7386SOL     OW33616   0.418   1.192   2.366 -0.8139 -0.1711 -0.3873
 7386SOL    HW133617   0.494   1.155   2.410 -3.3363  0.8857  4.8257
 7386SOL    HW233618   0.415   1.133   2.290 -3.2000 -0.9064  0.2645
 7387SOL     OW33619   1.998   4.707   0.539 -0.3370 -0.3167 -0.0308
 7387SOL    HW133620   2.062   4.655   0.491  3.3524  3.7592  0.4592
 7387SOL    HW233621   2.063   0.047   0.575  0.1178  0.6802 -2.5880
 7388SOL     OW33622   0.270   2.450   8.867 -0.0136  0.4756 -0.2427
 7388SOL    HW133623   0.360   2.485   8.865  0.1075  0.3493  2.5081
 7388SOL    HW233624   0.211   2.524   8.880 -0.4860  0.2238 -1.0193
 7389SOL     OW33625   2.312   1.080   3.212 -0.0248  0.8226 -0.1046
 7389SOL    HW133626   2.245   1.140   3.180 -0.6255 -0.8820 -1.9987
 7389SOL    HW233627   2.279   0.994   3.186 -1.6079  0.6353  2.4869
 7390SOL     OW33628   4.133   3.975  12.349 -0.1615  0.0682 -0.0118
 7390SOL    HW133629   4.071   3.957  12.278 -0.5035 -5.2698  1.6272
 7390SOL    HW233630   4.203   3.919  12.316  0.2505 -0.4065  1.6448
 7391SOL     OW33631   0.622   0.230   4.302  0.2080 -0.4588  0.4369
 7391SOL    HW133632   0.630   0.142   4.264 -0.3190 -0.5295  0.4866
 7391SOL    HW233633   0.528   0.246   4.310  0.4612  0.8385  0.8734
 7392SOL     OW33634   1.503   2.323   3.219  0.3353 -0.1828  0.1223
 7392SOL    HW133635   1.461   2.244   3.186  1.9696 -0.2582 -1.8210
 7392SOL    HW233636   1.527   2.376   3.143  1.7721  3.9618  3.4909
 7393SOL     OW33637   0.520   0.358   5.194 -0.7929  0.1560  0.0360
 7393SOL    HW133638   0.562   0.276   5.167 -0.5143  0.6903 -1.1258
 7393SOL    HW233639   0.444   0.359   5.136 -0.5441 -1.1500 -0.3056
 7394SOL     OW33640   0.688   1.119  13.639 -0.3163  0.0882 -0.2295
 7394SOL    HW133641   0.771   1.089  13.602  0.1156  2.2470 -1.0178
 7394SOL    HW233642   0.625   1.101  13.569 -1.1776  1.4150  0.2028
 7395SOL     OW33643   2.938   1.916   7.542  0.2430  0.2238  0.0439
 7395SOL    HW133644   3.017   1.969   7.551 -1.1874  1.9707  2.3103
 7395SOL    HW233645   2.868   1.980   7.526 -1.7112 -2.4509 -2.2496
 7396SOL     OW33646   3.361   2.958  10.360  0.6192  0.0003  0.0733
 7396SOL    HW133647   3.377   3.049  10.386  1.7104  0.1455 -1.0844
 7396SOL    HW233648   3.363   2.969  10.265  2.9971  0.0548  0.1290
 7397SOL     OW33649   0.380   3.224   9.345 -0.0639 -0.2098 -0.0686
 7397SOL    HW133650   0.347   3.135   9.358  0.2409 -0.4533 -0.9384
 7397SOL    HW233651   0.414   3.256   9.428  3.5092 -1.5224 -1.0112
 7398SOL     OW33652   0.940   4.048   7.060 -0.4247 -0.0199  0.1142
 7398SOL    HW133653   0.974   4.137   7.064  0.5833 -0.3262 -1.6085
 7398SOL    HW233654   0.873   4.057   6.993 -0.4293  0.3670  0.1719
 7399SOL     OW33655   0.682   2.446   0.548 -0.0154  0.6336  0.2025
 7399SOL    HW133656   0.732   2.397   0.483  1.7348 -1.4651  3.1885
 7399SOL    HW233657   0.715   2.404   0.627 -3.8293 -0.0312  1.4370
 7400SOL     OW33658   3.549   3.636   8.293 -0.0709  0.6398  0.3551
 7400SOL    HW133659   3.569   3.555   8.247  1.4338  1.3621 -0.2770
 7400SOL    HW233660   3.544   3.600   8.382  2.1360  0.2517  0.3317
 7401SOL     OW33661   0.208   1.132   7.617 -0.4363 -0.0444  0.0601
 7401SOL    HW133662   0.212   1.227   7.602 -1.0171 -0.0718 -0.2640
 7401SOL    HW233663   0.142   1.103   7.554 -3.0245  1.3381  2.1083
 7402SOL     OW33664   4.670   2.680   6.132  0.1763 -0.1368  0.0553
 7402SOL    HW133665   4.632   2.666   6.218  0.8862  1.2374  0.5978
 7402SOL    HW233666   4.709   2.767   6.141  2.3474 -0.9264 -1.6930
 7403SOL     OW33667   1.160   3.530   7.425  0.2236 -0.2073 -0.2724
 7403SOL    HW133668   1.247   3.515   7.387 -1.4533 -3.8417 -2.7167
 7403SOL    HW233669   1.105   3.512   7.349  2.3522  0.3307 -1.9432
 7404SOL     OW33670   2.460   3.360   4.568 -0.2456 -0.4585  0.4204
 7404SOL    HW133671   2.507   3.317   4.639 -1.2868 -3.6151 -0.7738
 7404SOL    HW233672   2.373   3.361   4.607 -0.4588  2.1071 -0.1603
 7405SOL     OW33673   1.440   2.382   4.499 -0.3258  0.0738 -0.5097
 7405SOL    HW133674   1.362   2.354   4.548  0.1733 -0.9471 -0.2976
 7405SOL    HW233675   1.402   2.413   4.417  3.4634 -0.7795 -2.5983
 7406SOL     OW33676   0.220   0.750   8.144 -0.0068  0.8644  0.0707
 7406SOL    HW133677   0.208   0.805   8.221 -0.3521 -1.5655  1.7876
 7406SOL    HW233678   0.224   0.664   8.187 -2.8020 -0.0911 -1.5474
 7407SOL     OW33679   4.579   4.231   0.852 -0.3247 -0.3013  0.0270
 7407SOL    HW133680   4.633   4.222   0.774  0.0977  0.0172  0.2863
 7407SOL    HW233681   4.506   4.171   0.834 -0.7696  0.1618  0.2948
 7408SOL     OW33682   0.425   0.927   6.070 -0.6004  0.7965  0.2335
 7408SOL    HW133683   0.420   0.939   5.975 -0.9745 -0.3733  0.1053
 7408SOL    HW233684   0.346   0.968   6.103 -0.0695  1.0160  1.2324
 7409SOL     OW33685   2.733   2.135  11.555 -0.1001  0.1721  0.6905
 7409SOL    HW133686   2.734   2.149  11.649  1.0298  0.7679  0.5836
 7409SOL    HW233687   2.776   2.215  11.527  0.7687 -1.0271 -1.3868
 7410SOL     OW33688   3.108   4.002   9.366 -0.1750  0.4283 -0.9281
 7410SOL    HW133689   3.145   3.918   9.340  0.4686  1.2149 -2.5353
 7410SOL    HW233690   3.020   3.970   9.387  0.7625 -1.5932 -0.0474
 7411SOL     OW33691   2.240   3.560  11.594  0.0084 -0.1933 -0.2526
 7411SOL    HW133692   2.225   3.467  11.576  0.7823 -0.2338 -0.7112
 7411SOL    HW233693   2.336   3.559  11.585  0.0739  0.9023  0.2404
 7412SOL     OW33694   1.295   2.755   0.739 -0.0314  0.0569  0.4323
 7412SOL    HW133695   1.312   2.709   0.821  0.6193 -1.3253 -0.4829
 7412SOL    HW233696   1.260   2.676   0.698 -0.0042  0.6473 -0.7219
 7413SOL     OW33697   1.090   0.622   8.205  0.2112  0.3657  0.5179
 7413SOL    HW133698   1.102   0.571   8.286 -0.7125 -0.0657  0.3839
 7413SOL    HW233699   1.124   0.709   8.226 -0.4546  0.4136  1.3946
 7414SOL     OW33700   0.841   3.823   6.096 -0.2875 -0.1216 -0.0969
 7414SOL    HW133701   0.813   3.890   6.159 -1.0659 -3.8503  3.5137
 7414SOL    HW233702   0.936   3.834   6.107 -0.3259  0.7742 -0.6262
 7415SOL     OW33703   2.071   3.657   4.710 -0.1977 -0.3204 -0.4029
 7415SOL    HW133704   2.010   3.590   4.679  1.7307 -2.3879  0.3625
 7415SOL    HW233705   2.047   3.672   4.802  1.0846  1.5574 -0.3704
 7416SOL     OW33706   4.622   2.135   7.551 -0.5842  0.2719  0.7216
 7416SOL    HW133707   4.681   2.192   7.503 -2.8332  1.7424 -0.3101
 7416SOL    HW233708   4.540   2.183   7.537 -0.9341 -0.4165  0.4031
 7417SOL     OW33709   1.220   1.686  10.758 -0.6361 -0.1103  0.1325
 7417SOL    HW133710   1.287   1.659  10.821 -0.9800 -1.1963  0.0433
 7417SOL    HW233711   1.270   1.755  10.714  0.7560 -0.6467  0.8708
 7418SOL     OW33712   2.255   2.481  16.352  0.2509  0.4417 -0.3170
 7418SOL    HW133713   2.191   2.450  16.288  0.6162 -0.5866 -0.1817
 7418SOL    HW233714   2.328   2.419  16.345 -0.4353 -0.4859  0.8962
 7419SOL     OW33715   1.380   2.162  16.290  0.4676 -0.4173  0.0700
 7419SOL    HW133716   1.323   2.102  16.339 -1.0696 -0.0978 -1.3518
 7419SOL    HW233717   1.450   2.192  16.349  0.5470  2.2809 -1.3859
 7420SOL     OW33718   0.660   2.864   3.243  0.6697  0.5345 -0.6346
 7420SOL    HW133719   0.599   2.792   3.222  2.3078 -1.2983  0.9036
 7420SOL    HW233720   0.610   2.924   3.298  0.6803 -0.2693  0.2616
 7421SOL     OW33721   0.323   2.348   9.113  0.1905 -0.0453  0.2773
 7421SOL    HW133722   0.302   2.406   9.039  0.4959  1.1221  1.1148
 7421SOL    HW233723   0.244   2.295   9.117  0.4140 -0.4506 -0.5806
 7422SOL     OW33724   0.392   2.777   2.553  0.4616 -0.0661 -0.5982
 7422SOL    HW133725   0.426   2.863   2.529 -0.4596 -0.0943 -1.9712
 7422SOL    HW233726   0.477   2.738   2.576  1.0196  0.9161 -0.9771
 7423SOL     OW33727   0.116   2.840   0.057 -0.3882 -0.2585 -0.3060
 7423SOL    HW133728   0.072   2.762   0.092 -1.3798  0.8177  0.8381
 7423SOL    HW233729   0.170   2.872   0.129 -1.0236  0.9442 -0.3736
 7424SOL     OW33730   2.367   0.184  12.165  0.0624 -0.5497 -0.2978
 7424SOL    HW133731   2.434   0.122  12.135  2.1661  1.3562  0.4743
 7424SOL    HW233732   2.429   0.256  12.175 -0.9997  0.3232  0.0226
 7425SOL     OW33733   3.020   2.957   9.350 -0.8211 -0.4897  0.8094
 7425SOL    HW133734   2.950   2.904   9.389 -0.5033 -1.9016 -0.5643
 7425SOL    HW233735   3.099   2.907   9.367 -0.1685  0.4240  0.4222
 7426SOL     OW33736   3.772   1.725  15.613 -0.0150  0.2644 -0.2001
 7426SOL    HW133737   3.837   1.750  15.546  0.4932 -0.2735  0.0916
 7426SOL    HW233738   3.725   1.809  15.611  1.3479  1.0762  1.8374
 7427SOL     OW33739   2.669   0.602   9.072 -0.3744 -0.7165 -0.1649
 7427SOL    HW133740   2.685   0.514   9.039 -0.7509 -1.3680  1.3684
 7427SOL    HW233741   2.575   0.609   9.090  0.0670  1.0599  1.4342
 7428SOL     OW33742   2.066   1.523  13.479 -0.2588  0.6179 -0.2591
 7428SOL    HW133743   2.128   1.473  13.532  0.0952  3.3042  1.8303
 7428SOL    HW233744   1.996   1.459  13.481 -1.8692  2.3912 -0.0438
 7429SOL     OW33745   2.302   4.651   8.527  0.1259 -0.1950 -0.0614
 7429SOL    HW133746   2.343   4.599   8.596  3.9920 -0.0123 -2.2074
 7429SOL    HW233747   2.314   4.593   8.452 -0.5240 -1.0710  0.5215
 7430SOL     OW33748   3.942   0.735   7.546  0.3433  0.1106  0.5640
 7430SOL    HW133749   4.033   0.705   7.550  0.8687  1.7168  0.3261
 7430SOL    HW233750   3.911   0.682   7.473 -1.5155  0.4945  1.0829
 7431SOL     OW33751   2.270   1.979   9.571  0.1314 -0.0954  0.5724
 7431SOL    HW133752   2.352   1.933   9.556 -0.7326 -0.9679 -1.4851
 7431SOL    HW233753   2.212   1.927   9.515  0.5342 -0.6567  0.6736
 7432SOL     OW33754   3.674   3.633   7.222  0.0857  0.2572 -0.5216
 7432SOL    HW133755   3.738   3.579   7.174  0.9599 -0.7550  1.7874
 7432SOL    HW233756   3.715   3.650   7.307 -2.5424 -1.4836  1.0884
 7433SOL     OW33757   0.010   4.082   2.624  0.2690  0.4404 -0.2873
 7433SOL    HW133758   0.054   4.002   2.652 -0.7664  0.3507  1.0455
 7433SOL    HW233759   4.689   4.115   2.703  0.6935  1.0737 -0.3210
 7434SOL     OW33760   0.229   1.185  14.653  0.2494 -0.3432  0.2107
 7434SOL    HW133761   0.254   1.100  14.616 -2.6664 -0.9826 -0.2708
 7434SOL    HW233762   0.231   1.243  14.577 -0.9372 -2.7178 -1.6487
 7435SOL     OW33763   3.055   4.101   8.039  0.1166 -0.6762  0.6104
 7435SOL    HW133764   2.984   4.118   8.102  0.1235 -1.6986  0.9062
 7435SOL    HW233765   3.064   4.183   7.992  0.3921 -0.9488  0.1833
 7436SOL     OW33766   2.493   1.158  15.202 -0.2797  0.0130  0.0089
 7436SOL    HW133767   2.498   1.178  15.296 -2.2305 -1.2450  0.3815
 7436SOL    HW233768   2.445   1.075  15.199  2.1395 -1.2710 -2.4372
 7437SOL     OW33769   2.395   2.991   8.959 -0.4307 -0.2067  0.0267
 7437SOL    HW133770   2.365   3.072   9.000 -0.3526 -0.8130  1.2787
 7437SOL    HW233771   2.449   2.943   9.022  0.7779  1.0605 -0.0527
 7438SOL     OW33772   0.037   1.991   1.706  0.1245  0.3829 -0.5355
 7438SOL    HW133773   0.045   2.084   1.682 -0.7670  0.2209 -1.4658
 7438SOL    HW233774   4.713   1.957   1.628 -0.5223 -0.8163  0.3681
 7439SOL     OW33775   4.369   1.217   8.763 -0.2080  0.4846  0.1177
 7439SOL    HW133776   4.423   1.139   8.771 -0.2720  0.1715 -2.4239
 7439SOL    HW233777   4.280   1.180   8.766 -0.0285  0.1445  1.0257
 7440SOL     OW33778   3.501   2.158   2.645  0.0811  0.0376 -0.4968
 7440SOL    HW133779   3.529   2.080   2.694 -1.4195 -0.3895 -0.3362
 7440SOL    HW233780   3.571   2.164   2.581  0.9391  1.6363  0.5897
 7441SOL     OW33781   0.147   3.060  17.572 -0.3783 -0.1270  0.1515
 7441SOL    HW133782   0.115   3.035  17.486 -0.8100  1.7668 -0.2467
 7441SOL    HW233783   0.128   2.984  17.628 -0.8778  0.3877  0.6929
 7442SOL     OW33784   4.130   2.154   7.635  0.6566 -0.5918 -0.8684
 7442SOL    HW133785   4.155   2.083   7.692 -0.6057 -0.8841 -0.6786
 7442SOL    HW233786   4.116   2.228   7.694 -1.1895 -1.4107 -0.2927
 7443SOL     OW33787   1.671   1.158   5.637 -0.1812 -0.6077 -0.0856
 7443SOL    HW133788   1.684   1.130   5.728 -2.5716  0.0221  0.4749
 7443SOL    HW233789   1.581   1.127   5.624  0.7596 -2.9627 -0.9921
 7444SOL     OW33790   2.992   0.653   8.085 -0.8004  0.0767 -0.7490
 7444SOL    HW133791   3.020   0.697   8.005 -0.4100 -0.2670 -0.8053
 7444SOL    HW233792   3.027   0.703   8.159 -2.2004  0.2548 -0.2214
 7445SOL     OW33793   1.138   1.581   2.389  0.1262  0.4439 -0.0014
 7445SOL    HW133794   1.095   1.496   2.379  2.8199 -0.9067 -0.1200
 7445SOL    HW233795   1.161   1.601   2.480 -0.1432 -1.0738  0.4065
 7446SOL     OW33796   2.306   1.027   3.495  0.2132 -0.0045 -0.3191
 7446SOL    HW133797   2.312   1.087   3.421 -0.6513  2.1905  1.3712
 7446SOL    HW233798   2.363   1.075   3.554  1.5669  1.9881 -3.2553
 7447SOL     OW33799   2.141   4.096   2.951  0.6655  0.0964 -0.4219
 7447SOL    HW133800   2.051   4.066   2.969 -0.4159  1.2994 -3.8855
 7447SOL    HW233801   2.135   4.121   2.859  1.9558 -1.2757 -0.8726
 7448SOL     OW33802   1.551   3.056   5.403 -0.0004  0.0979 -0.1180
 7448SOL    HW133803   1.624   3.064   5.341 -0.4464 -0.8466 -0.7715
 7448SOL    HW233804   1.507   2.975   5.377 -0.6232  0.0096  1.2603
 7449SOL     OW33805   3.921   0.412   5.547 -0.4014 -0.0642  0.1929
 7449SOL    HW133806   3.926   0.322   5.515  0.8727  0.4910 -1.1566
 7449SOL    HW233807   3.998   0.409   5.604 -1.1904  1.2239  1.3304
 7450SOL     OW33808   0.947   0.240   2.584  0.4095 -0.3692 -0.2343
 7450SOL    HW133809   0.908   0.226   2.670  0.4394 -0.2323 -0.1997
 7450SOL    HW233810   0.900   0.316   2.550  0.8158 -0.8864 -1.9369
 7451SOL     OW33811   2.455   3.584   1.610 -0.4085 -0.6323 -0.2605
 7451SOL    HW133812   2.428   3.504   1.654 -1.3860  1.2614  2.5146
 7451SOL    HW233813   2.425   3.645   1.677  2.6762  1.0849 -0.3778
 7452SOL     OW33814   0.540   3.191   8.895 -0.4285  0.3906 -0.0414
 7452SOL    HW133815   0.578   3.269   8.854 -1.9369  1.9494  1.4909
 7452SOL    HW233816   0.544   3.227   8.983  1.5258  0.0976 -0.0232
 7453SOL     OW33817   1.565   0.054   3.985  0.0103  0.7121  0.1278
 7453SOL    HW133818   1.536   0.142   3.961 -2.3310  0.1609  0.9982
 7453SOL    HW233819   1.494   4.715   3.963  0.8216 -1.1562  2.7297
 7454SOL     OW33820   4.026   2.863  15.011  0.2046  0.3150  0.0579
 7454SOL    HW133821   4.091   2.933  15.020  1.8766 -1.0211 -1.4049
 7454SOL    HW233822   3.952   2.884  15.068 -0.3064  1.6214 -1.1005
 7455SOL     OW33823   2.151   2.920  12.065  0.0787  0.0794  0.9893
 7455SOL    HW133824   2.204   2.945  12.141  2.7026  1.2790 -1.2093
 7455SOL    HW233825   2.185   2.983  12.002  0.4922 -4.4761 -3.4127
 7456SOL     OW33826   2.211   0.736  10.049  0.1772  0.1557  0.1382
 7456SOL    HW133827   2.192   0.813  10.103  1.6021  0.8061 -0.3056
 7456SOL    HW233828   2.130   0.715  10.001  1.6684 -1.6442 -1.5578
 7457SOL     OW33829   3.879   0.890   8.611  0.0533  0.0034  0.6485
 7457SOL    HW133830   3.823   0.889   8.689 -0.6777 -0.2439  0.1197
 7457SOL    HW233831   3.926   0.807   8.617 -0.7332 -0.6949 -2.6877
 7458SOL     OW33832   2.474   0.608   8.704  0.2618 -0.4649 -0.3484
 7458SOL    HW133833   2.395   0.594   8.652  0.8336  0.0482 -1.3529
 7458SOL    HW233834   2.501   0.522   8.736 -1.6368  0.4117  3.5706
 7459SOL     OW33835   0.701   4.059   8.623 -0.2453  0.1412 -0.1365
 7459SOL    HW133836   0.721   4.151   8.642  0.6369  0.0686 -0.7141
 7459SOL    HW233837   0.704   4.021   8.711 -1.1492 -0.1634 -0.2390
 7460SOL     OW33838   4.526   4.085   3.393 -0.0121 -0.1438 -0.0159
 7460SOL    HW133839   4.517   4.172   3.355  0.3451 -0.2402 -0.3223
 7460SOL    HW233840   4.612   4.089   3.436 -0.6397  0.1678  1.2032
 7461SOL     OW33841   3.844   1.877   3.436  0.0243  0.0455  0.4338
 7461SOL    HW133842   3.886   1.901   3.518  0.4153  0.7171  0.0376
 7461SOL    HW233843   3.918   1.849   3.381 -1.0376 -0.0920 -0.9386
 7462SOL     OW33844   0.505   4.684   8.122  0.1579  0.0074 -0.6250
 7462SOL    HW133845   0.417   0.001   8.122  0.1003 -0.1311 -0.1907
 7462SOL    HW233846   0.490   4.610   8.063  1.0004  1.1182 -2.2347
 7463SOL     OW33847   1.249   1.330  13.158 -0.2679 -0.4588 -0.0323
 7463SOL    HW133848   1.330   1.363  13.197 -0.0126 -0.9197 -0.1692
 7463SOL    HW233849   1.211   1.284  13.232 -0.5181  2.3772  1.6051
 7464SOL     OW33850   3.145   2.820   3.814  0.0838 -0.5917  0.2293
 7464SOL    HW133851   3.204   2.786   3.881  1.9091  0.6719 -0.7291
 7464SOL    HW233852   3.075   2.757   3.834  0.4902 -1.7064 -1.9001
 7465SOL     OW33853   2.105   1.725  15.891 -0.5134  0.0427 -0.0523
 7465SOL    HW133854   2.117   1.788  15.820  0.0242  1.3971  1.2696
 7465SOL    HW233855   2.101   1.779  15.969 -1.3778  1.8831 -1.3759
 7466SOL     OW33856   3.509   2.618   6.848  0.3053 -0.1824  0.0378
 7466SOL    HW133857   3.552   2.703   6.855 -3.1598  1.7051 -1.2299
 7466SOL    HW233858   3.429   2.654   6.809  1.3353  1.1201 -0.8699
 7467SOL     OW33859   2.334   1.262   7.405 -0.1802  0.0420  0.4410
 7467SOL    HW133860   2.349   1.356   7.410 -1.9071  0.2304  1.9600
 7467SOL    HW233861   2.415   1.226   7.444  1.3121  0.8961 -1.9082
 7468SOL     OW33862   3.442   0.608   5.821 -0.3529 -0.3027 -0.5717
 7468SOL    HW133863   3.373   0.542   5.829 -0.1279 -0.5431 -0.5887
 7468SOL    HW233864   3.422   0.661   5.898 -0.4347 -1.4162  0.1709
 7469SOL     OW33865   3.660   2.903   1.182 -0.0393  0.1200 -0.5435
 7469SOL    HW133866   3.577   2.893   1.229  0.9486 -1.3305  0.8873
 7469SOL    HW233867   3.711   2.828   1.213 -1.2042 -0.1063  0.7907
 7470SOL     OW33868   2.713   1.509   4.877 -0.7099  1.0355 -0.1721
 7470SOL    HW133869   2.707   1.602   4.899 -0.5613  1.2628 -1.0712
 7470SOL    HW233870   2.771   1.511   4.800  0.1252  0.5828  0.4554
 7471SOL     OW33871   0.991   3.538   5.323  0.0277 -0.0595  0.1966
 7471SOL    HW133872   1.015   3.485   5.246  0.8887 -1.4198  1.4036
 7471SOL    HW233873   1.073   3.585   5.334  1.2333 -2.2649  0.6660
 7472SOL     OW33874   2.185   1.378   4.031  0.4792 -0.0924 -0.0317
 7472SOL    HW133875   2.272   1.343   4.048  0.4867  0.1673  0.4769
 7472SOL    HW233876   2.209   1.439   3.961 -0.5884 -0.7058 -0.9223
 7473SOL     OW33877   0.326   0.720   0.447 -0.1653 -0.1415 -1.5081
 7473SOL    HW133878   0.414   0.755   0.433  0.5603 -1.2853  0.0822
 7473SOL    HW233879   0.268   0.795   0.449 -0.5555 -0.4989  1.8825
 7474SOL     OW33880   1.190   1.435   5.447 -0.6717 -0.2742  0.2010
 7474SOL    HW133881   1.264   1.388   5.408 -0.3837  1.0746 -0.8767
 7474SOL    HW233882   1.124   1.366   5.452 -0.0285 -1.2465 -4.2470
 7475SOL     OW33883   1.085   1.805   9.155 -0.1326 -0.0692  0.0840
 7475SOL    HW133884   1.168   1.806   9.203  1.0016  2.1564 -1.9621
 7475SOL    HW233885   1.059   1.713   9.148 -0.0166 -0.2461  1.8856
 7476SOL     OW33886   3.413   3.873  12.209  0.1866  0.0478 -0.2766
 7476SOL    HW133887   3.358   3.864  12.131  0.5121 -0.7525 -0.4056
 7476SOL    HW233888   3.394   3.794  12.259  0.5457  0.6045  0.7374
 7477SOL     OW33889   1.906   1.425   5.901  0.3070 -0.0031 -0.0917
 7477SOL    HW133890   1.814   1.449   5.907  0.7982  1.2104  2.4411
 7477SOL    HW233891   1.917   1.366   5.975  0.2395  1.8805  1.4097
 7478SOL     OW33892   2.136   4.467   4.608 -0.0593 -0.3166  0.5197
 7478SOL    HW133893   2.058   4.474   4.553 -0.0296  1.5498  0.7097
 7478SOL    HW233894   2.108   4.494   4.696  1.1316  0.7657  0.5698
 7479SOL     OW33895   4.294   1.481   2.033  0.1132  0.2623 -0.0579
 7479SOL    HW133896   4.329   1.414   1.974  0.9116 -0.2509  0.9913
 7479SOL    HW233897   4.228   1.435   2.085  0.0764 -0.3050 -0.5955
 7480SOL     OW33898   4.496   3.819  12.738  0.1447 -0.2362 -0.0614
 7480SOL    HW133899   4.522   3.894  12.790  0.4246 -0.7136  0.4818
 7480SOL    HW233900   4.416   3.855  12.698 -0.1752 -2.5220 -1.5013
 7481SOL     OW33901   4.587   4.298  12.031  0.1838  0.3412 -0.2827
 7481SOL    HW133902   4.556   4.347  11.954 -1.8644  0.2925  0.5222
 7481SOL    HW233903   4.546   4.331  12.111 -2.1108 -2.7337 -0.2142
 7482SOL     OW33904   1.197   2.976   5.401  0.5288 -0.4996  0.0459
 7482SOL    HW133905   1.181   2.966   5.494 -0.1406  1.8875  0.1899
 7482SOL    HW233906   1.272   2.920   5.380  0.3064 -1.0589  0.7736
 7483SOL     OW33907   0.036   1.229  15.271 -0.5699  0.1096  0.1226
 7483SOL    HW133908   0.058   1.310  15.317  0.1968  0.2791 -0.5390
 7483SOL    HW233909   4.674   1.205  15.313 -0.9397  0.5116 -0.3664
 7484SOL     OW33910   2.418   4.039  17.332 -0.1068 -0.9131  0.1438
 7484SOL    HW133911   2.484   4.030  17.263 -1.2110 -0.9239 -0.9200
 7484SOL    HW233912   2.371   3.956  17.325  0.9556 -1.3720 -1.3304
 7485SOL     OW33913   2.709   2.342   2.323  0.4478  0.0069 -0.1161
 7485SOL    HW133914   2.791   2.392   2.321  1.8507 -2.3263 -0.1636
 7485SOL    HW233915   2.669   2.363   2.238 -1.3028  1.7697  1.1481
 7486SOL     OW33916   3.452   2.270   1.135  0.3427 -0.4941  0.4140
 7486SOL    HW133917   3.520   2.210   1.104  0.8966  1.6822 -2.6020
 7486SOL    HW233918   3.507   2.345   1.157  0.1416  0.2555 -1.6695
 7487SOL     OW33919   4.292   1.510   3.966 -0.0522 -0.4194  0.4955
 7487SOL    HW133920   4.205   1.536   3.936  0.7206  2.4589  0.8044
 7487SOL    HW233921   4.307   1.569   4.039 -1.1705  0.0527  0.3488
 7488SOL     OW33922   4.608   0.296   5.801 -0.1943 -0.7447  0.4802
 7488SOL    HW133923   4.584   0.389   5.797  0.0792 -0.8318 -3.0853
 7488SOL    HW233924   4.554   0.260   5.872 -0.8107 -0.1372  0.3198
 7489SOL     OW33925   1.859   1.044   3.159  0.1006  0.4005  0.4388
 7489SOL    HW133926   1.868   1.124   3.108 -0.6457  1.3793  1.8257
 7489SOL    HW233927   1.918   0.984   3.115  1.0934 -0.3793  2.8278
 7490SOL     OW33928   4.359   4.652   7.849  0.0400  0.3010 -0.1341
 7490SOL    HW133929   4.444   4.611   7.861 -0.2966 -0.0729  1.0055
 7490SOL    HW233930   4.350   4.667   7.755  0.1987 -0.9578 -0.3524
 7491SOL     OW33931   1.663   2.976   8.341 -0.3506  0.1800  0.4440
 7491SOL    HW133932   1.620   2.933   8.268 -1.1697  1.8552 -0.0447
 7491SOL    HW233933   1.598   2.965   8.410 -0.0384 -0.1818  0.6856
 7492SOL     OW33934   1.850   0.374   2.412  0.1206 -0.2362 -0.5821
 7492SOL    HW133935   1.797   0.312   2.463 -0.3834  0.4020 -0.3367
 7492SOL    HW233936   1.884   0.433   2.479 -0.6610 -2.0974  1.4653
 7493SOL     OW33937   3.019   3.268   8.589  0.1158 -0.7641  0.4535
 7493SOL    HW133938   2.961   3.344   8.584  0.2529 -0.5862  1.6230
 7493SOL    HW233939   3.054   3.282   8.677  2.7539  0.8876 -0.8760
 7494SOL     OW33940   2.506   2.619   0.983 -0.1304 -0.2202  0.6305
 7494SOL    HW133941   2.527   2.539   0.934  0.8901  0.5744 -0.2249
 7494SOL    HW233942   2.483   2.587   1.070  1.4439  1.6914  1.7511
 7495SOL     OW33943   1.384   3.081   9.259  0.3284  0.0308  0.1468
 7495SOL    HW133944   1.352   2.991   9.247  2.8938 -0.9283  0.6411
 7495SOL    HW233945   1.440   3.063   9.334 -1.4815  0.1839  1.5487
 7496SOL     OW33946   4.286   2.970   7.619 -0.9455  0.1903 -0.0021
 7496SOL    HW133947   4.232   3.048   7.617  1.0760  1.6020  0.6132
 7496SOL    HW233948   4.229   2.908   7.573  0.0935 -1.9221  1.5466
 7497SOL     OW33949   1.599   0.323   9.976  0.2544 -0.0212 -0.2997
 7497SOL    HW133950   1.539   0.275  10.033  1.4882 -2.5862 -1.1373
 7497SOL    HW233951   1.535   0.345   9.909  1.7644 -3.7884 -2.9940
 7498SOL     OW33952   1.215   4.537  10.780  0.5869  0.5508 -0.3788
 7498SOL    HW133953   1.239   4.562  10.869 -0.3478  0.8112 -0.2017
 7498SOL    HW233954   1.122   4.558  10.774  0.4591  0.1450  0.2646
 7499SOL     OW33955   0.406   3.616   0.706  0.3755 -0.4895 -0.2736
 7499SOL    HW133956   0.484   3.670   0.710  0.4400 -0.6620  1.1238
 7499SOL    HW233957   0.371   3.614   0.796 -1.9624 -3.0205 -1.2320
 7500SOL     OW33958   2.259   0.452   8.993  0.1419  0.3139  0.4120
 7500SOL    HW133959   2.240   0.405   9.074  0.9769 -0.3697  0.2146
 7500SOL    HW233960   2.308   0.380   8.954 -2.3695 -1.0811 -0.1222
 7501SOL     OW33961   4.547   1.548   9.279  0.1035 -0.3458  0.1433
 7501SOL    HW133962   4.527   1.480   9.344 -1.2507  1.1840  1.3255
 7501SOL    HW233963   4.459   1.554   9.242  0.3860  2.6187 -0.0218
 7502SOL     OW33964   3.056   2.410  16.863 -0.3628  0.3748  0.3049
 7502SOL    HW133965   3.123   2.369  16.918  0.3522  1.2848  0.1056
 7502SOL    HW233966   3.108   2.465  16.804 -0.2605 -1.1929 -1.0764
 7503SOL     OW33967   2.443   4.449   0.573 -0.2647 -0.0683 -0.0207
 7503SOL    HW133968   2.428   4.364   0.530  4.9307 -0.3090 -1.2945
 7503SOL    HW233969   2.363   4.497   0.553 -0.3301 -0.1190  0.1117
 7504SOL     OW33970   1.708   1.746   0.541  0.5975 -0.3161 -0.0108
 7504SOL    HW133971   1.624   1.730   0.583  0.1175 -1.9167 -1.5406
 7504SOL    HW233972   1.712   1.841   0.547  2.2274 -0.3801 -0.1502
 7505SOL     OW33973   0.962   1.564  17.554  0.3123  0.4359 -0.0212
 7505SOL    HW133974   0.972   1.496  17.488  2.0349 -0.7359  1.4637
 7505SOL    HW233975   0.981   1.644  17.505  1.2472  1.2866  1.7282
 7506SOL     OW33976   1.922   2.154   4.541 -0.8636 -0.7854 -0.1692
 7506SOL    HW133977   1.832   2.122   4.543 -1.4748  0.9092 -1.4723
 7506SOL    HW233978   1.910   2.239   4.499 -0.1863 -1.2952 -1.3716
 7507SOL     OW33979   2.886   1.154   1.755 -0.2999  0.0595  0.3428
 7507SOL    HW133980   2.939   1.101   1.695  0.8686 -0.6693  2.0030
 7507SOL    HW233981   2.959   1.194   1.803  0.8457 -3.4369  1.5282
 7508SOL     OW33982   2.306   0.775  12.068 -0.0260 -0.2127  0.8085
 7508SOL    HW133983   2.275   0.768  12.158 -1.1786  1.3388  0.5446
 7508SOL    HW233984   2.366   0.701  12.059  1.0950  0.6876  0.8066
 7509SOL     OW33985   4.392   2.569   2.184  0.4857 -0.7203 -0.1756
 7509SOL    HW133986   4.356   2.619   2.257  0.2761  1.2318 -1.6180
 7509SOL    HW233987   4.466   2.522   2.221  1.6950  0.9701 -0.4450
 7510SOL     OW33988   2.730   1.044   2.953 -0.4583  0.3418 -0.1350
 7510SOL    HW133989   2.796   1.091   3.005 -1.5500 -0.3158  1.8509
 7510SOL    HW233990   2.651   1.072   2.999 -0.3919 -0.5109  0.4989
 7511SOL     OW33991   1.817   1.594   0.813 -0.2090  0.5151 -0.5607
 7511SOL    HW133992   1.838   1.686   0.829  0.5678  0.1184  0.6364
 7511SOL    HW233993   1.721   1.598   0.816 -0.2107  1.0723 -1.3048
 7512SOL     OW33994   4.674   0.899   2.295  0.1423  0.1303 -0.4556
 7512SOL    HW133995   4.670   0.841   2.371  1.1766 -0.8179 -1.1287
 7512SOL    HW233996   4.641   0.836   2.230 -0.4008  0.6732 -0.7059
 7513SOL     OW33997   3.036   4.565   7.265 -0.4360  0.4078  0.3666
 7513SOL    HW133998   2.961   4.532   7.215  0.4440 -0.6241 -0.2724
 7513SOL    HW233999   3.033   4.511   7.344  1.9492 -0.0888  0.1216
 7514SOL     OW34000   4.123   3.585   2.567 -0.5994 -0.3204 -0.1459
 7514SOL    HW134001   4.083   3.508   2.526 -1.0629 -1.5377  2.5988
 7514SOL    HW234002   4.122   3.649   2.496 -2.2150  0.8157  0.9007
 7515SOL     OW34003   3.336   1.231   4.135 -0.3270  0.4377  0.0414
 7515SOL    HW134004   3.370   1.189   4.056 -0.5238  1.7584 -0.7389
 7515SOL    HW234005   3.412   1.213   4.191 -0.0149  2.6058  0.2999
 7516SOL     OW34006   3.530   0.903   5.308 -0.0348 -0.1348  0.3837
 7516SOL    HW134007   3.449   0.871   5.348  0.3899 -0.5654  0.9014
 7516SOL    HW234008   3.593   0.900   5.381  1.1155  0.6149 -0.5687
 7517SOL     OW34009   1.391   1.476   7.750 -0.2295  0.1689 -0.5149
 7517SOL    HW134010   1.339   1.462   7.672 -0.5790 -1.3272 -0.0167
 7517SOL    HW234011   1.462   1.519   7.703 -0.2746  2.4858  1.5100
 7518SOL     OW34012   3.457   3.551   6.036  0.0333  0.4255 -0.1117
 7518SOL    HW134013   3.371   3.536   5.997  0.4776 -0.9813 -0.5340
 7518SOL    HW234014   3.512   3.493   5.983  2.1517  0.6748  1.7637
 7519SOL     OW34015   3.657   3.079   8.646 -0.1294 -0.2083  0.6068
 7519SOL    HW134016   3.705   3.051   8.723  1.7206 -0.4729 -0.6426
 7519SOL    HW234017   3.572   3.040   8.666 -0.8358  0.6410 -0.7049
 7520SOL     OW34018   1.413   3.451   2.481 -0.6783  0.0511 -0.0171
 7520SOL    HW134019   1.357   3.379   2.451 -1.5041  0.6255  0.1620
 7520SOL    HW234020   1.417   3.423   2.572 -3.1786  1.5820  0.5547
 7521SOL     OW34021   3.537   1.890   0.527  0.3963  0.3737 -0.0035
 7521SOL    HW134022   3.576   1.920   0.445 -1.8517 -0.5193 -1.3992
 7521SOL    HW234023   3.470   1.958   0.524  0.4116  0.4109  0.4786
 7522SOL     OW34024   0.296   4.598   7.947 -1.1181  0.2984  0.3166
 7522SOL    HW134025   0.274   4.512   7.984  0.4443 -0.4093 -0.3982
 7522SOL    HW234026   0.334   4.571   7.863 -1.4165 -0.4100  0.4062
 7523SOL     OW34027   3.844   2.731  11.370 -0.0533  0.2176 -0.1594
 7523SOL    HW134028   3.834   2.670  11.443 -1.1719  1.6716  0.9070
 7523SOL    HW234029   3.753   2.736  11.341 -0.5306  1.4838  1.5460
 7524SOL     OW34030   2.548   3.476   8.765  0.4130  0.4217  0.1536
 7524SOL    HW134031   2.638   3.469   8.797 -0.3845 -2.4844  1.7017
 7524SOL    HW234032   2.548   3.571   8.754  2.3253  0.5105  0.9421
 7525SOL     OW34033   1.681   4.095   8.275  0.4234  0.1630  0.1346
 7525SOL    HW134034   1.753   4.122   8.332 -0.3734  0.2489  1.1054
 7525SOL    HW234035   1.729   4.105   8.193  0.6768 -0.7975  0.1695
 7526SOL     OW34036   4.244   2.883   3.972  0.1917  0.1310 -0.0501
 7526SOL    HW134037   4.207   2.830   3.901  1.4897 -0.6041 -0.1632
 7526SOL    HW234038   4.198   2.967   3.960  3.0919  1.6206 -0.6250
 7527SOL     OW34039   3.758   3.037   5.834  0.1684  0.6953  0.4386
 7527SOL    HW134040   3.680   3.008   5.880  0.7245 -1.2742  0.1425
 7527SOL    HW234041   3.793   3.072   5.916 -0.5184 -0.3951  1.1929
 7528SOL     OW34042   3.562   1.547   9.962 -0.2496  0.4301  0.2117
 7528SOL    HW134043   3.525   1.631   9.934 -1.5531 -0.1991  0.0630
 7528SOL    HW234044   3.657   1.552   9.964 -0.1288 -1.7321  0.1685
 7529SOL     OW34045   4.382   4.631   3.096 -0.0557 -0.1263 -0.2909
 7529SOL    HW134046   4.293   4.607   3.119  0.6690 -2.9051 -0.3422
 7529SOL    HW234047   4.401   4.678   3.177 -0.6342 -1.6829  0.7583
 7530SOL     OW34048   0.041   1.799  15.538  0.1448  0.4280 -0.5120
 7530SOL    HW134049   0.094   1.877  15.527 -0.4124  0.9714  0.5841
 7530SOL    HW234050   4.680   1.837  15.570  0.4010  1.5960 -1.2618
 7531SOL     OW34051   2.944   3.103   4.428  0.1175 -0.1373 -0.1687
 7531SOL    HW134052   2.986   3.051   4.497  0.9810 -0.6103 -1.0490
 7531SOL    HW234053   2.892   3.159   4.486 -0.0917  0.7453 -1.2011
 7532SOL     OW34054   2.574   0.064   1.421 -0.2226  0.1344 -0.3387
 7532SOL    HW134055   2.599   0.073   1.329 -1.7184 -1.2419 -0.8720
 7532SOL    HW234056   2.483   0.038   1.408  0.0280 -1.8418  1.9816
 7533SOL     OW34057   0.794   1.379   7.097 -0.0590  0.3053  0.0366
 7533SOL    HW134058   0.851   1.307   7.068 -0.3680 -0.3052  0.9492
 7533SOL    HW234059   0.753   1.392   7.011 -1.6235  1.3745  0.9548
 7534SOL     OW34060   3.319   0.067   5.055  0.8576 -0.1347  0.2022
 7534SOL    HW134061   3.238   0.067   5.005  1.6071  3.4366 -1.0350
 7534SOL    HW234062   3.361   4.710   5.019  0.4473 -0.7949  1.1572
 7535SOL     OW34063   3.852   0.168   7.920 -0.0174  0.2224 -0.1318
 7535SOL    HW134064   3.805   0.251   7.923  0.6869  0.6706 -1.5711
 7535SOL    HW234065   3.856   0.159   8.015 -0.4913 -0.5305 -0.1776
 7536SOL     OW34066   4.693   2.959   1.641 -0.2557 -0.1868  0.3469
 7536SOL    HW134067   0.003   2.871   1.663 -0.2699  0.1011  1.4972
 7536SOL    HW234068   4.683   2.998   1.728  0.2748  0.0107  0.3201
 7537SOL     OW34069   0.186   4.219   0.264  0.1816  0.1292  0.0649
 7537SOL    HW134070   0.107   4.186   0.221  0.1382 -0.3015  0.4803
 7537SOL    HW234071   0.194   4.175   0.349  1.0190 -0.6798 -0.4276
 7538SOL     OW34072   1.053   2.226   5.638 -0.1763 -0.3716  0.3016
 7538SOL    HW134073   0.969   2.187   5.611 -0.6032  2.0337 -1.7547
 7538SOL    HW234074   1.023   2.301   5.689  2.5799  0.1873  1.0954
 7539SOL     OW34075   1.186   1.653   8.025 -0.0964  0.8063 -0.6413
 7539SOL    HW134076   1.107   1.628   7.979 -0.7667  1.2934  0.2372
 7539SOL    HW234077   1.158   1.738   8.060  1.0989  0.0627  2.2046
 7540SOL     OW34078   2.708   2.992   4.336  0.1660 -0.1918 -0.4243
 7540SOL    HW134079   2.780   3.043   4.373 -0.5370  0.1334  0.4830
 7540SOL    HW234080   2.737   2.905   4.364 -3.7006 -1.0359  0.9601
 7541SOL     OW34081   2.635   4.101  17.177  0.1269  0.2288  0.3311
 7541SOL    HW134082   2.693   4.072  17.106 -0.8323 -2.3639  0.5818
 7541SOL    HW234083   2.671   4.189  17.187  0.2539  0.6159 -3.6277
 7542SOL     OW34084   0.883   2.648   7.388 -0.0318 -0.1409 -0.7696
 7542SOL    HW134085   0.861   2.554   7.388  1.2879 -0.4451 -1.5385
 7542SOL    HW234086   0.794   2.681   7.400  0.1326 -0.1605  0.4619
 7543SOL     OW34087   0.690   2.307  15.084 -0.1164  0.4856  0.0033
 7543SOL    HW134088   0.736   2.244  15.029  0.2145 -0.4255  1.3199
 7543SOL    HW234089   0.615   2.309  15.025 -0.6957 -1.3570  0.6548
 7544SOL     OW34090   0.736   2.076   1.918 -0.2420  0.4132 -0.2193
 7544SOL    HW134091   0.703   2.161   1.948 -0.1799 -0.2800  1.8119
 7544SOL    HW234092   0.657   2.025   1.900  1.4336 -1.3469 -2.5727
 7545SOL     OW34093   1.472   2.679   8.171 -0.1504 -0.7350  0.1068
 7545SOL    HW134094   1.466   2.772   8.148 -0.1559 -0.8338 -0.3020
 7545SOL    HW234095   1.551   2.674   8.223 -1.3223 -1.9249  1.7725
 7546SOL     OW34096   2.867   3.099  17.530  0.5035 -0.0143 -0.8665
 7546SOL    HW134097   2.892   3.191  17.538 -0.0483  0.3416 -3.1844
 7546SOL    HW234098   2.898   3.070  17.445  1.3020  0.3881 -0.7186
 7547SOL     OW34099   4.036   2.734   7.115 -0.1744 -0.1179  0.4994
 7547SOL    HW134100   4.049   2.645   7.149 -1.0748 -0.7422 -0.8014
 7547SOL    HW234101   3.943   2.736   7.091  0.0510  3.3737 -0.0146
 7548SOL     OW34102   3.743   0.149   7.431  0.1440  0.0975 -0.0638
 7548SOL    HW134103   3.652   0.130   7.411  0.2643 -0.2383 -0.3093
 7548SOL    HW234104   3.785   0.071   7.395 -1.6307 -0.5842 -0.6420
 7549SOL     OW34105   3.524   1.882   6.454  0.1630 -0.4758 -0.2461
 7549SOL    HW134106   3.550   1.791   6.473  2.0275 -0.3480 -2.1708
 7549SOL    HW234107   3.437   1.865   6.420  0.0436  0.1632 -0.2615
 7550SOL     OW34108   1.953   1.667   6.731 -0.6492 -0.5126  0.4140
 7550SOL    HW134109   1.941   1.753   6.770 -0.4655 -0.2428 -0.1215
 7550SOL    HW234110   1.927   1.602   6.797 -0.0732 -0.1515  0.9899
 7551SOL     OW34111   2.160   0.462   2.844 -0.3764  0.0297 -0.1039
 7551SOL    HW134112   2.214   0.388   2.816 -1.6959 -0.5145 -1.2430
 7551SOL    HW234113   2.169   0.457   2.939 -0.7817  1.8085  0.0200
 7552SOL     OW34114   0.843   0.431   6.029  0.0896 -0.2160  0.6089
 7552SOL    HW134115   0.876   0.449   5.941  1.5906 -1.7675  0.8598
 7552SOL    HW234116   0.889   0.352   6.057  1.7670  0.8745  0.9697
 7553SOL     OW34117   1.886   0.863   5.183 -0.6419 -0.7453  0.7308
 7553SOL    HW134118   1.790   0.859   5.181 -0.7067  0.8028  0.6312
 7553SOL    HW234119   1.904   0.887   5.274  1.0090 -0.2772  0.2708
 7554SOL     OW34120   2.647   0.348   8.973  0.3625 -0.8546  0.0701
 7554SOL    HW134121   2.568   0.304   9.004 -1.4033  1.6027 -0.9173
 7554SOL    HW234122   2.640   0.327   8.879  0.2680  0.6050 -0.2543
 7555SOL     OW34123   4.197   1.385  14.454 -0.4476 -0.0576  0.0316
 7555SOL    HW134124   4.278   1.389  14.402 -0.3682 -0.4175  0.1258
 7555SOL    HW234125   4.238   1.348  14.532 -2.9338  0.3900  1.5353
 7556SOL     OW34126   2.403   3.766   0.890  0.6248  0.2686 -0.2783
 7556SOL    HW134127   2.457   3.691   0.867 -0.0556 -0.9584  2.1189
 7556SOL    HW234128   2.464   3.820   0.940 -0.7861  0.8317  0.8231
 7557SOL     OW34129   4.095   1.521   1.796  0.3520  0.0504 -0.8396
 7557SOL    HW134130   4.167   1.496   1.855 -1.9992 -1.4175  1.4380
 7557SOL    HW234131   4.078   1.440   1.749  1.3968 -0.8866  0.3979
 7558SOL     OW34132   0.877   2.768   5.993 -0.0253  0.3186  0.0685
 7558SOL    HW134133   0.784   2.783   5.978 -0.2743 -2.0936 -0.7924
 7558SOL    HW234134   0.884   2.697   6.057 -0.3012 -1.6795 -2.1430
 7559SOL     OW34135   0.623   3.126  11.869  0.3816 -0.3269  0.1557
 7559SOL    HW134136   0.619   3.157  11.779 -1.4526 -0.1936  0.2892
 7559SOL    HW234137   0.591   3.197  11.924 -0.8305  0.7332 -1.9647
 7560SOL     OW34138   3.609   3.124   3.558  0.0114  0.3074 -0.4539
 7560SOL    HW134139   3.596   3.174   3.639 -0.0135 -0.3286 -0.0674
 7560SOL    HW234140   3.705   3.122   3.558  0.0404  1.2353  0.7307
 7561SOL     OW34141   3.547   3.104   1.500 -0.5291  0.1997 -0.2345
 7561SOL    HW134142   3.474   3.066   1.452  0.3385 -2.3737  0.5109
 7561SOL    HW234143   3.596   3.022   1.493  1.8683  1.4651  1.6625
 7562SOL     OW34144   0.790   0.156   9.319 -0.1076 -0.3884 -0.2138
 7562SOL    HW134145   0.719   0.211   9.353  0.0203 -0.1395 -0.3505
 7562SOL    HW234146   0.828   0.120   9.400  1.5259 -0.0364 -0.8403
 7563SOL     OW34147   0.926   1.003   3.765  0.2490  0.3124  0.1594
 7563SOL    HW134148   0.844   1.031   3.807 -0.0351  0.5321 -0.5428
 7563SOL    HW234149   0.954   0.934   3.824 -0.7957  0.8348  1.2716
 7564SOL     OW34150   0.036   2.433   9.351  0.9386  0.4738 -0.0907
 7564SOL    HW134151   0.040   2.448   9.257 -0.4687 -1.8968 -0.5298
 7564SOL    HW234152   4.671   2.393   9.359  0.5151  1.2117 -1.0927
 7565SOL     OW34153   3.233   1.604   3.369  0.2421 -0.4589  0.1425
 7565SOL    HW134154   3.206   1.694   3.387  0.5404 -0.7476  1.9431
 7565SOL    HW234155   3.272   1.612   3.282  0.7697 -1.6724  0.2682
 7566SOL     OW34156   4.483   3.460   0.775 -0.4482  0.7885 -0.3735
 7566SOL    HW134157   4.447   3.390   0.721  0.0044 -0.9694  1.5875
 7566SOL    HW234158   4.437   3.454   0.859  0.6271  1.7488  0.2681
 7567SOL     OW34159   1.103   3.053   7.807 -0.3840 -0.3182 -0.2464
 7567SOL    HW134160   1.149   2.969   7.815  0.0710  0.0500  0.9631
 7567SOL    HW234161   1.011   3.028   7.805 -0.1460 -1.0930 -2.1617
 7568SOL     OW34162   0.731   0.883   1.880 -0.8056 -0.1021  0.0537
 7568SOL    HW134163   0.642   0.912   1.897 -0.1305  0.8355  1.9364
 7568SOL    HW234164   0.768   0.962   1.841 -2.0699 -0.2387 -1.4344
 7569SOL     OW34165   1.473   3.616   4.791  0.4433 -0.4727  0.1920
 7569SOL    HW134166   1.393   3.610   4.844 -0.3077 -3.8004 -1.2916
 7569SOL    HW234167   1.526   3.677   4.842 -0.5414  0.9277 -0.4596
 7570SOL     OW34168   0.771   4.093   7.452 -0.0788  0.0756 -0.0810
 7570SOL    HW134169   0.718   4.078   7.373  0.3637  1.1958 -0.5996
 7570SOL    HW234170   0.815   4.175   7.430  2.1660 -1.3662 -0.9475
 7571SOL     OW34171   2.567   3.523   1.895  0.1892  0.1409  0.6634
 7571SOL    HW134172   2.526   3.605   1.866  0.5314  0.7275  1.8439
 7571SOL    HW234173   2.649   3.558   1.930  0.4379  2.0972 -1.9111
 7572SOL     OW34174   0.110   3.714   6.744 -0.5721  0.3450  0.7831
 7572SOL    HW134175   0.021   3.751   6.740 -0.3645  0.4944 -2.5284
 7572SOL    HW234176   0.097   3.651   6.815  0.2713  2.6573  3.0205
 7573SOL     OW34177   3.188   2.806   4.759  0.0437 -0.3253  0.7395
 7573SOL    HW134178   3.190   2.766   4.846  1.0155 -0.7894  0.5064
 7573SOL    HW234179   3.275   2.845   4.749 -0.3419  0.0417 -1.1507
 7574SOL     OW34180   0.366   2.425   4.656  0.2644  0.3440  0.0209
 7574SOL    HW134181   0.300   2.361   4.630  1.0665 -0.9334  1.1544
 7574SOL    HW234182   0.402   2.370   4.726  0.0191  2.9085  2.1489
 7575SOL     OW34183   0.761   2.292   2.272  0.4679 -0.9031  0.4017
 7575SOL    HW134184   0.707   2.220   2.302 -1.8011  0.0456 -1.3652
 7575SOL    HW234185   0.731   2.303   2.182 -0.7349 -2.2404  0.6533
 7576SOL     OW34186   1.224   4.133   4.153  0.2989 -0.1455 -0.3967
 7576SOL    HW134187   1.134   4.111   4.180 -0.1823  2.7868  0.3568
 7576SOL    HW234188   1.255   4.062   4.097  0.5411  1.6637 -2.5518
 7577SOL     OW34189   1.171   4.217   5.225  0.3608 -0.3709  0.0783
 7577SOL    HW134190   1.078   4.199   5.238  0.2667 -0.5034 -0.7954
 7577SOL    HW234191   1.178   4.263   5.141 -2.5701  0.2262  0.1598
 7578SOL     OW34192   3.610   0.035   5.388  0.0333 -0.2049 -0.4660
 7578SOL    HW134193   3.546   0.021   5.458  1.9949  0.8222  1.5255
 7578SOL    HW234194   3.615   0.130   5.402 -0.1753 -0.3275  0.4502
 7579SOL     OW34195   1.088   1.792   8.714  0.2466 -0.0197  0.2051
 7579SOL    HW134196   1.013   1.752   8.670  1.4782  0.1137 -2.0513
 7579SOL    HW234197   1.054   1.845   8.786  0.5598  1.7381 -0.9176
 7580SOL     OW34198   0.374   1.485  14.839  0.4253  0.4358 -0.4541
 7580SOL    HW134199   0.466   1.462  14.827  0.5825  0.5213  0.5535
 7580SOL    HW234200   0.367   1.575  14.870 -2.3767  0.1269 -0.1543
 7581SOL     OW34201   3.102   3.717   4.302  0.3346 -0.2669 -0.2150
 7581SOL    HW134202   3.123   3.786   4.365 -0.4916 -0.7672  0.5940
 7581SOL    HW234203   3.099   3.641   4.359  1.6710 -0.8363 -0.9066
 7582SOL     OW34204   1.140   0.380   6.825  0.0336  0.1947  0.4682
 7582SOL    HW134205   1.122   0.304   6.770  3.6212  0.7103 -1.4670
 7582SOL    HW234206   1.236   0.384   6.821  0.0654 -0.7507  0.2483
 7583SOL     OW34207   0.744   4.048   6.880  0.3675 -0.3374  0.4656
 7583SOL    HW134208   0.718   3.956   6.885 -1.4884  0.1504 -0.1742
 7583SOL    HW234209   0.759   4.054   6.786 -1.6514  2.8242  0.3244
 7584SOL     OW34210   3.904   0.266  11.602  0.0249 -0.0238 -0.2110
 7584SOL    HW134211   3.855   0.246  11.682  0.6601 -0.5749  0.0363
 7584SOL    HW234212   3.919   0.177  11.572  1.0881 -0.4522  1.6209
 7585SOL     OW34213   0.360   2.779  12.743  0.0215  0.3317 -0.7307
 7585SOL    HW134214   0.287   2.742  12.694 -1.5660  1.3808  0.8315
 7585SOL    HW234215   0.318   2.846  12.797 -0.2926 -0.1365 -0.3810
 7586SOL     OW34216   3.253   3.512   8.970 -0.3010 -0.1062 -0.0206
 7586SOL    HW134217   3.346   3.494   8.963 -0.4377 -1.7515  2.2344
 7586SOL    HW234218   3.255   3.604   8.997  2.3985 -0.5464  1.3279
 7587SOL     OW34219   3.925   0.649   0.204 -0.4247  0.6125  0.8769
 7587SOL    HW134220   3.895   0.691   0.285  1.3115  0.5454  1.5473
 7587SOL    HW234221   4.019   0.661   0.214 -0.5636  1.7725  0.7732
 7588SOL     OW34222   0.638   0.099   7.736  0.4231 -0.0078 -0.0413
 7588SOL    HW134223   0.617   0.072   7.646 -0.8969  0.8661  0.0001
 7588SOL    HW234224   0.571   0.165   7.750 -0.3067 -0.4015 -1.6442
 7589SOL     OW34225   1.707   1.835   9.662  0.3773 -0.1217  0.2342
 7589SOL    HW134226   1.775   1.775   9.631  0.2816  0.4265 -1.0131
 7589SOL    HW234227   1.750   1.898   9.719  1.7320  0.3487 -1.3124
 7590SOL     OW34228   0.324   0.333   4.029  0.0425  0.2291 -0.0995
 7590SOL    HW134229   0.390   0.320   3.961  2.2292 -1.7567  2.3877
 7590SOL    HW234230   0.248   0.290   3.992 -0.5299  1.7053 -0.6677
 7591SOL     OW34231   3.945   3.485   9.889  0.3001  0.2558  0.4048
 7591SOL    HW134232   3.855   3.475   9.922 -0.8744  0.3687 -2.7623
 7591SOL    HW234233   3.966   3.578   9.901  3.2801 -0.3168 -0.3918
 7592SOL     OW34234   0.636   1.956   3.124 -0.6490  0.0294 -0.1616
 7592SOL    HW134235   0.720   1.921   3.093 -0.2640  0.8086  0.0177
 7592SOL    HW234236   0.580   1.880   3.107 -0.5745  0.0382 -0.4444
 7593SOL     OW34237   1.226   3.720   1.929 -0.1183  0.5270 -0.1365
 7593SOL    HW134238   1.267   3.805   1.914  2.6835 -0.5873  1.1086
 7593SOL    HW234239   1.137   3.739   1.899 -0.0208  1.7255  0.3424
 7594SOL     OW34240   0.869   3.367   2.343  0.1251  0.1800 -0.7385
 7594SOL    HW134241   0.907   3.436   2.397  1.9584  0.7344 -2.7266
 7594SOL    HW234242   0.928   3.296   2.369  0.9409  1.3802  0.6817
 7595SOL     OW34243   1.273   0.289   3.677  0.4431 -0.5264  0.4533
 7595SOL    HW134244   1.256   0.374   3.635 -0.8983  0.1486  2.3923
 7595SOL    HW234245   1.365   0.295   3.704  0.8518  2.1662 -1.4055
 7596SOL     OW34246   1.972   0.248  11.917  0.0182 -0.0755 -0.2112
 7596SOL    HW134247   2.001   0.176  11.862 -1.1527 -0.3118 -0.5206
 7596SOL    HW234248   2.016   0.237  12.002  2.0363 -2.5719 -1.5950
 7597SOL     OW34249   1.808   0.597   8.964  0.3532 -0.0244 -0.1827
 7597SOL    HW134250   1.863   0.521   8.944  0.2382 -0.0578 -0.3749
 7597SOL    HW234251   1.717   0.574   8.945 -0.0836  0.1514  1.7329
 7598SOL     OW34252   3.583   0.305   2.512 -0.2169 -0.1995  0.3548
 7598SOL    HW134253   3.648   0.313   2.582  0.1690 -1.4570  0.1306
 7598SOL    HW234254   3.559   0.213   2.508  0.7283 -0.4481  0.3648
 7599SOL     OW34255   4.042   0.274   6.831  0.2416  0.2062  0.1420
 7599SOL    HW134256   4.111   0.266   6.765 -0.0472 -2.4812  0.1473
 7599SOL    HW234257   4.078   0.351   6.874  1.5365  1.0058 -2.3291
 7600SOL     OW34258   3.703   2.377   8.238  0.1146  0.2481 -0.1343
 7600SOL    HW134259   3.622   2.344   8.200 -0.7845  0.6819  1.4457
 7600SOL    HW234260   3.727   2.448   8.177 -1.6056  0.0949 -0.9889
 7601SOL     OW34261   4.196   4.204   5.343 -0.9550 -0.7410 -0.4173
 7601SOL    HW134262   4.197   4.300   5.345  1.0051 -0.8073  1.3605
 7601SOL    HW234263   4.179   4.185   5.436 -1.4071  1.5442 -0.0177
 7602SOL     OW34264   1.479   3.538   7.363  0.4454  0.2667  0.1653
 7602SOL    HW134265   1.465   3.632   7.373  0.0350  0.2766 -0.5021
 7602SOL    HW234266   1.464   3.492   7.445  1.3009  1.2959  0.9079
 7603SOL     OW34267   0.444   0.900   4.313 -0.0938  0.4058 -0.1657
 7603SOL    HW134268   0.473   0.905   4.222  0.0329 -2.4474 -0.2834
 7603SOL    HW234269   0.442   0.805   4.326 -0.3944  0.3192 -0.8401
 7604SOL     OW34270   2.594   0.688  16.786  0.0207  0.1043  0.0617
 7604SOL    HW134271   2.628   0.600  16.769  3.8789  1.0926  2.6281
 7604SOL    HW234272   2.555   0.677  16.873 -1.3307  0.9568 -0.4371
 7605SOL     OW34273   2.533   2.569   5.930 -0.3347  0.1739 -0.2311
 7605SOL    HW134274   2.532   2.480   5.966  0.1694  0.5658  0.7235
 7605SOL    HW234275   2.443   2.598   5.914 -0.9252 -2.5402 -1.8821
 7606SOL     OW34276   3.674   0.523  12.874 -0.5202  0.0314  0.0554
 7606SOL    HW134277   3.638   0.597  12.826 -1.0629  0.9377  1.8321
 7606SOL    HW234278   3.589   0.486  12.900 -0.5588  0.8980  1.1578
 7607SOL     OW34279   0.605   4.052   7.248 -1.1496 -0.0937 -0.2695
 7607SOL    HW134280   0.632   4.130   7.200  1.3916 -0.1953  0.9922
 7607SOL    HW234281   0.510   4.058   7.247 -1.0020  2.0034  0.2295
 7608SOL     OW34282   3.922   0.608   8.988 -0.8538  0.4003  0.6424
 7608SOL    HW134283   3.989   0.541   8.996  1.4469  2.4227 -1.7721
 7608SOL    HW234284   3.876   0.592   9.071 -1.4140  1.9734  0.6343
 7609SOL     OW34285   1.063   1.579  12.236 -0.2074 -0.0347 -0.6835
 7609SOL    HW134286   1.042   1.517  12.166 -0.8535  0.0442 -0.5595
 7609SOL    HW234287   1.136   1.533  12.276 -1.4130 -0.4679  1.0089
 7610SOL     OW34288   2.455   3.940   7.608 -0.3276 -0.0466 -0.2787
 7610SOL    HW134289   2.392   3.870   7.591 -1.3983  0.8018  0.2287
 7610SOL    HW234290   2.411   4.013   7.564  3.0985  1.1001 -1.8555
 7611SOL     OW34291   4.018   1.309  15.527 -0.3438 -0.0708  0.1881
 7611SOL    HW134292   4.062   1.390  15.552 -0.5511  0.3147 -0.6901
 7611SOL    HW234293   3.939   1.311  15.581 -0.4411  1.0999 -0.0018
 7612SOL     OW34294   0.763   4.316   8.684  0.1488 -0.1543  0.2179
 7612SOL    HW134295   0.780   4.360   8.601  2.5791 -2.4175 -0.4924
 7612SOL    HW234296   0.671   4.335   8.703  0.6980  0.6338  2.1056
 7613SOL     OW34297   4.114   2.676   6.713  0.5391  0.0132  0.0601
 7613SOL    HW134298   4.105   2.590   6.752 -2.5365  0.8842  1.2150
 7613SOL    HW234299   4.036   2.717   6.750 -1.6333 -2.1503 -2.1733
 7614SOL     OW34300   1.969   1.883   6.306  0.4545 -0.5490  0.6576
 7614SOL    HW134301   2.065   1.881   6.315  0.5247  2.1601  0.6929
 7614SOL    HW234302   1.941   1.807   6.356 -1.9544  0.5692  1.0100
 7615SOL     OW34303   0.912   3.090   5.773  0.0667  0.5709  0.0274
 7615SOL    HW134304   0.862   3.052   5.700  1.2790 -1.7613  0.4132
 7615SOL    HW234305   0.986   3.126   5.724  1.7889 -0.5745  1.8153
 7616SOL     OW34306   1.819   4.585   8.509  1.0816  0.4310 -0.0596
 7616SOL    HW134307   1.886   4.584   8.441  0.4944 -0.9306 -0.6152
 7616SOL    HW234308   1.849   4.659   8.563  1.3380  1.1565 -1.1988
 7617SOL     OW34309   0.820   3.276   5.984 -0.2126 -0.0103 -0.3915
 7617SOL    HW134310   0.831   3.209   5.917 -0.0086 -0.0334 -0.3351
 7617SOL    HW234311   0.759   3.332   5.936  1.9545  2.1089 -0.6241
 7618SOL     OW34312   2.610   0.166  14.199 -0.1682  0.6892  0.2562
 7618SOL    HW134313   2.572   0.207  14.121  2.0783  0.0501 -1.1639
 7618SOL    HW234314   2.531   0.134  14.244  1.6782 -0.9905  2.3170
 7619SOL     OW34315   0.503   1.460  11.615 -0.2757 -0.5391 -0.0633
 7619SOL    HW134316   0.480   1.531  11.674 -2.0750  0.2044 -1.6673
 7619SOL    HW234317   0.450   1.494  11.543 -1.8130 -0.6361  1.0014
 7620SOL     OW34318   1.869   0.940   1.562  0.3030 -0.8414 -0.0101
 7620SOL    HW134319   1.912   1.023   1.540 -1.4630  0.2868  0.7616
 7620SOL    HW234320   1.908   0.886   1.494  2.0667  0.1440  0.2335
 7621SOL     OW34321   3.699   1.117   2.283  0.0790 -0.2747  0.8266
 7621SOL    HW134322   3.744   1.041   2.246  1.2814  0.1723  1.3792
 7621SOL    HW234323   3.619   1.104   2.232 -1.3000 -3.7185  3.9303
 7622SOL     OW34324   0.205   0.584   8.844  0.8665 -0.1144 -0.5399
 7622SOL    HW134325   0.230   0.580   8.936  0.9568  1.8862 -0.4641
 7622SOL    HW234326   0.291   0.621   8.823  0.4473  1.7860  1.0087
 7623SOL     OW34327   4.002   1.251  15.257  0.0715 -0.5247  0.1787
 7623SOL    HW134328   3.954   1.229  15.337 -2.3046  0.6957 -0.8912
 7623SOL    HW234329   4.075   1.294  15.300 -0.1303  0.2506 -0.2541
 7624SOL     OW34330   4.359   0.144   0.988  0.3549  0.0938  0.2647
 7624SOL    HW134331   4.393   0.221   0.941 -0.3789  0.2211 -0.0698
 7624SOL    HW234332   4.427   0.079   0.970  0.7031  0.5534 -0.0930
 7625SOL     OW34333   4.048   2.039   4.766  0.0912  0.6896 -0.3172
 7625SOL    HW134334   4.017   2.041   4.857  1.2742  0.2328  0.1005
 7625SOL    HW234335   4.061   2.133   4.753  0.7081  0.7729  0.8912
 7626SOL     OW34336   4.672   3.830   0.879 -0.3332  0.1131 -0.5370
 7626SOL    HW134337   4.626   3.874   0.807  1.0298 -0.5150 -1.7809
 7626SOL    HW234338   4.693   3.749   0.834 -0.0591 -0.3790  0.4825
 7627SOL     OW34339   3.323   2.180   8.399  0.2960  0.1325 -0.0582
 7627SOL    HW134340   3.294   2.092   8.425  0.1867  0.3811  0.6604
 7627SOL    HW234341   3.239   2.221   8.381  1.5919  2.5107 -0.6748
 7628SOL     OW34342   2.115   1.629   7.060 -0.4209  0.3943 -0.3343
 7628SOL    HW134343   2.113   1.713   7.105  1.5293  0.1105  0.2777
 7628SOL    HW234344   2.201   1.594   7.082  0.4537  0.8955 -2.9114
 7629SOL     OW34345   4.701   3.421   1.040  0.0597  0.1781  0.2811
 7629SOL    HW134346   4.639   3.353   1.013  0.0812 -0.1287  0.9838
 7629SOL    HW234347   4.649   3.462   1.109 -0.8011 -0.3972 -0.0312
 7630SOL     OW34348   1.071   1.540  14.292 -0.2750  0.7488 -0.3305
 7630SOL    HW134349   1.128   1.508  14.362 -0.5706  1.6025  0.2931
 7630SOL    HW234350   1.027   1.455  14.282 -1.5154  1.3727 -0.2260
 7631SOL     OW34351   4.430   0.798   0.345 -0.7030 -0.3042 -0.2771
 7631SOL    HW134352   4.439   0.890   0.321 -1.4735  0.5766  2.7739
 7631SOL    HW234353   4.511   0.759   0.311 -0.2545 -1.3885  1.9657
 7632SOL     OW34354   3.092   0.842   6.416  0.1736 -0.4403 -0.2841
 7632SOL    HW134355   3.074   0.888   6.335 -2.0188  0.7615  0.8964
 7632SOL    HW234356   3.003   0.842   6.450  0.1478 -0.4228 -0.3531
 7633SOL     OW34357   3.833   0.039   6.790 -0.0178  0.1072 -0.8915
 7633SOL    HW134358   3.874   4.682   6.830  1.5444  1.2612 -0.2348
 7633SOL    HW234359   3.899   0.092   6.747  0.3046  0.6485  0.2575
 7634SOL     OW34360   4.386   3.822   0.964  0.3281 -0.6690 -0.0392
 7634SOL    HW134361   4.364   3.808   1.057 -0.4368  0.4459 -0.0410
 7634SOL    HW234362   4.477   3.797   0.974  1.3403  2.1752 -2.0911
 7635SOL     OW34363   0.812   4.372   8.039 -0.1902 -0.8719  0.4465
 7635SOL    HW134364   0.808   4.283   8.002 -0.3140 -0.9190  0.5739
 7635SOL    HW234365   0.893   4.406   8.002  0.0801 -0.7994  1.1152
 7636SOL     OW34366   2.554   1.941   5.157 -0.4492 -0.2803 -0.5993
 7636SOL    HW134367   2.528   1.859   5.115 -0.0739 -0.5649 -0.2759
 7636SOL    HW234368   2.541   1.929   5.251  0.5078  0.2377 -0.4002
 7637SOL     OW34369   4.015   1.106  13.417  0.1576 -0.3232 -0.1589
 7637SOL    HW134370   4.036   1.027  13.467  0.5593 -1.0572 -1.4881
 7637SOL    HW234371   4.090   1.163  13.434 -0.4700  0.2340  0.7565
 7638SOL     OW34372   2.347   0.332   4.421  0.0997 -0.1934 -0.3494
 7638SOL    HW134373   2.354   0.363   4.512 -0.3523  1.0399 -0.7263
 7638SOL    HW234374   2.375   0.408   4.370 -2.7634  2.2859  1.6884
 7639SOL     OW34375   2.864   2.751   4.880 -0.7317  0.4402  0.5326
 7639SOL    HW134376   2.854   2.843   4.901 -0.5235  0.6616 -0.3201
 7639SOL    HW234377   2.959   2.744   4.866 -0.6337 -2.0434  2.5402
 7640SOL     OW34378   3.206   2.654   7.941  0.1520  0.4634  0.1036
 7640SOL    HW134379   3.234   2.602   7.866 -1.4268  0.0188 -0.1759
 7640SOL    HW234380   3.251   2.612   8.014 -0.3939  1.4893  1.0341
 7641SOL     OW34381   0.865   1.619   1.921  0.2352 -0.6646 -0.5197
 7641SOL    HW134382   0.907   1.693   1.877 -2.8374  0.6872 -1.1811
 7641SOL    HW234383   0.826   1.657   1.999  0.3507  1.3574 -1.4634
 7642SOL     OW34384   3.516   1.222   4.715  0.0578  0.1120 -0.2596
 7642SOL    HW134385   3.425   1.220   4.744 -0.0154 -3.2966 -0.8391
 7642SOL    HW234386   3.512   1.303   4.664  1.0868 -0.4811 -1.2884
 7643SOL     OW34387   0.355   0.932  13.322 -0.2230  0.4530 -0.0842
 7643SOL    HW134388   0.418   0.868  13.288  1.3583  1.0930  1.6328
 7643SOL    HW234389   0.411   0.998  13.362  2.3058 -2.7293  1.6605
 7644SOL     OW34390   2.163   3.735   3.147 -0.1037  0.6903  0.5545
 7644SOL    HW134391   2.172   3.682   3.068 -1.2845  0.7710  0.3563
 7644SOL    HW234392   2.210   3.685   3.214  0.1436  0.3726  0.1457
 7645SOL     OW34393   0.620   1.862   5.320  0.3213 -0.2162  0.3452
 7645SOL    HW134394   0.587   1.834   5.406 -0.7531 -0.6216 -0.1967
 7645SOL    HW234395   0.715   1.849   5.327  0.1449 -0.7369  1.9311
 7646SOL     OW34396   1.246   0.071   5.882  0.6692 -0.0597  0.5076
 7646SOL    HW134397   1.264   0.163   5.865 -0.7349 -0.2340 -2.0169
 7646SOL    HW234398   1.204   0.082   5.967 -0.3838  1.4721 -0.2190
 7647SOL     OW34399   1.250   1.330   2.189  0.1252  0.0255  0.4289
 7647SOL    HW134400   1.335   1.345   2.148 -0.2503 -1.0271 -0.7551
 7647SOL    HW234401   1.198   1.398   2.147 -0.3813  0.2911  1.4798
 7648SOL     OW34402   2.887   2.434   2.905  0.1341  0.6501  0.1016
 7648SOL    HW134403   2.978   2.409   2.893 -0.1214 -0.6161  0.7914
 7648SOL    HW234404   2.848   2.422   2.818 -0.1787 -0.0219  0.3309
 7649SOL     OW34405   0.325   1.721   6.744 -0.3412 -0.2605  0.6603
 7649SOL    HW134406   0.328   1.730   6.839 -2.6063  0.6018  0.6502
 7649SOL    HW234407   0.401   1.770   6.714 -2.8274  1.8397 -2.2532
 7650SOL     OW34408   4.715   1.255   2.975  0.2068 -0.5162 -0.8486
 7650SOL    HW134409   0.065   1.209   2.930 -0.9512 -2.9373 -0.1786
 7650SOL    HW234410   4.702   1.194   3.048  0.3174 -0.4253 -0.7516
 7651SOL     OW34411   3.780   4.364   0.657  0.5575 -0.3195  0.5296
 7651SOL    HW134412   3.687   4.341   0.655  0.1113  1.5285 -0.0773
 7651SOL    HW234413   3.788   4.434   0.722  1.1643  1.4952 -1.5282
 7652SOL     OW34414   2.821   2.406   1.140 -0.1884  0.0204  0.6064
 7652SOL    HW134415   2.837   2.419   1.046  0.0243 -3.0603  0.1907
 7652SOL    HW234416   2.839   2.490   1.181  0.3919 -0.2073  0.8196
 7653SOL     OW34417   3.645   3.306  16.246  0.0052 -0.1096  0.0195
 7653SOL    HW134418   3.648   3.242  16.317  3.2350 -0.4624 -0.4244
 7653SOL    HW234419   3.556   3.340  16.253 -0.1317 -0.4590 -0.0161
 7654SOL     OW34420   3.177   0.623  12.589  0.6913 -0.2819 -0.0788
 7654SOL    HW134421   3.144   0.577  12.512  0.6384 -1.7492  0.8202
 7654SOL    HW234422   3.095   0.633  12.636  1.9798  1.2502  1.8869
 7655SOL     OW34423   2.752   4.601  12.581  0.0074 -0.7406  0.2123
 7655SOL    HW134424   2.812   4.652  12.527 -0.7853 -0.0056  0.0309
 7655SOL    HW234425   2.741   4.530  12.518  0.0617 -1.7025  1.2830
 7656SOL     OW34426   1.597   4.120   7.799 -0.6091  0.0036 -0.5306
 7656SOL    HW134427   1.644   4.039   7.820  0.9329  0.7542 -1.0803
 7656SOL    HW234428   1.509   4.111   7.836 -0.0884 -1.9448  0.2292
 7657SOL     OW34429   2.498   3.874   1.960 -0.1878  0.8179  0.8704
 7657SOL    HW134430   2.423   3.892   2.017  0.5601 -1.4198  2.5595
 7657SOL    HW234431   2.476   3.821   1.884  0.0038  0.0403  1.3610
 7658SOL     OW34432   3.151   4.481   5.005  0.5307  0.1195  0.1635
 7658SOL    HW134433   3.139   4.494   4.911  2.1895 -0.5444 -0.1387
 7658SOL    HW234434   3.245   4.492   5.017  0.5337  0.1388  0.1234
 7659SOL     OW34435   2.615   2.874   7.222  0.1113 -0.2960  0.3243
 7659SOL    HW134436   2.556   2.939   7.184 -2.6124 -1.7079  2.1625
 7659SOL    HW234437   2.556   2.799   7.232 -0.7147  0.3078 -0.0030
 7660SOL     OW34438   0.994   0.034   9.942 -0.4136 -0.5650 -0.4177
 7660SOL    HW134439   0.959   4.697   9.875  0.4182 -0.7193 -0.7262
 7660SOL    HW234440   0.921   0.096   9.942 -0.1452 -0.2282  1.6583
 7661SOL     OW34441   3.355   4.092   6.308 -0.1345  0.4255  0.5310
 7661SOL    HW134442   3.369   4.118   6.217 -3.2613  0.0395 -0.0410
 7661SOL    HW234443   3.298   4.016   6.312  0.5371 -0.1383 -0.8468
 7662SOL     OW34444   1.233   4.506   9.078  0.3303  0.3646  0.4062
 7662SOL    HW134445   1.272   4.548   9.155  0.6370 -0.9905  0.9925
 7662SOL    HW234446   1.212   4.581   9.023 -0.0083 -1.4243 -1.8894
 7663SOL     OW34447   3.969   0.084   8.513  0.0001 -0.3695 -0.6715
 7663SOL    HW134448   4.031   0.043   8.452 -0.3218 -1.7760 -0.0597
 7663SOL    HW234449   3.959   0.017   8.580 -0.4232  2.2597  1.8510
 7664SOL     OW34450   2.075   1.096   7.624  0.2579 -0.0479 -0.4463
 7664SOL    HW134451   2.140   1.148   7.577  1.1983 -1.4879 -0.7497
 7664SOL    HW234452   2.117   1.011   7.641 -0.1824 -0.0642  0.5877
 7665SOL     OW34453   2.499   1.619  11.362 -0.3764 -0.1731 -0.0602
 7665SOL    HW134454   2.458   1.679  11.301 -0.6549 -0.3240 -0.0249
 7665SOL    HW234455   2.589   1.650  11.361 -0.1114 -0.9117  0.4140
 7666SOL     OW34456   1.015   3.746   4.313 -0.5068 -0.3190 -0.8189
 7666SOL    HW134457   1.018   3.709   4.401  1.7885 -2.2642 -1.6917
 7666SOL    HW234458   0.947   3.692   4.272 -1.4245  0.8427 -0.8345
 7667SOL     OW34459   4.464   3.889   4.969  0.5003 -0.1480  0.4562
 7667SOL    HW134460   4.507   3.962   4.924  1.2065 -0.5235  0.5078
 7667SOL    HW234461   4.379   3.924   4.993 -0.2666 -1.0355 -0.9862
 7668SOL     OW34462   4.439   1.650   0.771  0.4038  0.1258 -0.1047
 7668SOL    HW134463   4.405   1.674   0.685  0.6870 -0.2465 -0.3208
 7668SOL    HW234464   4.416   1.732   0.815 -2.9635  0.8916 -3.2720
 7669SOL     OW34465   0.017   3.436  16.981  0.3687 -0.2795  0.7015
 7669SOL    HW134466   0.098   3.475  16.949 -1.1765  2.7779  0.6002
 7669SOL    HW234467   4.705   3.495  17.048 -1.6865 -1.1492  0.4585
 7670SOL     OW34468   0.750   0.807  12.589  0.3709 -0.1568 -0.0306
 7670SOL    HW134469   0.726   0.716  12.608 -0.1862  0.4637  2.2561
 7670SOL    HW234470   0.781   0.795  12.500 -2.6043  1.4546 -1.3001
 7671SOL     OW34471   2.570   0.267   1.635 -0.4877 -0.2779 -0.0586
 7671SOL    HW134472   2.514   0.259   1.711 -1.2415  0.1489 -0.5754
 7671SOL    HW234473   2.614   0.182   1.639 -2.5612 -1.3769 -0.8822
 7672SOL     OW34474   3.357   3.833   6.072 -0.0928  0.1470  0.4430
 7672SOL    HW134475   3.397   3.747   6.075 -0.8817 -0.2425 -0.2450
 7672SOL    HW234476   3.438   3.884   6.083 -0.4018  0.8557 -0.5710
 7673SOL     OW34477   0.064   2.237   9.708  0.3598  0.2157  0.4864
 7673SOL    HW134478   0.102   2.316   9.748  0.6008 -0.4479  1.5627
 7673SOL    HW234479   0.143   2.208   9.663  1.3634 -0.4406  2.6444
 7674SOL     OW34480   3.880   1.395   3.066 -0.3721  0.0217  0.0672
 7674SOL    HW134481   3.867   1.489   3.052 -1.7498 -0.3123 -0.8602
 7674SOL    HW234482   3.795   1.356   3.044 -0.7371  1.3972 -0.9870
 7675SOL     OW34483   2.118   4.489   5.747  0.7081  0.1631  0.1006
 7675SOL    HW134484   2.069   4.407   5.739  1.8471 -0.3636 -1.4391
 7675SOL    HW234485   2.119   4.482   5.843 -0.0879 -0.9182  0.0352
 7676SOL     OW34486   2.525   2.892   5.807 -0.0450  0.3951  0.4670
 7676SOL    HW134487   2.582   2.921   5.878 -2.3112 -1.3747  3.0007
 7676SOL    HW234488   2.473   2.970   5.792  0.8742  0.8134 -0.5733
 7677SOL     OW34489   4.647   0.407   2.733  0.1372 -0.6144 -0.3655
 7677SOL    HW134490   4.604   0.326   2.705  2.3608 -1.6797 -0.7089
 7677SOL    HW234491   0.008   0.404   2.685  1.1499  1.6173  1.2295
 7678SOL     OW34492   2.621   1.459   7.229  0.7400  0.5300 -0.0501
 7678SOL    HW134493   2.700   1.485   7.277  0.6985  1.6559 -0.5771
 7678SOL    HW234494   2.648   1.382   7.180  0.0206  0.5321 -0.4523
 7679SOL     OW34495   1.501   2.462   2.937  0.0242  0.0637  0.0320
 7679SOL    HW134496   1.533   2.551   2.930  1.2245 -0.5412 -2.0768
 7679SOL    HW234497   1.579   2.410   2.914  0.1158  0.4750 -0.5714
 7680SOL     OW34498   1.606   2.619  17.309 -0.0532  0.0656  0.6782
 7680SOL    HW134499   1.603   2.574  17.225 -0.1774  0.9249  0.2210
 7680SOL    HW234500   1.613   2.710  17.280 -1.9680  0.7592  2.3841
 7681SOL     OW34501   1.054   2.249   8.203 -0.6872  0.0867  0.1600
 7681SOL    HW134502   1.146   2.244   8.176 -0.6679 -1.9331  0.5810
 7681SOL    HW234503   1.016   2.272   8.118  1.2005  0.2097 -0.6517
 7682SOL     OW34504   4.168   2.619   8.213  0.0517  0.1326 -0.4170
 7682SOL    HW134505   4.255   2.652   8.192 -0.4991  1.3363 -0.8163
 7682SOL    HW234506   4.180   2.562   8.289 -0.5478  0.3152 -0.1872
 7683SOL     OW34507   3.732   1.485  14.456 -0.2806 -0.0350 -0.5448
 7683SOL    HW134508   3.680   1.428  14.514 -0.8961  0.5174 -0.5564
 7683SOL    HW234509   3.695   1.452  14.374  2.3463 -0.7254 -1.4396
 7684SOL     OW34510   4.625   1.982   5.304  0.1654  0.0050  0.5346
 7684SOL    HW134511   4.643   1.916   5.237 -0.5181 -0.2093  0.5585
 7684SOL    HW234512   4.617   2.058   5.247 -0.2654 -0.4952 -0.0759
 7685SOL     OW34513   1.205   2.593   8.082  0.7744 -1.0513 -0.6386
 7685SOL    HW134514   1.274   2.645   8.121 -0.5174 -1.2996  1.9649
 7685SOL    HW234515   1.219   2.504   8.113 -1.0668 -1.0990  0.0892
 7686SOL     OW34516   3.807   2.837   7.812  0.1806 -0.5739 -0.0212
 7686SOL    HW134517   3.852   2.908   7.765 -1.0056  0.7020  0.7900
 7686SOL    HW234518   3.790   2.875   7.898  0.0133 -0.3788 -0.1414
 7687SOL     OW34519   1.725   0.988   7.008  0.0713 -0.5873  0.2114
 7687SOL    HW134520   1.666   0.937   7.063  1.4143 -0.0170  2.1931
 7687SOL    HW234521   1.789   1.016   7.073 -0.0577 -1.8099  0.8642
 7688SOL     OW34522   3.119   4.318   7.913 -0.8670  0.2788  0.1551
 7688SOL    HW134523   3.178   4.384   7.948  0.3196 -0.7587  0.0877
 7688SOL    HW234524   3.041   4.373   7.901  0.6642  2.2406 -0.7501
 7689SOL     OW34525   0.014   1.801  12.434  0.2038 -0.1084  0.5729
 7689SOL    HW134526   4.682   1.728  12.403 -0.5950  0.6807  0.0893
 7689SOL    HW234527   4.683   1.876  12.407 -1.3686 -1.1378  0.7757
 7690SOL     OW34528   0.451   1.021   5.396  0.0070  0.0851  0.2471
 7690SOL    HW134529   0.455   0.978   5.481  1.1896 -0.2784  0.0011
 7690SOL    HW234530   0.456   1.113   5.423 -0.1101  0.5335 -1.2325
 7691SOL     OW34531   0.727   0.576  14.497  1.1074  0.3401  0.3255
 7691SOL    HW134532   0.741   0.488  14.462  1.2018  0.2045  0.7064
 7691SOL    HW234533   0.782   0.628  14.439 -0.2456  1.7386  0.3171
 7692SOL     OW34534   4.532   2.374  10.343 -0.2978  0.0263 -0.1680
 7692SOL    HW134535   4.581   2.355  10.423  1.0894 -0.1127 -1.0587
 7692SOL    HW234536   4.548   2.296  10.289  1.6532  1.0528 -1.0528
 7693SOL     OW34537   1.134   0.731   5.539  0.0410 -0.7404 -0.5521
 7693SOL    HW134538   1.098   0.819   5.527  1.1641  0.2209  3.0682
 7693SOL    HW234539   1.208   0.760   5.593 -1.5862  0.2727  1.1417
 7694SOL     OW34540   0.434   4.649   4.518  0.3557 -0.0022  0.6091
 7694SOL    HW134541   0.447   4.574   4.460 -0.2845 -0.6187  1.2730
 7694SOL    HW234542   0.367   4.690   4.462  1.9743 -0.5100 -1.6898
 7695SOL     OW34543   2.412   3.926   7.873 -0.2910 -0.1048 -0.1736
 7695SOL    HW134544   2.412   3.924   7.777  0.9376 -0.7391 -0.1687
 7695SOL    HW234545   2.319   3.916   7.892 -0.0693 -0.1475  0.9111
 7696SOL     OW34546   2.216   0.768   3.215 -0.0712 -0.2228  0.2581
 7696SOL    HW134547   2.154   0.779   3.287  0.4829 -1.4755  0.9309
 7696SOL    HW234548   2.280   0.708   3.254 -0.5926  1.2722  3.3956
 7697SOL     OW34549   2.957   3.358  13.323 -0.3079  0.4265 -0.4607
 7697SOL    HW134550   2.965   3.451  13.343 -1.0020  0.2247  0.7361
 7697SOL    HW234551   2.874   3.342  13.277  1.0141 -1.0853 -2.3603
 7698SOL     OW34552   1.928   0.768   7.176 -0.4150  0.1327  0.3071
 7698SOL    HW134553   2.001   0.728   7.128 -0.4726  0.7360 -0.2973
 7698SOL    HW234554   1.972   0.821   7.243  1.2211  0.9858 -1.4211
 7699SOL     OW34555   4.139   3.511   1.665 -0.6463 -0.2326 -0.9221
 7699SOL    HW134556   4.230   3.517   1.635 -1.2646  0.8381 -2.5952
 7699SOL    HW234557   4.134   3.581   1.730 -1.7150  0.2182 -1.4696
 7700SOL     OW34558   4.230   3.250   2.843  0.5316 -0.1994 -0.9095
 7700SOL    HW134559   4.181   3.332   2.850  0.7115 -0.3697  2.7085
 7700SOL    HW234560   4.249   3.243   2.750 -1.0201 -1.2193 -1.1472
 7701SOL     OW34561   2.856   0.507   3.059  0.0966 -0.1169 -0.0519
 7701SOL    HW134562   2.779   0.463   3.023 -0.9442 -0.8573  3.1280
 7701SOL    HW234563   2.815   0.593   3.052 -1.4146 -0.9747 -1.6793
 7702SOL     OW34564   0.664   1.656   4.484 -0.8966 -0.2607  0.1077
 7702SOL    HW134565   0.636   1.689   4.399 -0.8545  3.6847  1.6612
 7702SOL    HW234566   0.647   1.733   4.538  1.6490 -0.9549  1.9413
 7703SOL     OW34567   0.699   4.638   6.216 -0.1716 -0.4502  0.3565
 7703SOL    HW134568   0.700   4.646   6.312 -1.1308 -1.4077  0.4375
 7703SOL    HW234569   0.697   4.543   6.215 -1.0364 -0.4599  1.8689
 7704SOL     OW34570   4.130   1.290  11.851 -0.4641 -0.1375  0.0721
 7704SOL    HW134571   4.133   1.305  11.756 -2.1121  0.3102  0.0804
 7704SOL    HW234572   4.213   1.247  11.866  0.6901  2.0684 -0.0025
 7705SOL     OW34573   0.868   2.646   4.323 -0.4179 -0.3162 -0.2310
 7705SOL    HW134574   0.822   2.603   4.251  0.5529 -3.6275  1.0898
 7705SOL    HW234575   0.952   2.663   4.280  0.3177 -0.6650  1.0507
 7706SOL     OW34576   3.895   3.707  14.330  0.6695  0.0205  0.7074
 7706SOL    HW134577   3.956   3.636  14.350 -0.7737 -1.2909  0.5030
 7706SOL    HW234578   3.862   3.733  14.416 -0.6916 -0.3371  0.3016
 7707SOL     OW34579   0.391   2.098   5.742 -0.1446  0.3473 -0.2308
 7707SOL    HW134580   0.396   2.096   5.646 -0.3193 -0.6363 -0.2153
 7707SOL    HW234581   0.304   2.076   5.773 -0.9248  0.9709 -1.9794
 7708SOL     OW34582   1.332   4.185   3.353  0.6242 -0.2428  0.3161
 7708SOL    HW134583   1.307   4.136   3.275 -1.3933  0.8412  0.3093
 7708SOL    HW234584   1.275   4.140   3.415 -0.2985 -0.3444 -0.6149
 7709SOL     OW34585   0.440   1.664  15.994  0.4656  0.9961  0.4864
 7709SOL    HW134586   0.527   1.684  15.959  0.8856 -1.1782  0.2763
 7709SOL    HW234587   0.451   1.576  16.028  0.9652 -0.5607 -3.6620
 7710SOL     OW34588   0.302   2.584   1.939  0.0601  0.4807  0.0567
 7710SOL    HW134589   0.256   2.617   2.016 -0.2220  0.5064 -0.1221
 7710SOL    HW234590   0.351   2.515   1.981 -0.3153 -1.0109 -1.9662
 7711SOL     OW34591   1.924   3.810   8.322  0.4209  0.8097  0.1660
 7711SOL    HW134592   1.865   3.853   8.384  0.3449  0.5828  0.2516
 7711SOL    HW234593   2.001   3.865   8.309  0.7772 -0.4121 -2.9474
 7712SOL     OW34594   1.607   1.769   7.797  0.0526  0.1273 -0.0188
 7712SOL    HW134595   1.677   1.829   7.822  0.0041  1.2885 -2.6887
 7712SOL    HW234596   1.534   1.831   7.802  1.1233  1.3155  0.8847
 7713SOL     OW34597   3.070   2.833   0.447 -0.3723  0.2079  0.0755
 7713SOL    HW134598   3.129   2.851   0.520 -1.2111 -0.4105  0.9098
 7713SOL    HW234599   3.003   2.901   0.444 -0.3751  0.2130  0.2250
 7714SOL     OW34600   1.867   1.606   8.928  0.0029 -0.5285  0.7190
 7714SOL    HW134601   1.888   1.627   9.019  1.7167 -3.1563  0.9310
 7714SOL    HW234602   1.843   1.513   8.932  3.0496 -1.2509  2.1349
 7715SOL     OW34603   3.681   3.919  11.970  0.7780  0.3761 -0.6053
 7715SOL    HW134604   3.604   3.940  11.917 -0.3636 -1.0684  0.4638
 7715SOL    HW234605   3.656   3.949  12.058  0.5807  0.5425 -0.7178
 7716SOL     OW34606   1.089   4.566   6.984 -0.5571 -0.0792  0.3186
 7716SOL    HW134607   1.184   4.578   6.975 -0.4677 -0.9513  0.0973
 7716SOL    HW234608   1.059   4.654   6.963  1.1491  0.8992  1.9125
 7717SOL     OW34609   0.613   0.406   2.125  0.4427 -0.0263  0.1506
 7717SOL    HW134610   0.664   0.467   2.071 -0.4584  0.1565 -0.4870
 7717SOL    HW234611   0.561   0.374   2.052 -0.0840  1.3252 -0.0650
 7718SOL     OW34612   3.511   4.316   7.924  0.1146 -0.1570  0.5347
 7718SOL    HW134613   3.581   4.280   7.868  1.7053  0.4948  2.1076
 7718SOL    HW234614   3.563   4.312   8.005  0.6197 -0.2099  0.2098
 7719SOL     OW34615   2.760   1.250   3.492  0.1701 -0.8785  1.0776
 7719SOL    HW134616   2.820   1.319   3.520  0.5209 -1.3613  1.5322
 7719SOL    HW234617   2.725   1.283   3.410 -2.0403  0.1305  2.4312
 7720SOL     OW34618   3.665   2.508   7.315 -0.6993 -0.1863 -0.2279
 7720SOL    HW134619   3.593   2.566   7.290 -2.1500 -0.6076  2.9843
 7720SOL    HW234620   3.619   2.440   7.363  0.3954 -0.5020  0.3450
 7721SOL     OW34621   2.302   0.951   3.990  0.0567 -0.3398  0.2238
 7721SOL    HW134622   2.220   0.961   4.039  0.9389  0.1962  1.5949
 7721SOL    HW234623   2.279   0.985   3.904 -1.0348 -0.6106  0.3989
 7722SOL     OW34624   2.169   0.428  17.253 -0.0888  0.0590  0.6103
 7722SOL    HW134625   2.223   0.421  17.332  1.9328 -1.8357 -0.9494
 7722SOL    HW234626   2.080   0.431  17.287  0.0045 -0.0291  0.8631
 7723SOL     OW34627   1.587   0.764   8.486  0.0511  0.6082 -0.1592
 7723SOL    HW134628   1.542   0.682   8.466 -0.1489  1.1211 -1.8126
 7723SOL    HW234629   1.514   0.819   8.512 -2.3554 -2.2023 -0.9629
 7724SOL     OW34630   1.673   2.358   2.433 -0.1878 -0.3666  0.1198
 7724SOL    HW134631   1.658   2.269   2.402 -2.4418 -0.2982  1.0143
 7724SOL    HW234632   1.742   2.400   2.381 -0.1350 -0.0965  0.4013
 7725SOL     OW34633   2.390   0.830   2.938 -0.8362 -0.0659  0.4935
 7725SOL    HW134634   2.428   0.918   2.946  0.0732 -0.4636  0.5896
 7725SOL    HW234635   2.386   0.800   3.029 -1.8489 -0.2491  0.3891
 7726SOL     OW34636   3.166   1.086   7.643  0.7307 -0.1026  0.0358
 7726SOL    HW134637   3.099   1.047   7.587  0.4369  0.4519  0.0052
 7726SOL    HW234638   3.174   1.015   7.707  0.9123 -0.1832 -0.0748
 7727SOL     OW34639   0.454   4.352  17.542  0.0546  0.2635  0.0171
 7727SOL    HW134640   0.549   4.349  17.540  0.0794 -0.1167  1.6138
 7727SOL    HW234641   0.438   4.425  17.482 -1.9174 -0.0619  0.1385
 7728SOL     OW34642   1.937   2.919   8.974 -0.4265 -0.0476  0.2533
 7728SOL    HW134643   1.912   2.832   8.941  1.2577 -0.0480 -1.0443
 7728SOL    HW234644   1.985   2.889   9.051  1.0111  1.5044 -0.0333
 7729SOL     OW34645   4.688   0.788   5.693 -0.1552 -0.2237 -0.4318
 7729SOL    HW134646   4.691   0.813   5.785 -1.3937 -1.8507  0.0559
 7729SOL    HW234647   4.597   0.818   5.690  0.3931  1.4373 -0.4107
 7730SOL     OW34648   0.437   3.642  16.863  0.1275  0.2000  0.4444
 7730SOL    HW134649   0.346   3.658  16.889 -0.6567 -2.3852 -0.7135
 7730SOL    HW234650   0.432   3.554  16.825 -0.2890  0.3007  0.2716
 7731SOL     OW34651   1.398   0.874   7.840  0.1849 -0.0942  0.4008
 7731SOL    HW134652   1.392   0.957   7.887 -1.8246 -0.1458  0.2638
 7731SOL    HW234653   1.308   0.858   7.810  0.3445  1.0773 -0.6639
 7732SOL     OW34654   2.193   2.009   4.308  0.4625  0.1816  0.4603
 7732SOL    HW134655   2.180   2.101   4.285  0.6487  0.1421  0.2014
 7732SOL    HW234656   2.242   1.984   4.229 -0.5433  1.6917 -0.6492
 7733SOL     OW34657   4.663   1.767  14.397  0.3785  0.1778  0.3379
 7733SOL    HW134658   4.691   1.852  14.363  1.9999 -1.3037 -2.0052
 7733SOL    HW234659   4.701   1.705  14.334 -2.5239 -0.1066 -1.0990
 7734SOL     OW34660   3.533   2.316   7.452 -0.1924  0.5746 -0.1586
 7734SOL    HW134661   3.498   2.380   7.514 -3.1817 -1.7699  0.6087
 7734SOL    HW234662   3.451   2.299   7.405 -0.0825 -0.0038 -0.1354
 7735SOL     OW34663   4.055   2.980   5.799 -0.2059 -0.0704 -0.1643
 7735SOL    HW134664   4.036   3.071   5.825  2.7066  0.3945  0.3326
 7735SOL    HW234665   3.971   2.961   5.757  0.7825 -1.1739 -1.6028
 7736SOL     OW34666   2.565   0.697  12.250 -0.7000  0.0559 -0.2491
 7736SOL    HW134667   2.530   0.785  12.233  1.2919  0.7836 -0.5407
 7736SOL    HW234668   2.584   0.672  12.160  0.1407  0.8868 -0.3091
 7737SOL     OW34669   4.705   3.269   9.370  0.6592 -0.5073  0.3558
 7737SOL    HW134670   4.712   3.232   9.281 -0.1570  0.8405 -0.2607
 7737SOL    HW234671   4.618   3.308   9.364  0.4530 -0.9184  0.6080
 7738SOL     OW34672   2.391   2.073   3.616  0.5286 -0.3639 -0.5223
 7738SOL    HW134673   2.409   2.025   3.535  1.0730 -0.9116 -0.0781
 7738SOL    HW234674   2.300   2.050   3.631  1.4852 -2.1268  2.4257
 7739SOL     OW34675   3.731   3.346   4.289  0.2150 -0.1229 -0.0963
 7739SOL    HW134676   3.788   3.331   4.365 -0.2619 -0.7838  0.1327
 7739SOL    HW234677   3.688   3.418   4.334 -0.9142 -1.3996  0.8900
 7740SOL     OW34678   1.323   1.718   5.203  0.0603  0.6896  0.4822
 7740SOL    HW134679   1.386   1.647   5.196 -0.8452 -0.2461  1.8725
 7740SOL    HW234680   1.307   1.742   5.111  1.6488 -0.8808 -0.2047
 7741SOL     OW34681   4.527   4.436   5.504 -0.2834  0.0081 -0.3189
 7741SOL    HW134682   4.484   4.502   5.450  0.8217  1.8572  1.1021
 7741SOL    HW234683   4.516   4.362   5.444 -0.2265 -2.0655  2.2072
 7742SOL     OW34684   3.861   2.268   5.689  0.0852  0.0549  0.8511
 7742SOL    HW134685   3.953   2.241   5.694 -0.5629 -2.0721  1.4604
 7742SOL    HW234686   3.857   2.317   5.771  1.0541  2.0119 -0.2839
 7743SOL     OW34687   4.287   1.172   9.519  0.4789  0.4828 -0.0187
 7743SOL    HW134688   4.208   1.134   9.557  0.3586 -0.2349 -0.9935
 7743SOL    HW234689   4.352   1.102   9.518  0.0894  0.1155  0.7283
 7744SOL     OW34690   1.586   3.941   2.924  0.0200  0.3449 -0.0354
 7744SOL    HW134691   1.601   3.926   2.831  2.2366  0.6734  0.2501
 7744SOL    HW234692   1.580   3.853   2.962  0.9732  1.4580  2.6890
 7745SOL     OW34693   1.426   3.838  12.543 -0.0105 -0.5267  0.0783
 7745SOL    HW134694   1.407   3.849  12.450  0.7571 -1.5313 -0.1866
 7745SOL    HW234695   1.416   3.931  12.565  0.9318 -0.3728 -0.1741
 7746SOL     OW34696   2.532   1.287   2.686 -0.1679  0.2976  0.1597
 7746SOL    HW134697   2.568   1.247   2.607 -2.0889  2.1490 -1.6806
 7746SOL    HW234698   2.471   1.352   2.650  0.1879  1.1571  1.0904
 7747SOL     OW34699   2.839   3.277   3.491  0.4721 -0.0481 -0.6054
 7747SOL    HW134700   2.864   3.366   3.467  0.0182  0.1594 -0.3011
 7747SOL    HW234701   2.862   3.237   3.407  1.1387 -0.7724 -0.0858
 7748SOL     OW34702   4.491   2.364   1.202 -0.0348 -0.5240  0.1411
 7748SOL    HW134703   4.451   2.364   1.115 -0.6706 -2.1146  0.4406
 7748SOL    HW234704   4.492   2.457   1.223  3.2117 -0.8971  1.6663
 7749SOL     OW34705   3.979   3.685  10.614 -0.3927  0.0912 -0.0573
 7749SOL    HW134706   3.986   3.628  10.537 -0.9542  3.0051 -2.2507
 7749SOL    HW234707   4.054   3.740  10.591  0.9061 -2.2003 -1.4044
 7750SOL     OW34708   3.060   2.060   6.283  1.0532 -0.3043  0.1847
 7750SOL    HW134709   3.040   2.136   6.338 -1.1821 -0.8747  0.1361
 7750SOL    HW234710   2.980   2.015   6.257 -0.0933  1.5873  0.4169
 7751SOL     OW34711   1.219   4.705  13.519 -0.1083  0.3126 -0.0622
 7751SOL    HW134712   1.214   4.696  13.614  1.1657 -1.7923 -0.1725
 7751SOL    HW234713   1.188   4.619  13.491  1.0511  0.4365 -1.7533
 7752SOL     OW34714   3.990   1.981   5.307  0.1254  0.0452  0.0846
 7752SOL    HW134715   3.935   1.997   5.384  0.4189  1.1241  0.0792
 7752SOL    HW234716   4.019   1.896   5.340  2.1880  1.1057  1.0090
 7753SOL     OW34717   4.528   3.192   4.403  0.2829  0.0272 -0.1326
 7753SOL    HW134718   4.596   3.157   4.460 -3.1286 -1.7540  2.8188
 7753SOL    HW234719   4.459   3.131   4.426 -0.1438  0.0924 -1.2421
 7754SOL     OW34720   2.845   1.977   0.693 -0.1127  0.4417 -0.0214
 7754SOL    HW134721   2.929   2.016   0.668 -0.9082  2.6204  0.6496
 7754SOL    HW234722   2.855   1.886   0.667  1.9693 -0.1255  2.8246
 7755SOL     OW34723   3.622   2.917  16.902 -0.1393  0.3820 -0.3744
 7755SOL    HW134724   3.632   2.983  16.971 -0.3421 -0.1632  0.1760
 7755SOL    HW234725   3.703   2.933  16.853  1.4463  2.0226  2.7894
 7756SOL     OW34726   1.667   2.071  13.982 -0.2858  0.4602 -0.1954
 7756SOL    HW134727   1.761   2.067  13.969  0.0862 -2.1175  3.1702
 7756SOL    HW234728   1.662   2.143  14.046  0.3748  1.7670 -1.6267
 7757SOL     OW34729   0.712   2.333   2.707  0.1452  0.1143  0.1556
 7757SOL    HW134730   0.644   2.363   2.646 -0.1605 -0.3099  0.2899
 7757SOL    HW234731   0.737   2.245   2.677  0.5476  0.0824  0.5907
 7758SOL     OW34732   2.352   4.713   6.436 -0.1080 -0.1292  0.6012
 7758SOL    HW134733   2.374   4.637   6.381  0.5718  0.9741 -0.6615
 7758SOL    HW234734   2.393   4.691   6.519 -0.2276  0.8570  0.9224
 7759SOL     OW34735   1.525   4.308   8.982  0.0266 -0.0274  0.0655
 7759SOL    HW134736   1.496   4.382   8.927 -0.4152  0.9822  1.6619
 7759SOL    HW234737   1.554   4.368   9.051  0.0792 -0.1435  0.1433
 7760SOL     OW34738   0.899   1.850   3.116  0.1789  0.4053  0.0667
 7760SOL    HW134739   0.942   1.792   3.052 -0.0939 -0.9900  1.1458
 7760SOL    HW234740   0.964   1.920   3.117 -0.0823  0.7077 -3.2018
 7761SOL     OW34741   4.131   1.005   5.767 -0.1916 -0.3817  0.4248
 7761SOL    HW134742   4.091   1.053   5.839  0.0784 -0.6459  0.7488
 7761SOL    HW234743   4.063   1.009   5.700 -0.1133 -1.5594  0.2717
 7762SOL     OW34744   1.515   1.753   5.768 -0.1301  0.0836  0.7371
 7762SOL    HW134745   1.483   1.690   5.833 -2.0352  0.4394  0.1312
 7762SOL    HW234746   1.448   1.747   5.701  0.3223 -2.2386  0.5058
 7763SOL     OW34747   0.824   3.588   3.415  0.3308  0.7693 -0.3564
 7763SOL    HW134748   0.791   3.512   3.366 -0.2638  0.0940  1.1144
 7763SOL    HW234749   0.911   3.555   3.436 -0.3265  0.6847  2.2425
 7764SOL     OW34750   0.747   1.677   6.850  0.0425  0.0779  1.2867
 7764SOL    HW134751   0.672   1.653   6.904 -0.2321 -1.0840  0.3901
 7764SOL    HW234752   0.710   1.746   6.795 -0.9483 -2.3770 -1.1138
 7765SOL     OW34753   0.847   1.137  12.487  0.2662  0.0656 -0.0306
 7765SOL    HW134754   0.914   1.094  12.435  0.1588 -0.3688  0.1881
 7765SOL    HW234755   0.876   1.227  12.471  1.8631 -0.6710 -1.3046
 7766SOL     OW34756   3.477   1.623   8.275 -0.6810 -0.1605  0.0857
 7766SOL    HW134757   3.405   1.636   8.213  0.5622 -1.9638 -1.7150
 7766SOL    HW234758   3.432   1.552   8.322 -0.6401  0.6758  1.3801
 7767SOL     OW34759   3.396   3.602  17.633  0.3327 -0.0673 -0.3081
 7767SOL    HW134760   3.339   3.678  17.637  0.8572  0.4577 -2.7032
 7767SOL    HW234761   3.482   3.632  17.661  1.3191 -2.1797 -1.0680
 7768SOL     OW34762   3.818   0.391  10.875  0.2138 -0.3754 -0.0395
 7768SOL    HW134763   3.730   0.359  10.895  0.0000  0.7459  0.8112
 7768SOL    HW234764   3.857   0.375  10.961  0.9068 -0.3294 -0.3466
 7769SOL     OW34765   1.250   4.699  15.595  0.1310  0.2088  0.3352
 7769SOL    HW134766   1.311   0.031  15.647  0.2468 -0.4412  0.8632
 7769SOL    HW234767   1.251   0.018  15.508  1.7156 -0.3322  0.1100
 7770SOL     OW34768   3.052   2.201   7.347  0.6153  0.2449 -0.8806
 7770SOL    HW134769   3.028   2.109   7.359  1.9109  0.2916  1.9436
 7770SOL    HW234770   2.988   2.244   7.405 -0.9645  0.5676 -2.8384
 7771SOL     OW34771   1.145   3.964  15.879 -0.5844 -0.5806  0.0386
 7771SOL    HW134772   1.214   3.930  15.822  1.3972  0.1794  1.9674
 7771SOL    HW234773   1.124   3.881  15.921 -0.0886 -1.1231 -0.7822
 7772SOL     OW34774   2.350   3.373  14.446 -0.4317 -0.4561  0.4357
 7772SOL    HW134775   2.282   3.323  14.493 -1.6224  1.3135  0.5996
 7772SOL    HW234776   2.365   3.307  14.378  0.8115 -0.6376  0.8980
 7773SOL     OW34777   2.802   0.399   6.726 -0.1131  0.2660  0.5594
 7773SOL    HW134778   2.750   0.470   6.763  0.5414  0.3994  1.2300
 7773SOL    HW234779   2.809   0.337   6.799  1.3692 -1.1589 -0.7744
 7774SOL     OW34780   1.570   1.598   7.591  0.1622  0.0072 -0.5303
 7774SOL    HW134781   1.576   1.656   7.667 -3.3828 -1.4280  0.8592
 7774SOL    HW234782   1.660   1.612   7.563  1.0078  0.5073  2.4010
 7775SOL     OW34783   1.168   3.921   9.018 -0.3263  0.8255  0.2432
 7775SOL    HW134784   1.190   3.992   8.957  0.7283 -0.2307 -0.6055
 7775SOL    HW234785   1.122   3.968   9.088 -0.9508  0.0801  0.3337
 7776SOL     OW34786   3.842   3.975   9.701 -0.0688  0.2688  0.3237
 7776SOL    HW134787   3.818   3.884   9.714 -3.3059  0.8760 -1.3820
 7776SOL    HW234788   3.930   3.975   9.738  0.7013 -2.0954 -1.6060
 7777SOL     OW34789   4.559   2.963   8.155  0.3396  0.4713 -0.5060
 7777SOL    HW134790   4.621   2.956   8.083  0.6636  1.8341 -0.3635
 7777SOL    HW234791   4.605   3.031   8.204  2.6996  0.7067 -3.0503
 7778SOL     OW34792   2.851   3.112   2.860  0.0147 -0.2882  0.0548
 7778SOL    HW134793   2.868   3.079   2.771 -1.1438 -1.6641  0.3517
 7778SOL    HW234794   2.924   3.175   2.864 -1.1587  0.9332  1.9757
 7779SOL     OW34795   1.696   0.799   8.070 -0.3383  0.5106  0.2005
 7779SOL    HW134796   1.643   0.850   8.131 -4.5845  0.9684 -3.9126
 7779SOL    HW234797   1.748   0.865   8.024 -1.1452  0.5014 -0.7285
 7780SOL     OW34798   2.012   0.249   5.663  0.1894 -0.0905 -0.2023
 7780SOL    HW134799   1.960   0.173   5.636 -5.1813  2.7032  2.1376
 7780SOL    HW234800   1.941   0.313   5.676 -1.4553 -2.3452  1.9880
 7781SOL     OW34801   2.213   3.834   4.191  0.2184  0.0099 -0.1677
 7781SOL    HW134802   2.119   3.824   4.173 -0.1708 -0.1550  1.9656
 7781SOL    HW234803   2.221   3.813   4.284  2.0021 -1.9138 -0.7531
 7782SOL     OW34804   0.168   4.082   5.454 -0.2293 -0.2896 -0.1066
 7782SOL    HW134805   0.229   4.050   5.520 -0.1073  1.2077  0.4928
 7782SOL    HW234806   0.196   4.173   5.452  2.4007 -1.0798  1.3310
 7783SOL     OW34807   2.110   2.094  13.140 -0.9916 -0.4357  0.3763
 7783SOL    HW134808   2.164   2.060  13.069 -2.6348  0.4446 -1.3059
 7783SOL    HW234809   2.139   2.038  13.212 -2.0145 -2.8031 -1.0427
 7784SOL     OW34810   1.653   2.522  13.345 -0.3368  0.6458  0.2843
 7784SOL    HW134811   1.744   2.508  13.369  0.2876  0.6364 -2.0869
 7784SOL    HW234812   1.660   2.539  13.251 -1.0653  1.5393  0.3848
 7785SOL     OW34813   2.230   2.233   6.094  0.7914  0.2566  0.0123
 7785SOL    HW134814   2.302   2.273   6.143 -1.2422  2.7287  1.0026
 7785SOL    HW234815   2.262   2.228   6.004 -0.1283 -1.9775 -0.1746
 7786SOL     OW34816   1.315   4.354  11.115  0.7538  0.5362 -0.7574
 7786SOL    HW134817   1.276   4.428  11.070  2.3789  2.6900  1.3421
 7786SOL    HW234818   1.248   4.342  11.182 -0.1797  2.0009 -1.4338
 7787SOL     OW34819   4.389   3.242   5.048  0.0528  0.4969 -0.4845
 7787SOL    HW134820   4.442   3.257   4.970  0.2480  1.8758 -0.0840
 7787SOL    HW234821   4.447   3.191   5.105 -0.7278  0.1904  0.0348
 7788SOL     OW34822   2.120   2.258   9.280  0.2740  0.1493  0.2805
 7788SOL    HW134823   2.166   2.315   9.219  1.1441 -0.5996  0.2301
 7788SOL    HW234824   2.035   2.242   9.240  0.1916 -0.9765  0.8925
 7789SOL     OW34825   4.504   1.353   5.258  0.0783 -0.4845 -0.1353
 7789SOL    HW134826   4.510   1.436   5.304  2.4670 -1.3972  1.1911
 7789SOL    HW234827   4.553   1.292   5.314  1.9506  1.8666  0.7687
 7790SOL     OW34828   1.911   0.100  10.700 -0.5176 -0.0735 -1.2990
 7790SOL    HW134829   1.846   0.168  10.681 -0.6250  0.4583  0.9731
 7790SOL    HW234830   1.856   0.039  10.749  0.3049  0.4568  0.2892
 7791SOL     OW34831   4.338   2.225   3.595 -0.1284 -0.0237  0.0194
 7791SOL    HW134832   4.375   2.137   3.599  2.1674  0.8600 -1.7036
 7791SOL    HW234833   4.292   2.217   3.511 -0.0284  0.6302 -0.0951
 7792SOL     OW34834   1.527   1.911   3.046 -0.0335  0.3589 -0.2743
 7792SOL    HW134835   1.513   1.820   3.021 -1.0585  0.1990  0.8864
 7792SOL    HW234836   1.623   1.913   3.048 -0.0127 -1.6129  1.7467
 7793SOL     OW34837   4.352   0.871  10.290  0.0487 -0.4229  0.1240
 7793SOL    HW134838   4.281   0.936  10.293  1.7549  1.4792 -1.1314
 7793SOL    HW234839   4.405   0.897  10.214 -0.1251  2.0715  0.8401
 7794SOL     OW34840   1.985   3.673   9.153  0.5817  0.6311  0.2687
 7794SOL    HW134841   2.051   3.653   9.086 -0.2040 -0.3997 -0.1809
 7794SOL    HW234842   2.042   3.719   9.215  0.8905 -0.0106  0.4612
 7795SOL     OW34843   3.368   0.438   2.617 -0.1534  0.4176  0.4016
 7795SOL    HW134844   3.452   0.408   2.583  0.2797  0.3833  1.5071
 7795SOL    HW234845   3.373   0.389   2.699 -3.4744 -0.1843  0.2235
 7796SOL     OW34846   2.382   0.834   2.659  0.6375  0.5457  0.0422
 7796SOL    HW134847   2.372   0.856   2.752 -1.8832 -0.4162  0.0048
 7796SOL    HW234848   2.477   0.838   2.657  0.5479  1.1010 -3.0422
 7797SOL     OW34849   2.512   2.817   0.799  0.4161  0.2926  0.4430
 7797SOL    HW134850   2.516   2.742   0.858  0.8468  0.8329  1.1047
 7797SOL    HW234851   2.503   2.883   0.868  1.2880 -1.2880  2.0914
 7798SOL     OW34852   1.982   0.592   5.236 -0.0517  0.0820  0.6240
 7798SOL    HW134853   1.988   0.674   5.188  0.6354 -0.1731  0.2721
 7798SOL    HW234854   1.896   0.609   5.273 -0.6006 -0.5250 -0.3726
 7799SOL     OW34855   0.716   0.149  10.910 -0.4416  0.6301 -0.0274
 7799SOL    HW134856   0.715   0.166  10.816 -0.5873 -1.1442 -0.3509
 7799SOL    HW234857   0.635   0.195  10.933 -1.5804 -1.2272 -0.3252
 7800SOL     OW34858   3.609   2.810   2.662  0.0980 -0.6290  0.2310
 7800SOL    HW134859   3.647   2.788   2.747  0.5015  0.3631  0.3115
 7800SOL    HW234860   3.582   2.726   2.627 -0.4990  0.2746 -1.4570
 7801SOL     OW34861   2.781   3.519  16.638 -0.0491  0.1966  0.1216
 7801SOL    HW134862   2.707   3.479  16.683  0.6285 -0.8362  0.3124
 7801SOL    HW234863   2.860   3.474  16.668  1.2613  2.3612 -0.0888
 7802SOL     OW34864   3.714   0.463   2.322 -0.0088 -0.0208 -0.0419
 7802SOL    HW134865   3.761   0.393   2.277  1.2879  1.4971 -1.0791
 7802SOL    HW234866   3.667   0.405   2.381  0.0101  0.0451  0.0391
 7803SOL     OW34867   1.891   2.276  11.187 -0.1040 -0.0128  0.0982
 7803SOL    HW134868   1.858   2.339  11.122 -1.0051  0.6886  1.2448
 7803SOL    HW234869   1.986   2.288  11.185 -0.0930 -0.2682 -1.0631
 7804SOL     OW34870   3.493   3.428   8.909 -0.1424  0.4296 -0.2826
 7804SOL    HW134871   3.524   3.356   8.853  2.1597  0.3162  1.1231
 7804SOL    HW234872   3.540   3.502   8.870 -0.3564  0.9275  0.4052
 7805SOL     OW34873   2.671   0.771   8.838 -0.3199  0.0424  0.3135
 7805SOL    HW134874   2.752   0.731   8.806  0.5684  0.3464  2.1714
 7805SOL    HW234875   2.611   0.700   8.815  0.4614  0.0398 -1.7576
 7806SOL     OW34876   3.228   4.448  13.802 -0.1463 -0.5200 -0.2854
 7806SOL    HW134877   3.275   4.432  13.883 -0.0263 -0.6490 -0.3813
 7806SOL    HW234878   3.163   4.377  13.803 -1.7021  0.8815 -0.6454
 7807SOL     OW34879   4.662   0.772   3.286 -0.2066 -0.1551 -0.5226
 7807SOL    HW134880   4.602   0.797   3.357 -0.8396 -0.8664 -0.7990
 7807SOL    HW234881   0.013   0.736   3.337 -1.2660 -0.5461  0.7164
 7808SOL     OW34882   0.088   2.480   7.133 -0.1826 -0.2231  0.1326
 7808SOL    HW134883   0.161   2.539   7.112  1.0084 -2.1720 -1.2763
 7808SOL    HW234884   0.013   2.535   7.109 -1.7716 -1.8869  1.3359
 7809SOL     OW34885   2.405   1.130   9.216 -0.1631 -0.0169  0.4558
 7809SOL    HW134886   2.498   1.134   9.235  0.1008 -1.5487 -0.4779
 7809SOL    HW234887   2.404   1.047   9.168  0.7821  0.7333 -0.8471
 7810SOL     OW34888   0.521   0.587   0.001  0.8473  0.2434  0.8647
 7810SOL    HW134889   0.598   0.593  17.632  0.7322  0.7737  0.7571
 7810SOL    HW234890   0.534   0.666   0.053 -0.9121  1.8218 -1.0910
 7811SOL     OW34891   4.176   2.515   3.330  0.4923 -0.7463  0.2420
 7811SOL    HW134892   4.156   2.590   3.275 -1.4481 -1.0028  0.6049
 7811SOL    HW234893   4.248   2.550   3.383 -1.0610  0.3192  1.6434
 7812SOL     OW34894   3.543   2.859   3.681  0.2555 -0.4798 -0.3539
 7812SOL    HW134895   3.616   2.920   3.671  0.3588 -0.4743  0.3909
 7812SOL    HW234896   3.507   2.891   3.764  1.3048  1.9490 -0.8470
 7813SOL     OW34897   4.292   4.190  17.647  0.0523 -0.0141 -0.3506
 7813SOL    HW134898   4.238   4.135  17.590 -1.0975  2.6898 -1.9099
 7813SOL    HW234899   4.378   4.190  17.605  1.0847 -1.2894  1.7694
 7814SOL     OW34900   2.017   3.676   6.292 -0.6667 -0.1457 -0.1154
 7814SOL    HW134901   2.001   3.582   6.297 -1.8322  0.0796  0.4666
 7814SOL    HW234902   2.021   3.694   6.386  0.4022  0.0885 -0.2032
 7815SOL     OW34903   3.716   0.128   5.836 -0.4867 -0.0883  0.5245
 7815SOL    HW134904   3.670   0.205   5.804  0.1772  0.1844  0.2247
 7815SOL    HW234905   3.772   0.173   5.899 -0.1813  0.0113  0.1805
 7816SOL     OW34906   3.905   2.705   9.722 -0.1367 -1.0745  0.2702
 7816SOL    HW134907   3.890   2.784   9.669 -1.8786 -0.0322  2.3036
 7816SOL    HW234908   3.942   2.743   9.801 -0.7824 -2.2150  1.1150
 7817SOL     OW34909   0.589   0.035   7.470  0.3724  0.6904 -0.3150
 7817SOL    HW134910   0.619   4.676   7.428  4.6717  2.0064  0.2176
 7817SOL    HW234911   0.509   0.001   7.509  0.7784  0.1960  0.0878
 7818SOL     OW34912   3.843   1.933   7.693  0.2174  1.0000  0.2232
 7818SOL    HW134913   3.901   1.989   7.746  0.5341 -0.9151  1.9111
 7818SOL    HW234914   3.795   1.999   7.645 -0.7784 -0.1080 -0.2969
 7819SOL     OW34915   1.994   1.611   2.807 -0.1167  0.3005  0.0239
 7819SOL    HW134916   1.913   1.614   2.757  0.2936  2.1885 -0.5214
 7819SOL    HW234917   2.034   1.698   2.799  0.3050  0.2328  1.3267
 7820SOL     OW34918   1.448   1.311   3.146  0.1315  0.3777 -0.0043
 7820SOL    HW134919   1.458   1.258   3.067 -2.3990  0.4777 -0.4174
 7820SOL    HW234920   1.363   1.351   3.125 -1.0064 -2.3624 -0.7331
 7821SOL     OW34921   0.644   1.222   8.442 -1.0680  0.5085 -0.0755
 7821SOL    HW134922   0.739   1.232   8.446 -0.7851 -1.4352 -2.3028
 7821SOL    HW234923   0.640   1.158   8.372 -2.2508  0.5774 -0.0724
 7822SOL     OW34924   4.221   1.007   8.154  0.5946 -0.3478  0.4830
 7822SOL    HW134925   4.258   1.090   8.121 -0.0322 -0.2430  0.0326
 7822SOL    HW234926   4.306   0.968   8.176  1.4883  0.3905 -1.5864
 7823SOL     OW34927   2.735   3.123   4.082 -0.2995  0.2469  0.3198
 7823SOL    HW134928   2.730   3.100   4.175 -0.5858  0.9822  0.4831
 7823SOL    HW234929   2.685   3.205   4.082  1.3767  1.2491  0.4742
 7824SOL     OW34930   4.565   0.124   5.142 -0.0251  0.1304 -0.3887
 7824SOL    HW134931   4.617   0.113   5.063  1.2202 -0.8168  0.5584
 7824SOL    HW234932   4.510   0.193   5.106 -0.2148 -1.9625 -4.0156
 7825SOL     OW34933   1.723   3.509   7.181 -0.3500 -0.1567  0.2287
 7825SOL    HW134934   1.645   3.556   7.211  0.0195  0.1306  0.7310
 7825SOL    HW234935   1.690   3.449   7.114  0.1676  1.3016 -1.3330
 7826SOL     OW34936   2.755   0.505   5.595 -0.0028 -0.1704 -0.0289
 7826SOL    HW134937   2.662   0.494   5.615  0.2838 -0.1472  1.3344
 7826SOL    HW234938   2.788   0.415   5.587 -0.1887 -0.1726 -0.7321
 7827SOL     OW34939   1.684   1.506   3.161  0.0744  0.1772  0.3145
 7827SOL    HW134940   1.634   1.477   3.237  0.4571  0.0871  0.5313
 7827SOL    HW234941   1.619   1.567   3.127  1.8876  1.7226 -0.4078
 7828SOL     OW34942   3.256   1.219   8.499 -0.0258  0.0454 -0.0045
 7828SOL    HW134943   3.320   1.188   8.564 -0.7146 -0.3618  0.4750
 7828SOL    HW234944   3.206   1.141   8.477  0.6462 -1.3534  3.3532
 7829SOL     OW34945   2.003   4.077   0.806 -0.1118 -0.0887  0.1929
 7829SOL    HW134946   2.044   4.141   0.748 -2.8641  1.9303  0.4961
 7829SOL    HW234947   2.080   4.047   0.854 -0.8747 -2.5627 -0.1453
 7830SOL     OW34948   1.858   2.816   7.752 -0.1615  0.0012 -0.7067
 7830SOL    HW134949   1.787   2.864   7.708 -1.1615 -2.3783 -1.6703
 7830SOL    HW234950   1.834   2.725   7.735  1.7536 -0.0927 -2.8001
 7831SOL     OW34951   0.729   0.677   2.299  0.2942 -0.2174 -0.3136
 7831SOL    HW134952   0.711   0.763   2.262 -2.7184 -1.1085 -0.9460
 7831SOL    HW234953   0.643   0.653   2.334 -0.0114  1.4530  0.1064
 7832SOL     OW34954   1.814   1.327   6.673 -0.0955  0.1149 -0.1771
 7832SOL    HW134955   1.828   1.238   6.705 -2.8843 -0.2522  0.0075
 7832SOL    HW234956   1.741   1.355   6.728 -0.5986  1.8258 -1.7186
 7833SOL     OW34957   4.302   3.238  11.689  0.1086  0.1517  0.5913
 7833SOL    HW134958   4.358   3.161  11.696  0.2943  0.1110 -1.3648
 7833SOL    HW234959   4.250   3.226  11.769  0.3036  1.2033  0.8745
 7834SOL     OW34960   3.738   3.370   3.384  0.5641  0.4855 -1.1320
 7834SOL    HW134961   3.711   3.385   3.293 -0.5528 -0.3791 -0.9466
 7834SOL    HW234962   3.774   3.281   3.382 -3.0200 -0.9826 -0.1947
 7835SOL     OW34963   0.066   1.405   6.321  0.2731 -0.3056 -0.1601
 7835SOL    HW134964   0.089   1.317   6.349  0.1205 -0.7654 -1.5012
 7835SOL    HW234965   0.049   1.450   6.404  0.5212  0.8413 -0.7250
 7836SOL     OW34966   1.907   0.844   4.693 -0.1424 -0.2122  0.1285
 7836SOL    HW134967   1.844   0.879   4.629 -0.2044  2.4047  1.5996
 7836SOL    HW234968   1.862   0.874   4.773 -0.2207 -0.9027  0.3442
 7837SOL     OW34969   2.793   4.212   3.981 -0.3538 -0.2554 -0.5210
 7837SOL    HW134970   2.749   4.259   3.910  0.6071 -0.9253 -1.5535
 7837SOL    HW234971   2.713   4.199   4.032 -0.8383 -1.1165 -1.5184
 7838SOL     OW34972   0.667   4.432   4.302 -0.2164  0.5344 -0.0433
 7838SOL    HW134973   0.666   4.425   4.398 -0.0461  2.3012  0.1052
 7838SOL    HW234974   0.652   4.343   4.272  2.7703  0.1524 -0.4043
 7839SOL     OW34975   2.380   0.285   0.160 -0.0427  0.5485  0.5436
 7839SOL    HW134976   2.285   0.287   0.164 -0.0801 -2.0017  0.7512
 7839SOL    HW234977   2.395   0.264   0.068  0.4405 -0.6861  0.9010
 7840SOL     OW34978   2.917   2.667   5.278 -0.4327 -0.4160 -0.1953
 7840SOL    HW134979   2.835   2.684   5.232 -1.0533  2.5428  1.9880
 7840SOL    HW234980   2.933   2.573   5.280 -2.6223 -0.7956 -1.0558
 7841SOL     OW34981   2.759   0.797   9.846  0.3504  0.3824  0.3428
 7841SOL    HW134982   2.764   0.783   9.940  1.3753  1.0091  0.3821
 7841SOL    HW234983   2.678   0.848   9.846 -0.5967 -1.1366  0.4076
 7842SOL     OW34984   1.679   0.037  16.808  0.6309 -0.0219  0.2265
 7842SOL    HW134985   1.679   0.090  16.728  0.5244 -2.1284 -1.1539
 7842SOL    HW234986   1.600   4.705  16.798  0.2448  0.6853 -0.4089
 7843SOL     OW34987   0.449   1.595  12.581 -0.3242 -0.3228  0.4506
 7843SOL    HW134988   0.404   1.516  12.613 -0.9163 -0.1026  0.1760
 7843SOL    HW234989   0.374   1.649  12.555 -0.4550 -0.2171  1.0705
 7844SOL     OW34990   1.455   1.168  16.430  0.3557  0.5799  0.2608
 7844SOL    HW134991   1.401   1.195  16.505  0.1656 -0.4390  0.4854
 7844SOL    HW234992   1.404   1.197  16.355  0.2496 -0.0338  0.1015
 7845SOL     OW34993   4.428   1.043   5.128 -0.6558  0.2777 -0.3908
 7845SOL    HW134994   4.340   1.037   5.091 -0.6395  1.2997 -0.5959
 7845SOL    HW234995   4.442   0.961   5.176 -0.5339  1.2289  1.2133
 7846SOL     OW34996   1.047   0.263   1.994  0.0063  0.3761  0.7247
 7846SOL    HW134997   1.132   0.297   1.966  0.8417 -1.7781  0.5998
 7846SOL    HW234998   1.028   0.329   2.060  1.8010  2.8757 -1.2827
 7847SOL     OW34999   0.078   2.734   9.049  0.5334  0.2109  0.1357
 7847SOL    HW135000   0.051   2.643   9.062 -1.0429  1.0602  3.0054
 7847SOL    HW235001   0.023   2.771   8.981  0.8826 -0.6437 -0.6032
 7848SOL     OW35002   3.868   3.361   8.432  0.2637 -0.0315 -0.1484
 7848SOL    HW135003   3.954   3.327   8.459  0.8494  1.5182 -0.0460
 7848SOL    HW235004   3.821   3.278   8.422  1.8148 -0.9394  0.1365
 7849SOL     OW35005   1.351   2.077   4.389 -0.0493 -0.1276 -0.4324
 7849SOL    HW135006   1.264   2.116   4.375  0.0614  0.4372  0.4582
 7849SOL    HW235007   1.326   2.034   4.470 -0.5350 -1.5234 -1.3202
 7850SOL     OW35008   1.898   2.815   7.375 -0.0267 -0.4884 -0.2542
 7850SOL    HW135009   1.858   2.885   7.425 -2.3031 -1.8279 -0.2060
 7850SOL    HW235010   1.925   2.760   7.449  0.3018  0.8182  0.5897
 7851SOL     OW35011   3.201   0.361   6.419 -0.3798  0.1999 -0.0089
 7851SOL    HW135012   3.140   0.350   6.493  0.1345 -1.3914  0.1710
 7851SOL    HW235013   3.151   0.426   6.370 -2.2452 -0.3147  1.2109
 7852SOL     OW35014   2.233   2.938   4.098  0.8949  0.4077 -0.0611
 7852SOL    HW135015   2.246   3.016   4.152  2.4849 -0.8875  1.4378
 7852SOL    HW235016   2.293   2.881   4.146  0.5873  0.4709  0.3962
 7853SOL     OW35017   2.583   4.655   7.376  0.6961  0.0847 -0.0630
 7853SOL    HW135018   2.628   0.008   7.336 -0.8967  0.9677 -0.2150
 7853SOL    HW235019   2.492   4.684   7.387  0.5489  0.6275 -2.8577
 7854SOL     OW35020   0.244   3.090   9.091 -0.1492 -0.3039 -0.4124
 7854SOL    HW135021   0.296   3.170   9.098 -1.5054  0.7023 -1.8110
 7854SOL    HW235022   0.152   3.114   9.098  0.7985  2.9053  1.0073
 7855SOL     OW35023   4.322   0.115   6.157 -0.2870  0.1727  0.3673
 7855SOL    HW135024   4.259   0.102   6.086  0.1667  0.2370 -0.0366
 7855SOL    HW235025   4.355   0.202   6.135  0.7158 -0.1548  0.6082
 7856SOL     OW35026   1.443   3.438   2.760 -0.1830  0.0174  0.6281
 7856SOL    HW135027   1.451   3.397   2.846  1.4278 -2.3225 -0.6337
 7856SOL    HW235028   1.533   3.452   2.730  0.7266 -1.9127  2.4650
 7857SOL     OW35029   1.509   2.053   6.320  0.0125 -0.0778  0.1010
 7857SOL    HW135030   1.503   2.070   6.226  1.2487  2.3122  0.4379
 7857SOL    HW235031   1.594   2.086   6.348  0.2553 -1.5432  1.0794
 7858SOL     OW35032   0.881   2.344   0.388 -0.6179  0.3183  0.6059
 7858SOL    HW135033   0.896   2.250   0.388 -0.4244  0.3533 -2.9831
 7858SOL    HW235034   0.971   2.375   0.401 -0.7391  1.7873 -1.9924
 7859SOL     OW35035   2.434   0.290   7.354 -0.0433  0.1771 -0.0645
 7859SOL    HW135036   2.518   0.335   7.356  0.8008 -1.2714 -2.9274
 7859SOL    HW235037   2.389   0.336   7.283  2.8155  1.4897 -1.0026
 7860SOL     OW35038   3.994   3.286  10.764 -0.4893 -0.2561 -0.6339
 7860SOL    HW135039   4.050   3.238  10.704 -0.3309 -0.6018 -0.2090
 7860SOL    HW235040   3.915   3.239  10.738 -2.5573  2.6642  0.2940
 7861SOL     OW35041   0.233   1.181   1.922  0.4867  0.5162 -0.4121
 7861SOL    HW135042   0.241   1.160   2.015 -1.1525 -0.1733 -0.4329
 7861SOL    HW235043   0.258   1.097   1.885  0.3917 -0.0338  0.7798
 7862SOL     OW35044   3.797   3.658   3.201 -0.1876  0.0006 -0.4262
 7862SOL    HW135045   3.811   3.669   3.295  0.5675  1.3919 -0.7150
 7862SOL    HW235046   3.702   3.662   3.201 -0.2245 -0.6131  1.8560
 7863SOL     OW35047   3.898   1.412   9.686  0.0756  0.0209 -0.3899
 7863SOL    HW135048   3.990   1.397   9.707  0.5688  1.9906 -1.0879
 7863SOL    HW235049   3.870   1.472   9.756  2.0273 -0.6070  0.9154
 7864SOL     OW35050   3.256   3.461   7.738 -0.6723 -0.5622  0.0525
 7864SOL    HW135051   3.162   3.448   7.724 -0.4774 -0.4822 -1.2879
 7864SOL    HW235052   3.267   3.554   7.758  0.2031 -0.5435 -0.5397
 7865SOL     OW35053   1.862   0.069   5.900  0.2078 -0.4985  0.1976
 7865SOL    HW135054   1.917   4.713   5.885  0.9331 -0.2586  1.6127
 7865SOL    HW235055   1.784   0.061   5.844 -1.5095  0.8773  2.3684
 7866SOL     OW35056   3.166   2.783   0.926 -0.5228 -0.0900 -0.0498
 7866SOL    HW135057   3.220   2.846   0.973 -3.3483 -0.2679  3.4504
 7866SOL    HW235058   3.198   2.702   0.966  2.4313  1.1337 -0.0026
 7867SOL     OW35059   2.963   1.822   2.816  0.2226  0.2300  0.0881
 7867SOL    HW135060   3.002   1.802   2.901 -1.0832 -1.0809  0.3932
 7867SOL    HW235061   2.925   1.909   2.825 -1.1510 -0.3393 -0.2953
 7868SOL     OW35062   0.184   2.201  10.569 -0.1023  0.7664 -0.0284
 7868SOL    HW135063   0.212   2.205  10.660 -1.7665  1.5302  0.4421
 7868SOL    HW235064   0.239   2.130  10.534 -1.0989 -0.0679  0.0918
 7869SOL     OW35065   2.505   0.062   5.469 -0.6122 -0.3243 -0.4271
 7869SOL    HW135066   2.530   0.104   5.551  1.2173 -1.5411 -0.3495
 7869SOL    HW235067   2.432   0.114   5.435 -0.6794 -0.5529 -0.6374
 7870SOL     OW35068   1.891   2.156   1.141  0.1185  0.4956 -0.4858
 7870SOL    HW135069   1.903   2.247   1.113  0.7049  0.2320 -1.0951
 7870SOL    HW235070   1.860   2.116   1.060 -0.3240  0.6785 -0.4067
 7871SOL     OW35071   3.868   1.974   4.199 -0.1508 -0.0170  0.0429
 7871SOL    HW135072   3.920   1.992   4.278  0.1382  1.8705 -0.5941
 7871SOL    HW235073   3.779   1.997   4.227 -0.5948 -0.8732 -0.6858
 7872SOL     OW35074   4.090   1.178   4.944 -0.1673 -0.6258 -0.4243
 7872SOL    HW135075   4.048   1.167   5.029 -0.3375  0.5764 -0.3585
 7872SOL    HW235076   4.166   1.121   4.956  2.2130  2.0491 -2.8523
 7873SOL     OW35077   1.169   2.442   0.505  0.1565 -0.2596 -0.5848
 7873SOL    HW135078   1.152   2.497   0.581 -1.6943  1.9944 -2.6068
 7873SOL    HW235079   1.220   2.508   0.457  1.7413 -0.7554  0.4035
 7874SOL     OW35080   1.356   1.953   1.186 -0.2852 -0.0945  0.4247
 7874SOL    HW135081   1.328   1.864   1.165 -1.6966  0.3204  0.5832
 7874SOL    HW235082   1.270   1.988   1.209 -0.1190 -0.2090  1.2362
 7875SOL     OW35083   4.410   3.736   3.644  0.6652 -0.1146  0.0957
 7875SOL    HW135084   4.501   3.755   3.669  0.4280  1.1573  0.0042
 7875SOL    HW235085   4.367   3.711   3.726 -0.3188  0.1176 -0.3521
 7876SOL     OW35086   0.084   0.470   7.685 -0.2951 -0.0893  0.6043
 7876SOL    HW135087   4.717   0.506   7.673 -0.0533  0.8656  1.6489
 7876SOL    HW235088   0.142   0.527   7.635 -1.7097  1.2030  0.4460
 7877SOL     OW35089   1.972   3.435  17.436  0.7309 -0.1885 -0.0174
 7877SOL    HW135090   1.919   3.367  17.394  0.0175  0.9910 -1.0362
 7877SOL    HW235091   1.958   3.415  17.528  0.4153 -0.1210 -0.0517
 7878SOL     OW35092   4.206   4.168  10.006 -0.1059 -0.5561 -0.3442
 7878SOL    HW135093   4.300   4.158  10.021 -0.1135  0.2438  0.2163
 7878SOL    HW235094   4.205   4.219   9.925  1.4622  0.7248  0.4491
 7879SOL     OW35095   2.821   1.345   5.538  0.1547  0.2549 -0.5367
 7879SOL    HW135096   2.792   1.264   5.496 -0.8318  0.5210 -0.3668
 7879SOL    HW235097   2.759   1.353   5.611 -0.1153  0.1394 -0.7521
 7880SOL     OW35098   1.272   1.460   6.815  0.0515  0.8918  0.0265
 7880SOL    HW135099   1.206   1.514   6.858  0.1427 -0.3847  1.8053
 7880SOL    HW235100   1.335   1.456   6.887  2.4168 -0.5374 -2.1107
 7881SOL     OW35101   4.505   0.171   2.715 -0.1698  0.1467 -0.1791
 7881SOL    HW135102   4.441   0.229   2.758  0.1146  0.5446 -0.2853
 7881SOL    HW235103   4.452   0.092   2.718  0.9578 -0.5575  1.3536
 7882SOL     OW35104   0.384   4.705  16.451  0.8692 -0.1197  0.1538
 7882SOL    HW135105   0.402   0.067  16.495  1.3304 -0.6327  0.9423
 7882SOL    HW235106   0.465   4.664  16.483  0.4574 -1.6890 -0.8030
 7883SOL     OW35107   4.210   3.644  14.948 -0.2413 -0.5211  0.0351
 7883SOL    HW135108   4.161   3.621  15.027  1.2813 -1.0211  0.8394
 7883SOL    HW235109   4.259   3.717  14.987  0.4791 -1.4738  0.9230
 7884SOL     OW35110   1.523   0.112   9.184  0.5244 -0.2228  0.4092
 7884SOL    HW135111   1.560   0.186   9.135  1.7807 -0.2578  1.3137
 7884SOL    HW235112   1.541   0.134   9.275  0.4388 -0.9112  0.5928
 7885SOL     OW35113   2.832   3.819  14.489 -0.0121 -0.0535 -0.1055
 7885SOL    HW135114   2.764   3.762  14.452  0.7617 -0.7061 -0.5223
 7885SOL    HW235115   2.834   3.885  14.420 -2.4508 -0.4619 -0.5816
 7886SOL     OW35116   4.147   4.314   6.133  0.3695 -0.5341 -0.0431
 7886SOL    HW135117   4.212   4.302   6.203  1.6815 -0.1776 -1.2100
 7886SOL    HW235118   4.156   4.409   6.133 -1.4885 -0.3621 -1.9398
 7887SOL     OW35119   4.048   4.167   4.144 -0.0178  0.2574  0.1432
 7887SOL    HW135120   4.070   4.200   4.057 -1.1352 -0.8522 -0.5446
 7887SOL    HW235121   4.063   4.246   4.197  0.9280  0.7930 -0.9174
 7888SOL     OW35122   2.513   0.682   7.552 -0.1731 -0.5737 -0.9080
 7888SOL    HW135123   2.482   0.667   7.641  1.1853  0.0123 -0.3258
 7888SOL    HW235124   2.555   0.596   7.544 -0.1718 -0.3666 -3.2364
 7889SOL     OW35125   0.916   0.773   3.118  0.3781  0.1012 -0.1606
 7889SOL    HW135126   0.851   0.844   3.110  0.5258  0.6053  3.1018
 7889SOL    HW235127   0.914   0.734   3.205 -0.5392 -0.4297 -0.4200
 7890SOL     OW35128   0.173   0.746   4.099 -0.2576 -0.3343 -0.1363
 7890SOL    HW135129   0.110   0.678   4.074 -1.0457  0.3402  0.0176
 7890SOL    HW235130   0.252   0.723   4.050 -0.4876 -0.0603 -0.6335
 7891SOL     OW35131   4.225   2.038  10.954 -0.7211  0.2438 -0.1447
 7891SOL    HW135132   4.268   1.988  11.023 -1.2328  1.7657  1.2763
 7891SOL    HW235133   4.221   2.124  10.996  1.7500  0.2407  0.0939
 7892SOL     OW35134   0.782   4.118   2.202 -0.2375 -0.3703 -0.2958
 7892SOL    HW135135   0.841   4.075   2.140  1.3342 -0.5504  1.3174
 7892SOL    HW235136   0.695   4.130   2.162 -1.3074 -2.7571  1.2674
 7893SOL     OW35137   1.477   4.259   8.630  0.5041  0.7718 -0.0745
 7893SOL    HW135138   1.476   4.330   8.693 -0.9779  0.7425 -0.0571
 7893SOL    HW235139   1.384   4.239   8.617  0.4616  0.9883 -0.1088
 7894SOL     OW35140   4.064   0.044   5.692  0.2344 -0.2530 -0.2449
 7894SOL    HW135141   3.986   0.065   5.640 -1.5512  0.9721  2.9822
 7894SOL    HW235142   4.134   0.082   5.638  1.5626 -2.4414 -0.0473
 7895SOL     OW35143   0.553   0.259   7.277  0.0712  0.3819 -0.2125
 7895SOL    HW135144   0.566   0.207   7.356 -1.4803  0.9296  0.3975
 7895SOL    HW235145   0.621   0.218   7.224 -0.8082 -1.3776  0.0102
 7896SOL     OW35146   3.703   3.521   5.773 -0.0083  0.1624 -0.0934
 7896SOL    HW135147   3.792   3.496   5.796 -0.9301 -1.9359  1.1095
 7896SOL    HW235148   3.695   3.609   5.809 -0.0714 -0.3982  1.2709
 7897SOL     OW35149   4.602   3.039   4.197 -0.4407 -0.2548 -0.5851
 7897SOL    HW135150   4.581   3.112   4.255  1.2010  0.1331 -0.4719
 7897SOL    HW235151   4.568   3.061   4.110 -1.0753  0.5465 -0.1419
 7898SOL     OW35152   3.480   0.535   5.459  0.4700 -0.5971  0.5798
 7898SOL    HW135153   3.417   0.480   5.413  0.9313  0.5529 -1.3863
 7898SOL    HW235154   3.425   0.577   5.525  1.2297  0.6822  0.3942
 7899SOL     OW35155   2.688   3.596   7.115  0.4359  0.6044 -0.0013
 7899SOL    HW135156   2.598   3.564   7.107  0.4580  0.2249  1.2913
 7899SOL    HW235157   2.698   3.607   7.210 -2.2052  1.0106  0.2215
 7900SOL     OW35158   1.548   1.362  11.176 -0.0002 -0.2652 -0.2082
 7900SOL    HW135159   1.636   1.378  11.141 -0.4832 -0.7810 -1.6786
 7900SOL    HW235160   1.545   1.425  11.248 -2.1980 -1.4403  0.7021
 7901SOL     OW35161   1.078   3.113  17.176 -0.0498 -0.6607  0.0570
 7901SOL    HW135162   1.095   3.122  17.270 -0.6716 -1.0577  0.2079
 7901SOL    HW235163   0.999   3.059  17.181  0.1900 -0.9560  0.7394
 7902SOL     OW35164   1.112   1.996   1.816  0.0933  0.3848  0.2619
 7902SOL    HW135165   1.073   2.017   1.901 -0.2475  1.6263 -0.1919
 7902SOL    HW235166   1.183   2.060   1.808  0.8553 -0.2885  1.6192
 7903SOL     OW35167   2.721   3.231   2.416 -0.4400 -0.3534 -0.3460
 7903SOL    HW135168   2.811   3.251   2.440  0.1089 -0.6162 -2.1475
 7903SOL    HW235169   2.724   3.222   2.320  1.7967 -0.5911 -0.2364
 7904SOL     OW35170   1.088   3.243  11.028  0.3191  0.2973  0.4431
 7904SOL    HW135171   1.016   3.271  10.972  0.0949  1.0099  1.0947
 7904SOL    HW235172   1.152   3.313  11.019 -0.0627  0.5462 -0.2760
 7905SOL     OW35173   3.344   4.426   1.155 -0.6515  0.3225 -1.0559
 7905SOL    HW135174   3.251   4.446   1.150 -0.1508  2.8975 -0.1039
 7905SOL    HW235175   3.379   4.492   1.216 -0.2016 -1.2193  0.3451
 7906SOL     OW35176   2.000   0.595   9.897 -0.1845 -0.1270 -0.3033
 7906SOL    HW135177   2.008   0.648   9.817  1.2022 -0.4126 -0.3524
 7906SOL    HW235178   2.069   0.532   9.877 -0.7202 -0.9726  0.4997
 7907SOL     OW35179   3.520   0.036   3.422  0.2492  0.4122  0.0501
 7907SOL    HW135180   3.520   0.012   3.514  2.6970  0.5412  0.0925
 7907SOL    HW235181   3.446   4.707   3.387  0.5892  0.0783 -0.2001
 7908SOL     OW35182   2.972   1.057   4.236 -0.5632  0.2470  0.0335
 7908SOL    HW135183   3.036   0.991   4.211  0.1048  0.9697 -0.1665
 7908SOL    HW235184   3.015   1.105   4.307 -0.7030 -0.6767  0.7533
 7909SOL     OW35185   4.630   1.863   7.418 -0.0123  0.2305  0.1546
 7909SOL    HW135186   4.605   1.951   7.448 -0.9186 -0.1994  0.6634
 7909SOL    HW235187   4.683   1.890   7.343  0.9522 -3.3292 -0.4301
 7910SOL     OW35188   1.063   2.630  12.551 -0.5699  0.2056  0.5375
 7910SOL    HW135189   1.033   2.606  12.638 -3.7499  0.5233 -0.4942
 7910SOL    HW235190   1.023   2.716  12.537  1.3401  1.2753  1.6185
 7911SOL     OW35191   1.741   4.668   4.603 -0.8262  0.1203 -0.2557
 7911SOL    HW135192   1.669   4.707   4.651 -0.8297 -0.5060  0.2489
 7911SOL    HW235193   1.744   4.578   4.637  1.6568  0.4259  0.3380
 7912SOL     OW35194   3.985   1.475  11.962  0.0064  0.4571 -0.1685
 7912SOL    HW135195   4.027   1.479  12.048 -2.9264  1.8403  1.2078
 7912SOL    HW235196   4.036   1.418  11.905 -2.6679 -0.5804 -1.5571
 7913SOL     OW35197   3.328   2.695  10.344  0.5391 -0.1605  0.0876
 7913SOL    HW135198   3.315   2.788  10.365 -1.7833 -1.3078  3.8626
 7913SOL    HW235199   3.307   2.688  10.251  2.0753  0.2723 -0.2936
 7914SOL     OW35200   0.581   4.117   1.775  0.2181  0.5840 -0.2206
 7914SOL    HW135201   0.555   4.208   1.789 -0.1914  0.2813  1.0035
 7914SOL    HW235202   0.525   4.069   1.836  1.4794 -1.0008 -0.2949
 7915SOL     OW35203   0.585   3.775   5.460 -0.4214 -0.0299  0.4373
 7915SOL    HW135204   0.588   3.871   5.466  1.1088 -0.0570  0.0951
 7915SOL    HW235205   0.583   3.764   5.365  0.6825  1.5935  0.2319
 7916SOL     OW35206   3.213   2.965   5.819  0.8729  0.5356  0.1636
 7916SOL    HW135207   3.184   3.056   5.810  1.8133  0.8115 -0.1080
 7916SOL    HW235208   3.268   2.953   5.742  3.3029 -0.9160  2.1194
 7917SOL     OW35209   2.285   1.718  10.261  0.2455 -0.6701 -0.0721
 7917SOL    HW135210   2.320   1.687  10.344  0.4389  0.6038  0.3295
 7917SOL    HW235211   2.336   1.797  10.243  2.0978 -1.8661 -0.1055
 7918SOL     OW35212   3.943   4.053   2.879 -0.0541  0.1357  0.0098
 7918SOL    HW135213   3.926   4.144   2.855  1.3543  0.1881 -0.7465
 7918SOL    HW235214   3.853   4.025   2.896 -0.8614  1.4136 -2.1524
 7919SOL     OW35215   2.117   2.123   2.635 -0.5000 -0.1008 -0.9492
 7919SOL    HW135216   2.102   2.091   2.546 -0.7772 -1.5527 -0.3855
 7919SOL    HW235217   2.051   2.071   2.681 -0.0655 -1.0333 -1.3851
 7920SOL     OW35218   0.395   3.971   3.185 -0.0262 -0.3177  0.1474
 7920SOL    HW135219   0.374   4.025   3.261 -1.3057  0.3890 -0.7093
 7920SOL    HW235220   0.491   3.977   3.190  0.0455 -2.6180  1.4756
 7921SOL     OW35221   3.292   1.357  17.011 -0.5617 -0.3472  0.0418
 7921SOL    HW135222   3.292   1.281  16.952 -0.7596  0.2142 -0.6870
 7921SOL    HW235223   3.297   1.433  16.953  4.4879  0.6191  1.7657
 7922SOL     OW35224   4.052   4.218   2.453  0.5307  0.1955  0.6039
 7922SOL    HW135225   4.016   4.136   2.487 -0.6219  0.0969 -0.8375
 7922SOL    HW235226   4.136   4.187   2.420 -0.3896 -1.5846 -0.1203
 7923SOL     OW35227   3.037   3.135  13.153 -0.0491 -0.1820 -0.1803
 7923SOL    HW135228   2.978   3.132  13.228 -0.8884 -1.7965 -0.9174
 7923SOL    HW235229   2.995   3.082  13.085 -0.5663  2.3267 -1.8319
 7924SOL     OW35230   4.510   4.701   1.373 -0.3479  0.1857  0.3644
 7924SOL    HW135231   4.440   4.636   1.389 -2.6872  3.2377  2.5780
 7924SOL    HW235232   4.530   4.688   1.280  2.9565 -1.0116  1.2628
 7925SOL     OW35233   2.264   3.490   6.090 -0.9124  1.1791  0.4131
 7925SOL    HW135234   2.302   3.531   6.168 -0.4775  1.8445 -0.1524
 7925SOL    HW235235   2.243   3.402   6.120  0.4650  1.1160  1.1887
 7926SOL     OW35236   2.465   2.313   7.815 -0.0784 -0.0847  0.4271
 7926SOL    HW135237   2.419   2.398   7.819 -1.9744 -1.1470  1.1656
 7926SOL    HW235238   2.401   2.257   7.772  1.3846 -0.4116 -1.3112
 7927SOL     OW35239   4.487   3.056   3.942  0.4036  0.4989  0.2211
 7927SOL    HW135240   4.425   2.983   3.933  1.8751 -0.3998 -2.6300
 7927SOL    HW235241   4.568   3.025   3.902  0.9714 -0.2585  1.9256
 7928SOL     OW35242   0.006   2.221   8.075 -0.0386  0.3441 -0.6627
 7928SOL    HW135243   4.674   2.217   8.155  1.0678 -0.4963  0.0252
 7928SOL    HW235244   0.080   2.262   8.119 -0.1143 -0.3149  0.0936
 7929SOL     OW35245   3.642   4.575  16.705  0.0344  0.0521 -0.1440
 7929SOL    HW135246   3.685   4.630  16.771  0.6142 -0.2946 -0.2351
 7929SOL    HW235247   3.551   4.585  16.732 -0.1409  1.0364 -1.1054
 7930SOL     OW35248   3.360   3.587   5.388 -0.3210 -0.0766  0.1350
 7930SOL    HW135249   3.451   3.601   5.414 -0.1279  0.2974 -0.7379
 7930SOL    HW235250   3.372   3.565   5.295  0.4478  1.5274 -0.1455
 7931SOL     OW35251   2.786   3.006   4.975 -0.4289  0.9273 -0.3586
 7931SOL    HW135252   2.755   3.096   4.964 -1.0454  0.9107  1.2867
 7931SOL    HW235253   2.878   3.013   4.999 -0.5344 -1.2237  0.7455
 7932SOL     OW35254   0.802   4.582  11.302 -0.9867 -0.4327 -0.3544
 7932SOL    HW135255   0.767   4.601  11.215  1.0004  1.1220 -0.8109
 7932SOL    HW235256   0.886   4.627  11.291 -0.2504 -1.9584 -0.9228
 7933SOL     OW35257   3.641   4.123   6.726  0.3573  0.2098 -0.6506
 7933SOL    HW135258   3.690   4.056   6.774 -0.5013 -0.5782 -0.8744
 7933SOL    HW235259   3.567   4.071   6.698  1.0289 -0.2432 -1.5628
 7934SOL     OW35260   0.040   0.707  17.126 -0.2041 -0.5214 -0.2932
 7934SOL    HW135261   0.108   0.710  17.194 -0.0595  1.7292 -0.5358
 7934SOL    HW235262   4.687   0.685  17.182 -0.7517 -2.0404 -1.6331
 7935SOL     OW35263   1.228   2.775   4.399 -0.0641  0.0656  0.7175
 7935SOL    HW135264   1.310   2.733   4.371 -1.5961 -2.3661 -0.0361
 7935SOL    HW235265   1.181   2.810   4.324  3.4581  1.2166 -0.9553
 7936SOL     OW35266   3.679   3.007   6.315 -0.2531  0.1861 -0.2114
 7936SOL    HW135267   3.771   3.008   6.341 -0.4309 -0.2653  0.4255
 7936SOL    HW235268   3.648   3.090   6.351  0.7167 -0.1070  1.2919
 7937SOL     OW35269   3.513   0.389  10.840  0.1703  0.0580  0.0573
 7937SOL    HW135270   3.505   0.452  10.912  2.5650 -0.4720  0.7911
 7937SOL    HW235271   3.478   0.440  10.768 -1.7807 -1.4404 -0.0677
 7938SOL     OW35272   2.863   0.097  15.947  0.2745  0.1686  0.2761
 7938SOL    HW135273   2.897   0.186  15.959 -1.2338  1.1361 -2.5905
 7938SOL    HW235274   2.773   0.111  15.978  0.9118  0.4056  2.0736
 7939SOL     OW35275   1.469   1.218   4.758 -0.0275  0.0337  0.1373
 7939SOL    HW135276   1.489   1.126   4.747  0.0525  0.0906 -0.1813
 7939SOL    HW235277   1.549   1.258   4.726 -0.1444  1.4440  1.5963
 7940SOL     OW35278   0.161   0.354  17.171 -0.7235 -0.2164  0.1520
 7940SOL    HW135279   0.247   0.328  17.139 -1.4273 -0.8197 -1.2208
 7940SOL    HW235280   0.159   0.448  17.153  1.0286 -0.1046  0.5593
 7941SOL     OW35281   3.140   4.484   4.061 -0.0326  0.0572 -0.4281
 7941SOL    HW135282   3.165   4.498   4.153  0.2942 -1.0430 -0.3563
 7941SOL    HW235283   3.099   4.398   4.065  0.0759  0.0668  1.0145
 7942SOL     OW35284   3.758   0.339   2.705 -0.2986 -0.2020  0.1523
 7942SOL    HW135285   3.694   0.405   2.733 -2.3431 -1.3202 -1.8793
 7942SOL    HW235286   3.837   0.393   2.706 -1.6999  1.8368  0.0318
 7943SOL     OW35287   2.276   2.912   3.521  0.3409  0.1894  0.2842
 7943SOL    HW135288   2.238   2.835   3.563 -0.6336  0.8240  0.5697
 7943SOL    HW235289   2.369   2.892   3.528  0.4578  0.6735  0.1733
 7944SOL     OW35290   0.194   2.029  17.359  0.1525  0.2365  0.4290
 7944SOL    HW135291   0.247   2.106  17.379 -0.8835  0.6820  1.4278
 7944SOL    HW235292   0.181   2.039  17.264  2.2428  2.3800  0.3862
 7945SOL     OW35293   3.668   4.016  12.246  0.4866  0.1350  0.3917
 7945SOL    HW135294   3.575   3.995  12.243  0.3176  0.6346  2.1713
 7945SOL    HW235295   3.690   3.975  12.330  1.7537  1.5543  0.7577
 7946SOL     OW35296   1.075   1.898  15.864 -0.2624  0.2501  0.1666
 7946SOL    HW135297   1.100   1.829  15.802 -0.6417  0.6231 -0.3894
 7946SOL    HW235298   1.045   1.966  15.805 -6.0430 -1.4121  1.1955
 7947SOL     OW35299   3.278   2.153   6.860 -0.5817 -0.1265  0.7172
 7947SOL    HW135300   3.329   2.184   6.786  0.6183  0.4950  1.8116
 7947SOL    HW235301   3.201   2.106   6.827  1.5302 -2.8133 -0.2949
 7948SOL     OW35302   4.517   0.573   6.040  0.3372  0.1306  0.0065
 7948SOL    HW135303   4.478   0.634   6.103 -3.1380 -1.2273 -0.8401
 7948SOL    HW235304   4.538   0.629   5.966  1.3189 -0.5217 -0.2145
 7949SOL     OW35305   2.733   2.707   2.135  0.0316 -0.9008  0.2762
 7949SOL    HW135306   2.721   2.616   2.109  2.5709 -0.4953 -2.3475
 7949SOL    HW235307   2.673   2.713   2.209 -0.7182 -0.3748 -0.3864
 7950SOL     OW35308   2.445   4.509   6.618  0.3323  0.4479  0.5200
 7950SOL    HW135309   2.451   4.422   6.579 -3.0237  0.9537 -1.1700
 7950SOL    HW235310   2.388   4.479   6.689  0.9725  1.2224  1.3530
 7951SOL     OW35311   3.265   3.550  17.129  0.4390  0.0011 -0.0286
 7951SOL    HW135312   3.202   3.554  17.201  0.2471 -0.0161 -0.1941
 7951SOL    HW235313   3.282   3.456  17.137  0.0263 -0.1279 -0.7082
 7952SOL     OW35314   0.218   0.786  10.467  0.5145 -0.7622 -0.3496
 7952SOL    HW135315   0.166   0.792  10.547  0.8447  1.1967 -0.2911
 7952SOL    HW235316   0.255   0.874  10.469  1.9099 -1.3905  1.1398
 7953SOL     OW35317   0.685   3.890   3.744 -1.2458  0.0051  0.5646
 7953SOL    HW135318   0.604   3.855   3.707 -0.1641  0.3012 -2.0876
 7953SOL    HW235319   0.714   3.946   3.671  3.3706 -3.1022  0.0145
 7954SOL     OW35320   0.197   3.934   6.935 -0.6135 -0.3171 -0.6210
 7954SOL    HW135321   0.124   3.905   6.990  0.8925 -0.3668  1.3636
 7954SOL    HW235322   0.185   3.871   6.864 -0.0952  0.0884 -1.0622
 7955SOL     OW35323   0.273   1.986  15.529 -0.4325  0.2773  0.0366
 7955SOL    HW135324   0.303   2.078  15.534  2.4163 -0.6746  0.8109
 7955SOL    HW235325   0.205   1.993  15.463  1.0471 -1.5432 -1.6579
 7956SOL     OW35326   0.653   2.949   6.333  0.0757  0.4438 -0.0158
 7956SOL    HW135327   0.722   2.965   6.268  0.3322  0.5214  0.2766
 7956SOL    HW235328   0.661   2.854   6.326  1.8249  0.7318 -1.9956
 7957SOL     OW35329   3.627   2.395  15.393 -0.2031  0.4185  0.2071
 7957SOL    HW135330   3.647   2.395  15.299 -1.0119 -0.4207  0.0294
 7957SOL    HW235331   3.531   2.394  15.400 -0.2360 -0.6884 -0.5076
 7958SOL     OW35332   4.572   2.224   8.991 -0.0062  0.0891  0.5857
 7958SOL    HW135333   4.519   2.179   9.057  0.3230  0.1081  0.8649
 7958SOL    HW235334   4.505   2.262   8.934  0.9152  0.6074 -0.1494
 7959SOL     OW35335   4.496   3.331   8.703  0.0694 -0.1093  0.1182
 7959SOL    HW135336   4.466   3.421   8.714  0.0912 -0.1875  0.8477
 7959SOL    HW235337   4.534   3.322   8.790 -0.4373  0.3945  0.3909
 7960SOL     OW35338   4.205   1.730  17.019  0.2773 -0.0807  0.4074
 7960SOL    HW135339   4.191   1.808  17.072  4.1177  1.2510 -0.4889
 7960SOL    HW235340   4.132   1.677  17.049  0.3986  0.2726  1.3135
 7961SOL     OW35341   3.166   3.211   0.451  0.3658 -0.2999 -0.2179
 7961SOL    HW135342   3.108   3.208   0.527 -0.4537 -3.5483 -1.0015
 7961SOL    HW235343   3.247   3.170   0.481  1.7709  2.5253 -0.0483
 7962SOL     OW35344   3.503   2.458  13.420 -0.0772 -0.5994 -0.0581
 7962SOL    HW135345   3.464   2.458  13.333  0.3998  1.2234 -0.2564
 7962SOL    HW235346   3.590   2.497  13.412 -0.4199 -0.2178 -1.8372
 7963SOL     OW35347   0.114   0.442   1.710  0.1736  0.0217 -0.1741
 7963SOL    HW135348   0.162   0.429   1.629 -2.3180  1.4266 -1.8960
 7963SOL    HW235349   0.175   0.425   1.782 -0.7897 -1.2838  0.3333
 7964SOL     OW35350   4.069   3.118  17.539  0.5082  0.4686 -0.3086
 7964SOL    HW135351   4.151   3.096  17.495 -0.1174 -0.2197 -1.1192
 7964SOL    HW235352   4.005   3.068  17.489 -0.3035 -0.4233  1.6037
 7965SOL     OW35353   3.602   1.541   7.332 -0.1550  0.2313 -0.2301
 7965SOL    HW135354   3.642   1.473   7.386 -0.2886 -1.9228 -2.8056
 7965SOL    HW235355   3.599   1.615   7.392  0.7674  0.1767 -0.1173
 7966SOL     OW35356   4.065   0.353  14.624  0.5125 -0.2326 -0.2065
 7966SOL    HW135357   4.154   0.379  14.598  0.8198  0.7772  1.8968
 7966SOL    HW235358   4.052   0.285  14.558  0.3374  1.2101 -1.6632
 7967SOL     OW35359   3.748   2.999   1.994  0.5338  0.5052 -0.2315
 7967SOL    HW135360   3.717   2.935   1.931 -0.7569 -0.3275  1.2414
 7967SOL    HW235361   3.803   3.056   1.941  0.7827 -0.6909 -1.2315
 7968SOL     OW35362   4.395   0.010   6.403 -0.3966 -0.0779 -0.0923
 7968SOL    HW135363   4.388   0.036   6.311 -2.2180  1.4264  0.4834
 7968SOL    HW235364   4.486   4.700   6.404 -0.3285  0.1327  0.4609
 7969SOL     OW35365   0.275   3.176   7.864 -0.7193 -0.3666  0.0513
 7969SOL    HW135366   0.280   3.112   7.935 -0.7166  0.7629  1.0787
 7969SOL    HW235367   0.336   3.129   7.807  0.1854  1.1635 -0.2488
 7970SOL     OW35368   0.926   3.951   3.873  0.2728 -0.6813  0.4751
 7970SOL    HW135369   0.943   3.998   3.954 -1.1892  1.9609 -0.7679
 7970SOL    HW235370   0.853   3.993   3.828 -0.4331 -3.6452 -1.1348
 7971SOL     OW35371   0.074   3.098   9.838 -0.1171 -0.1666 -0.2804
 7971SOL    HW135372   0.037   3.175   9.883 -1.6691 -2.0158  1.5766
 7971SOL    HW235373   0.100   3.128   9.751  1.2556  0.7124  0.4298
 7972SOL     OW35374   0.722   4.457   2.486 -0.4274  0.0806  0.0403
 7972SOL    HW135375   0.701   4.420   2.401 -1.1102  0.0825  0.2093
 7972SOL    HW235376   0.672   4.538   2.484 -1.7788 -0.7783 -0.7970
 7973SOL     OW35377   1.417   4.463  13.327  0.5581  0.5208 -0.0700
 7973SOL    HW135378   1.393   4.518  13.252 -2.4799  0.3065  0.7510
 7973SOL    HW235379   1.406   4.533  13.392  2.2291  2.4727 -1.8517
 7974SOL     OW35380   3.658   4.230   4.040 -0.3589  0.2759 -0.4340
 7974SOL    HW135381   3.588   4.273   3.991  1.2470  1.5339 -1.5951
 7974SOL    HW235382   3.722   4.231   3.970  1.3438 -1.9446  1.0986
 7975SOL     OW35383   2.906   2.538   5.864 -0.5893 -0.2712 -0.0842
 7975SOL    HW135384   2.929   2.532   5.771  2.0202  0.5270  0.5214
 7975SOL    HW235385   2.944   2.455   5.893  0.0434 -0.0938 -0.3988
 7976SOL     OW35386   2.351   0.470   2.051 -0.5026  0.3292  0.4532
 7976SOL    HW135387   2.439   0.490   2.084 -0.3883 -1.9600  1.5697
 7976SOL    HW235388   2.339   0.387   2.097 -0.7941 -0.1224 -0.4397
 7977SOL     OW35389   0.068   3.751  12.972  0.0478 -0.2300  0.0295
 7977SOL    HW135390   0.085   3.687  13.041  1.1955  1.3251  1.2047
 7977SOL    HW235391   0.140   3.814  12.977 -1.7416  1.6530  2.2185
 7978SOL     OW35392   4.214   0.494   1.820  0.0055 -0.0396 -0.2776
 7978SOL    HW135393   4.173   0.496   1.734 -0.6398 -1.2172  0.0170
 7978SOL    HW235394   4.170   0.422   1.865  2.1828  0.3003  2.3960
 7979SOL     OW35395   1.274   1.667   5.626  0.8042  0.3116  0.0390
 7979SOL    HW135396   1.262   1.577   5.596 -4.3900  0.8680  0.3399
 7979SOL    HW235397   1.191   1.680   5.672  0.4174 -1.1164 -0.2490
 7980SOL     OW35398   3.985   3.218   6.712 -0.5543  0.8306  0.4364
 7980SOL    HW135399   3.919   3.285   6.696  0.7309  1.6828 -1.3009
 7980SOL    HW235400   4.066   3.268   6.713 -0.0506 -0.0338  2.0801
 7981SOL     OW35401   3.103   3.551  17.344  0.1184 -0.1792  0.3532
 7981SOL    HW135402   3.028   3.503  17.378  0.2991 -0.8090 -0.1280
 7981SOL    HW235403   3.084   3.637  17.381  0.7685 -0.4149  1.2456
 7982SOL     OW35404   4.167   4.212  13.550 -0.4486  0.0086  0.8484
 7982SOL    HW135405   4.182   4.127  13.510  4.0003  2.1036 -2.0671
 7982SOL    HW235406   4.073   4.212  13.536 -0.1629  2.0400 -1.1061
 7983SOL     OW35407   3.508   3.314   5.710 -0.2284 -0.7157 -0.1108
 7983SOL    HW135408   3.568   3.380   5.746 -1.3982 -0.0547  0.6259
 7983SOL    HW235409   3.565   3.295   5.635 -0.1534  0.2499 -0.3027
 7984SOL     OW35410   4.413   1.653   6.483  0.3232 -0.3526 -0.0180
 7984SOL    HW135411   4.454   1.576   6.523  1.2408 -0.8837 -1.9889
 7984SOL    HW235412   4.390   1.701   6.562 -1.7366 -0.7910 -0.3488
 7985SOL     OW35413   3.983   1.230  14.647 -0.2442 -0.1341  0.5212
 7985SOL    HW135414   4.030   1.272  14.719 -0.2183  1.2683 -0.3199
 7985SOL    HW235415   3.896   1.214  14.685  1.0802 -2.3105  2.7203
 7986SOL     OW35416   1.725   2.115   8.632  0.2989 -0.3007  1.0074
 7986SOL    HW135417   1.707   2.021   8.646  1.9860 -0.5682  1.3131
 7986SOL    HW235418   1.804   2.133   8.682  2.3190 -2.1631 -1.5315
 7987SOL     OW35419   4.066   1.988  16.745 -0.0417  0.3501 -0.0481
 7987SOL    HW135420   4.016   1.959  16.669 -0.2592 -0.3113  0.3522
 7987SOL    HW235421   3.999   2.019  16.805  0.4749  1.0420  0.1779
 7988SOL     OW35422   3.710   1.262   2.883 -0.3289 -0.1265  0.0345
 7988SOL    HW135423   3.754   1.271   2.799 -0.3639 -2.0546 -0.1852
 7988SOL    HW235424   3.727   1.169   2.899  0.7703  0.1975  0.7660
 7989SOL     OW35425   0.633   2.645   3.041 -0.3497 -0.4526 -0.0414
 7989SOL    HW135426   0.559   2.640   3.103 -0.5256  0.7216 -0.1528
 7989SOL    HW235427   0.593   2.709   2.982  0.6930  0.3283  0.1058
 7990SOL     OW35428   3.939   0.834   5.038 -0.1789  0.1647  0.0267
 7990SOL    HW135429   3.878   0.765   5.010 -0.0810 -0.7506  2.0745
 7990SOL    HW235430   3.931   0.812   5.131  0.8519 -1.6715 -0.2956
 7991SOL     OW35431   2.230   0.888   7.658  0.5077  0.0175 -0.9839
 7991SOL    HW135432   2.295   0.837   7.707 -1.8790  0.7138  2.8820
 7991SOL    HW235433   2.169   0.816   7.641 -0.9337  1.3704 -1.4436
 7992SOL     OW35434   4.719   1.974   6.376 -0.1323 -0.0191 -0.4693
 7992SOL    HW135435   4.679   2.044   6.325 -0.6265 -1.2181 -1.7354
 7992SOL    HW235436   4.676   1.899   6.335  0.5099 -0.8200  0.3085
 7993SOL     OW35437   0.542   3.617   3.383  0.7632  0.2062 -0.2456
 7993SOL    HW135438   0.545   3.621   3.288  0.6211  2.1523 -0.1882
 7993SOL    HW235439   0.637   3.622   3.394  0.7740 -1.7460  0.5220
 7994SOL     OW35440   3.712   3.194   7.804  1.1374 -0.2514  0.0447
 7994SOL    HW135441   3.698   3.285   7.775  0.5295  0.0060  1.1668
 7994SOL    HW235442   3.650   3.149   7.747 -0.9211 -1.3238  3.1447
 7995SOL     OW35443   0.525   2.615   2.240 -0.4363 -0.3883 -0.2361
 7995SOL    HW135444   0.556   2.651   2.157  1.0957  1.1434  1.0040
 7995SOL    HW235445   0.477   2.538   2.210 -0.0036  0.1257 -2.2187
 7996SOL     OW35446   3.125   4.550   4.729 -0.3554 -0.5300  0.5018
 7996SOL    HW135447   3.166   4.636   4.725 -0.3360 -0.5608  0.0980
 7996SOL    HW235448   3.163   4.511   4.651 -2.6219 -3.0424  0.6214
 7997SOL     OW35449   3.571   2.877   5.363 -0.6654 -0.3130 -0.1936
 7997SOL    HW135450   3.635   2.828   5.414 -1.7092 -1.9638 -0.4940
 7997SOL    HW235451   3.625   2.921   5.297  0.8370 -2.2168 -0.2268
 7998SOL     OW35452   1.870   4.417  10.085  0.1744  0.1595 -0.1984
 7998SOL    HW135453   1.868   4.502  10.041 -1.5418 -0.3326 -1.0573
 7998SOL    HW235454   1.783   4.384  10.065  0.1650 -0.9220  1.7164
 7999SOL     OW35455   0.858   1.888   1.159 -0.0008  0.1370 -0.0410
 7999SOL    HW135456   0.949   1.916   1.168 -0.3993  0.7921  1.8307
 7999SOL    HW235457   0.823   1.911   1.245  0.7205  2.2563 -0.3005
 8000SOL     OW35458   1.918   2.717   3.469  0.2463 -0.1027 -0.0123
 8000SOL    HW135459   1.990   2.774   3.442 -1.4559  3.0279  1.9353
 8000SOL    HW235460   1.917   2.741   3.562  1.7604  1.4391 -0.3915
 8001SOL     OW35461   1.058   2.349  12.002 -0.1771  0.3146  0.2748
 8001SOL    HW135462   1.110   2.272  11.981  1.0166  0.7177  1.7506
 8001SOL    HW235463   1.096   2.413  11.942  0.7413 -2.6404 -2.2588
 8002SOL     OW35464   2.799   1.622   8.634 -0.0776 -0.7502 -0.2927
 8002SOL    HW135465   2.713   1.640   8.672  0.4813 -0.9557  1.0999
 8002SOL    HW235466   2.799   1.526   8.636  2.2831 -0.7295  1.3427
 8003SOL     OW35467   1.982   4.378   0.389 -0.3232 -0.3426  0.1676
 8003SOL    HW135468   1.991   4.328   0.308  1.3278  2.3990 -1.3545
 8003SOL    HW235469   1.886   4.389   0.392 -0.2132 -0.3218  2.9219
 8004SOL     OW35470   2.809   3.488   0.655  0.3738  0.0720  0.3031
 8004SOL    HW135471   2.857   3.471   0.574 -1.2026 -2.3113 -0.1401
 8004SOL    HW235472   2.782   3.399   0.674  0.0309 -0.2240 -1.5167
 8005SOL     OW35473   1.597   2.220  15.636 -0.0717 -0.3057 -0.0864
 8005SOL    HW135474   1.516   2.184  15.670 -0.0103 -0.2218  0.1461
 8005SOL    HW235475   1.556   2.281  15.575  0.7846  0.2501 -0.1056
 8006SOL     OW35476   2.102   3.824   2.709 -0.5089 -0.0942 -0.0330
 8006SOL    HW135477   2.176   3.881   2.729 -0.6873  0.7452 -1.8183
 8006SOL    HW235478   2.117   3.763   2.781 -1.3195 -1.3113 -0.8861
 8007SOL     OW35479   0.232   1.202   5.204 -0.1966  0.2167 -0.5049
 8007SOL    HW135480   0.325   1.222   5.213  0.1495 -0.9756 -1.3550
 8007SOL    HW235481   0.191   1.272   5.256  0.4311 -0.5379  1.0018
 8008SOL     OW35482   3.884   3.107   3.396 -0.4226 -0.0278  0.2424
 8008SOL    HW135483   3.877   3.072   3.485  0.0929 -0.9575 -0.0841
 8008SOL    HW235484   3.975   3.090   3.371 -0.9083 -1.4259 -0.5709
 8009SOL     OW35485   2.444   0.980   4.376 -0.3160 -0.0202  0.1104
 8009SOL    HW135486   2.353   0.979   4.404 -0.1449 -0.1713  0.6543
 8009SOL    HW235487   2.469   1.072   4.371 -1.0265  0.1619 -0.0813
 8010SOL     OW35488   1.259   0.866  14.722  0.0001  0.0374 -0.2760
 8010SOL    HW135489   1.222   0.905  14.643  0.1967  0.7347 -0.0230
 8010SOL    HW235490   1.181   0.825  14.759 -0.6837  0.9995 -0.6720
 8011SOL     OW35491   3.926   2.042  15.805  0.2702  0.2351  0.0240
 8011SOL    HW135492   3.875   2.101  15.749 -2.1307 -1.8288  0.0223
 8011SOL    HW235493   3.858   2.013  15.866  0.1099  0.7378  0.0859
 8012SOL     OW35494   0.560   1.310   3.935 -0.2011 -0.5003  0.2993
 8012SOL    HW135495   0.504   1.353   4.000  0.8193  0.8283  0.2952
 8012SOL    HW235496   0.642   1.333   3.978 -0.3964  1.2672 -0.2513
 8013SOL     OW35497   2.358   3.215  16.995 -0.1666 -0.5391  0.8399
 8013SOL    HW135498   2.323   3.127  17.013  0.3861 -0.9320 -0.0383
 8013SOL    HW235499   2.384   3.249  17.080  1.5807  0.2306 -0.0227
 8014SOL     OW35500   1.127   0.979   5.811 -0.3461 -0.3523  0.3711
 8014SOL    HW135501   1.174   1.022   5.882  0.4233 -0.0302 -0.3429
 8014SOL    HW235502   1.193   0.912   5.795  0.6797 -0.0607  3.3928
 8015SOL     OW35503   0.135   0.464   5.804 -0.5054 -0.0544  0.2095
 8015SOL    HW135504   0.068   0.522   5.840 -1.4868 -0.4337 -1.0071
 8015SOL    HW235505   0.103   0.428   5.721 -2.5765  0.7504  0.6603
 8016SOL     OW35506   4.010   4.635   7.107 -0.4077 -0.4715  0.7544
 8016SOL    HW135507   4.094   4.591   7.095  0.2547  0.8377  0.5502
 8016SOL    HW235508   4.009   4.647   7.202  0.2194 -0.2697  0.7356
 8017SOL     OW35509   1.924   0.152   8.527 -0.7771  0.4406 -0.6381
 8017SOL    HW135510   1.867   0.227   8.546 -1.4850 -0.8887  2.5655
 8017SOL    HW235511   1.995   0.172   8.589 -1.4675 -2.1135  0.9720
 8018SOL     OW35512   2.900   4.685   9.604 -0.3406 -0.7694  0.0062
 8018SOL    HW135513   2.811   4.703   9.574  0.2002  1.2362 -0.3882
 8018SOL    HW235514   2.949   4.680   9.522 -1.0803 -1.2861 -0.4051
 8019SOL     OW35515   4.564   0.515  17.234 -0.0411  0.1455 -0.2081
 8019SOL    HW135516   4.656   0.491  17.245 -0.2620  0.1504  1.5958
 8019SOL    HW235517   4.541   0.469  17.153 -0.3036 -2.6902  1.4691
 8020SOL     OW35518   1.502   4.576   2.389 -0.5546  0.3813 -0.5373
 8020SOL    HW135519   1.525   4.500   2.442 -0.9662  0.8417  0.3004
 8020SOL    HW235520   1.437   4.533   2.333 -1.7393 -0.6012  1.5849
 8021SOL     OW35521   3.082   1.749  16.901  0.0939  0.3244  0.2620
 8021SOL    HW135522   3.157   1.807  16.916 -0.1705  0.4827  0.9693
 8021SOL    HW235523   3.140   1.673  16.911  0.6360  0.4601 -1.7650
 8022SOL     OW35524   2.663   0.746  14.589  0.1400 -0.2721 -0.6003
 8022SOL    HW135525   2.589   0.801  14.613 -0.7127 -0.4278 -2.8497
 8022SOL    HW235526   2.622   0.694  14.520 -1.3350 -2.5685  2.0055
 8023SOL     OW35527   2.459   1.691   5.085 -0.0398  0.1242  0.2606
 8023SOL    HW135528   2.421   1.606   5.062  1.7094 -0.7050  0.4561
 8023SOL    HW235529   2.547   1.655   5.090  0.6210  1.5497 -0.9980
 8024SOL     OW35530   1.719   3.864   8.500  0.1360 -0.2785  0.1726
 8024SOL    HW135531   1.645   3.924   8.506  0.9756  1.0003 -1.9348
 8024SOL    HW235532   1.670   3.783   8.511  1.0868 -1.2369 -2.4602
 8025SOL     OW35533   1.824   3.694  14.049  0.4723 -0.1208  0.1884
 8025SOL    HW135534   1.852   3.627  13.987 -0.4259  1.3723 -1.8202
 8025SOL    HW235535   1.742   3.664  14.087  0.4375 -0.7887 -0.4175
 8026SOL     OW35536   3.141   1.917   2.628  0.2591 -0.3511  0.3236
 8026SOL    HW135537   3.091   1.874   2.698  0.3076  0.3505  0.7785
 8026SOL    HW235538   3.187   1.987   2.674  0.7448 -0.4629  0.0142
 8027SOL     OW35539   3.085   2.600  16.124 -0.6243 -0.1941 -0.5265
 8027SOL    HW135540   3.020   2.604  16.054  1.1542  2.3177 -2.0538
 8027SOL    HW235541   3.141   2.670  16.091 -3.2578  1.9061 -0.5469
 8028SOL     OW35542   0.506   0.110   1.707  0.5736  0.1478 -1.0270
 8028SOL    HW135543   0.517   0.205   1.717 -2.6353  0.2679  1.2756
 8028SOL    HW235544   0.443   0.100   1.635 -0.5300 -0.2829  0.0169
 8029SOL     OW35545   3.172   3.840  14.670 -0.7985 -0.2771  0.0973
 8029SOL    HW135546   3.248   3.788  14.641  0.8233  1.6730  0.8782
 8029SOL    HW235547   3.213   3.924  14.690 -2.6265  0.4279  0.8179
 8030SOL     OW35548   2.008   1.896   5.331 -0.1484 -0.4472  0.1434
 8030SOL    HW135549   2.052   1.824   5.376 -0.8843  0.1531  1.8110
 8030SOL    HW235550   2.086   1.945   5.308  2.1046 -2.8858  2.6009
 8031SOL     OW35551   3.481   2.359   2.846  0.2484  0.3274  0.9424
 8031SOL    HW135552   3.554   2.325   2.898  0.7089 -0.1055  0.0188
 8031SOL    HW235553   3.475   2.292   2.778 -2.2407  2.1831 -0.6679
 8032SOL     OW35554   1.787   3.285  14.674  0.3473 -0.2512  0.1507
 8032SOL    HW135555   1.864   3.330  14.709  0.0629  0.6863 -0.4347
 8032SOL    HW235556   1.740   3.354  14.628 -2.6044 -3.3992 -1.5762
 8033SOL     OW35557   1.850   1.258   2.187  0.1402 -0.3891 -0.0052
 8033SOL    HW135558   1.772   1.214   2.222 -0.3332  0.3813 -0.1116
 8033SOL    HW235559   1.920   1.229   2.247  0.8590  0.7423 -0.2981
 8034SOL     OW35560   3.061   0.084   2.894 -0.5110 -0.4068 -0.1627
 8034SOL    HW135561   3.047   0.178   2.899  1.7569 -0.1753  1.7081
 8034SOL    HW235562   2.971   0.053   2.888 -0.3268 -0.7993 -1.0158
 8035SOL     OW35563   3.726   2.330   1.129 -0.2136 -0.4501  1.1002
 8035SOL    HW135564   3.786   2.261   1.100  0.7319 -0.2821  2.6523
 8035SOL    HW235565   3.760   2.400   1.074 -1.2214 -1.4861 -0.8266
 8036SOL     OW35566   1.987   0.740   2.730  0.3661 -0.4164  0.4777
 8036SOL    HW135567   1.920   0.805   2.751 -0.5655 -0.4949 -2.2385
 8036SOL    HW235568   2.058   0.802   2.713  0.8298 -1.3872 -1.1417
 8037SOL     OW35569   1.467   2.244   3.486  0.0822  0.3577  0.5574
 8037SOL    HW135570   1.490   2.281   3.401 -0.8395 -0.3360  0.0157
 8037SOL    HW235571   1.420   2.163   3.467  0.3392  0.2227  0.4999
 8038SOL     OW35572   0.931   2.427   2.436  0.8017 -0.1529  0.3730
 8038SOL    HW135573   0.884   2.367   2.379 -1.2240  0.6705  1.1902
 8038SOL    HW235574   0.869   2.500   2.436  1.3607  0.3322 -0.5735
 8039SOL     OW35575   0.386   4.700   4.061 -0.0634  0.5457  0.1041
 8039SOL    HW135576   0.402   4.702   3.966 -0.3674 -0.9752  0.0210
 8039SOL    HW235577   0.475   4.691   4.095 -0.8974 -2.6298  1.4691
 8040SOL     OW35578   1.498   2.241   5.233 -0.1693  0.2222 -0.2321
 8040SOL    HW135579   1.487   2.146   5.231 -1.8192  0.3488  2.0951
 8040SOL    HW235580   1.436   2.269   5.300  1.3542  0.7066  0.9866
 8041SOL     OW35581   2.718   4.666   1.595 -1.1294  0.0029  0.3903
 8041SOL    HW135582   2.796   4.712   1.563 -1.2382 -0.2540 -0.2590
 8041SOL    HW235583   2.651   4.709   1.542  0.5623  0.9575 -0.9885
 8042SOL     OW35584   0.304   4.639   0.112 -0.4183  0.7232 -0.4897
 8042SOL    HW135585   0.213   4.644   0.141  0.0282 -0.9107  1.2070
 8042SOL    HW235586   0.348   4.602   0.189 -2.3088  1.3370  0.8837
 8043SOL     OW35587   3.212   2.430   4.456 -0.3715  0.0393  0.3210
 8043SOL    HW135588   3.131   2.413   4.504 -1.3688 -0.7605 -1.6690
 8043SOL    HW235589   3.183   2.507   4.406  0.8303  0.2534 -0.0672
 8044SOL     OW35590   3.749   1.517   3.604  0.8825 -0.6732 -0.2103
 8044SOL    HW135591   3.748   1.524   3.700  1.2077 -1.6506 -0.1304
 8044SOL    HW235592   3.654   1.518   3.593  0.7247 -0.4361  1.1066
 8045SOL     OW35593   4.197   1.597   8.476 -0.2656 -0.0288  0.2548
 8045SOL    HW135594   4.169   1.523   8.530  1.2464 -0.0722  0.9952
 8045SOL    HW235595   4.288   1.620   8.497 -0.4907 -0.4636  1.6979
 8046SOL     OW35596   2.725   1.133   8.724  0.3904 -0.0767 -0.0483
 8046SOL    HW135597   2.663   1.183   8.777  0.6118  0.1772 -0.0289
 8046SOL    HW235598   2.672   1.075   8.669  1.0346 -1.1571  0.4734
 8047SOL     OW35599   1.192   2.661   6.933 -0.0504 -0.0632 -0.6094
 8047SOL    HW135600   1.128   2.617   6.877 -1.0879  1.2468 -0.4545
 8047SOL    HW235601   1.141   2.669   7.014  0.9260 -0.2149  0.0181
 8048SOL     OW35602   3.009   3.352   5.337  0.2650  0.8756 -0.2819
 8048SOL    HW135603   2.997   3.354   5.432  1.6616 -0.1184 -0.0898
 8048SOL    HW235604   3.033   3.444   5.338  1.3211  0.6043  0.6791
 8049SOL     OW35605   2.280   0.863   3.720 -0.2079 -0.3288  0.2876
 8049SOL    HW135606   2.368   0.826   3.720 -0.5633 -1.1899  1.9055
 8049SOL    HW235607   2.277   0.935   3.657 -2.3827 -1.5414 -0.9689
 8050SOL     OW35608   3.856   3.787   8.747  0.6996 -0.1265 -0.6275
 8050SOL    HW135609   3.887   3.832   8.825 -0.6903  2.1178 -1.3435
 8050SOL    HW235610   3.813   3.860   8.701 -0.9537  0.1055  1.2706
 8051SOL     OW35611   2.231   2.267   4.843 -0.2485  0.4913  0.4058
 8051SOL    HW135612   2.201   2.221   4.764 -0.2049  0.2301  0.5408
 8051SOL    HW235613   2.149   2.286   4.886 -0.6923  0.1318 -0.2785
 8052SOL     OW35614   3.331   1.793  13.745  0.0703  0.3052  0.2818
 8052SOL    HW135615   3.269   1.730  13.709  0.0261  0.9713 -0.7839
 8052SOL    HW235616   3.360   1.831  13.662 -0.2470 -0.4478 -0.1710
 8053SOL     OW35617   3.841   3.748   6.862 -0.1090 -0.2150  0.6967
 8053SOL    HW135618   3.812   3.677   6.919 -1.7922 -0.7231 -0.7730
 8053SOL    HW235619   3.786   3.819   6.896  0.5619  0.5523  0.1878
 8054SOL     OW35620   4.492   3.124   2.229 -0.3927 -0.3441 -0.5697
 8054SOL    HW135621   4.474   3.077   2.311 -0.6698  0.2887 -0.2656
 8054SOL    HW235622   4.587   3.111   2.228 -0.3769 -0.1462 -1.2517
 8055SOL     OW35623   3.396   3.400  15.259  0.1349 -0.8689  0.4248
 8055SOL    HW135624   3.455   3.409  15.185 -0.0341  1.7780  0.6012
 8055SOL    HW235625   3.383   3.493  15.277 -1.1212 -1.1071  0.7325
 8056SOL     OW35626   4.035   2.083  16.192 -0.3324 -0.6423 -0.8622
 8056SOL    HW135627   4.130   2.073  16.201 -0.3670 -1.3993 -1.3199
 8056SOL    HW235628   4.007   2.105  16.281 -1.7733 -2.5036 -0.8455
 8057SOL     OW35629   0.116   2.450  10.800  0.0313 -0.0924 -0.4869
 8057SOL    HW135630   0.100   2.443  10.894 -0.8113 -1.6198 -0.7557
 8057SOL    HW235631   0.124   2.357  10.781  0.2447 -0.1141 -0.2858
 8058SOL     OW35632   2.819   2.137   8.689 -0.4931 -0.0074 -0.7023
 8058SOL    HW135633   2.798   2.050   8.723  1.1116 -0.2367 -0.2858
 8058SOL    HW235634   2.911   2.139   8.661 -0.5351  0.7865 -0.7725
 8059SOL     OW35635   1.297   3.546   6.063 -0.1828 -0.3543  0.2930
 8059SOL    HW135636   1.233   3.614   6.044  0.1451 -0.4251 -1.0960
 8059SOL    HW235637   1.254   3.490   6.128 -0.8454  0.0491  0.1967
 8060SOL     OW35638   0.005   0.395   3.666  0.3723 -0.0811  0.1721
 8060SOL    HW135639   0.094   0.396   3.630  0.8313  2.0226  1.3418
 8060SOL    HW235640   4.706   0.487   3.647 -0.2238 -0.6769 -2.0610
 8061SOL     OW35641   0.821   4.452   6.957 -0.3860  0.3353 -0.8928
 8061SOL    HW135642   0.879   4.527   6.940 -0.4925  1.0457  1.8191
 8061SOL    HW235643   0.807   4.432   6.865 -0.4239 -2.6170 -0.2299
 8062SOL     OW35644   0.078   2.304   8.777  0.7627 -0.1963  0.1225
 8062SOL    HW135645   0.007   2.368   8.784  2.2597  1.4461  0.3691
 8062SOL    HW235646   0.150   2.361   8.804  1.1622 -0.1758 -0.9550
 8063SOL     OW35647   2.105   1.687   7.696  0.5800  0.2932 -0.1440
 8063SOL    HW135648   2.163   1.639   7.755  1.5102 -0.0824 -1.3662
 8063SOL    HW235649   2.168   1.754   7.668  1.5510 -0.7093 -0.3377
 8064SOL     OW35650   1.727   1.827   4.418 -0.0749 -0.1872  0.4895
 8064SOL    HW135651   1.807   1.820   4.471 -0.6378 -0.4589  1.2965
 8064SOL    HW235652   1.766   1.811   4.331  1.7916 -1.3001  1.5185
 8065SOL     OW35653   1.897   4.653  14.744 -0.5011 -0.3497 -0.6165
 8065SOL    HW135654   1.965   4.684  14.684  0.1560 -1.5604 -0.5089
 8065SOL    HW235655   1.942   4.677  14.824  0.0218  0.1263 -1.0525
 8066SOL     OW35656   2.957   4.069  14.555  0.2473 -0.5655 -0.3031
 8066SOL    HW135657   2.974   4.154  14.596 -1.1102 -0.0920 -0.7310
 8066SOL    HW235658   2.930   4.098  14.468  0.5750 -0.8834 -0.5081
 8067SOL     OW35659   0.652   2.395   2.021 -0.3817 -0.2530 -0.1094
 8067SOL    HW135660   0.641   2.455   1.947 -3.6901 -1.7472 -0.8739
 8067SOL    HW235661   0.563   2.397   2.058 -0.3591  1.6729 -0.1771
 8068SOL     OW35662   0.055   0.090   7.704 -0.3197  0.5662  0.2548
 8068SOL    HW135663   0.067   4.720   7.677 -0.9095  0.0866  1.6255
 8068SOL    HW235664   0.140   0.128   7.679  1.7542 -2.2215  3.0823
 8069SOL     OW35665   1.177   0.013   8.968  0.3218 -0.1477  0.5271
 8069SOL    HW135666   1.272   0.011   8.957  0.2448  0.2964 -0.2139
 8069SOL    HW235667   1.152   0.071   8.896  0.4798  0.0790  0.6540
 8070SOL     OW35668   4.500   3.140  17.523  0.4656 -0.2306 -0.5798
 8070SOL    HW135669   4.452   3.183  17.453 -1.6507 -1.0189  0.3768
 8070SOL    HW235670   4.539   3.072  17.468 -0.5172  1.1231 -2.9087
 8071SOL     OW35671   1.248   2.667  15.300  0.0988 -0.1264 -0.2862
 8071SOL    HW135672   1.155   2.681  15.283  0.2359  1.5223  0.2748
 8071SOL    HW235673   1.298   2.747  15.280 -0.8605  0.8463  1.2610
 8072SOL     OW35674   2.947   3.756   1.540 -0.0976  0.0246  0.3560
 8072SOL    HW135675   3.023   3.803   1.505  0.2959 -0.7312  0.2041
 8072SOL    HW235676   2.966   3.747   1.633  0.8446  3.0727  0.4453
 8073SOL     OW35677   0.919   1.184   2.144  0.1420  0.6838  0.4469
 8073SOL    HW135678   0.996   1.183   2.088 -1.2961  1.0886 -1.5573
 8073SOL    HW235679   0.868   1.256   2.108 -0.5200  0.0011  0.0054
 8074SOL     OW35680   3.170   1.010   3.883 -0.3382  0.1946  0.2229
 8074SOL    HW135681   3.260   1.022   3.915  0.3709 -1.8042 -1.0108
 8074SOL    HW235682   3.124   0.994   3.965 -0.2096  0.1595  0.2880
 8075SOL     OW35683   4.143   4.529  10.037  0.2810 -0.0117  0.3256
 8075SOL    HW135684   4.203   4.566  10.102 -0.6878  2.6744 -0.3455
 8075SOL    HW235685   4.203   4.469   9.991  1.8402  0.7155  1.4008
 8076SOL     OW35686   4.502   3.813  17.230  0.2443  0.0415  0.2989
 8076SOL    HW135687   4.482   3.826  17.323  0.4207 -1.0177  0.4820
 8076SOL    HW235688   4.543   3.896  17.205  1.8029 -1.6617 -2.7503
 8077SOL     OW35689   2.738   1.992   6.923 -0.1884  0.4357 -0.7663
 8077SOL    HW135690   2.753   1.908   6.880  1.7945  0.6782 -0.5191
 8077SOL    HW235691   2.808   2.051   6.895 -1.9963  1.5272 -3.0513
 8078SOL     OW35692   0.765   2.842   3.833 -0.0084  0.1130 -0.2839
 8078SOL    HW135693   0.800   2.798   3.755 -0.9680  0.7984 -1.0959
 8078SOL    HW235694   0.777   2.933   3.804  1.4814 -0.0453 -0.1835
 8079SOL     OW35695   2.391   3.067   4.796  0.4717  0.4738  0.3913
 8079SOL    HW135696   2.414   3.159   4.787 -0.4701  0.7310  0.6373
 8079SOL    HW235697   2.435   3.049   4.879 -0.1699  0.7359  0.7872
 8080SOL     OW35698   0.479   1.777  10.945  0.0242 -0.3968  0.1249
 8080SOL    HW135699   0.548   1.722  10.908  0.3652  1.5951 -2.2326
 8080SOL    HW235700   0.426   1.808  10.871  0.9856  0.7449 -0.0971
 8081SOL     OW35701   4.617   3.514   5.086  0.4569 -0.3516 -0.1283
 8081SOL    HW135702   4.573   3.537   5.004  1.1683  1.4134 -0.0299
 8081SOL    HW235703   4.706   3.550   5.074  0.5346 -0.4078  0.2985
 8082SOL     OW35704   2.598   0.876   4.649 -0.5106 -0.4751 -0.4079
 8082SOL    HW135705   2.583   0.966   4.680 -2.1463 -0.7114 -0.5302
 8082SOL    HW235706   2.586   0.903   4.558 -1.7907 -1.9356 -0.6653
 8083SOL     OW35707   0.250   2.038   5.297  0.1364 -0.0162  0.0663
 8083SOL    HW135708   0.338   2.028   5.332  0.5174  1.3470 -0.4879
 8083SOL    HW235709   0.204   1.961   5.331  1.4451 -0.7919  0.0479
 8084SOL     OW35710   0.123   4.572  14.180  0.0916 -0.1064 -0.0539
 8084SOL    HW135711   0.075   4.649  14.208  1.3671  0.2713  1.0818
 8084SOL    HW235712   0.137   4.528  14.264 -2.3499  0.5238  0.6787
 8085SOL     OW35713   4.651   4.641   6.377  0.3324  0.0293 -1.0652
 8085SOL    HW135714   4.674   4.553   6.407 -1.0791 -0.4426 -1.3821
 8085SOL    HW235715   0.018   4.668   6.351  1.3768 -1.3686  0.9352
 8086SOL     OW35716   1.833   2.417   1.011 -0.1268  0.0564 -0.8828
 8086SOL    HW135717   1.828   2.375   0.925  1.2178 -2.3128  0.1655
 8086SOL    HW235718   1.839   2.507   0.980 -0.3649  0.3629 -0.0158
 8087SOL     OW35719   0.021   3.757  16.938 -0.7128  0.1474  0.2780
 8087SOL    HW135720   4.649   3.737  16.924 -0.3906 -0.8870 -0.4102
 8087SOL    HW235721   0.049   3.724  16.853 -0.4880  4.6471 -1.4035
 8088SOL     OW35722   2.624   2.655   8.749 -0.2276  0.4642  0.3505
 8088SOL    HW135723   2.608   2.684   8.659 -0.1059 -0.4921  0.0239
 8088SOL    HW235724   2.680   2.578   8.739  0.5102  1.1124 -0.4932
 8089SOL     OW35725   4.572   1.249   4.149  0.0045 -0.2669 -0.2263
 8089SOL    HW135726   4.664   1.257   4.174 -0.5465 -0.4107  1.8603
 8089SOL    HW235727   4.558   1.155   4.160 -0.8380 -0.2348 -1.0880
 8090SOL     OW35728   2.299   1.940   8.187  0.1887 -0.0332 -0.2353
 8090SOL    HW135729   2.378   1.938   8.240  0.3925 -0.8364 -0.5721
 8090SOL    HW235730   2.231   1.904   8.244  0.6879 -0.3549  0.1593
 8091SOL     OW35731   0.837   2.177   7.670  0.0210  0.2425 -0.0125
 8091SOL    HW135732   0.895   2.177   7.595  0.4973 -0.0257  0.3590
 8091SOL    HW235733   0.843   2.084   7.690 -0.3867  0.4187  0.9744
 8092SOL     OW35734   4.135   0.565  11.575  0.2992  1.0561  0.3476
 8092SOL    HW135735   4.228   0.543  11.576 -0.0337 -0.4460 -1.7385
 8092SOL    HW235736   4.138   0.653  11.538 -1.3929  0.5200 -1.0415
 8093SOL     OW35737   2.496   2.128  16.062 -0.3677  0.1001  0.1636
 8093SOL    HW135738   2.475   2.042  16.098  2.6895 -0.8652 -0.3640
 8093SOL    HW235739   2.438   2.124  15.986 -1.3691 -0.8052  0.9769
 8094SOL     OW35740   1.797   4.116  16.508 -0.1941  0.4253 -0.0211
 8094SOL    HW135741   1.893   4.119  16.505 -0.1854  0.7919  0.5394
 8094SOL    HW235742   1.785   4.118  16.413  1.9251  0.4948 -0.2926
 8095SOL     OW35743   3.888   3.455   6.296 -0.2853  0.4013  0.3077
 8095SOL    HW135744   3.910   3.374   6.249  1.0467  0.2034  1.2709
 8095SOL    HW235745   3.961   3.467   6.356 -0.1853  1.1025  0.0495
 8096SOL     OW35746   3.553   0.795   7.633  0.1921 -0.4998 -0.2032
 8096SOL    HW135747   3.550   0.716   7.687  0.6010 -0.6026 -0.3329
 8096SOL    HW235748   3.469   0.780   7.588  0.4551  0.9201 -1.1909
 8097SOL     OW35749   1.397   4.563   7.546  0.5512  0.1525  0.0501
 8097SOL    HW135750   1.419   4.485   7.598  2.9724 -0.1020 -1.3561
 8097SOL    HW235751   1.310   4.576   7.583 -0.0508 -2.6515 -0.3243
 8098SOL     OW35752   2.167   2.776   9.508 -0.2554 -0.0859 -0.0459
 8098SOL    HW135753   2.186   2.783   9.601 -0.8166 -3.5268  0.3507
 8098SOL    HW235754   2.083   2.821   9.494  0.1777  0.8598  0.4653
 8099SOL     OW35755   3.019   1.351   9.088 -0.9875  0.5988  0.0347
 8099SOL    HW135756   3.086   1.363   9.021  0.3167 -0.8223  1.0738
 8099SOL    HW235757   2.993   1.442   9.103  0.6858  0.7333  2.0143
 8100SOL     OW35758   1.007   0.778   3.629 -0.2976  0.2064 -0.1584
 8100SOL    HW135759   0.977   0.706   3.685 -0.9607  0.2188 -0.4987
 8100SOL    HW235760   0.963   0.857   3.662  3.1791  1.1724  2.1976
 8101SOL     OW35761   3.300   1.415  10.198  0.1544  0.0914  0.0486
 8101SOL    HW135762   3.293   1.510  10.203 -0.5680  0.0632 -0.4255
 8101SOL    HW235763   3.219   1.388  10.242  2.0958 -0.4880  3.2505
 8102SOL     OW35764   2.702   1.327   2.263  0.1393  0.6657  0.7876
 8102SOL    HW135765   2.749   1.265   2.208 -0.9738  0.6671 -0.1703
 8102SOL    HW235766   2.746   1.409   2.241  1.1245  0.4562  1.9693
 8103SOL     OW35767   4.152   4.319  17.294 -0.5629 -0.6079 -0.2966
 8103SOL    HW135768   4.095   4.242  17.291 -0.3927 -0.6943 -1.2558
 8103SOL    HW235769   4.221   4.313  17.228  0.2867 -0.1055  0.5482
 8104SOL     OW35770   4.111   3.970   8.220  0.1326 -0.3962 -0.3539
 8104SOL    HW135771   4.049   4.000   8.287  1.3257 -1.5537  1.2400
 8104SOL    HW235772   4.151   4.053   8.196  1.0707  0.0744  2.8900
 8105SOL     OW35773   2.138   1.974  12.135  0.2075  0.6389 -0.4767
 8105SOL    HW135774   2.050   2.010  12.125  0.4257  1.2851 -0.0423
 8105SOL    HW235775   2.174   2.029  12.204  0.4760  1.2352 -1.0934
 8106SOL     OW35776   3.375   2.037  10.014  0.1178  0.6306  0.7139
 8106SOL    HW135777   3.285   2.043   9.985  0.4089  1.9662  0.1246
 8106SOL    HW235778   3.360   2.009  10.105  2.7988 -0.6346  0.7730
 8107SOL     OW35779   2.588   0.777  16.524 -0.2882  0.2904  0.1323
 8107SOL    HW135780   2.588   0.743  16.613 -1.7533 -0.4901 -0.1517
 8107SOL    HW235781   2.652   0.714  16.490 -0.7432 -1.1958  2.0156
 8108SOL     OW35782   1.227   0.913   5.163 -0.1881 -0.2964 -0.2831
 8108SOL    HW135783   1.267   0.827   5.181 -0.3357  0.4199  3.4228
 8108SOL    HW235784   1.191   0.939   5.248 -1.9450  0.4021 -1.2636
 8109SOL     OW35785   2.215   2.347  15.999  0.1568  0.0933 -0.4445
 8109SOL    HW135786   2.281   2.330  16.067 -0.0190 -1.5809 -0.6977
 8109SOL    HW235787   2.270   2.336  15.921  1.8223  1.9531  0.4456
 8110SOL     OW35788   4.340   2.411   6.732  0.4587 -0.1212 -0.4282
 8110SOL    HW135789   4.403   2.460   6.785  1.2993  1.2918 -2.7427
 8110SOL    HW235790   4.283   2.374   6.799  0.7252  1.0265  0.4119
 8111SOL     OW35791   0.763   1.145   4.128  0.1839 -0.6438 -0.9588
 8111SOL    HW135792   0.713   1.190   4.196 -0.4840 -1.5822 -0.8248
 8111SOL    HW235793   0.800   1.219   4.080  2.5164 -0.2020  1.5467
 8112SOL     OW35794   0.570   4.447  12.562 -0.8865  0.2696  0.4705
 8112SOL    HW135795   0.643   4.394  12.530 -2.1256 -0.4135 -1.2498
 8112SOL    HW235796   0.574   4.428  12.656 -0.7035 -1.9287  0.0193
 8113SOL     OW35797   1.677   1.317   8.650 -0.4241 -0.0728 -0.0615
 8113SOL    HW135798   1.652   1.313   8.557 -1.4124 -1.9506  0.2785
 8113SOL    HW235799   1.692   1.411   8.658 -1.5164  0.1464 -0.6139
 8114SOL     OW35800   1.304   4.190   5.459  0.1705 -0.0688 -0.0285
 8114SOL    HW135801   1.268   4.225   5.377  4.4978  1.5286 -1.2517
 8114SOL    HW235802   1.311   4.266   5.516 -3.2966  1.2263 -1.3287
 8115SOL     OW35803   1.284   1.533   8.289  0.4371  0.2366 -0.2152
 8115SOL    HW135804   1.265   1.547   8.197  1.1039 -0.4376 -0.4629
 8115SOL    HW235805   1.257   1.622   8.312  0.3760  0.6567 -1.9500
 8116SOL     OW35806   4.328   3.273   9.703  0.3282 -0.1026 -0.3148
 8116SOL    HW135807   4.237   3.304   9.697  0.1014 -0.5720  0.6830
 8116SOL    HW235808   4.341   3.263   9.609  2.0373  0.0060 -0.0879
 8117SOL     OW35809   1.862   3.590  10.097  0.4722 -0.1580  0.1691
 8117SOL    HW135810   1.937   3.531  10.099 -0.2117 -0.9956  0.8787
 8117SOL    HW235811   1.911   3.670  10.075 -0.8819  0.5720 -0.1862
 8118SOL     OW35812   0.759   1.533   3.488  0.0023 -0.1113  0.3195
 8118SOL    HW135813   0.754   1.539   3.393 -0.6461  2.9171  0.5516
 8118SOL    HW235814   0.747   1.438   3.489 -0.1931 -0.1110 -2.5239
 8119SOL     OW35815   3.390   4.063   1.421 -0.3937  0.4740  0.0412
 8119SOL    HW135816   3.484   4.060   1.404 -0.0371  0.9568  1.8493
 8119SOL    HW235817   3.382   4.126   1.493  3.2590  0.6852  0.2523
 8120SOL     OW35818   4.701   4.481   0.409 -0.8689 -0.3096  0.4043
 8120SOL    HW135819   0.063   4.471   0.455 -0.9398 -3.7919 -0.2487
 8120SOL    HW235820   4.673   4.390   0.403 -0.3699 -0.4740  0.6036
 8121SOL     OW35821   3.228   0.462  14.956 -0.2825 -0.3168  0.3121
 8121SOL    HW135822   3.205   0.552  14.931 -0.5389 -0.4077  0.2251
 8121SOL    HW235823   3.319   0.462  14.927  0.4978  1.2776  2.6977
 8122SOL     OW35824   1.726   0.098   4.931  0.0227  0.1192  0.4892
 8122SOL    HW135825   1.688   0.017   4.963 -1.8415  1.8822  2.7383
 8122SOL    HW235826   1.647   0.145   4.903  0.3456  0.5858  0.3569
 8123SOL     OW35827   1.356   3.542   6.801 -0.3542  0.1093 -0.4972
 8123SOL    HW135828   1.323   3.452   6.797 -1.6007  0.4358  1.9790
 8123SOL    HW235829   1.445   3.533   6.768  0.5589  0.4289  1.8549
 8124SOL     OW35830   2.333   0.846   6.419  0.0485  0.3371  0.3494
 8124SOL    HW135831   2.320   0.894   6.338 -2.3533 -0.4141  0.2897
 8124SOL    HW235832   2.278   0.906   6.469  0.5067  0.1694  1.0651
 8125SOL     OW35833   3.763   0.356   7.212 -0.8796  0.3931  0.6620
 8125SOL    HW135834   3.820   0.288   7.246  0.1955  1.1725  0.4348
 8125SOL    HW235835   3.743   0.316   7.128 -0.1731 -0.4692  0.9165
 8126SOL     OW35836   2.468   1.096   7.910  0.1426  0.3713  0.5529
 8126SOL    HW135837   2.506   1.125   7.827 -1.7698  0.7140 -0.2137
 8126SOL    HW235838   2.385   1.144   7.903  1.0897  2.1585  1.4762
 8127SOL     OW35839   0.660   1.414  12.730 -0.1712  0.0031  0.4522
 8127SOL    HW135840   0.679   1.364  12.651  0.0550  2.1037 -0.8271
 8127SOL    HW235841   0.735   1.473  12.731 -1.7156  1.9960 -1.0323
 8128SOL     OW35842   3.210   0.612   9.858 -0.1980  0.3119 -0.0606
 8128SOL    HW135843   3.218   0.603   9.763 -0.5063  0.4859 -0.1040
 8128SOL    HW235844   3.134   0.670   9.873  0.6500  1.5249 -0.4586
 8129SOL     OW35845   2.215   3.812   7.187  0.0503  0.5644 -0.5971
 8129SOL    HW135846   2.300   3.779   7.214 -1.0552 -1.1608  0.7467
 8129SOL    HW235847   2.220   3.794   7.093 -1.9889 -2.7417 -0.0646
 8130SOL     OW35848   4.253   2.438   7.437  0.2273  1.1809 -1.0824
 8130SOL    HW135849   4.203   2.472   7.512 -1.6637 -0.5908 -1.5175
 8130SOL    HW235850   4.301   2.517   7.414 -2.0703  2.6592 -0.7770
 8131SOL     OW35851   4.420   2.700  17.311 -0.2455 -0.1147  0.1396
 8131SOL    HW135852   4.421   2.771  17.376 -0.8670  0.3060 -0.3087
 8131SOL    HW235853   4.512   2.678  17.299 -0.3157 -0.6765  0.6219
 8132SOL     OW35854   0.898   1.616   1.523  0.6647 -0.3057  0.1938
 8132SOL    HW135855   0.861   1.540   1.566  0.1269  0.0528  0.3713
 8132SOL    HW235856   0.899   1.679   1.595 -0.3215 -1.1187  0.9165
 8133SOL     OW35857   3.477   1.611  13.921 -0.0263 -0.4245  0.0354
 8133SOL    HW135858   3.457   1.698  13.887  1.1685 -0.8255 -1.6646
 8133SOL    HW235859   3.489   1.620  14.016  0.9165  2.9205 -0.3889
 8134SOL     OW35860   0.708   0.190   1.917  0.3915 -0.1575  0.4711
 8134SOL    HW135861   0.764   0.181   1.993 -1.1726  0.7426  1.7279
 8134SOL    HW235862   0.693   0.096   1.902 -2.3237  0.5333 -1.2490
 8135SOL     OW35863   1.097   1.961   1.256 -0.4503  0.4604  0.1300
 8135SOL    HW135864   1.065   2.048   1.279 -1.0150  0.4183 -0.5159
 8135SOL    HW235865   1.086   1.923   1.343 -3.2387  0.0491 -0.4170
 8136SOL     OW35866   4.678   0.540   9.039  0.1628  0.0640  0.0988
 8136SOL    HW135867   4.704   0.484   8.966  1.4028 -1.0605  1.4081
 8136SOL    HW235868   4.718   0.488   9.108 -1.2198 -2.1089 -0.7625
 8137SOL     OW35869   1.114   2.160   6.609  0.1044 -0.2386  0.0590
 8137SOL    HW135870   1.198   2.115   6.602  0.4184  0.3125  0.2987
 8137SOL    HW235871   1.078   2.134   6.524 -0.3812  3.4643 -0.8671
 8138SOL     OW35872   2.880   4.375  14.452  0.4051  0.1272  0.4136
 8138SOL    HW135873   2.944   4.390  14.521 -0.3025  0.3118  1.0235
 8138SOL    HW235874   2.800   4.374  14.504  1.2071  1.1458  1.6467
 8139SOL     OW35875   0.485   4.457  10.528 -0.2911 -0.2015 -0.0466
 8139SOL    HW135876   0.439   4.442  10.445 -0.7518 -2.3868  0.6269
 8139SOL    HW235877   0.408   4.500  10.565 -0.1022  0.3882 -0.3378
 8140SOL     OW35878   3.862   0.753   1.935  0.4630  0.1683 -0.1807
 8140SOL    HW135879   3.779   0.714   1.963 -0.5061  2.0781 -0.4181
 8140SOL    HW235880   3.921   0.679   1.951 -0.8548 -0.6306  0.9946
 8141SOL     OW35881   0.203   3.128   5.519  0.3110  0.0576 -0.4589
 8141SOL    HW135882   0.118   3.089   5.536 -0.8533  2.8780  0.2987
 8141SOL    HW235883   0.180   3.220   5.506 -2.2817 -0.1550  2.6390
 8142SOL     OW35884   4.633   3.119   7.006 -0.6330 -0.0327 -0.4065
 8142SOL    HW135885   4.579   3.148   6.933  1.4643  1.3136 -1.4191
 8142SOL    HW235886   4.672   3.200   7.039  2.1592 -1.1134 -1.0631
 8143SOL     OW35887   0.849   3.981   4.829  0.0980  0.3898  0.1630
 8143SOL    HW135888   0.912   3.921   4.791 -2.2138 -0.1787 -2.8075
 8143SOL    HW235889   0.863   4.060   4.777  2.4714  0.5315  1.0369
 8144SOL     OW35890   3.710   3.371   1.473  0.2423 -0.3563 -0.1263
 8144SOL    HW135891   3.677   3.286   1.502 -0.5609 -0.2199 -0.6508
 8144SOL    HW235892   3.750   3.404   1.554 -1.0364 -1.0228  0.7875
 8145SOL     OW35893   1.782   3.136   3.264 -0.5097  0.3846 -0.2686
 8145SOL    HW135894   1.764   3.166   3.353  0.2477 -0.7066  0.2574
 8145SOL    HW235895   1.709   3.175   3.217  0.4029  1.8118 -0.4843
 8146SOL     OW35896   1.708   0.183   4.450  0.0333 -0.7561 -0.1734
 8146SOL    HW135897   1.719   0.092   4.475 -3.1819 -1.4434 -1.3038
 8146SOL    HW235898   1.768   0.231   4.507  0.2776 -0.2057 -0.8845
 8147SOL     OW35899   3.439   3.697   0.256 -0.0719  0.3047  0.1514
 8147SOL    HW135900   3.533   3.681   0.248  0.0671 -0.5854  3.2457
 8147SOL    HW235901   3.443   3.777   0.308 -1.3315  0.3318  0.2002
 8148SOL     OW35902   0.993   1.752  17.108 -0.1085 -0.5364 -0.3357
 8148SOL    HW135903   0.910   1.772  17.150  0.9156  4.1134 -0.4733
 8148SOL    HW235904   1.025   1.842  17.098 -1.0137  0.0477  2.0760
 8149SOL     OW35905   0.206   1.166  17.294  0.2527 -0.3698 -0.1265
 8149SOL    HW135906   0.241   1.124  17.372  2.4330  1.1864 -0.2655
 8149SOL    HW235907   0.205   1.097  17.227 -0.9918 -0.6137  0.1479
 8150SOL     OW35908   2.006   3.255   4.287  0.2992 -0.2455 -0.4398
 8150SOL    HW135909   1.945   3.237   4.215 -1.0015  1.7238  0.1929
 8150SOL    HW235910   2.014   3.349   4.274  0.4043 -0.4209 -1.6892
 8151SOL     OW35911   0.668   0.341   0.331 -0.3508 -0.5798  0.3863
 8151SOL    HW135912   0.673   0.289   0.251  0.0660  1.0950 -0.6679
 8151SOL    HW235913   0.735   0.407   0.315 -0.4997  0.0154  2.1442
 8152SOL     OW35914   2.522   2.356   0.860  0.4194 -0.0626 -0.6787
 8152SOL    HW135915   2.487   2.404   0.785  1.9661  0.8351 -0.8174
 8152SOL    HW235916   2.555   2.276   0.818  2.4945  0.4066  0.0654
 8153SOL     OW35917   0.036   3.522  17.495 -0.5677 -0.5199  0.1004
 8153SOL    HW135918   0.084   3.504  17.575  0.4906 -0.0644 -0.4284
 8153SOL    HW235919   4.668   3.500  17.522 -0.0050  0.4857  2.7763
 8154SOL     OW35920   3.559   1.909   2.793  0.8822 -0.6626 -0.2567
 8154SOL    HW135921   3.634   1.909   2.853 -0.2063 -0.2765  1.0966
 8154SOL    HW235922   3.485   1.926   2.852  1.6839 -2.2435  1.2186
 8155SOL     OW35923   0.227   3.773   7.991 -0.0797  0.8503  0.2092
 8155SOL    HW135924   0.296   3.789   7.926  0.6693  1.2223  1.0995
 8155SOL    HW235925   0.275   3.708   8.042  0.6128 -0.0293 -1.5279
 8156SOL     OW35926   4.695   2.283   3.383  0.2462 -0.5352 -0.0870
 8156SOL    HW135927   0.045   2.254   3.441  0.0933  0.1142  0.4251
 8156SOL    HW235928   4.629   2.217   3.401  1.3813 -1.8478 -0.6906
 8157SOL     OW35929   2.962   1.061   4.603  0.2294  0.3456  0.4023
 8157SOL    HW135930   3.036   1.045   4.543 -2.4464  2.1301 -3.3938
 8157SOL    HW235931   2.989   1.027   4.688 -3.4559  0.3666  1.5905
 8158SOL     OW35932   4.643   1.386   6.101  0.1043  0.0789  0.4594
 8158SOL    HW135933   4.687   1.396   6.186  0.1689 -0.2989  0.4716
 8158SOL    HW235934   4.720   1.383   6.045 -0.9283  1.4787 -0.9979
 8159SOL     OW35935   3.759   0.150   3.458  0.1537  0.2159  0.2426
 8159SOL    HW135936   3.816   0.077   3.434 -0.2935 -0.8342  2.4336
 8159SOL    HW235937   3.682   0.098   3.436  0.7882 -0.4063 -0.5261
 8160SOL     OW35938   0.909   0.785   8.457  0.2564 -0.2696  0.1347
 8160SOL    HW135939   0.964   0.711   8.483  0.4847  0.5883  2.1797
 8160SOL    HW235940   0.828   0.766   8.505  0.7983  0.5997  1.4178
 8161SOL     OW35941   3.059   2.656   3.461  0.2996  0.4890 -0.3211
 8161SOL    HW135942   3.001   2.709   3.517  0.3050  0.1735 -0.0193
 8161SOL    HW235943   3.105   2.722   3.409  0.5876  0.3737 -0.2077
 8162SOL     OW35944   4.307   1.814   5.331 -0.0279  0.3783 -0.4695
 8162SOL    HW135945   4.308   1.792   5.424 -1.6447  1.4487 -0.1806
 8162SOL    HW235946   4.283   1.732   5.289  0.0575 -0.3057  0.8393
 8163SOL     OW35947   3.125   0.626   9.399 -0.1933 -0.2090 -0.3578
 8163SOL    HW135948   3.096   0.535   9.390 -0.8537 -0.0739  0.4575
 8163SOL    HW235949   3.168   0.649   9.316  0.8095  0.6492  0.4045
 8164SOL     OW35950   4.395   1.725   2.253 -0.1237 -0.0493  0.4010
 8164SOL    HW135951   4.365   1.702   2.165 -1.9482 -1.9707  1.5093
 8164SOL    HW235952   4.358   1.812   2.264 -1.1030 -0.6004  1.5703
 8165SOL     OW35953   4.056   3.038   4.960  0.2786  0.0636 -0.1336
 8165SOL    HW135954   4.007   3.035   4.878  0.1958 -0.7338 -0.0586
 8165SOL    HW235955   4.141   3.013   4.924  0.9264 -0.0895  1.5021
 8166SOL     OW35956   4.489   0.728   4.607  0.3219  0.1619 -0.3502
 8166SOL    HW135957   4.400   0.758   4.589  0.8744  0.9034 -1.7796
 8166SOL    HW235958   4.495   0.722   4.703 -1.7486 -2.5322 -0.3826
 8167SOL     OW35959   3.397   2.094   7.107  0.0480 -0.3800 -0.4608
 8167SOL    HW135960   3.348   2.118   7.028 -0.1259  0.0175 -0.2315
 8167SOL    HW235961   3.414   2.004   7.079  1.2461 -1.0180  2.3183
 8168SOL     OW35962   0.275   4.313   3.839  0.2764 -0.2287  0.6265
 8168SOL    HW135963   0.230   4.368   3.775  1.4661  0.8422  0.7108
 8168SOL    HW235964   0.355   4.361   3.862  0.7611 -1.7257  2.0431
 8169SOL     OW35965   0.091   1.262   5.605  0.5187  0.1808  0.7199
 8169SOL    HW135966   0.096   1.168   5.588  0.7835  0.6570 -1.7415
 8169SOL    HW235967   0.126   1.299   5.524 -0.7792 -0.8812 -0.3182
 8170SOL     OW35968   4.587   1.478   6.971 -0.1499  0.4496  0.0282
 8170SOL    HW135969   4.545   1.553   7.012 -0.2627 -1.4483  3.4453
 8170SOL    HW235970   4.530   1.417   7.018 -0.2061  0.2123 -0.3480
 8171SOL     OW35971   2.778   2.175   4.488  0.5487  0.5335  0.4711
 8171SOL    HW135972   2.819   2.102   4.441 -0.6680  1.3075 -1.7991
 8171SOL    HW235973   2.730   2.146   4.565  0.3848  1.4928  0.7361
 8172SOL     OW35974   0.687   3.108   6.803 -0.4722  0.5611  0.3937
 8172SOL    HW135975   0.682   3.045   6.731 -0.3611  0.4395  0.4934
 8172SOL    HW235976   0.744   3.068   6.868 -0.7917  0.8261  0.8400
 8173SOL     OW35977   0.220   2.245   6.700  0.0209  0.0563 -0.0419
 8173SOL    HW135978   0.179   2.328   6.675  1.1471  1.2275  2.0568
 8173SOL    HW235979   0.145   2.189   6.680 -0.9590  0.2119  3.1461
 8174SOL     OW35980   3.867   4.434  13.675 -0.0694  0.0995 -0.0232
 8174SOL    HW135981   3.887   4.349  13.636  1.9101 -0.1559  1.5798
 8174SOL    HW235982   3.773   4.440  13.658 -0.2179 -0.8964  0.4413
 8175SOL     OW35983   4.339   3.179   1.624  0.1097  0.3381 -0.1603
 8175SOL    HW135984   4.349   3.152   1.716 -0.1448 -0.4983 -0.3808
 8175SOL    HW235985   4.244   3.176   1.621  0.1837 -2.5423  0.8313
 8176SOL     OW35986   1.372   2.408   9.021 -0.2583 -0.2768 -0.4436
 8176SOL    HW135987   1.398   2.465   8.949 -2.4473  1.6124  0.2960
 8176SOL    HW235988   1.290   2.440   9.056 -0.2626 -1.4265  0.6145
 8177SOL     OW35989   2.071   1.978   7.945 -0.1221 -0.4140  0.5223
 8177SOL    HW135990   2.098   2.025   8.024  0.2011  1.5324 -0.7567
 8177SOL    HW235991   2.152   1.937   7.914 -1.0243 -1.0652 -0.9899
 8178SOL     OW35992   0.138   3.902   2.387  0.6259  0.3337  0.0631
 8178SOL    HW135993   0.053   3.864   2.411 -0.6280  2.2557 -1.3414
 8178SOL    HW235994   0.184   3.887   2.469 -0.5637 -0.4524  0.5863
 8179SOL     OW35995   1.856   3.921   0.948  1.0333  0.1045 -0.5324
 8179SOL    HW135996   1.892   3.984   0.886 -0.7388  0.9925 -0.6455
 8179SOL    HW235997   1.830   3.982   1.018  0.6939  0.1553 -0.7073
 8180SOL     OW35998   2.818   1.083   0.610  0.7004  0.5754  0.2291
 8180SOL    HW135999   2.828   1.056   0.519 -1.8197 -1.8888  0.6819
 8180SOL    HW236000   2.904   1.056   0.640  1.1895  1.9121  0.0508
 8181SOL     OW36001   1.531   0.796   1.551  0.0868  0.3852 -0.0174
 8181SOL    HW136002   1.578   0.878   1.565 -1.0462  1.1661 -0.8681
 8181SOL    HW236003   1.448   0.818   1.508 -0.3499 -1.8404 -0.3394
 8182SOL     OW36004   3.582   1.462  11.269  0.0392  0.1987 -0.0154
 8182SOL    HW136005   3.531   1.381  11.274  1.2183 -0.7094 -2.5873
 8182SOL    HW236006   3.621   1.448  11.183 -1.6740 -0.2954 -0.7184
 8183SOL     OW36007   3.708   2.061   5.016  0.4456  0.1751  0.4613
 8183SOL    HW136008   3.702   1.972   4.981  0.3098  1.1384 -1.9130
 8183SOL    HW236009   3.729   2.045   5.108 -0.2351  0.1271  0.6036
 8184SOL     OW36010   2.266   2.683   2.272 -0.6533  0.3722 -0.5034
 8184SOL    HW136011   2.257   2.773   2.305 -1.1971  1.0128 -2.4136
 8184SOL    HW236012   2.357   2.671   2.247 -1.1305 -0.4550 -1.8524
 8185SOL     OW36013   2.888   3.317  15.751 -0.5094  0.4298 -0.5785
 8185SOL    HW136014   2.903   3.287  15.661  1.8054  1.6737 -0.6066
 8185SOL    HW236015   2.967   3.288  15.796 -0.2449  0.3280 -1.1065
 8186SOL     OW36016   1.928   0.045   4.305  0.4747  0.1441  0.2559
 8186SOL    HW136017   1.988   0.119   4.305 -2.4083  2.5217  1.0413
 8186SOL    HW236018   1.843   0.090   4.312  1.9201  2.6754  1.6120
 8187SOL     OW36019   2.989   2.506  11.151  0.0895 -0.6806  0.4610
 8187SOL    HW136020   3.034   2.564  11.213 -1.2669 -0.5466  1.3299
 8187SOL    HW236021   3.048   2.431  11.153  0.4284 -0.4417 -0.7288
 8188SOL     OW36022   1.920   3.436   4.963  0.0864  0.2641  0.0571
 8188SOL    HW136023   1.902   3.409   4.872  0.2144  2.1006 -0.5101
 8188SOL    HW236024   1.832   3.420   4.999 -0.0174 -0.3503 -0.4682
 8189SOL     OW36025   1.697   0.393   3.350 -0.2480 -0.7549  0.5534
 8189SOL    HW136026   1.651   0.422   3.271  0.1516 -2.1559 -0.1807
 8189SOL    HW236027   1.784   0.409   3.314  0.0560 -1.5974  0.9302
 8190SOL     OW36028   3.935   3.889  12.178 -0.3106 -0.3890  0.1387
 8190SOL    HW136029   3.899   3.848  12.099 -0.1743  0.1041 -0.1769
 8190SOL    HW236030   3.862   3.948  12.194 -0.8563 -0.6733 -1.3038
 8191SOL     OW36031   0.844   1.846   6.248 -0.4922  0.6032  0.6082
 8191SOL    HW136032   0.872   1.817   6.335  1.3912 -2.5538 -1.0337
 8191SOL    HW236033   0.872   1.937   6.255  0.2863  0.6264 -2.7338
 8192SOL     OW36034   3.806   4.561  10.382 -0.1631  0.0521 -0.1628
 8192SOL    HW136035   3.896   4.568  10.414 -0.4589  0.5396  0.5516
 8192SOL    HW236036   3.825   4.572  10.288 -1.0649 -0.5614 -0.4198
 8193SOL     OW36037   1.166   1.712   6.448  0.2921  0.0978  0.9216
 8193SOL    HW136038   1.091   1.768   6.466  0.2533  1.2235 -2.7175
 8193SOL    HW236039   1.204   1.758   6.373 -0.4202  0.7885  0.9850
 8194SOL     OW36040   3.458   4.087   7.569  0.1356 -0.2927 -0.7219
 8194SOL    HW136041   3.405   4.137   7.631  0.7532 -3.1445  2.0776
 8194SOL    HW236042   3.394   4.063   7.502 -2.7183  0.5842  1.6463
 8195SOL     OW36043   0.509   1.732   0.513  0.0075 -0.2707 -0.0634
 8195SOL    HW136044   0.478   1.791   0.444  1.4538  0.8367  0.2369
 8195SOL    HW236045   0.597   1.766   0.525  0.2409 -0.8482 -0.1264
 8196SOL     OW36046   0.479   0.590   7.733  0.4377  0.7571  0.2917
 8196SOL    HW136047   0.521   0.654   7.790  0.9593 -0.5564  1.3569
 8196SOL    HW236048   0.407   0.644   7.700 -1.0426 -1.5535 -0.2574
 8197SOL     OW36049   4.398   0.867   1.349 -0.1901  0.1475 -0.1086
 8197SOL    HW136050   4.387   0.961   1.365 -2.6719 -0.2939  0.7816
 8197SOL    HW236051   4.478   0.853   1.399 -1.0020  0.2703  1.2471
 8198SOL     OW36052   2.424   0.230  13.994  0.1233 -0.1109 -0.2823
 8198SOL    HW136053   2.442   0.173  13.919 -2.3375  1.7467 -2.3022
 8198SOL    HW236054   2.345   0.277  13.966 -0.7492 -1.0116  0.6436
 8199SOL     OW36055   3.740   2.817   1.805  0.5709 -0.6322 -0.1997
 8199SOL    HW136056   3.657   2.785   1.769 -0.6655  1.7824  0.5555
 8199SOL    HW236057   3.794   2.738   1.792  1.9511  0.2029  0.4463
 8200SOL     OW36058   2.000   0.920   6.652 -0.2272 -0.1997 -0.0449
 8200SOL    HW136059   1.981   0.827   6.640 -0.5574 -0.0210 -0.9337
 8200SOL    HW236060   2.043   0.914   6.737 -1.5716 -1.9614  0.5291
 8201SOL     OW36061   2.667   3.843  15.657 -0.3670  0.0540 -0.0347
 8201SOL    HW136062   2.668   3.842  15.753 -1.1255 -0.0454 -0.0272
 8201SOL    HW236063   2.749   3.804  15.628  0.2376 -0.1602  2.0010
 8202SOL     OW36064   1.346   1.849   4.929  0.0916 -0.0741  0.3037
 8202SOL    HW136065   1.390   1.933   4.917 -1.8139  0.9652  0.6110
 8202SOL    HW236066   1.253   1.863   4.910  0.3125  1.2143  0.2050
 8203SOL     OW36067   2.202   3.616   2.846  0.4204  0.1375 -0.4110
 8203SOL    HW136068   2.289   3.642   2.877  0.2223  1.6417 -1.1437
 8203SOL    HW236069   2.229   3.560   2.773 -0.6728 -2.1022  0.9066
 8204SOL     OW36070   3.032   4.441  12.083 -0.6027  0.5169  0.2049
 8204SOL    HW136071   3.025   4.364  12.026  1.7509  2.4084 -2.6298
 8204SOL    HW236072   3.075   4.504  12.026  0.6081  0.3486  0.9271
 8205SOL     OW36073   4.026   4.121   3.610  0.2374  0.2465 -0.0867
 8205SOL    HW136074   4.043   4.212   3.587  1.9460  0.7980  3.3988
 8205SOL    HW236075   4.097   4.070   3.571  0.1409 -1.3931  1.8563
 8206SOL     OW36076   2.881   0.062  13.442  0.3864 -0.7346 -0.1892
 8206SOL    HW136077   2.907   0.071  13.351  2.5248  0.7294  0.5735
 8206SOL    HW236078   2.958   0.097  13.487 -0.1872  0.3130  0.0035
 8207SOL     OW36079   3.754   1.637   3.075  0.3740  0.0217  0.0997
 8207SOL    HW136080   3.770   1.679   2.991 -0.8330 -0.1695 -0.2151
 8207SOL    HW236081   3.666   1.601   3.066  0.9234 -0.7137 -2.1708
 8208SOL     OW36082   0.232   1.053   3.325  0.5390  0.5316  0.3298
 8208SOL    HW136083   0.227   1.001   3.244  0.6573  0.6152  0.2694
 8208SOL    HW236084   0.172   1.005   3.383 -0.6087  2.9537  1.1127
 8209SOL     OW36085   4.719   0.097   1.496  0.2735 -0.6386  0.3327
 8209SOL    HW136086   0.048   0.125   1.419 -0.6508 -0.0919 -0.0603
 8209SOL    HW236087   4.645   0.053   1.455 -0.7078 -0.0819  1.5454
 8210SOL     OW36088   0.954   3.038   4.022  0.5536 -0.3988  0.8321
 8210SOL    HW136089   0.966   3.128   3.994  1.0644 -0.7642 -0.1232
 8210SOL    HW236090   0.961   2.995   3.937 -1.3448 -0.3618  0.6647
 8211SOL     OW36091   1.563   1.499   5.159  0.4369  0.6387 -0.4410
 8211SOL    HW136092   1.550   1.548   5.078  1.0666  0.9448 -0.3579
 8211SOL    HW236093   1.658   1.486   5.151  0.7861  1.3973  2.3411
 8212SOL     OW36094   2.174   1.342   8.187 -0.0482  0.3939  0.3586
 8212SOL    HW136095   2.212   1.430   8.189  0.9247  0.0032 -1.1687
 8212SOL    HW236096   2.149   1.335   8.280  0.6020 -0.8250  0.4466
 8213SOL     OW36097   1.536   2.275  12.705 -0.0481 -0.0811 -0.3410
 8213SOL    HW136098   1.559   2.344  12.642  0.1542 -0.9952 -1.2742
 8213SOL    HW236099   1.621   2.233  12.716  1.1426  1.8363 -2.1830
 8214SOL     OW36100   3.587   4.104   4.956 -0.0929  0.2662  0.4413
 8214SOL    HW136101   3.611   4.052   5.034 -0.0428 -0.7624 -0.2616
 8214SOL    HW236102   3.493   4.111   4.968 -0.1283  0.6155 -0.0902
 8215SOL     OW36103   2.916   3.718  12.197  0.7546 -0.4530 -0.2914
 8215SOL    HW136104   3.002   3.737  12.234  0.4879  0.6597 -0.2363
 8215SOL    HW236105   2.922   3.622  12.201 -1.6718 -0.6442 -1.5008
 8216SOL     OW36106   3.996   2.106   4.428  0.2090  0.1473  0.0693
 8216SOL    HW136107   4.053   2.049   4.481  0.3621 -0.4914 -0.7742
 8216SOL    HW236108   3.961   2.159   4.500  0.9337  1.8207 -0.8091
 8217SOL     OW36109   3.938   2.252   3.832 -0.0033  0.1470  0.1205
 8217SOL    HW136110   4.016   2.199   3.846  0.1399  0.0460 -1.0917
 8217SOL    HW236111   3.975   2.326   3.785 -1.0163  0.9943  0.6688
 8218SOL     OW36112   0.733   2.195   0.189 -0.3888  0.3338  0.1016
 8218SOL    HW136113   0.750   2.240   0.107  0.7220 -1.1648 -0.4993
 8218SOL    HW236114   0.731   2.272   0.245  1.3168  0.4627 -0.0235
 8219SOL     OW36115   2.421   2.337  15.840 -0.1059 -0.0343  0.0524
 8219SOL    HW136116   2.514   2.349  15.860 -0.0480 -1.1590  0.4630
 8219SOL    HW236117   2.421   2.275  15.767  0.2034  0.3542 -0.2811
 8220SOL     OW36118   2.346   1.868   3.252  0.0804 -0.2854  0.3330
 8220SOL    HW136119   2.409   1.934   3.223 -1.0366 -0.0027 -1.4583
 8220SOL    HW236120   2.348   1.804   3.181  1.4485  0.8785 -0.6599
 8221SOL     OW36121   1.702   3.678   5.834 -0.1187 -0.1462 -0.0407
 8221SOL    HW136122   1.636   3.611   5.854 -0.7364  0.3560 -0.4051
 8221SOL    HW236123   1.774   3.642   5.886  0.3251 -1.5401 -1.6296
 8222SOL     OW36124   1.440   2.543   5.261  0.0382 -0.7031  0.1835
 8222SOL    HW136125   1.504   2.495   5.208  0.1283  1.2865 -1.5112
 8222SOL    HW236126   1.365   2.545   5.202 -2.5682  0.1733  3.5404
 8223SOL     OW36127   2.049   3.190   0.905 -0.2478  0.3900 -0.3329
 8223SOL    HW136128   2.057   3.259   0.839  0.2888 -1.4899 -2.2391
 8223SOL    HW236129   1.993   3.232   0.970 -1.8603 -0.2580 -1.2918
 8224SOL     OW36130   2.878   3.079   6.868  0.0959 -0.0579 -0.3880
 8224SOL    HW136131   2.867   3.174   6.863  1.8023  0.0778 -1.8207
 8224SOL    HW236132   2.971   3.078   6.891  0.2743  0.2172 -1.1099
 8225SOL     OW36133   1.407   3.769   7.753  0.4408 -0.0238  0.6105
 8225SOL    HW136134   1.339   3.716   7.795 -0.4837  0.0638 -0.7797
 8225SOL    HW236135   1.357   3.833   7.702 -0.7245 -0.6767  0.9388
 8226SOL     OW36136   3.219   4.515   5.532  0.2049  0.5715  0.0523
 8226SOL    HW136137   3.230   4.449   5.601 -0.7765  0.3588  0.0151
 8226SOL    HW236138   3.186   4.451   5.469  1.3905  1.9726 -1.9686
 8227SOL     OW36139   3.441   1.699  11.300 -0.1084 -0.4353 -0.3799
 8227SOL    HW136140   3.361   1.663  11.261 -1.1159 -0.0402  1.3136
 8227SOL    HW236141   3.506   1.629  11.297 -1.1804 -1.4139 -0.9158
 8228SOL     OW36142   0.387   2.104   3.419  0.4207  0.0920 -0.2879
 8228SOL    HW136143   0.369   2.016   3.386 -1.1230  0.8597 -1.5183
 8228SOL    HW236144   0.295   2.132   3.429 -0.3147 -2.1523 -0.8614
 8229SOL     OW36145   0.924   2.550   4.051 -0.1407 -0.4819  0.3541
 8229SOL    HW136146   0.965   2.463   4.053  1.4674  0.2527 -0.5228
 8229SOL    HW236147   0.962   2.563   3.964 -1.2650 -1.1336 -0.2368
 8230SOL     OW36148   3.550   2.661  17.250 -0.6417  0.0801  0.1413
 8230SOL    HW136149   3.613   2.589  17.243 -1.2568 -0.2705 -1.8793
 8230SOL    HW236150   3.612   2.731  17.268  0.1338 -1.0292  1.7928
 8231SOL     OW36151   4.330   4.076   8.367  0.0614  0.4574  0.1290
 8231SOL    HW136152   4.266   4.020   8.409  0.8371 -0.3450  0.2361
 8231SOL    HW236153   4.316   4.059   8.274 -1.1137 -0.2698  0.4437
 8232SOL     OW36154   1.920   1.627   6.463 -0.1103 -0.1654  0.8201
 8232SOL    HW136155   1.827   1.616   6.482 -0.6144  2.8678  0.0651
 8232SOL    HW236156   1.950   1.653   6.550 -0.0959  0.5722  0.5932
 8233SOL     OW36157   0.013   2.976   4.839  0.0297 -0.3364 -0.0248
 8233SOL    HW136158   0.077   2.992   4.909  1.2715  1.3159 -1.5363
 8233SOL    HW236159   0.014   2.882   4.855 -2.3254 -0.3237  0.1224
 8234SOL     OW36160   1.459   0.588   2.946 -0.0906  0.5881 -0.2393
 8234SOL    HW136161   1.368   0.616   2.949 -0.0799  0.6824 -0.9239
 8234SOL    HW236162   1.499   0.641   2.877 -0.7712  1.1088 -0.2368
 8235SOL     OW36163   3.457   2.782  13.643  0.8081  0.2437  0.1381
 8235SOL    HW136164   3.543   2.781  13.602 -1.1321  1.2903 -3.9719
 8235SOL    HW236165   3.410   2.858  13.609 -0.6713  0.2756  2.2399
 8236SOL     OW36166   3.312   4.516  15.810  0.1363  0.0969 -0.4002
 8236SOL    HW136167   3.352   4.503  15.896  1.0180 -1.7742 -1.0939
 8236SOL    HW236168   3.233   4.567  15.830  0.3381 -0.2802  1.3297
 8237SOL     OW36169   1.927   4.133   8.527 -0.2698 -0.2218  0.2339
 8237SOL    HW136170   1.867   4.073   8.572  0.3175  0.5185  1.9902
 8237SOL    HW236171   1.977   4.070   8.475 -0.5224  0.5500 -0.9454
 8238SOL     OW36172   0.720   3.326   6.266  0.2673  0.2470  0.0208
 8238SOL    HW136173   0.770   3.333   6.185 -0.5916  0.8812 -0.4530
 8238SOL    HW236174   0.738   3.414   6.299  0.5725  0.7975 -1.6008
 8239SOL     OW36175   0.270   2.315   3.773  0.0542 -0.1930  0.0294
 8239SOL    HW136176   0.211   2.292   3.844 -0.7854 -0.4612 -0.7542
 8239SOL    HW236177   0.261   2.411   3.774 -1.2667 -0.3082 -0.2956
 8240SOL     OW36178   0.157   2.939   7.619  0.4995 -0.1981  0.5075
 8240SOL    HW136179   0.252   2.946   7.633  0.8826 -1.0857 -1.6695
 8240SOL    HW236180   0.152   3.010   7.554  0.8725 -1.0117 -0.4169
 8241SOL     OW36181   3.824   0.096  14.331  0.5757  0.3572 -0.1036
 8241SOL    HW136182   3.833   0.073  14.238  2.4219 -1.4170  0.5230
 8241SOL    HW236183   3.729   0.108  14.338  0.3629 -1.7512  0.4472
 8242SOL     OW36184   2.661   3.272   9.078  0.4210  0.0927  0.2823
 8242SOL    HW136185   2.669   3.213   9.154 -0.6054  0.0955  0.3955
 8242SOL    HW236186   2.568   3.263   9.055  0.3274 -1.0424  1.0793
 8243SOL     OW36187   2.496   4.001  10.960  0.2941 -0.0713  0.1408
 8243SOL    HW136188   2.551   4.061  11.011  1.9867 -2.2862  0.9154
 8243SOL    HW236189   2.407   4.013  10.995 -0.0181 -1.1054 -0.3070
 8244SOL     OW36190   0.979   4.363   4.246 -0.0014  0.6401 -0.4538
 8244SOL    HW136191   0.937   4.321   4.321 -1.9023  1.0619 -1.3108
 8244SOL    HW236192   0.923   4.347   4.171  1.7641  2.3330 -2.1446
 8245SOL     OW36193   3.825   1.462   2.627  0.0694  0.0878  0.4535
 8245SOL    HW136194   3.906   1.412   2.640  0.3554 -0.0901 -2.0845
 8245SOL    HW236195   3.772   1.404   2.572 -1.1269  1.8771 -0.2578
 8246SOL     OW36196   0.459   0.708   8.790  1.1261 -0.1732  0.1326
 8246SOL    HW136197   0.456   0.787   8.735 -2.7357 -1.0562 -0.8865
 8246SOL    HW236198   0.457   0.744   8.879 -0.3877 -0.2251  0.1136
 8247SOL     OW36199   4.021   4.620   0.770  0.3934 -0.0242  0.1498
 8247SOL    HW136200   3.992   4.633   0.680  0.6336 -2.2204 -0.2430
 8247SOL    HW236201   3.952   4.564   0.804 -0.7381  0.2900 -1.6035
 8248SOL     OW36202   2.764   2.503  17.308  0.5800 -0.0267 -0.4102
 8248SOL    HW136203   2.855   2.492  17.280  0.7689 -2.7648  1.2111
 8248SOL    HW236204   2.768   2.442  17.383 -2.9716 -2.4900 -2.2484
 8249SOL     OW36205   2.594   3.220   7.029  0.1334  0.1671 -0.4493
 8249SOL    HW136206   2.544   3.284   6.978  0.9494  1.4701  0.3669
 8249SOL    HW236207   2.542   3.140   7.027 -0.8285  0.8198 -1.6370
 8250SOL     OW36208   2.135   3.138  11.815  0.0539  0.1828  0.1407
 8250SOL    HW136209   2.154   3.224  11.852  1.5900 -0.2669  0.4200
 8250SOL    HW236210   2.141   3.155  11.721 -1.0978  0.3249  0.0971
 8251SOL     OW36211   2.086   0.304  13.158 -0.5421 -0.5482 -0.1791
 8251SOL    HW136212   2.016   0.290  13.094 -0.2972  0.7003 -0.7342
 8251SOL    HW236213   2.110   0.212  13.173  1.5979  0.5581  3.0023
 8252SOL     OW36214   3.259   1.925   8.394 -0.1588  0.4371  0.2229
 8252SOL    HW136215   3.267   1.912   8.300  0.8753 -0.0547  0.3832
 8252SOL    HW236216   3.260   1.832   8.418 -3.1086 -0.4855 -3.0952
 8253SOL     OW36217   3.656   4.382   8.625  0.0058 -0.7370  0.3060
 8253SOL    HW136218   3.632   4.295   8.657 -1.5528 -0.1074  0.8496
 8253SOL    HW236219   3.685   4.418   8.709  0.9271  0.7548 -0.6592
 8254SOL     OW36220   1.440   3.057   5.656 -0.0666  0.4994 -0.3881
 8254SOL    HW136221   1.442   3.144   5.696 -0.0674  0.5913 -0.5865
 8254SOL    HW236222   1.483   3.074   5.572 -2.6169 -0.8525 -1.9580
 8255SOL     OW36223   0.635   3.526   3.018  0.0780  0.5346  0.2032
 8255SOL    HW136224   0.687   3.585   2.963  0.7535  0.2170  0.5041
 8255SOL    HW236225   0.611   3.581   3.092 -0.2903  1.5738 -0.6891
 8256SOL     OW36226   0.904   2.553   6.173 -0.0072 -0.4034  0.0936
 8256SOL    HW136227   0.952   2.587   6.248 -2.6581  2.0097  0.6876
 8256SOL    HW236228   0.864   2.471   6.204  0.0305 -0.2258  0.6109
 8257SOL     OW36229   3.525   1.828   8.058  0.0626  0.3626  0.8161
 8257SOL    HW136230   3.538   1.761   8.125 -0.7702 -0.6230  0.0029
 8257SOL    HW236231   3.610   1.834   8.014  0.1101 -1.7895  0.6207
 8258SOL     OW36232   3.095   3.360   1.844  0.0966 -0.1403  0.6860
 8258SOL    HW136233   3.141   3.387   1.764 -2.2905  0.4184 -0.4805
 8258SOL    HW236234   3.142   3.403   1.916  0.8183 -0.0791  0.1771
 8259SOL     OW36235   3.002   3.039   7.513 -0.6477 -0.5739 -0.4595
 8259SOL    HW136236   2.955   2.982   7.452  0.1762 -0.9320 -0.7471
 8259SOL    HW236237   3.091   3.017   7.487 -0.0036 -0.1670  1.4423
 8260SOL     OW36238   3.913   1.707   4.993 -0.1472 -0.6790 -0.6503
 8260SOL    HW136239   3.863   1.689   4.913 -0.2357 -0.1285 -0.7236
 8260SOL    HW236240   3.929   1.616   5.017  4.9064  0.2311 -0.6118
 8261SOL     OW36241   1.217   2.713   2.327  0.1983 -0.1958 -0.2647
 8261SOL    HW136242   1.286   2.717   2.393  0.9259 -1.0593 -0.9809
 8261SOL    HW236243   1.259   2.685   2.246 -1.5049  0.5651 -1.3982
 8262SOL     OW36244   1.697   3.288   3.469  0.5412  0.3890 -0.8822
 8262SOL    HW136245   1.768   3.300   3.532 -0.0080  0.5752 -0.3016
 8262SOL    HW236246   1.663   3.377   3.467  1.1080  0.6193 -0.0863
 8263SOL     OW36247   3.992   2.514   8.473 -0.6888  0.1037  0.7938
 8263SOL    HW136248   3.898   2.494   8.468 -1.1988  2.5139  0.5956
 8263SOL    HW236249   4.025   2.427   8.495 -1.6428 -0.2786  0.6990
 8264SOL     OW36250   2.097   3.744   1.428  0.5810  0.0069 -0.0396
 8264SOL    HW136251   2.191   3.746   1.416  0.3054 -2.9861 -2.5933
 8264SOL    HW236252   2.092   3.750   1.524 -2.0188  0.7043 -0.2079
 8265SOL     OW36253   0.643   2.918  11.620 -0.1375 -0.3159  0.3732
 8265SOL    HW136254   0.681   2.999  11.655 -0.3330  0.5378 -1.4057
 8265SOL    HW236255   0.565   2.948  11.574  1.0231  0.8922 -0.8029
 8266SOL     OW36256   2.730   3.312   5.296 -0.3612  0.8736  0.2506
 8266SOL    HW136257   2.822   3.339   5.296  0.4157 -1.8235  0.5553
 8266SOL    HW236258   2.687   3.382   5.345 -2.4665 -0.9995  1.0462
 8267SOL     OW36259   0.565   0.354   3.246 -0.4643  0.0924  0.0824
 8267SOL    HW136260   0.622   0.422   3.282 -0.1172 -0.4968  0.6513
 8267SOL    HW236261   0.621   0.278   3.258  2.1945  2.1307  0.5137
 8268SOL     OW36262   1.636   1.543   6.995  0.2374  0.0843 -0.5613
 8268SOL    HW136263   1.664   1.595   7.071 -1.7067  2.1906 -1.2616
 8268SOL    HW236264   1.717   1.532   6.946 -0.0026 -3.1255 -0.2155
 8269SOL     OW36265   2.632   2.457   2.090 -0.5457  0.4832 -0.2688
 8269SOL    HW136266   2.681   2.449   2.009  1.4310 -1.3725  1.1103
 8269SOL    HW236267   2.546   2.426   2.060  0.1550 -1.5028 -0.2717
 8270SOL     OW36268   1.095   3.257   6.521  0.2503 -0.3092  1.0310
 8270SOL    HW136269   1.007   3.220   6.526  1.0124 -2.1630  0.4520
 8270SOL    HW236270   1.147   3.178   6.513 -1.5071 -1.3698 -0.0634
 8271SOL     OW36271   4.594   3.164   7.368 -0.7220  0.3392 -0.6277
 8271SOL    HW136272   4.645   3.199   7.294 -2.4531  1.6230 -1.2185
 8271SOL    HW236273   4.622   3.229   7.432 -0.9329 -0.2527  0.0637
 8272SOL     OW36274   3.059   3.810   9.147  0.0115  0.3570  0.0044
 8272SOL    HW136275   2.986   3.865   9.119 -0.3105 -0.6925 -1.2211
 8272SOL    HW236276   3.116   3.840   9.076  0.8105 -0.1873  0.4260
 8273SOL     OW36277   3.881   0.783   3.925  0.7978 -0.4915 -0.1997
 8273SOL    HW136278   3.941   0.846   3.885  0.0466  0.0016 -0.5483
 8273SOL    HW236279   3.860   0.718   3.857 -0.9816  0.1736 -0.2997
 8274SOL     OW36280   0.824   0.564   8.225 -0.2771  0.5967  0.4816
 8274SOL    HW136281   0.834   0.482   8.177 -1.5845 -1.2020  3.2791
 8274SOL    HW236282   0.906   0.613   8.219  0.3687 -0.5063  0.3112
 8275SOL     OW36283   0.679   2.544   5.797  0.2659  0.1136 -0.3292
 8275SOL    HW136284   0.637   2.555   5.712 -2.0438  2.7300  1.1707
 8275SOL    HW236285   0.668   2.449   5.808 -0.5438 -0.1483 -3.3482
 8276SOL     OW36286   3.417   4.618  14.044 -0.1318  0.5442  0.6006
 8276SOL    HW136287   3.439   4.541  14.095 -0.5729  1.0083  1.5076
 8276SOL    HW236288   3.328   4.625  14.081 -0.3719  3.2591 -0.4414
 8277SOL     OW36289   2.101   4.414   2.053 -0.3307 -0.0893  0.3529
 8277SOL    HW136290   2.152   4.334   2.040  1.3386  0.7639  1.5685
 8277SOL    HW236291   2.041   4.395   1.981 -1.5863 -0.7614  1.5922
 8278SOL     OW36292   4.565   0.570   7.663  0.0416  0.2884 -0.0187
 8278SOL    HW136293   4.515   0.650   7.649 -1.0672 -0.4960 -0.5576
 8278SOL    HW236294   4.497   0.512   7.697  1.2230 -0.9255  0.3052
 8279SOL     OW36295   2.127   4.251   0.641 -0.5278 -0.8234 -0.4566
 8279SOL    HW136296   2.164   4.212   0.562 -0.0059 -0.7229 -0.2613
 8279SOL    HW236297   2.059   4.311   0.611  1.0668  0.4247 -1.6135
 8280SOL     OW36298   4.283   2.552   4.857  0.0754  0.6103 -0.3046
 8280SOL    HW136299   4.354   2.489   4.840  0.0491  0.0530  1.7484
 8280SOL    HW236300   4.300   2.583   4.946 -0.3138 -0.5421  0.1618
 8281SOL     OW36301   4.685   2.851   6.856 -0.2860 -1.1262 -1.0865
 8281SOL    HW136302   4.662   2.836   6.948 -0.1939 -0.0089 -0.8776
 8281SOL    HW236303   4.631   2.928   6.839  0.7542 -0.2713 -0.5523
 8282SOL     OW36304   0.739   3.363   5.498 -0.8090 -0.1599 -0.2313
 8282SOL    HW136305   0.647   3.349   5.479 -0.7333 -0.7294 -0.1731
 8282SOL    HW236306   0.749   3.458   5.512 -2.5761 -0.0080 -0.0529
 8283SOL     OW36307   0.236   1.714   4.544 -0.1625 -0.4791  0.2493
 8283SOL    HW136308   0.282   1.640   4.583 -0.7239 -0.8545  0.1932
 8283SOL    HW236309   0.311   1.772   4.559 -1.1454 -0.2762  4.4251
 8284SOL     OW36310   4.255   3.905   7.800  0.1675  0.1699 -0.3777
 8284SOL    HW136311   4.213   3.988   7.777  0.9023  0.7358  0.3395
 8284SOL    HW236312   4.300   3.890   7.717 -1.4443 -3.1720 -0.6615
 8285SOL     OW36313   2.221   1.300   5.174  0.1153 -0.4238  0.2342
 8285SOL    HW136314   2.289   1.241   5.208 -0.2785 -0.1591  1.4617
 8285SOL    HW236315   2.225   1.372   5.236 -1.2794 -0.3044  0.1824
 8286SOL     OW36316   4.111   3.868   4.736 -0.4361  0.1271  0.5318
 8286SOL    HW136317   4.026   3.913   4.736  0.5326  1.9366  0.5571
 8286SOL    HW236318   4.112   3.821   4.819  1.0155 -0.4608  0.1774
 8287SOL     OW36319   1.480   2.306  13.122 -0.4110  0.2848  0.1116
 8287SOL    HW136320   1.413   2.310  13.190  1.4156 -1.1399  2.0039
 8287SOL    HW236321   1.431   2.289  13.042 -2.4455 -2.3106  1.9390
 8288SOL     OW36322   2.865   3.660  13.592 -0.2837  0.2644 -0.1717
 8288SOL    HW136323   2.933   3.594  13.611 -2.1539 -1.4467  0.5404
 8288SOL    HW236324   2.808   3.628  13.522 -0.9942  1.7280 -0.2583
 8289SOL     OW36325   3.211   2.358  10.981  0.3168 -0.2261  0.7175
 8289SOL    HW136326   3.186   2.266  10.989  0.3192 -0.1745  1.2640
 8289SOL    HW236327   3.267   2.365  11.058  0.1612  1.6153  0.6751
 8290SOL     OW36328   4.288   1.883  16.592  0.4925  0.5914 -0.4188
 8290SOL    HW136329   4.222   1.936  16.635  1.5670  0.8172  0.9616
 8290SOL    HW236330   4.273   1.804  16.644  1.1589  0.2287 -0.7661
 8291SOL     OW36331   4.192   0.237   8.158 -0.5015  0.2325  0.2148
 8291SOL    HW136332   4.166   0.311   8.103 -0.5813  1.1630  1.5145
 8291SOL    HW236333   4.157   0.172   8.097 -1.3849 -0.3995  1.4034
 8292SOL     OW36334   2.024   1.328   6.142  0.8704 -0.0416 -0.6716
 8292SOL    HW136335   1.991   1.417   6.154  2.0807  0.4585 -1.1065
 8292SOL    HW236336   2.020   1.295   6.232 -0.0457  0.5736 -0.4833
 8293SOL     OW36337   1.008   0.809   4.857 -0.0154 -0.5201  0.2799
 8293SOL    HW136338   0.987   0.787   4.948  0.1945  2.4143  1.0696
 8293SOL    HW236339   1.064   0.886   4.872 -2.0033  0.6327  1.7777
 8294SOL     OW36340   2.406   0.601   1.591 -0.5390  0.2191  0.1320
 8294SOL    HW136341   2.352   0.565   1.661  2.2433  0.0912  2.2351
 8294SOL    HW236342   2.467   0.658   1.638  0.2222  0.5614 -1.2584
 8295SOL     OW36343   3.254   2.333   0.473 -0.1016  0.3291  0.6938
 8295SOL    HW136344   3.253   2.256   0.530  0.1625  0.3108  0.6733
 8295SOL    HW236345   3.234   2.399   0.539  0.0614  0.0425  1.0327
 8296SOL     OW36346   0.855   1.388   5.307  0.3166 -0.0209  0.3010
 8296SOL    HW136347   0.807   1.307   5.294  0.5443 -0.0178 -0.5161
 8296SOL    HW236348   0.828   1.403   5.398  1.8045 -1.4797  0.9831
 8297SOL     OW36349   3.464   2.479  10.461 -0.0985 -0.0194 -0.1713
 8297SOL    HW136350   3.530   2.480  10.392  0.8387 -0.2842  0.7160
 8297SOL    HW236351   3.420   2.558  10.430  0.1121 -0.1094 -0.7087
 8298SOL     OW36352   3.409   0.937   0.718 -0.3957 -0.4699 -0.2647
 8298SOL    HW136353   3.407   0.981   0.804  1.0334 -2.4446  0.7846
 8298SOL    HW236354   3.504   0.939   0.705 -0.5104  1.8414 -0.7469
 8299SOL     OW36355   3.184   1.260  15.570  0.1590  0.5129 -0.1843
 8299SOL    HW136356   3.183   1.216  15.485  2.6623 -0.8948  0.5157
 8299SOL    HW236357   3.238   1.337  15.549  0.5548  0.1064 -0.6634
 8300SOL     OW36358   1.328   0.085   2.757 -0.5521  0.3277 -0.1020
 8300SOL    HW136359   1.269   0.066   2.830 -1.8792 -3.2116 -2.1297
 8300SOL    HW236360   1.355   0.177   2.763 -0.4191  0.3601 -1.2572
 8301SOL     OW36361   3.847   2.104   8.790  0.0915 -0.0453 -0.3438
 8301SOL    HW136362   3.796   2.027   8.815 -1.0094  1.3141  1.6276
 8301SOL    HW236363   3.882   2.094   8.701  1.9599 -1.5041  0.5854
 8302SOL     OW36364   2.248   0.496   9.742  0.0173 -0.1288  0.6341
 8302SOL    HW136365   2.261   0.406   9.771 -2.5172 -0.3756  0.9722
 8302SOL    HW236366   2.309   0.546   9.796 -1.4144  2.8241 -0.4564
 8303SOL     OW36367   2.445   3.663   2.936  0.0217  0.0453 -0.5347
 8303SOL    HW136368   2.513   3.644   2.872  1.7465  1.4974  0.8845
 8303SOL    HW236369   2.493   3.735   2.978 -0.9055  0.3778 -0.0518
 8304SOL     OW36370   4.003   0.183   1.625  0.0070  0.0921 -0.2630
 8304SOL    HW136371   3.960   0.235   1.693  0.6858 -0.6501  0.7412
 8304SOL    HW236372   4.088   0.226   1.616  0.4767 -1.5058 -3.3564
 8305SOL     OW36373   1.956   4.598   3.245  0.2647 -0.4002  0.3131
 8305SOL    HW136374   1.887   4.546   3.203 -0.7138  2.3657 -1.4653
 8305SOL    HW236375   1.928   4.595   3.336 -1.5225  0.7154 -0.2193
 8306SOL     OW36376   4.405   1.033   3.115 -0.3005 -0.1905 -0.3422
 8306SOL    HW136377   4.362   1.040   3.030  1.4451 -0.8110 -1.2868
 8306SOL    HW236378   4.386   1.121   3.145  0.5651 -0.7441  1.8564
 8307SOL     OW36379   4.030   3.408  14.262  0.4120 -0.4075  0.2250
 8307SOL    HW136380   4.023   3.331  14.206 -0.1290  1.4639 -2.2258
 8307SOL    HW236381   4.093   3.459  14.211  2.0151 -3.0392 -0.4377
 8308SOL     OW36382   0.144   2.826   9.882  0.2462  0.1249  0.3372
 8308SOL    HW136383   0.128   2.918   9.858 -1.7671 -0.2920  0.0760
 8308SOL    HW236384   0.214   2.839   9.945  1.3107 -1.6589 -0.4921
 8309SOL     OW36385   2.147   1.475   4.751 -0.4939 -0.5519 -0.1387
 8309SOL    HW136386   2.070   1.504   4.701  1.1703  1.9363 -1.2634
 8309SOL    HW236387   2.097   1.432   4.821 -1.2756  1.3625  0.4834
 8310SOL     OW36388   0.369   3.899   4.779  0.2524 -0.3100  0.3558
 8310SOL    HW136389   0.358   3.824   4.721 -0.3176 -0.2450  0.3809
 8310SOL    HW236390   0.464   3.906   4.769  0.0613 -0.7580 -1.6939
 8311SOL     OW36391   1.965   3.424   2.513 -0.1047 -0.0762 -0.8477
 8311SOL    HW136392   2.029   3.488   2.544  1.1527 -1.9368  0.4003
 8311SOL    HW236393   1.913   3.487   2.463  1.6188  0.7318 -1.6342
 8312SOL     OW36394   2.423   0.277   1.853 -0.3146 -0.2965  0.3436
 8312SOL    HW136395   2.422   0.220   1.930 -0.2218  1.6420  1.7936
 8312SOL    HW236396   2.467   0.352   1.895  0.7572 -0.6709 -0.1003
 8313SOL     OW36397   3.429   2.747  16.834 -0.1011  0.6698  0.1163
 8313SOL    HW136398   3.499   2.805  16.862 -0.5637  0.2418  2.1576
 8313SOL    HW236399   3.473   2.694  16.767  0.4137  0.4732  0.6126
 8314SOL     OW36400   4.259   3.135   6.496  0.1355  0.3437  0.0593
 8314SOL    HW136401   4.336   3.113   6.443 -0.6545  0.1274 -1.0000
 8314SOL    HW236402   4.272   3.069   6.565 -0.7769 -0.0105 -0.1100
 8315SOL     OW36403   0.009   4.037   6.386 -0.1486 -0.3213 -0.3205
 8315SOL    HW136404   0.076   3.986   6.432  1.3301  1.5583 -0.3738
 8315SOL    HW236405   4.653   3.999   6.428 -0.0017  1.6204  1.7137
 8316SOL     OW36406   1.262   0.831   1.598 -0.8507 -0.2458  0.4522
 8316SOL    HW136407   1.199   0.825   1.671  1.1605 -0.3450  2.1885
 8316SOL    HW236408   1.304   0.909   1.632 -1.4966  0.5723 -0.6431
 8317SOL     OW36409   4.340   1.169   5.724  0.4394  0.3571  0.2671
 8317SOL    HW136410   4.278   1.104   5.757 -0.6654  1.2087 -0.1184
 8317SOL    HW236411   4.368   1.137   5.638 -0.8567  2.6497 -1.0165
 8318SOL     OW36412   0.054   1.766   6.710 -0.2978  0.1714 -0.0723
 8318SOL    HW136413   0.149   1.755   6.710 -0.5555 -2.0135 -1.1656
 8318SOL    HW236414   0.033   1.760   6.803  0.3880  0.8637  0.1296
 8319SOL     OW36415   3.752   1.893   7.029  0.1549  0.2301  0.0907
 8319SOL    HW136416   3.734   1.985   7.011  0.9527  0.7753  2.1194
 8319SOL    HW236417   3.779   1.905   7.120  1.2811 -2.7612  0.1756
 8320SOL     OW36418   1.488   4.351   3.232 -0.2194 -0.4711  0.2514
 8320SOL    HW136419   1.410   4.311   3.272  2.2500 -3.1545  2.3385
 8320SOL    HW236420   1.525   4.269   3.198  1.1970  1.5433 -3.0644
 8321SOL     OW36421   3.643   2.655   9.800  0.2791 -0.4475  0.1623
 8321SOL    HW136422   3.604   2.720   9.741 -1.0145 -1.8867 -0.5658
 8321SOL    HW236423   3.735   2.637   9.782  0.0486 -1.3237 -0.0939
 8322SOL     OW36424   3.212   2.275  14.643  0.6984  0.1767 -0.2794
 8322SOL    HW136425   3.227   2.334  14.570  1.3460  0.3556 -0.0033
 8322SOL    HW236426   3.296   2.246  14.678  0.1791 -2.1584 -0.9788
 8323SOL     OW36427   2.036   2.068  10.602  0.0925 -0.1865 -0.2823
 8323SOL    HW136428   2.128   2.043  10.593  0.3648  1.4097 -2.0230
 8323SOL    HW236429   2.036   2.106  10.690  2.9415 -0.5591 -0.1066
 8324SOL     OW36430   0.284   0.024   1.549  0.3879 -0.0461  0.1404
 8324SOL    HW136431   0.233   4.673   1.512 -4.0784  2.3811  1.6279
 8324SOL    HW236432   0.272   0.096   1.488 -0.5693 -0.8377 -0.6030
 8325SOL     OW36433   3.972   3.333   5.338  0.0814 -0.4904 -0.4085
 8325SOL    HW136434   3.903   3.298   5.282 -1.7402  1.9443  0.3541
 8325SOL    HW236435   3.987   3.420   5.301  0.7330 -0.3634  0.1405
 8326SOL     OW36436   1.051   3.584  13.629 -0.1539 -0.2035 -0.2737
 8326SOL    HW136437   1.095   3.585  13.544 -1.3070  0.4591 -0.8595
 8326SOL    HW236438   0.993   3.510  13.611  1.0007 -0.6646 -2.1824
 8327SOL     OW36439   3.917   2.879   5.429  0.1196  0.1931  0.5477
 8327SOL    HW136440   3.895   2.954   5.484 -2.6996 -1.5505  1.8114
 8327SOL    HW236441   3.966   2.824   5.491  1.3337  1.3465  0.6170
 8328SOL     OW36442   0.839   1.202   2.901  0.6247 -0.5157 -0.0113
 8328SOL    HW136443   0.859   1.160   2.818  1.4564 -0.6540  0.2590
 8328SOL    HW236444   0.918   1.185   2.953  0.8546 -1.3567 -0.6238
 8329SOL     OW36445   2.953   2.021  10.178  0.6729 -0.3353 -0.5201
 8329SOL    HW136446   2.980   2.061  10.260  0.0400 -0.3841 -0.2926
 8329SOL    HW236447   3.019   2.052  10.115  1.4694  2.2204  1.5667
 8330SOL     OW36448   3.119   4.582  11.851 -0.2386 -0.4566 -0.2153
 8330SOL    HW136449   3.211   4.561  11.868 -0.1764 -0.8822 -1.0928
 8330SOL    HW236450   3.121   4.564  11.757 -1.5486  0.8601 -0.4922
 8331SOL     OW36451   4.309   3.692   5.142  0.0030 -0.3680 -0.0393
 8331SOL    HW136452   4.364   3.723   5.069  2.8589 -0.7282  1.9435
 8331SOL    HW236453   4.255   3.770   5.157 -1.1477 -0.7796 -2.0406
 8332SOL     OW36454   0.167   0.517   2.063 -0.5589 -0.0569  0.0473
 8332SOL    HW136455   0.204   0.463   1.993  0.2040 -1.6360  1.6954
 8332SOL    HW236456   0.229   0.589   2.059  1.2651 -1.6864 -0.7679
 8333SOL     OW36457   0.485   0.362  10.625 -0.1466 -0.8701  0.4364
 8333SOL    HW136458   0.432   0.438  10.601 -0.8634 -1.4279  0.2528
 8333SOL    HW236459   0.547   0.404  10.685 -1.2037  0.4739  0.5725
 8334SOL     OW36460   2.657   1.968   3.441 -0.1010 -0.3430 -0.2430
 8334SOL    HW136461   2.612   2.045   3.406 -0.6378 -0.7172 -0.3711
 8334SOL    HW236462   2.677   1.916   3.363 -1.1714  2.4914 -2.4248
 8335SOL     OW36463   4.132   2.360   8.067 -0.4405  0.4164 -0.1075
 8335SOL    HW136464   4.127   2.455   8.077 -0.5597  0.8904 -4.6428
 8335SOL    HW236465   4.225   2.345   8.079 -0.7370  0.1772  1.8076
 8336SOL     OW36466   3.032   2.550   0.633 -0.3356  0.1979 -0.3157
 8336SOL    HW136467   3.002   2.465   0.664 -1.1977  0.0781 -1.4917
 8336SOL    HW236468   2.981   2.548   0.552  1.0588 -2.7666 -1.1122
 8337SOL     OW36469   3.807   0.509   6.773  0.3033 -0.0114  0.2672
 8337SOL    HW136470   3.817   0.590   6.823  1.7500 -0.9108  1.4298
 8337SOL    HW236471   3.754   0.537   6.699  1.3599  3.6975  0.9222
 8338SOL     OW36472   2.553   0.371  12.281 -0.2997 -0.2508  0.2908
 8338SOL    HW136473   2.564   0.462  12.307 -1.1546 -0.7392  2.2981
 8338SOL    HW236474   2.610   0.328  12.344 -1.2765 -0.1936  1.2004
 8339SOL     OW36475   3.468   3.259  15.491  0.7098 -0.0900 -0.3884
 8339SOL    HW136476   3.464   3.175  15.445 -2.9971  0.9733 -2.0430
 8339SOL    HW236477   3.433   3.324  15.429 -0.8826  1.1575  1.8359
 8340SOL     OW36478   2.471   1.972   2.530  0.3073 -0.0500 -0.3893
 8340SOL    HW136479   2.431   2.037   2.588 -2.4257 -2.0012 -0.1223
 8340SOL    HW236480   2.479   1.892   2.582 -0.7753 -1.2849 -2.1425
 8341SOL     OW36481   1.057   4.338   8.318  0.2259 -0.3687 -0.2637
 8341SOL    HW136482   1.140   4.384   8.329 -0.2040  0.0162  1.3627
 8341SOL    HW236483   1.082   4.245   8.312 -2.2319 -0.8723 -2.5030
 8342SOL     OW36484   2.262   1.743   3.542 -0.0179 -0.3735  0.4914
 8342SOL    HW136485   2.269   1.794   3.462 -0.8349 -1.1159 -0.0565
 8342SOL    HW236486   2.197   1.797   3.588  1.5321 -1.2379  3.6828
 8343SOL     OW36487   3.281   4.131   9.549  0.0738  0.4901  0.0457
 8343SOL    HW136488   3.239   4.196   9.605  0.9322  0.2983  0.9154
 8343SOL    HW236489   3.206   4.107   9.495 -0.2007  0.3636  0.4901
 8344SOL     OW36490   4.549   0.316   6.215  0.1601 -0.0548 -0.1299
 8344SOL    HW136491   4.512   0.338   6.130  1.4801  0.5625 -0.5489
 8344SOL    HW236492   4.630   0.368   6.208  0.6960 -0.9237 -0.3707
 8345SOL     OW36493   2.339   0.720   9.075  0.0985  0.0083 -0.1674
 8345SOL    HW136494   2.315   0.639   9.030 -0.2686 -0.5400  1.0135
 8345SOL    HW236495   2.286   0.732   9.153  1.4874 -2.7365  1.1822
 8346SOL     OW36496   1.562   4.186   6.052  0.1993  0.1722  0.3177
 8346SOL    HW136497   1.579   4.155   5.963  1.7180  0.2045  0.5950
 8346SOL    HW236498   1.554   4.099   6.091 -2.2072  0.9697  1.5630
 8347SOL     OW36499   4.356   0.709   8.294  0.2567 -0.1862 -0.4069
 8347SOL    HW136500   4.435   0.762   8.304 -0.0649 -0.1168  1.7014
 8347SOL    HW236501   4.384   0.634   8.241  0.1500  0.4883 -1.4136
 8348SOL     OW36502   2.313   2.851   6.181 -0.2265 -0.1160 -0.2356
 8348SOL    HW136503   2.302   2.756   6.188  2.2777 -0.4291 -0.3473
 8348SOL    HW236504   2.280   2.882   6.265  2.9352 -1.8688  1.6700
 8349SOL     OW36505   0.053   1.573   4.040 -0.1873  0.0000 -0.2718
 8349SOL    HW136506   4.692   1.621   4.029 -1.4368 -1.3912  2.7726
 8349SOL    HW236507   0.042   1.508   3.971  4.1726  1.4944 -2.3214
 8350SOL     OW36508   3.315   4.345   6.434  0.0645 -0.2205 -0.2499
 8350SOL    HW136509   3.339   4.279   6.369  3.0196 -0.8382  1.5129
 8350SOL    HW236510   3.382   4.323   6.499  1.0686 -0.7608 -1.4727
 8351SOL     OW36511   3.632   3.647  15.232 -0.4247  0.0559 -0.1072
 8351SOL    HW136512   3.672   3.636  15.319 -0.5672  0.2327 -0.0206
 8351SOL    HW236513   3.642   3.557  15.199 -1.9023 -0.0954 -0.1607
 8352SOL     OW36514   0.817   1.117  11.804 -0.2784  0.3836  0.1905
 8352SOL    HW136515   0.895   1.150  11.847  0.9035 -1.9489 -0.1559
 8352SOL    HW236516   0.755   1.096  11.874 -1.9787  1.9286 -0.8285
 8353SOL     OW36517   1.800   1.214   3.900  0.2186  0.1566 -0.0763
 8353SOL    HW136518   1.834   1.303   3.910  2.9808 -1.1623  2.4570
 8353SOL    HW236519   1.711   1.228   3.933  0.0204  0.0333 -0.5628
 8354SOL     OW36520   4.494   3.541   7.413  0.5239  0.8402  0.3045
 8354SOL    HW136521   4.438   3.523   7.337 -0.4083 -0.2140  1.2386
 8354SOL    HW236522   4.577   3.520   7.370 -0.6463 -0.6315 -1.2699
 8355SOL     OW36523   3.221   2.719   1.957  0.0170 -0.8632 -0.0525
 8355SOL    HW136524   3.241   2.661   1.884  1.4857 -0.0314 -0.3233
 8355SOL    HW236525   3.142   2.761   1.923  0.3885  0.5360  0.7852
 8356SOL     OW36526   4.373   3.668   2.695  0.4218  0.4769 -0.0720
 8356SOL    HW136527   4.287   3.656   2.655  0.0794  0.3414  0.6973
 8356SOL    HW236528   4.418   3.592   2.658  0.6394  1.5146 -1.8888
 8357SOL     OW36529   4.359   3.399   0.131  0.3930  0.7437 -0.0053
 8357SOL    HW136530   4.337   3.312   0.097 -4.0882  1.7472  0.3199
 8357SOL    HW236531   4.446   3.382   0.167  1.2367  2.4071 -1.3090
 8358SOL     OW36532   2.965   3.195  10.315 -0.1595  0.3524 -0.2483
 8358SOL    HW136533   2.918   3.194  10.232  2.8073 -0.2428 -1.9087
 8358SOL    HW236534   2.955   3.110  10.359 -1.2413  1.6465  2.0382
 8359SOL     OW36535   3.908   4.427   4.430  0.0330 -0.1519 -0.3463
 8359SOL    HW136536   3.935   4.408   4.341  0.0074 -0.0703 -0.3712
 8359SOL    HW236537   3.813   4.422   4.419 -0.0314 -1.6505  0.8086
 8360SOL     OW36538   2.844   1.855  17.286  0.5661 -0.0804  0.1316
 8360SOL    HW136539   2.837   1.944  17.252 -0.6882 -0.1545  0.2191
 8360SOL    HW236540   2.788   1.802  17.229 -0.0147 -0.8303  1.4067
 8361SOL     OW36541   4.610   4.364   1.396  0.4578  0.1424 -0.2074
 8361SOL    HW136542   4.517   4.361   1.375  0.4536  1.4122 -0.3589
 8361SOL    HW236543   4.644   4.354   1.307  1.1040 -0.9543  0.1639
 8362SOL     OW36544   1.097   2.912  16.288 -0.1268 -0.4764  0.4696
 8362SOL    HW136545   1.182   2.906  16.332 -0.7702 -1.3943  1.5757
 8362SOL    HW236546   1.041   2.915  16.365 -0.4486  0.1375  0.2095
 8363SOL     OW36547   2.133   4.146   3.377 -0.0213 -0.0338 -0.0920
 8363SOL    HW136548   2.091   4.075   3.328 -0.2145  0.0658 -0.0730
 8363SOL    HW236549   2.170   4.205   3.312  2.4344 -1.3144  0.1717
 8364SOL     OW36550   0.577   0.481   6.869  0.0163  0.1175  0.0686
 8364SOL    HW136551   0.653   0.485   6.927  0.3966 -0.1702 -0.4078
 8364SOL    HW236552   0.601   0.546   6.803  1.7864  0.8542  1.4577
 8365SOL     OW36553   0.234   0.961   8.624  0.4196 -0.7111 -0.4621
 8365SOL    HW136554   0.198   1.048   8.639 -1.5698 -1.4902 -0.6783
 8365SOL    HW236555   0.316   0.966   8.673 -0.7229  1.5128  1.2386
 8366SOL     OW36556   0.193   2.276  10.282 -0.2606  0.0671  0.1565
 8366SOL    HW136557   0.123   2.211  10.272  0.3420 -0.7070  0.9667
 8366SOL    HW236558   0.202   2.262  10.376 -3.0488 -0.4520  0.3646
 8367SOL     OW36559   4.132   4.701   8.326 -0.1484  0.1390 -0.1713
 8367SOL    HW136560   4.183   0.011   8.251 -0.0004 -2.3739 -1.1388
 8367SOL    HW236561   4.179   4.621   8.350 -1.6261 -0.9214 -0.7990
 8368SOL     OW36562   0.908   2.881  16.077 -0.1753 -0.6005  0.5062
 8368SOL    HW136563   0.833   2.928  16.112 -1.1571 -1.4811 -0.4208
 8368SOL    HW236564   0.980   2.889  16.139 -0.5468 -0.1583  0.8830
 8369SOL     OW36565   3.125   2.823   5.401  0.1917  0.4881 -0.6554
 8369SOL    HW136566   3.053   2.765   5.377 -0.2829  1.9395 -2.6701
 8369SOL    HW236567   3.199   2.763   5.394 -0.7305 -0.9697  1.9466
 8370SOL     OW36568   3.180   0.031   4.039 -0.8138 -0.2389  0.2002
 8370SOL    HW136569   3.156   4.664   4.065 -0.3369 -0.6112 -0.6373
 8370SOL    HW236570   3.214   0.024   3.950 -0.0382 -1.3229  0.5898
 8371SOL     OW36571   0.220   3.524   4.109  0.5376 -0.3720  0.3052
 8371SOL    HW136572   0.144   3.564   4.067  1.6677  0.2577 -1.1471
 8371SOL    HW236573   0.281   3.582   4.063 -0.8685  0.5655 -0.3747
 8372SOL     OW36574   1.131   2.437  14.554 -0.1210  0.2468  0.4885
 8372SOL    HW136575   1.203   2.496  14.574  0.2635 -0.9857  2.7540
 8372SOL    HW236576   1.127   2.396  14.640 -0.7831 -1.4949 -0.3748
 8373SOL     OW36577   3.340   4.116   4.729  0.1059  0.1330  0.0228
 8373SOL    HW136578   3.256   4.130   4.772 -0.0900  1.9796 -0.9600
 8373SOL    HW236579   3.363   4.209   4.727 -0.2575  0.1964 -1.1498
 8374SOL     OW36580   4.270   0.252   2.800  0.2643 -0.2807 -0.5869
 8374SOL    HW136581   4.222   0.335   2.806  0.4829 -0.3389  1.8012
 8374SOL    HW236582   4.197   0.191   2.788  0.0791 -0.0890 -0.4579
 8375SOL     OW36583   0.712   1.180  15.355  0.5567  0.6913  0.0139
 8375SOL    HW136584   0.663   1.262  15.346 -0.7994 -0.3088 -1.6080
 8375SOL    HW236585   0.650   1.114  15.385  0.0779  0.4977 -1.4249
 8376SOL     OW36586   0.732   1.061   7.117  0.0236 -0.3151 -0.2852
 8376SOL    HW136587   0.677   1.068   7.039  1.1240  0.3145 -1.0087
 8376SOL    HW236588   0.793   0.998   7.079  0.7740  0.0923  0.2435
 8377SOL     OW36589   2.627   2.581   8.365 -0.3138 -0.4040  0.8041
 8377SOL    HW136590   2.544   2.624   8.386  0.2520  2.1471 -2.1526
 8377SOL    HW236591   2.609   2.560   8.273  2.2408 -0.8325  0.3849
 8378SOL     OW36592   2.793   4.327   3.189  0.0058  0.0896  0.2609
 8378SOL    HW136593   2.874   4.378   3.182  0.0987  0.2707  2.4367
 8378SOL    HW236594   2.819   4.263   3.256 -2.2794  1.2787  2.2839
 8379SOL     OW36595   2.160   2.840   5.407 -0.0426  0.1267 -0.8556
 8379SOL    HW136596   2.148   2.842   5.312  0.0421 -3.0233 -0.9437
 8379SOL    HW236597   2.108   2.760   5.417  0.8496 -0.5353 -1.4671
 8380SOL     OW36598   1.165   2.519   0.761 -0.4166 -0.3063  0.2292
 8380SOL    HW136599   1.140   2.546   0.850  0.3115 -0.4755  0.4902
 8380SOL    HW236600   1.122   2.434   0.752 -0.5117 -0.3380  0.9385
 8381SOL     OW36601   4.463   3.548  15.459  0.0929 -0.1444  0.4508
 8381SOL    HW136602   4.394   3.492  15.494  0.3477 -0.5142  0.3616
 8381SOL    HW236603   4.524   3.554  15.533 -0.2788 -1.8069  0.8771
 8382SOL     OW36604   3.766   2.221   3.595 -0.5267 -0.2216 -0.1271
 8382SOL    HW136605   3.772   2.232   3.690  1.0175  0.5741 -0.3150
 8382SOL    HW236606   3.702   2.289   3.573 -1.8066 -1.1139  0.8303
 8383SOL     OW36607   2.489   3.616  10.851 -0.0869  0.1986  0.2335
 8383SOL    HW136608   2.414   3.577  10.806 -0.4394  1.1341  0.0160
 8383SOL    HW236609   2.531   3.674  10.787 -0.8171  1.8704  1.2776
 8384SOL     OW36610   3.638   1.324   2.464 -0.0195 -0.2794  0.1725
 8384SOL    HW136611   3.554   1.286   2.491  0.5934 -0.6818  1.5033
 8384SOL    HW236612   3.666   1.256   2.404  3.0596  1.1374  0.0041
 8385SOL     OW36613   0.858   0.407  15.355 -0.1965  0.0041 -0.5321
 8385SOL    HW136614   0.802   0.374  15.424 -1.0036 -0.4367 -1.4012
 8385SOL    HW236615   0.836   0.500  15.364  0.8448  0.2552 -0.5740
 8386SOL     OW36616   3.890   4.002  12.538 -0.1681 -0.2445 -0.5459
 8386SOL    HW136617   3.949   3.946  12.488  0.4941 -0.0063 -0.0311
 8386SOL    HW236618   3.954   4.033  12.603 -1.7166 -0.6369  1.1705
 8387SOL     OW36619   0.262   2.669   7.079  0.3583 -0.5483  0.1546
 8387SOL    HW136620   0.321   2.674   7.004  0.7704  1.4666  0.5882
 8387SOL    HW236621   0.244   2.762   7.093 -0.1426 -0.7157  0.6403
 8388SOL     OW36622   1.343   1.161  12.907 -0.2712  0.6253 -0.1802
 8388SOL    HW136623   1.428   1.118  12.893 -0.6149  0.1842 -0.9411
 8388SOL    HW236624   1.367   1.237  12.958 -0.0865  0.9308 -0.7204
 8389SOL     OW36625   1.562   2.646   3.724  0.1068  0.0098 -0.1530
 8389SOL    HW136626   1.652   2.663   3.694  0.5234 -1.3703  0.3029
 8389SOL    HW236627   1.577   2.579   3.791  2.0140  0.2812 -0.2948
 8390SOL     OW36628   2.937   3.168  15.510 -0.0383 -0.5173 -0.4154
 8390SOL    HW136629   3.003   3.113  15.467 -0.4398  0.7613 -2.6584
 8390SOL    HW236630   2.889   3.104  15.562 -0.0927  0.0986  0.2874
 8391SOL     OW36631   2.896   3.086  12.731  0.0201 -0.5147  0.2907
 8391SOL    HW136632   2.982   3.114  12.761  0.8251 -1.1096 -1.4989
 8391SOL    HW236633   2.895   2.991  12.742 -1.8727 -0.5827 -0.4687
 8392SOL     OW36634   2.941   1.970   1.550 -0.6507  0.0147 -0.0069
 8392SOL    HW136635   2.928   1.889   1.600  0.6510  0.5642  1.2340
 8392SOL    HW236636   2.862   2.013   1.582 -0.7850 -0.5999  0.4968
 8393SOL     OW36637   3.195   1.382   7.693  0.1434 -0.0537  0.5847
 8393SOL    HW136638   3.163   1.292   7.688  0.3940 -0.0237 -1.2761
 8393SOL    HW236639   3.243   1.399   7.612 -0.7574 -0.0355  0.0553
 8394SOL     OW36640   4.263   4.561   6.190 -0.2262  0.4045  0.4510
 8394SOL    HW136641   4.319   4.548   6.267 -0.9966 -0.1638  0.9147
 8394SOL    HW236642   4.244   4.655   6.186  0.2539  0.5256  1.0526
 8395SOL     OW36643   3.037   3.987   7.676 -0.4300  0.3968 -0.0179
 8395SOL    HW136644   2.978   3.961   7.606 -0.3068  1.5442 -0.5415
 8395SOL    HW236645   3.022   4.081   7.682  0.4250  0.5689 -0.6229
 8396SOL     OW36646   2.957   3.861   0.651  0.4093  0.0975  0.1044
 8396SOL    HW136647   2.956   3.895   0.740 -0.2179  1.6850 -0.5209
 8396SOL    HW236648   2.973   3.947   0.613 -0.2322  0.1760  0.0267
 8397SOL     OW36649   1.775   0.578   5.412 -0.2034 -0.5211 -0.1617
 8397SOL    HW136650   1.685   0.605   5.432  0.1737 -1.5245  2.9956
 8397SOL    HW236651   1.820   0.594   5.495  0.8106  1.7221 -1.1440
 8398SOL     OW36652   4.589   0.809   4.068 -0.1149  0.1166 -0.0642
 8398SOL    HW136653   4.631   0.786   4.151 -1.7832  0.6582  0.9167
 8398SOL    HW236654   4.505   0.841   4.099 -0.4423 -1.8581  1.0448
 8399SOL     OW36655   0.722   2.188   9.333 -0.6640  0.1405  0.1475
 8399SOL    HW136656   0.767   2.106   9.310 -1.3301  0.0897 -0.9900
 8399SOL    HW236657   0.644   2.185   9.278  0.8781  1.3129 -2.0742
 8400SOL     OW36658   1.569   0.234   5.198 -0.0564 -0.1404  0.1214
 8400SOL    HW136659   1.530   0.188   5.124  0.2237  1.3980 -0.9978
 8400SOL    HW236660   1.505   0.229   5.269 -3.2374 -0.7995 -2.8385
 8401SOL     OW36661   2.028   1.616   5.433  0.0225 -0.4477 -0.5371
 8401SOL    HW136662   2.103   1.560   5.413  0.8212 -0.3870  2.2414
 8401SOL    HW236663   2.048   1.631   5.526  1.2565 -1.0939 -0.6911
 8402SOL     OW36664   2.380   3.059   5.310  0.0299  0.4631 -0.3519
 8402SOL    HW136665   2.336   2.975   5.326  1.2891 -0.0921  0.1607
 8402SOL    HW236666   2.462   3.018   5.336  0.8811  0.4255 -3.0361
 8403SOL     OW36667   2.054   3.536   4.265 -0.5157 -0.8434  0.5527
 8403SOL    HW136668   2.141   3.566   4.237 -0.8815  0.8658  1.2178
 8403SOL    HW236669   2.038   3.612   4.321 -0.5053 -0.7283  0.3980
 8404SOL     OW36670   0.239   3.401   0.938  0.0664  0.5280  0.0397
 8404SOL    HW136671   0.154   3.397   0.982 -1.2288  1.1191 -2.3781
 8404SOL    HW236672   0.282   3.479   0.972  0.0578  1.3963 -1.9024
 8405SOL     OW36673   4.486   3.702   4.508 -0.6240 -0.8361  0.0788
 8405SOL    HW136674   4.528   3.664   4.431  2.1583  0.0555  1.1427
 8405SOL    HW236675   4.556   3.730   4.568 -1.1549 -0.0657  0.3360
 8406SOL     OW36676   2.730   0.082   7.809 -0.8767  0.0520 -0.0373
 8406SOL    HW136677   2.703   4.711   7.803 -1.0729  0.1135 -0.0955
 8406SOL    HW236678   2.648   0.128   7.789 -1.6179 -1.8382 -1.4224
 8407SOL     OW36679   4.568   0.482   5.427  0.0512 -0.5373 -0.3860
 8407SOL    HW136680   4.522   0.537   5.364  1.8308  0.2911 -0.9722
 8407SOL    HW236681   4.653   0.475   5.382 -0.5190 -3.2066 -1.0752
 8408SOL     OW36682   4.396   1.768  11.941 -0.2332  0.4577 -0.6370
 8408SOL    HW136683   4.465   1.719  11.897  1.5400  1.9220  0.4735
 8408SOL    HW236684   4.450   1.789  12.018  0.0761  0.0506 -0.7462
 8409SOL     OW36685   0.635   1.550   7.230  0.6422 -0.0229  0.1168
 8409SOL    HW136686   0.617   1.617   7.164  1.3852 -0.6282 -0.6913
 8409SOL    HW236687   0.691   1.492   7.178  2.2162  2.8597 -1.4338
 8410SOL     OW36688   1.444   4.448   4.607  0.3898 -0.0475 -0.1147
 8410SOL    HW136689   1.415   4.523   4.659 -1.3591  1.4556 -3.1958
 8410SOL    HW236690   1.455   4.491   4.522  0.7636 -0.6677 -0.3830
 8411SOL     OW36691   4.257   0.879  14.319 -0.4182  0.0246  0.1401
 8411SOL    HW136692   4.224   0.934  14.390 -1.0222 -1.0497  0.7001
 8411SOL    HW236693   4.326   0.824  14.356  0.3197  2.3714  2.1896
 8412SOL     OW36694   1.865   4.554  11.742  0.1130  0.2304  0.3505
 8412SOL    HW136695   1.894   4.643  11.720 -1.2284  0.2781 -1.2734
 8412SOL    HW236696   1.778   4.565  11.779  0.3907 -3.4353  2.0359
 8413SOL     OW36697   2.374   4.195   2.605 -0.4808  0.2045  0.9848
 8413SOL    HW136698   2.465   4.220   2.592  0.5133 -2.5789  2.6727
 8413SOL    HW236699   2.344   4.184   2.515 -0.1899  1.9890  0.6679
 8414SOL     OW36700   0.437   0.593   4.335  0.1743 -0.4863 -0.0982
 8414SOL    HW136701   0.497   0.589   4.409 -0.1280 -1.0202  0.1145
 8414SOL    HW236702   0.415   0.500   4.330  0.7027 -0.7672  2.8539
 8415SOL     OW36703   1.512   0.252   8.429 -0.5180 -0.7977  0.3767
 8415SOL    HW136704   1.489   0.248   8.336 -1.8614 -0.6558  0.6992
 8415SOL    HW236705   1.473   0.175   8.471  1.6582 -1.9851  0.1997
 8416SOL     OW36706   3.709   3.404  10.013  0.2825 -0.1517 -0.1344
 8416SOL    HW136707   3.708   3.309  10.020  1.9327 -0.3053 -1.9323
 8416SOL    HW236708   3.637   3.410   9.950 -1.1259  2.2325  1.6790
 8417SOL     OW36709   3.482   4.225  17.189 -0.0802  0.6810  0.5262
 8417SOL    HW136710   3.392   4.259  17.183 -0.4239 -0.8802 -3.2803
 8417SOL    HW236711   3.486   4.208  17.283 -0.3143  0.6204  0.5249
 8418SOL     OW36712   1.535   0.670   2.709 -0.0193 -0.3825  0.1522
 8418SOL    HW136713   1.500   0.736   2.650 -0.7896 -0.2274  0.7928
 8418SOL    HW236714   1.519   0.604   2.642  1.1356  0.1072 -0.6096
 8419SOL     OW36715   4.616   1.145   5.771  0.5061  0.2244 -0.3441
 8419SOL    HW136716   4.688   1.187   5.724 -0.5387  1.5617 -0.7574
 8419SOL    HW236717   4.538   1.188   5.737 -0.2961  0.6836  2.0973
 8420SOL     OW36718   4.500   3.464   3.740 -0.1404  0.0855  0.7928
 8420SOL    HW136719   4.447   3.526   3.790 -2.6318 -2.3875  1.1940
 8420SOL    HW236720   4.457   3.379   3.732  1.2727 -0.2729 -3.0313
 8421SOL     OW36721   4.678   2.409   2.634  0.1290 -0.1041 -0.3263
 8421SOL    HW136722   4.718   2.409   2.722 -0.0735 -0.0115 -0.2351
 8421SOL    HW236723   0.032   2.370   2.590  0.5138  0.3990 -0.1158
 8422SOL     OW36724   4.125   4.094   7.140  0.1066 -0.1397  0.2140
 8422SOL    HW136725   4.216   4.068   7.127 -0.1616 -1.9532  1.8212
 8422SOL    HW236726   4.129   4.183   7.106 -0.6064 -0.7572 -1.4530
 8423SOL     OW36727   3.833   3.126   3.059 -0.3396  0.1707  0.7547
 8423SOL    HW136728   3.928   3.119   3.051 -0.0742  4.0132  0.5715
 8423SOL    HW236729   3.801   3.088   3.141  0.6637 -2.3278  0.0085
 8424SOL     OW36730   3.001   0.633   3.343 -0.9662  0.4926 -0.1391
 8424SOL    HW136731   3.024   0.701   3.280  0.2117 -0.0626 -0.3117
 8424SOL    HW236732   3.089   0.611   3.373 -0.9313 -0.3411 -0.8586
 8425SOL     OW36733   3.284   2.177  10.712  0.0270  0.2939  0.2560
 8425SOL    HW136734   3.286   2.210  10.802  0.3170  2.5429 -0.5660
 8425SOL    HW236735   3.198   2.136  10.705 -0.3775  1.1735  0.0099
 8426SOL     OW36736   0.577   1.337   1.688 -0.1127  0.2889  0.3817
 8426SOL    HW136737   0.484   1.359   1.694 -0.8651 -2.1817 -2.1306
 8426SOL    HW236738   0.556   1.254   1.732 -0.4260 -0.0029 -0.3189
 8427SOL     OW36739   2.439   4.230  10.607  0.4069 -0.7141  0.4092
 8427SOL    HW136740   2.376   4.298  10.629 -1.2192 -2.5861  1.5152
 8427SOL    HW236741   2.477   4.260  10.524 -0.4099 -0.3593  0.1634
 8428SOL     OW36742   1.742   3.200  10.186 -0.6913 -0.2750  0.9102
 8428SOL    HW136743   1.778   3.250  10.114 -1.2647 -1.4685 -0.2062
 8428SOL    HW236744   1.676   3.255  10.228 -0.4922  0.9258 -0.3871
 8429SOL     OW36745   3.892   0.960   2.143 -0.3932 -0.4012 -0.3278
 8429SOL    HW136746   3.937   0.879   2.171 -2.2725 -1.2905  0.0994
 8429SOL    HW236747   3.876   0.931   2.053 -3.0416 -0.4113  0.1708
 8430SOL     OW36748   3.450   0.761  11.527 -0.1417  0.6046  0.0408
 8430SOL    HW136749   3.456   0.801  11.440 -0.8993 -0.8480 -0.6884
 8430SOL    HW236750   3.535   0.782  11.564  0.7394 -1.8240 -0.6171
 8431SOL     OW36751   0.091   2.478  12.255  0.0679  0.0240 -0.2413
 8431SOL    HW136752   0.113   2.401  12.308 -0.4078  0.9104  1.2257
 8431SOL    HW236753   0.178   2.477  12.215  0.2027 -2.8399  0.0980
 8432SOL     OW36754   1.322   2.190   2.661 -0.0224  0.2059  0.0819
 8432SOL    HW136755   1.269   2.236   2.726 -0.9733 -1.6467  0.6412
 8432SOL    HW236756   1.387   2.149   2.718  1.3116 -0.6260 -2.0337
 8433SOL     OW36757   4.680   2.259   6.374 -0.3199 -0.7033 -0.2210
 8433SOL    HW136758   4.675   2.293   6.464  4.0260  0.4947 -0.4035
 8433SOL    HW236759   4.592   2.228   6.356  0.1544 -1.4754 -1.1539
 8434SOL     OW36760   2.028   1.754  13.342  0.1687 -0.2965  0.1888
 8434SOL    HW136761   2.064   1.690  13.403  1.1903 -0.2064 -0.3219
 8434SOL    HW236762   2.094   1.821  13.362 -0.1307  0.2300 -0.5972
 8435SOL     OW36763   0.443   3.557   7.199 -0.6183 -0.0613 -0.3529
 8435SOL    HW136764   0.466   3.518   7.115  1.2500  1.4533 -0.5473
 8435SOL    HW236765   0.377   3.623   7.177  0.7751  0.4346 -3.0028
 8436SOL     OW36766   4.550   3.830   2.418 -0.0151  0.1261 -0.4815
 8436SOL    HW136767   4.580   3.756   2.470  0.1616  1.4785  1.3292
 8436SOL    HW236768   4.458   3.827   2.442 -0.0145 -0.5251 -0.5697
 8437SOL     OW36769   3.672   4.103   1.014 -0.0313 -0.0603  0.6815
 8437SOL    HW136770   3.582   4.137   1.019  0.8808  2.1254  1.7725
 8437SOL    HW236771   3.661   4.011   0.991  2.4175 -0.3080  0.5351
 8438SOL     OW36772   2.070   2.548   9.252 -0.0519  0.5081 -0.6204
 8438SOL    HW136773   2.000   2.534   9.315  1.7109 -0.6090  1.0837
 8438SOL    HW236774   2.051   2.506   9.168  1.4054  0.4680 -0.9307
 8439SOL     OW36775   2.608   1.829   3.680 -0.3293 -0.3636  0.2569
 8439SOL    HW136776   2.596   1.881   3.601  2.2933  1.7229  1.2286
 8439SOL    HW236777   2.693   1.860   3.711 -0.4186 -0.3807  0.5167
 8440SOL     OW36778   1.454   2.041  13.562  0.6885 -0.3020  0.5130
 8440SOL    HW136779   1.385   1.975  13.568  1.7395 -1.3296  1.2969
 8440SOL    HW236780   1.406   2.111  13.605 -0.0212 -0.5078  0.0533
 8441SOL     OW36781   1.414   3.807   7.402  0.0158  0.2687 -0.6137
 8441SOL    HW136782   1.361   3.816   7.322 -0.1056 -3.1801 -0.9353
 8441SOL    HW236783   1.347   3.787   7.468  1.7611  1.3072  1.4692
 8442SOL     OW36784   3.043   4.363   8.625 -0.2068 -0.7267  0.5694
 8442SOL    HW136785   3.128   4.381   8.664  0.4677 -1.1675 -0.6794
 8442SOL    HW236786   3.074   4.320   8.546 -1.7437  0.7469 -0.8517
 8443SOL     OW36787   2.562   3.968   7.288 -0.0567  0.0773 -0.1201
 8443SOL    HW136788   2.530   3.880   7.304  0.4404 -0.1385 -0.3218
 8443SOL    HW236789   2.643   3.947   7.241  0.6091  1.7988  0.2534
 8444SOL     OW36790   3.263   2.263   6.191  0.4127 -0.3228  0.0987
 8444SOL    HW136791   3.206   2.189   6.212  1.2445 -0.4480  1.8836
 8444SOL    HW236792   3.334   2.243   6.252 -0.1793 -0.8523  0.6150
 8445SOL     OW36793   1.418   1.961  12.872 -0.1606  0.4500  0.2707
 8445SOL    HW136794   1.436   1.908  12.794  1.0904 -0.6127  1.2898
 8445SOL    HW236795   1.492   1.936  12.927  3.3280  1.1639 -4.1538
 8446SOL     OW36796   2.830   0.677  15.444  0.2078 -0.2145  0.4140
 8446SOL    HW136797   2.819   0.706  15.353 -0.3617  0.1068  0.5879
 8446SOL    HW236798   2.882   0.751  15.476  1.7099 -1.3949  0.7081
 8447SOL     OW36799   2.221   0.581   5.980  0.4090  0.3453 -0.3905
 8447SOL    HW136800   2.314   0.568   6.002 -0.0374 -4.3344 -1.1761
 8447SOL    HW236801   2.230   0.633   5.900  1.3607  0.4320 -0.2309
 8448SOL     OW36802   2.875   2.385  17.518  0.2201 -0.9943  0.2149
 8448SOL    HW136803   2.892   2.292  17.531  0.5186 -1.0726 -0.7481
 8448SOL    HW236804   2.964   2.419  17.533 -0.9547  2.2381 -0.1427
 8449SOL     OW36805   1.311   3.433  16.913  0.2756 -0.8490 -0.2868
 8449SOL    HW136806   1.254   3.421  16.989  1.0499 -0.4095  0.3647
 8449SOL    HW236807   1.397   3.398  16.939  0.3806  0.7096  1.4805
 8450SOL     OW36808   2.800   0.113   2.855  0.1223 -0.5447  0.3587
 8450SOL    HW136809   2.778   0.202   2.828 -0.4621  0.1386  3.0980
 8450SOL    HW236810   2.722   0.092   2.906 -0.6027  2.7860  0.6174
 8451SOL     OW36811   0.085   4.490  16.035 -0.3540  0.4915 -0.4557
 8451SOL    HW136812   0.036   4.432  15.977 -1.8633  0.6681  0.6461
 8451SOL    HW236813   0.165   4.440  16.053  0.0499  0.6908 -1.7185
 8452SOL     OW36814   0.493   4.525   4.867 -0.1030  0.2214 -1.0331
 8452SOL    HW136815   0.561   4.576   4.824  1.5341 -0.9015  0.2212
 8452SOL    HW236816   0.463   4.585   4.936  2.2983 -0.1822  0.3468
 8453SOL     OW36817   1.409   1.359   7.991  0.3349 -0.1232 -0.0614
 8453SOL    HW136818   1.386   1.402   7.909  1.1271 -2.1138 -1.3423
 8453SOL    HW236819   1.494   1.403   7.998 -0.5901  1.1219  3.2404
 8454SOL     OW36820   2.094   3.482  10.082 -0.2715 -0.5104  0.8826
 8454SOL    HW136821   2.120   3.513  10.168 -0.0519 -1.6111  1.2153
 8454SOL    HW236822   2.175   3.492  10.032 -0.0438  1.8452  1.7428
 8455SOL     OW36823   3.047   3.205   4.898  0.1546 -0.8635  0.4181
 8455SOL    HW136824   3.104   3.192   4.822 -1.2584  0.1169 -0.8085
 8455SOL    HW236825   3.033   3.299   4.899 -1.4525 -1.1174  1.9517
 8456SOL     OW36826   1.883   4.274   3.266 -0.0618  0.3855 -0.6096
 8456SOL    HW136827   1.965   4.260   3.314 -1.3093 -0.4753  1.2797
 8456SOL    HW236828   1.827   4.267   3.343 -1.5184  1.0319 -1.6189
 8457SOL     OW36829   0.483   4.213   7.764 -0.0382 -0.1752 -0.8724
 8457SOL    HW136830   0.540   4.190   7.838 -1.4874 -0.4393  0.1606
 8457SOL    HW236831   0.466   4.127   7.725  2.1756 -0.3668 -1.4443
 8458SOL     OW36832   2.537   2.842   9.140  0.3118 -0.7555 -0.4049
 8458SOL    HW136833   2.589   2.923   9.145  0.5711 -0.9663  0.1926
 8458SOL    HW236834   2.497   2.847   9.226  1.0558  1.6761 -0.2048
 8459SOL     OW36835   2.057   2.959  17.126 -0.1028 -0.0842 -0.1570
 8459SOL    HW136836   2.147   2.936  17.105  0.2476 -0.7706  2.1011
 8459SOL    HW236837   2.067   2.965  17.220  2.2139  1.3591 -0.5048
 8460SOL     OW36838   4.181   0.307  16.632  0.2807 -0.1208 -0.0251
 8460SOL    HW136839   4.131   0.227  16.616  1.0555 -0.4824 -0.6319
 8460SOL    HW236840   4.116   0.354  16.684  1.2372 -0.2991  1.3064
 8461SOL     OW36841   3.428   0.087   4.156  0.1717 -0.5059 -0.1075
 8461SOL    HW136842   3.348   0.127   4.123  1.4798  1.4607 -0.9108
 8461SOL    HW236843   3.493   0.155   4.137  0.6303 -1.3899 -1.6674
 8462SOL     OW36844   3.099   1.139   3.419 -0.0728  0.3114 -0.0947
 8462SOL    HW136845   3.076   1.232   3.420  3.1387  1.0611  0.9967
 8462SOL    HW236846   3.078   1.127   3.511  0.0224  1.3087  0.0511
 8463SOL     OW36847   0.956   3.525   4.555 -0.1124 -0.8344  0.3375
 8463SOL    HW136848   0.939   3.555   4.645 -0.3042  1.1056 -0.3415
 8463SOL    HW236849   0.889   3.460   4.536 -2.7305  2.1492 -0.6620
 8464SOL     OW36850   1.286   1.715   9.873  0.4423 -0.0764  0.6149
 8464SOL    HW136851   1.280   1.702   9.967  0.6758  1.4364  0.8324
 8464SOL    HW236852   1.378   1.715   9.847  0.2892 -2.0699  0.0512
 8465SOL     OW36853   0.144   2.530   6.653 -0.1565 -0.2609 -0.1200
 8465SOL    HW136854   0.068   2.532   6.712 -0.3223  3.2725 -0.4798
 8465SOL    HW236855   0.131   2.600   6.590 -0.0005 -1.7685 -1.8199
 8466SOL     OW36856   2.544   3.576   8.101 -0.3444  0.1469 -0.5035
 8466SOL    HW136857   2.597   3.500   8.076  1.1320  0.8742  0.3885
 8466SOL    HW236858   2.525   3.558   8.193  1.1726  0.0081 -0.2145
 8467SOL     OW36859   1.403   1.891   1.753  0.5290  0.0645  0.7421
 8467SOL    HW136860   1.388   1.983   1.731 -2.6765 -1.3490 -3.0034
 8467SOL    HW236861   1.498   1.879   1.750  0.4285 -0.1874 -1.4580
 8468SOL     OW36862   3.099   1.794   3.042  0.4354  0.0998  0.0131
 8468SOL    HW136863   3.104   1.852   3.118 -2.4751 -1.4331  1.3876
 8468SOL    HW236864   3.184   1.750   3.050  0.8294  0.8681  0.0016
 8469SOL     OW36865   1.621   3.904   6.076 -0.2988 -0.3745  0.3364
 8469SOL    HW136866   1.649   3.836   6.015  3.7925  2.5361 -1.0432
 8469SOL    HW236867   1.681   3.898   6.150  0.5980 -0.1243 -0.3671
 8470SOL     OW36868   3.488   4.544   4.159 -0.7689 -0.0868  0.1492
 8470SOL    HW136869   3.465   4.634   4.136 -0.5293 -0.1085 -0.1877
 8470SOL    HW236870   3.434   4.488   4.103  1.0201 -3.1550  1.4653
 8471SOL     OW36871   1.925   2.715   4.905 -0.0155 -0.6199 -0.3340
 8471SOL    HW136872   1.837   2.688   4.932 -0.1670 -0.5855 -0.7861
 8471SOL    HW236873   1.951   2.772   4.977 -0.8867 -1.0874  0.3505
 8472SOL     OW36874   0.381   0.649   3.107 -0.3443 -0.1192 -0.2498
 8472SOL    HW136875   0.426   0.621   3.028 -2.0252 -0.4516 -1.0822
 8472SOL    HW236876   0.457   0.675   3.159  0.1110 -0.0264 -0.9646
 8473SOL     OW36877   3.685   3.300   3.825 -0.7828  0.2077  0.4978
 8473SOL    HW136878   3.644   3.272   3.907 -1.4739  0.4421  0.2296
 8473SOL    HW236879   3.667   3.393   3.825 -1.5129  0.0542  1.5415
 8474SOL     OW36880   0.470   4.263   2.996  0.3573  0.3420  0.0012
 8474SOL    HW136881   0.481   4.287   2.904 -1.0502 -1.0608 -0.5210
 8474SOL    HW236882   0.552   4.215   2.989  0.2790  0.1773  0.2169
 8475SOL     OW36883   2.596   3.550  13.004  0.1944  0.3739 -0.7282
 8475SOL    HW136884   2.533   3.494  12.957 -2.6783  3.4512 -0.4997
 8475SOL    HW236885   2.680   3.513  12.977  0.1302 -1.6954  1.8983
 8476SOL     OW36886   3.972   0.675   6.434  0.2295 -0.5068  0.5334
 8476SOL    HW136887   3.881   0.649   6.447  0.6229 -0.6349  3.0011
 8476SOL    HW236888   4.015   0.590   6.420 -1.1031 -1.3033  1.2133
 8477SOL     OW36889   0.580   0.770   3.244  0.4077  0.0026 -0.3840
 8477SOL    HW136890   0.652   0.825   3.212 -0.1748  0.4501 -0.9009
 8477SOL    HW236891   0.544   0.841   3.298  4.3950 -0.6082  3.1766
 8478SOL     OW36892   4.642   1.529   5.639  1.0582  0.2164 -0.2116
 8478SOL    HW136893   4.716   1.468   5.649 -0.4564 -1.7268 -0.9225
 8478SOL    HW236894   4.597   1.519   5.723 -1.3972  0.0162 -1.5784
 8479SOL     OW36895   3.806   4.515  11.922  0.3139 -0.7289 -0.3765
 8479SOL    HW136896   3.742   4.542  11.856 -0.2680  2.4952  1.4986
 8479SOL    HW236897   3.766   4.433  11.951  0.4747 -0.9405 -0.7503
 8480SOL     OW36898   4.167   3.265   7.006  0.5450  0.1510 -0.0226
 8480SOL    HW136899   4.187   3.181   6.966  2.4368  1.7052 -2.3396
 8480SOL    HW236900   4.161   3.316   6.926 -2.4872 -2.2677 -1.3161
 8481SOL     OW36901   2.988   0.941  16.458 -0.1502  0.7627 -0.5750
 8481SOL    HW136902   2.907   0.991  16.458 -0.7369 -0.1767  1.0823
 8481SOL    HW236903   2.977   0.876  16.528  2.3225 -1.0385 -1.8536
 8482SOL     OW36904   4.059   0.224   3.511 -0.1574 -0.2123 -0.0451
 8482SOL    HW136905   4.115   0.159   3.554  0.0419  0.4347  0.6917
 8482SOL    HW236906   4.106   0.238   3.429  1.4753 -2.6346  0.4667
 8483SOL     OW36907   2.176   3.419  11.910  0.4092 -0.1830 -0.0499
 8483SOL    HW136908   2.260   3.455  11.881  2.3706 -4.0353  0.8494
 8483SOL    HW236909   2.208   3.396  11.998 -0.8771  0.5767  0.6206
 8484SOL     OW36910   0.720   2.658   8.987 -0.3553 -0.3164 -1.2425
 8484SOL    HW136911   0.800   2.695   8.950 -0.0039  1.7790  1.6070
 8484SOL    HW236912   0.729   2.681   9.079 -1.0656 -1.9631 -0.7538
 8485SOL     OW36913   3.325   2.351   0.873 -0.7821  0.3985  0.6494
 8485SOL    HW136914   3.355   2.278   0.928  1.1036  0.9289  0.3355
 8485SOL    HW236915   3.294   2.299   0.799  2.8766 -0.0834 -0.5705
 8486SOL     OW36916   4.023   3.921   1.978 -0.3499  0.2389  0.1531
 8486SOL    HW136917   4.073   3.927   2.060  0.4115  0.3903 -0.3295
 8486SOL    HW236918   4.079   3.871   1.919  0.8989  2.0627 -0.2219
 8487SOL     OW36919   2.697   0.519   1.396 -0.4864 -0.2919 -0.2463
 8487SOL    HW136920   2.716   0.531   1.489  0.4771  0.2163 -0.5143
 8487SOL    HW236921   2.660   0.606   1.386 -0.3681 -0.3038 -0.8243
 8488SOL     OW36922   0.960   1.973  13.011  0.0527  0.5274  0.4445
 8488SOL    HW136923   0.933   2.064  13.025  0.2076  0.4273  1.3617
 8488SOL    HW236924   0.877   1.934  13.040  1.0059 -2.6050 -1.1384
 8489SOL     OW36925   0.256   0.785   2.518 -0.2916  0.2627  0.1816
 8489SOL    HW136926   0.224   0.874   2.504 -1.0243 -0.0269  0.0299
 8489SOL    HW236927   0.172   0.748   2.546  0.4045 -0.5373  1.1982
 8490SOL     OW36928   2.988   1.645   6.120 -0.4252 -0.3316  0.2273
 8490SOL    HW136929   3.075   1.680   6.101  0.1986  0.2392  4.0721
 8490SOL    HW236930   2.952   1.602   6.043  0.7925  1.3258 -1.2664
 8491SOL     OW36931   1.272   0.534   9.191 -0.3066  0.2296  0.0323
 8491SOL    HW136932   1.295   0.465   9.128 -0.6311 -0.0350  0.1978
 8491SOL    HW236933   1.359   0.551   9.226 -0.8017  0.7416  1.0095
 8492SOL     OW36934   0.047   2.399  13.018  0.0306  0.1551 -0.3358
 8492SOL    HW136935   0.030   2.307  13.039  0.3219  0.0522 -0.5549
 8492SOL    HW236936   0.083   2.425  13.103 -3.4435  1.7971  0.6111
 8493SOL     OW36937   3.437   2.655   7.264  0.1465 -0.6158  0.0238
 8493SOL    HW136938   3.356   2.603   7.266  0.1803 -0.6753 -0.1262
 8493SOL    HW236939   3.394   2.740   7.259  2.1840  0.3479 -0.9717
 8494SOL     OW36940   2.676   1.431   6.903  0.6016 -1.1445 -0.3175
 8494SOL    HW136941   2.710   1.343   6.920  1.1071 -1.0259 -0.6917
 8494SOL    HW236942   2.722   1.488   6.964  1.1108 -1.4374 -0.4284
 8495SOL     OW36943   0.072   4.333  15.234 -0.3176 -0.0343  0.2602
 8495SOL    HW136944   0.148   4.308  15.287  0.7938  0.4111 -1.1344
 8495SOL    HW236945   0.046   4.246  15.202  2.5432 -0.9177  0.3225
 8496SOL     OW36946   4.598   3.552   7.008  0.4973  0.7387 -0.1073
 8496SOL    HW136947   4.619   3.481   6.947  0.2588  1.3606 -0.9192
 8496SOL    HW236948   4.598   3.515   7.096  1.4723  1.7705  0.3315
 8497SOL     OW36949   1.992   4.439  16.154 -0.3993 -0.0608 -0.0933
 8497SOL    HW136950   1.999   4.498  16.080 -0.4139 -0.7891 -0.6814
 8497SOL    HW236951   1.933   4.485  16.213 -2.1835 -0.2702 -1.7085
 8498SOL     OW36952   2.813   1.826   2.461  0.2061 -0.6135  0.6001
 8498SOL    HW136953   2.758   1.781   2.398 -1.7201  3.6643 -0.7911
 8498SOL    HW236954   2.797   1.919   2.443  0.6359 -0.7903 -0.6967
 8499SOL     OW36955   3.103   0.253   3.796 -0.1761 -0.2663  0.0855
 8499SOL    HW136956   3.092   0.250   3.891 -1.8297  2.3055 -0.0065
 8499SOL    HW236957   3.050   0.326   3.764  0.8721  0.5599  0.2357
 8500SOL     OW36958   1.004   2.213   1.276  0.0469 -0.1255  0.2206
 8500SOL    HW136959   1.007   2.263   1.195 -0.8402 -0.3814  0.0309
 8500SOL    HW236960   0.916   2.223   1.313 -0.4124 -0.0157 -0.9112
 8501SOL     OW36961   2.541   3.748   5.382  0.1995 -0.0493  0.0242
 8501SOL    HW136962   2.531   3.801   5.461  1.5588 -0.0931  0.2275
 8501SOL    HW236963   2.453   3.747   5.345  0.4217  1.9169 -0.5665
 8502SOL     OW36964   4.705   0.741   2.532 -0.0720  0.0557 -0.0584
 8502SOL    HW136965   4.686   0.757   2.624  1.0654  0.1578  0.1474
 8502SOL    HW236966   4.630   0.685   2.509 -1.0284  1.2776  0.0639
 8503SOL     OW36967   2.784   1.767   0.916 -0.4219 -0.3087 -0.0661
 8503SOL    HW136968   2.876   1.759   0.890 -0.3413  0.7048 -0.0977
 8503SOL    HW236969   2.767   1.861   0.911  0.7578 -0.0631  0.5655
 8504SOL     OW36970   2.208   2.240   6.597 -0.1483  0.0158  0.0796
 8504SOL    HW136971   2.224   2.150   6.626 -0.8261 -0.2111 -0.2388
 8504SOL    HW236972   2.154   2.219   6.521 -0.5469 -0.4206  0.4838
 8505SOL     OW36973   2.724   4.244  14.676 -0.7098  0.2027  0.5965
 8505SOL    HW136974   2.712   4.199  14.759 -1.4706  2.0491  1.4940
 8505SOL    HW236975   2.726   4.167  14.619  1.3005  1.5346 -1.1343
 8506SOL     OW36976   0.559   2.022   8.810  0.2138 -0.1994  0.8073
 8506SOL    HW136977   0.495   2.051   8.745  0.0419  0.7336  1.3939
 8506SOL    HW236978   0.631   2.082   8.792  0.3273 -0.6307 -0.1683
 8507SOL     OW36979   2.773   4.076   7.050 -0.1671 -0.4209  0.5821
 8507SOL    HW136980   2.771   3.987   7.015 -0.2994 -0.6386  1.1499
 8507SOL    HW236981   2.850   4.074   7.106 -1.2023 -2.4269  1.9099
 8508SOL     OW36982   4.588   3.312   8.441 -0.7018  0.1462  0.0060
 8508SOL    HW136983   4.551   3.306   8.529 -0.9839  1.3132 -0.0378
 8508SOL    HW236984   4.515   3.292   8.383  1.8041  0.2890 -3.2266
 8509SOL     OW36985   4.013   3.245   8.778  0.1936  0.2498  0.8573
 8509SOL    HW136986   4.039   3.328   8.819 -1.6608  0.4967  1.5683
 8509SOL    HW236987   4.041   3.261   8.688  0.1514  1.2023  1.0124
 8510SOL     OW36988   2.013   4.181   6.055  0.2824  0.0645  0.8661
 8510SOL    HW136989   2.091   4.202   6.107  2.1190  1.4384 -2.3891
 8510SOL    HW236990   1.949   4.190   6.125 -0.1828  1.4760  0.2557
 8511SOL     OW36991   2.635   1.735   1.975  0.3290 -0.5648 -0.5505
 8511SOL    HW136992   2.638   1.690   1.891  2.0277 -0.7351 -0.3975
 8511SOL    HW236993   2.708   1.796   1.966  1.3347 -1.7073 -0.1213
 8512SOL     OW36994   1.390   0.890   2.531  0.0025 -0.8334 -0.1537
 8512SOL    HW136995   1.423   0.974   2.562 -2.1193 -0.3022  0.6387
 8512SOL    HW236996   1.405   0.890   2.437  0.8588 -1.6820 -0.0254
 8513SOL     OW36997   0.033   4.641   8.219 -0.3675  0.0857  0.0673
 8513SOL    HW136998   0.047   4.561   8.269  2.3052  1.2901  1.2720
 8513SOL    HW236999   4.661   4.620   8.223 -0.2640 -0.6325 -1.2804
 8514SOL     OW37000   4.462   0.832   7.649  0.6460  0.1991  0.0306
 8514SOL    HW137001   4.462   0.876   7.734 -2.6252  2.1187 -0.9740
 8514SOL    HW237002   4.387   0.880   7.614 -0.3895 -0.2964  1.5503
 8515SOL     OW37003   4.462   1.836   4.547 -0.1773  0.2262  0.3933
 8515SOL    HW137004   4.437   1.743   4.545  2.2594 -0.4335  0.8292
 8515SOL    HW237005   4.547   1.837   4.503 -1.2423  0.4369 -1.6642
 8516SOL     OW37006   2.228   2.807   2.921 -0.2444 -0.1318  0.6186
 8516SOL    HW137007   2.262   2.821   3.010 -0.5869 -2.3101  1.0834
 8516SOL    HW237008   2.311   2.805   2.874 -1.4583 -2.6775 -1.4129
 8517SOL     OW37009   4.632   2.819   2.076 -0.0481  0.3611  0.0594
 8517SOL    HW137010   4.542   2.826   2.045 -0.5704  1.3750  1.7861
 8517SOL    HW237011   4.667   2.776   1.998 -0.0878 -0.5186  0.5247
 8518SOL     OW37012   1.882   3.852   5.148 -0.0941  0.2874 -0.1025
 8518SOL    HW137013   1.943   3.809   5.209  0.1100  1.0527  0.2277
 8518SOL    HW237014   1.861   3.932   5.195 -2.2507 -0.7649  0.7210
 8519SOL     OW37015   1.635   3.127  11.596 -0.5814 -0.1012  0.1539
 8519SOL    HW137016   1.661   3.136  11.687  0.1264 -2.7009  0.2120
 8519SOL    HW237017   1.716   3.090  11.560  0.1057  0.1788  1.4238
 8520SOL     OW37018   3.796   0.351  17.630 -0.1960  0.4084 -0.0046
 8520SOL    HW137019   3.830   0.427  17.583 -0.7777  1.5544  1.4271
 8520SOL    HW237020   3.715   0.395  17.656 -0.6674  0.5290 -1.6615
 8521SOL     OW37021   2.950   3.333   2.498  0.1627 -0.0865  0.1481
 8521SOL    HW137022   3.030   3.321   2.446  0.1011 -0.3213  0.1087
 8521SOL    HW237023   2.961   3.428   2.509  1.9102 -0.2782  0.1503
 8522SOL     OW37024   3.342   3.368   3.794 -0.6541  0.7704 -0.0619
 8522SOL    HW137025   3.341   3.439   3.858 -3.0383 -1.0398  1.9298
 8522SOL    HW237026   3.288   3.311   3.847  1.0948 -1.2616 -0.4568
 8523SOL     OW37027   4.191   1.078  10.261  0.4599  0.3414  0.0616
 8523SOL    HW137028   4.178   1.115  10.173  1.0463  0.8276  0.1849
 8523SOL    HW237029   4.208   1.151  10.320  0.4611 -0.6809  1.3342
 8524SOL     OW37030   3.737   4.567   3.974 -0.2715 -0.2735  0.1688
 8524SOL    HW137031   3.755   4.568   4.068 -0.3493 -1.5648  0.2028
 8524SOL    HW237032   3.642   4.554   3.982 -0.2344 -0.7212 -0.1613
 8525SOL     OW37033   1.718   1.687  16.342  0.3127  0.3193 -0.0063
 8525SOL    HW137034   1.657   1.617  16.367  0.1356  1.1008  1.7492
 8525SOL    HW237035   1.773   1.645  16.276 -0.7148 -0.4234 -0.3955
 8526SOL     OW37036   2.696   2.100   7.183 -0.2885 -0.2565  0.2329
 8526SOL    HW137037   2.723   2.060   7.100 -0.9611  1.7737 -0.9545
 8526SOL    HW237038   2.734   2.187   7.174 -0.0098 -0.4717 -0.6811
 8527SOL     OW37039   1.656   1.505   2.730  0.6025  0.2623 -0.5259
 8527SOL    HW137040   1.625   1.492   2.641  0.3939 -0.4813 -0.3419
 8527SOL    HW237041   1.688   1.415   2.740 -0.2821  0.3517  3.0146
 8528SOL     OW37042   3.289   2.692  10.071  0.1441  0.2512  0.0118
 8528SOL    HW137043   3.230   2.694   9.996  1.2776 -2.8944 -0.9906
 8528SOL    HW237044   3.344   2.619  10.041 -0.3989 -0.8760  1.7545
 8529SOL     OW37045   0.696   0.593   6.648  0.0020 -0.1833 -0.0567
 8529SOL    HW137046   0.782   0.598   6.690  0.4136 -2.0894 -0.6835
 8529SOL    HW237047   0.713   0.537   6.572  1.0218 -0.6023  0.4811
 8530SOL     OW37048   4.476   1.799  14.627 -0.0748 -0.6547  0.5367
 8530SOL    HW137049   4.400   1.766  14.579 -1.0501  0.5942  1.2174
 8530SOL    HW237050   4.547   1.793  14.564  0.2827  0.1777  0.8578
 8531SOL     OW37051   2.224   1.448   5.398 -0.1877  0.3503 -0.3537
 8531SOL    HW137052   2.229   1.410   5.486  0.3089 -0.0524 -0.5515
 8531SOL    HW237053   2.317   1.471   5.393 -0.0884 -0.0977 -0.6518
 8532SOL     OW37054   4.319   0.067  11.898  0.5975 -0.1541  0.5645
 8532SOL    HW137055   4.301   0.161  11.897 -0.9524 -0.4282  2.4895
 8532SOL    HW237056   4.232   0.027  11.897  0.0833  0.9598 -0.0311
 8533SOL     OW37057   3.489   3.772   8.622  0.1371 -0.9272  0.0326
 8533SOL    HW137058   3.411   3.776   8.678  0.4409 -0.3174  0.4110
 8533SOL    HW237059   3.531   3.710   8.681 -0.3556  0.7045  2.0845
 8534SOL     OW37060   3.419   1.748   7.779  0.1803  0.5702  0.1196
 8534SOL    HW137061   3.418   1.779   7.870 -2.7649  1.7230 -0.3046
 8534SOL    HW237062   3.382   1.663   7.801 -0.3488  1.0362  1.0726
 8535SOL     OW37063   1.419   3.715  17.238  0.1242  0.2986 -0.0069
 8535SOL    HW137064   1.404   3.673  17.322  2.9256  0.6235  0.6490
 8535SOL    HW237065   1.467   3.644  17.196 -2.2176 -1.7981  0.8376
 8536SOL     OW37066   1.132   4.420   4.703  0.0438  0.2272  0.2652
 8536SOL    HW137067   1.208   4.479   4.707  0.3732 -0.2595  1.2674
 8536SOL    HW237068   1.158   4.363   4.630 -0.7198  0.3935 -0.1371
 8537SOL     OW37069   4.317   1.638   3.423  0.1642  0.8218 -0.1990
 8537SOL    HW137070   4.335   1.551   3.388  0.5091  0.2037  1.5093
 8537SOL    HW237071   4.264   1.623   3.501 -3.4546  1.7789 -2.4581
 8538SOL     OW37072   2.206   2.999  16.759  0.4621 -0.6620 -0.4924
 8538SOL    HW137073   2.196   2.912  16.720  1.3714 -1.2177  0.5238
 8538SOL    HW237074   2.116   3.020  16.785  0.2384 -0.5276 -1.3667
 8539SOL     OW37075   3.506   4.312   6.883  0.0842 -0.0317 -0.2467
 8539SOL    HW137076   3.566   4.259   6.831  1.0803  0.0287  0.8453
 8539SOL    HW237077   3.470   4.377   6.823 -0.2941 -0.7655 -0.8052
 8540SOL     OW37078   4.242   0.966   7.526  0.1664  0.2935 -0.5264
 8540SOL    HW137079   4.162   0.977   7.474 -0.7482 -0.6939  0.6705
 8540SOL    HW237080   4.261   1.058   7.542  1.2369 -0.1028  0.4264
 8541SOL     OW37081   3.764   1.740  12.064  0.6292  0.4698 -0.6997
 8541SOL    HW137082   3.768   1.833  12.085  1.1290  0.1652  0.5090
 8541SOL    HW237083   3.843   1.715  12.112  0.0566 -0.2446 -0.1293
 8542SOL     OW37084   1.330   0.902   6.290  0.1236 -0.3522 -0.5407
 8542SOL    HW137085   1.288   0.816   6.293  0.5342 -0.5388  0.0248
 8542SOL    HW237086   1.416   0.878   6.255 -0.3611 -2.7256 -0.1188
 8543SOL     OW37087   3.172   1.557   4.546 -0.5978  0.0059  0.1579
 8543SOL    HW137088   3.208   1.630   4.595 -0.5640  0.7392 -0.9523
 8543SOL    HW237089   3.231   1.484   4.567  1.2140  1.6509  0.7433
 8544SOL     OW37090   1.606   3.362   4.726  1.0775  0.0506  0.2653
 8544SOL    HW137091   1.563   3.447   4.717  0.5390 -0.2867 -0.3328
 8544SOL    HW237092   1.590   3.342   4.819 -0.6671 -0.0744 -0.0703
 8545SOL     OW37093   3.351   0.628  10.904 -0.3292 -0.0034 -0.0242
 8545SOL    HW137094   3.416   0.607  10.971  1.1434  0.6958 -1.2315
 8545SOL    HW237095   3.287   0.689  10.942 -1.2835  0.3519 -2.2340
 8546SOL     OW37096   0.099   1.215   8.359 -0.4667  0.1912 -0.1328
 8546SOL    HW137097   0.009   1.245   8.370 -1.2910 -2.1243 -0.5081
 8546SOL    HW237098   0.141   1.239   8.441  1.6569  0.8471 -1.4071
 8547SOL     OW37099   1.490   1.823   8.804  0.2563 -0.0236  0.0913
 8547SOL    HW137100   1.462   1.779   8.884 -1.5364  2.3127  0.7625
 8547SOL    HW237101   1.442   1.906   8.811  0.4042 -0.1814  3.1550
 8548SOL     OW37102   3.787   2.721   8.800  0.0277  0.0186  0.3685
 8548SOL    HW137103   3.701   2.728   8.758  0.3141 -1.0067 -0.3780
 8548SOL    HW237104   3.789   2.629   8.827  1.5484 -0.2923 -0.7736
 8549SOL     OW37105   3.815   3.153  13.112 -0.7337  0.2086  0.1362
 8549SOL    HW137106   3.732   3.119  13.081 -0.8729  0.6988 -0.0377
 8549SOL    HW237107   3.784   3.201  13.189  2.3233  0.3868  1.2852
 8550SOL     OW37108   2.562   0.440   0.294 -0.1593  0.5759 -0.0902
 8550SOL    HW137109   2.492   0.376   0.281 -1.0139  1.0758  2.1330
 8550SOL    HW237110   2.603   0.415   0.377  1.0669 -2.6592 -1.6706
 8551SOL     OW37111   1.942   4.274   1.596  0.6822 -0.3977  0.0664
 8551SOL    HW137112   1.924   4.304   1.685  2.6126 -0.4242  0.4700
 8551SOL    HW237113   1.980   4.186   1.603 -0.4014 -0.9240 -0.5764
 8552SOL     OW37114   3.829   4.615  12.376 -0.5945  0.4236 -0.3131
 8552SOL    HW137115   3.901   4.620  12.439 -0.3133  0.0518 -0.6028
 8552SOL    HW237116   3.752   4.621  12.433  0.2958  1.4255  0.7680
 8553SOL     OW37117   2.575   1.190   7.479 -0.3080 -0.6409  0.2503
 8553SOL    HW137118   2.643   1.230   7.534 -0.3510  0.3308 -0.4224
 8553SOL    HW237119   2.539   1.112   7.521  1.5871 -2.2136 -1.0301
 8554SOL     OW37120   1.750   1.128   8.847  0.6119 -0.5451 -0.3056
 8554SOL    HW137121   1.695   1.051   8.852 -1.7644  1.3411  2.4227
 8554SOL    HW237122   1.722   1.167   8.764  0.2475 -2.5010 -1.0885
 8555SOL     OW37123   0.717   4.390   3.506  0.1305  0.1597  0.2681
 8555SOL    HW137124   0.747   4.472   3.546 -0.0562  0.8329 -0.9898
 8555SOL    HW237125   0.658   4.361   3.575 -0.4015 -1.4846 -0.8977
 8556SOL     OW37126   3.056   3.434   9.542 -0.4778  0.5012  0.4071
 8556SOL    HW137127   2.984   3.391   9.497 -2.5418  1.6024  2.6556
 8556SOL    HW237128   3.121   3.364   9.537  0.0561  1.1022 -1.1497
 8557SOL     OW37129   2.779   0.439   2.328  0.3424  1.0167  0.0769
 8557SOL    HW137130   2.685   0.451   2.342  0.2500  0.3341  0.0415
 8557SOL    HW237131   2.790   0.402   2.240  2.2457  1.2445  0.2284
 8558SOL     OW37132   3.759   1.217  11.128  0.3068  0.2177 -0.0366
 8558SOL    HW137133   3.765   1.130  11.168  0.5884 -1.1668 -3.1357
 8558SOL    HW237134   3.815   1.204  11.052 -0.3128 -0.3999 -0.3791
 8559SOL     OW37135   2.485   3.310   7.819 -1.0056  0.2945 -0.0063
 8559SOL    HW137136   2.498   3.353   7.735 -0.3809  0.7847  0.3411
 8559SOL    HW237137   2.570   3.316   7.863  0.0123 -2.0556 -1.6284
 8560SOL     OW37138   0.094   2.100   5.811  0.2754  0.1699  0.5995
 8560SOL    HW137139   0.084   2.040   5.737  2.7656  0.9615 -0.4007
 8560SOL    HW237140   0.083   2.038   5.883  0.9689 -0.8770 -0.1807
 8561SOL     OW37141   2.123   4.433   2.544 -0.5438 -0.0723 -0.3317
 8561SOL    HW137142   2.210   4.431   2.584  0.5737 -0.9119 -2.8088
 8561SOL    HW237143   2.144   4.400   2.456 -1.1945 -0.8525 -0.1973
 8562SOL     OW37144   3.127   2.289   7.709  0.2603 -0.3326  0.7454
 8562SOL    HW137145   3.034   2.307   7.719  0.2095  0.0981 -0.4872
 8562SOL    HW237146   3.115   2.208   7.659 -0.3937 -0.0781  0.4919
 8563SOL     OW37147   2.551   2.889   3.646  0.2679 -0.3605 -0.5727
 8563SOL    HW137148   2.610   2.952   3.605 -3.0666  1.6997 -2.2216
 8563SOL    HW237149   2.604   2.809   3.654 -0.2920 -0.5648  0.9816
 8564SOL     OW37150   2.005   2.161  10.838  0.4366 -0.7191  0.1183
 8564SOL    HW137151   1.919   2.142  10.875  1.5816 -2.1294  2.0623
 8564SOL    HW237152   2.014   2.252  10.865 -2.6652 -1.0016  2.1158
 8565SOL     OW37153   1.784   1.416   1.452  0.1506  0.1239 -0.4523
 8565SOL    HW137154   1.843   1.447   1.521 -1.7235  1.0941  0.7063
 8565SOL    HW237155   1.772   1.328   1.488  1.3319 -0.2828 -1.0638
 8566SOL     OW37156   1.791   2.145   4.228  0.1875  0.0301 -0.0561
 8566SOL    HW137157   1.743   2.113   4.304  0.0015 -0.5845 -0.4306
 8566SOL    HW237158   1.729   2.163   4.157 -0.5382  0.0974  0.5955
 8567SOL     OW37159   2.467   2.896   1.585  0.0547 -0.1370  0.4819
 8567SOL    HW137160   2.481   2.879   1.678  0.6926 -0.0571  0.3971
 8567SOL    HW237161   2.505   2.819   1.545  0.9386 -1.1168  3.1902
 8568SOL     OW37162   0.570   2.515   4.257  0.0185 -0.0304  0.2704
 8568SOL    HW137163   0.478   2.488   4.250 -0.4887  1.4494  1.1697
 8568SOL    HW237164   0.574   2.579   4.186  0.7336  0.0806  0.4104
 8569SOL     OW37165   1.211   3.437  10.214 -0.2055  0.2151 -0.0181
 8569SOL    HW137166   1.247   3.450  10.301 -0.6462  0.0935  0.1817
 8569SOL    HW237167   1.290   3.459  10.165 -1.1227 -1.2071 -2.1885
 8570SOL     OW37168   3.588   1.835   3.386  0.5607  0.2143 -0.1463
 8570SOL    HW137169   3.613   1.837   3.293  0.1843 -0.2475 -0.2596
 8570SOL    HW237170   3.674   1.841   3.428  0.2392 -0.7454  0.6547
 8571SOL     OW37171   1.512   3.978   8.641 -0.5312 -0.1135  0.0839
 8571SOL    HW137172   1.561   4.008   8.717  1.0248 -2.3318 -0.0792
 8571SOL    HW237173   1.483   4.067   8.620  1.3703  1.0647  2.4869
 8572SOL     OW37174   4.255   1.372  16.217  0.3159 -0.0698 -0.3658
 8572SOL    HW137175   4.235   1.441  16.153  1.2053  1.5148  1.0677
 8572SOL    HW237176   4.263   1.302  16.153 -0.2480 -0.0058 -0.5048
 8573SOL     OW37177   2.621   3.595   0.845  0.1849  0.2843 -0.1367
 8573SOL    HW137178   2.657   3.509   0.866 -0.9156  0.5238  2.6604
 8573SOL    HW237179   2.665   3.651   0.909 -3.3232  1.2105  1.5030
 8574SOL     OW37180   1.452   4.184   4.681  0.4749  0.2970  0.1481
 8574SOL    HW137181   1.391   4.139   4.623 -1.4575  0.5480  2.0017
 8574SOL    HW237182   1.445   4.274   4.647  0.8321  0.1328 -0.3687
 8575SOL     OW37183   0.080   1.710   5.501  0.7350 -0.2884 -0.0509
 8575SOL    HW137184   0.068   1.717   5.406 -0.0304  0.5516  0.1071
 8575SOL    HW237185   0.012   1.643   5.516  1.9034 -1.6027 -0.6430
 8576SOL     OW37186   3.981   4.095   6.067  0.3986  0.1101 -0.0346
 8576SOL    HW137187   4.042   4.170   6.068 -0.3632  0.7372 -0.6398
 8576SOL    HW237188   3.966   4.092   6.162 -0.6451 -1.6701 -0.2688
 8577SOL     OW37189   1.988   0.137  13.946  0.1807 -0.5235  0.6451
 8577SOL    HW137190   1.898   0.164  13.931  0.8295  2.3874  1.9939
 8577SOL    HW237191   1.975   0.105  14.035 -1.7476  3.2909  1.7088
 8578SOL     OW37192   2.980   1.427   2.407 -0.2384 -0.0780 -0.3305
 8578SOL    HW137193   2.929   1.488   2.461  0.5512 -1.2048  1.6821
 8578SOL    HW237194   2.981   1.463   2.318  1.5962  0.7207  0.0233
 8579SOL     OW37195   3.111   4.284   0.814 -0.9506  0.1112 -0.5492
 8579SOL    HW137196   3.029   4.236   0.825 -0.3845 -0.6478  0.3535
 8579SOL    HW237197   3.147   4.247   0.733 -0.4931  0.6351 -0.5906
 8580SOL     OW37198   3.220   4.297   9.067 -0.2928 -0.2638  0.5819
 8580SOL    HW137199   3.136   4.267   9.103 -0.3701 -1.2566 -0.4212
 8580SOL    HW237200   3.195   4.387   9.043  0.5063 -0.5866 -1.4752
 8581SOL     OW37201   2.518   0.209   0.505 -0.0852  0.2458  0.1708
 8581SOL    HW137202   2.520   0.157   0.585  1.4798  0.2205  0.1095
 8581SOL    HW237203   2.442   0.266   0.521 -0.6313 -0.4880  0.1913
 8582SOL     OW37204   4.555   0.308   0.832 -0.0708 -0.1525  0.4515
 8582SOL    HW137205   4.564   0.216   0.856 -3.8989 -0.5235  0.4591
 8582SOL    HW237206   4.573   0.300   0.738  1.6750  0.9125  0.6921
 8583SOL     OW37207   3.165   3.169   9.570 -0.0638  0.2508 -0.4100
 8583SOL    HW137208   3.119   3.087   9.549 -0.2698  0.0472  0.8031
 8583SOL    HW237209   3.244   3.158   9.518  0.6693  3.2396  0.1052
 8584SOL     OW37210   3.798   2.441   3.299 -0.0180  0.4648  0.0015
 8584SOL    HW137211   3.718   2.428   3.349 -0.3679 -1.2884 -1.0089
 8584SOL    HW237212   3.852   2.469   3.373 -0.0683  0.7132 -0.0558
 8585SOL     OW37213   1.621   2.366  11.032  0.3022 -0.0028 -0.5012
 8585SOL    HW137214   1.628   2.448  10.983 -0.7423  0.6047  0.3679
 8585SOL    HW237215   1.536   2.367  11.077  0.7196 -0.7165  0.3130
 8586SOL     OW37216   2.015   3.599   7.536 -0.2391 -0.1965 -0.3031
 8586SOL    HW137217   1.978   3.565   7.455 -0.7284 -0.1930 -0.0832
 8586SOL    HW237218   1.976   3.545   7.605  0.4534 -0.8713 -0.4429
 8587SOL     OW37219   2.542   0.853   9.995  0.0672  0.0320  0.4107
 8587SOL    HW137220   2.605   0.807  10.050 -0.3721 -1.9008 -0.7083
 8587SOL    HW237221   2.503   0.919  10.052 -0.6990 -0.0516 -0.0162
 8588SOL     OW37222   0.869   1.948   0.246  0.1184 -0.0918 -0.3924
 8588SOL    HW137223   0.817   2.023   0.218  0.2810 -0.1196 -0.7787
 8588SOL    HW237224   0.927   1.990   0.308  1.3775 -1.5476 -0.5685
 8589SOL     OW37225   1.255   3.245   5.348  0.3557 -0.1421  0.1209
 8589SOL    HW137226   1.192   3.261   5.419  2.1295  0.2446  1.6206
 8589SOL    HW237227   1.222   3.164   5.310 -2.4651 -0.0057  2.2607
 8590SOL     OW37228   3.807   1.628  14.904 -0.5543  0.0905  0.3579
 8590SOL    HW137229   3.816   1.564  14.975  0.9771 -1.0522 -0.8594
 8590SOL    HW237230   3.712   1.629  14.897 -0.3422  2.4591 -2.1661
 8591SOL     OW37231   0.880   0.652   5.609 -0.0863  0.2951 -0.8249
 8591SOL    HW137232   0.857   0.713   5.539 -1.9890  1.2440  0.6526
 8591SOL    HW237233   0.970   0.683   5.619 -0.0830 -0.4861  1.6299
 8592SOL     OW37234   0.880   1.876   7.703 -0.0967  0.0093 -0.1648
 8592SOL    HW137235   0.807   1.828   7.666  0.2960  0.1713 -1.1636
 8592SOL    HW237236   0.853   1.891   7.793  1.7419 -0.2692  0.4360
 8593SOL     OW37237   4.702   3.258   2.866  0.1332 -0.4983  0.0451
 8593SOL    HW137238   4.615   3.226   2.891  0.3296 -2.2162 -1.4514
 8593SOL    HW237239   4.703   3.220   2.778 -0.7792  0.5244 -0.4081
 8594SOL     OW37240   1.270   4.313   1.096  0.2289  0.4851 -0.1891
 8594SOL    HW137241   1.256   4.407   1.084 -1.9549  0.0784 -0.8484
 8594SOL    HW237242   1.356   4.294   1.059  0.8977  2.6641  0.2957
 8595SOL     OW37243   0.579   2.706   5.251 -0.4449  0.0958 -0.2466
 8595SOL    HW137244   0.590   2.797   5.222 -0.4334  0.1863  0.0386
 8595SOL    HW237245   0.642   2.708   5.323 -0.7724  0.6683  0.0234
 8596SOL     OW37246   3.296   1.482   8.965 -0.1118 -0.4532 -0.1707
 8596SOL    HW137247   3.387   1.485   8.997  0.1983 -1.0730 -0.9762
 8596SOL    HW237248   3.290   1.395   8.926 -0.4378  0.2592 -1.6916
 8597SOL     OW37249   2.183   2.050   2.303  0.7975  0.3010 -0.1688
 8597SOL    HW137250   2.110   2.110   2.318 -0.4135 -1.2106 -0.0184
 8597SOL    HW237251   2.149   1.962   2.319 -1.5765  1.6219  2.0420
 8598SOL     OW37252   3.323   2.501  10.718 -0.5261 -0.2181  0.5024
 8598SOL    HW137253   3.366   2.571  10.668 -0.2129 -1.3862 -0.8589
 8598SOL    HW237254   3.355   2.429  10.664  2.1552  0.7429  0.7931
 8599SOL     OW37255   4.273   3.008  17.371 -0.1975  0.2690 -0.4037
 8599SOL    HW137256   4.330   3.071  17.328  0.8555  0.6201  1.5310
 8599SOL    HW237257   4.328   2.974  17.441  1.0627  1.0711 -0.9916
 8600SOL     OW37258   0.968   3.715   5.794  0.2481 -0.0257 -0.2858
 8600SOL    HW137259   1.057   3.736   5.820 -0.3157  0.0922  1.5363
 8600SOL    HW237260   0.962   3.622   5.819 -1.7647  0.7563  2.2084
 8601SOL     OW37261   4.686   3.367   6.480  0.0483  0.8167 -0.0018
 8601SOL    HW137262   4.618   3.432   6.462 -0.8430 -0.0217  0.3428
 8601SOL    HW237263   0.007   3.358   6.395  0.0974 -2.4925  0.3934
 8602SOL     OW37264   0.632   2.675   6.323 -0.0980 -0.1563  0.1662
 8602SOL    HW137265   0.642   2.592   6.368  0.0857 -0.5183 -0.5447
 8602SOL    HW237266   0.624   2.636   6.236  4.3313 -1.2992  0.2717
 8603SOL     OW37267   2.470   0.873  13.031  0.6100 -0.0376  0.1456
 8603SOL    HW137268   2.444   0.952  12.983  0.2369 -1.2148 -1.5875
 8603SOL    HW237269   2.454   0.821  12.953 -0.8273  1.1675 -0.3670
 8604SOL     OW37270   3.187   0.165   8.699  0.4665  0.0049  0.0624
 8604SOL    HW137271   3.167   0.104   8.628 -0.6049  0.4684 -0.0421
 8604SOL    HW237272   3.125   0.230   8.664  0.5291  0.1429  0.2059
 8605SOL     OW37273   3.646   3.177   7.263  0.8064  0.3273 -0.0881
 8605SOL    HW137274   3.572   3.235   7.285  0.8576  0.9380 -1.5228
 8605SOL    HW237275   3.706   3.237   7.219  1.5973 -0.7078 -0.4189
 8606SOL     OW37276   0.653   2.135   3.327  0.5325 -0.1903  0.1112
 8606SOL    HW137277   0.564   2.115   3.356 -0.3942  0.7602 -2.0704
 8606SOL    HW237278   0.655   2.079   3.249 -0.0143  1.3900 -1.0291
 8607SOL     OW37279   0.030   3.773   4.108  0.6328  0.3197 -0.4233
 8607SOL    HW137280   0.022   3.759   4.014  0.1604  0.3297 -0.3865
 8607SOL    HW237281   0.092   3.846   4.105  0.9743  0.1284  1.8542
 8608SOL     OW37282   1.428   0.822   3.191 -0.2931  0.1600 -0.0186
 8608SOL    HW137283   1.505   0.779   3.227 -1.5063 -2.3791 -0.4840
 8608SOL    HW237284   1.377   0.844   3.269  2.1850  1.0740  1.3241
 8609SOL     OW37285   0.403   3.789   7.779  0.3696 -0.2895  0.3157
 8609SOL    HW137286   0.450   3.707   7.762 -0.5859 -0.5687 -0.9939
 8609SOL    HW237287   0.453   3.854   7.729  0.6070 -0.4036  0.4060
 8610SOL     OW37288   3.293   0.189  14.805 -0.0443 -0.5522 -0.3844
 8610SOL    HW137289   3.265   0.280  14.800  1.6309  0.0285  0.7317
 8610SOL    HW237290   3.285   0.164  14.713 -2.5328  0.6269 -0.4758
 8611SOL     OW37291   3.017   3.979   0.910 -0.0562  0.0074 -0.1744
 8611SOL    HW137292   2.949   4.046   0.915 -0.7103 -0.5433 -1.9791
 8611SOL    HW237293   3.009   3.930   0.993  0.0530 -3.0073 -1.9430
 8612SOL     OW37294   4.544   4.557  13.526  0.0125 -0.3016  0.4289
 8612SOL    HW137295   4.549   4.550  13.622  1.2015 -0.3319  0.3708
 8612SOL    HW237296   4.459   4.518  13.507 -0.3775  0.5396  0.4632
 8613SOL     OW37297   4.526   4.394   2.346  0.2037 -0.3601 -0.3839
 8613SOL    HW137298   4.567   4.318   2.388 -3.4332 -1.5389  1.0741
 8613SOL    HW237299   4.574   4.406   2.264  2.2007  0.8344  0.9447
 8614SOL     OW37300   1.977   4.255   3.598  0.2319 -0.1692  0.0407
 8614SOL    HW137301   2.026   4.204   3.662  0.1219  1.5881  1.5057
 8614SOL    HW237302   2.024   4.227   3.519 -2.2133 -3.7942 -0.1358
 8615SOL     OW37303   3.914   0.922   0.637  0.0670 -0.1379 -0.2421
 8615SOL    HW137304   3.970   0.975   0.580 -1.3653  0.2649 -1.2521
 8615SOL    HW237305   3.915   0.840   0.588  1.2114 -0.4401  0.2813
 8616SOL     OW37306   3.035   3.349   9.964  0.0247  0.1806  0.1010
 8616SOL    HW137307   3.082   3.402   9.899  2.5074 -1.5906  0.4462
 8616SOL    HW237308   3.044   3.414  10.033 -2.4196 -2.2119  2.6721
 8617SOL     OW37309   4.127   3.045  14.482 -0.0072 -0.1348 -0.0925
 8617SOL    HW137310   4.145   3.017  14.392 -1.0168  0.8981 -0.6187
 8617SOL    HW237311   4.095   2.962  14.518 -2.5696  0.7004 -0.4195
 8618SOL     OW37312   1.210   2.167   9.085  0.3004  0.6661 -0.8334
 8618SOL    HW137313   1.136   2.216   9.051 -0.3450  1.8951  2.3720
 8618SOL    HW237314   1.167   2.109   9.147  1.2815  1.1985  0.3449
 8619SOL     OW37315   0.434   0.148   0.423 -0.5169  0.3386 -0.1668
 8619SOL    HW137316   0.461   0.114   0.338  2.7862  0.3266  0.8796
 8619SOL    HW237317   0.341   0.126   0.426 -0.9691  2.4516  1.6353
 8620SOL     OW37318   2.349   1.548   8.219 -0.0201 -0.3166 -0.3840
 8620SOL    HW137319   2.394   1.565   8.302 -1.3099  1.6352 -0.0754
 8620SOL    HW237320   2.417   1.553   8.152  2.7179  2.1452  2.5723
 8621SOL     OW37321   0.853   1.718   2.708 -0.3737  0.0725  0.0464
 8621SOL    HW137322   0.767   1.730   2.750 -0.3430  0.7468 -0.0798
 8621SOL    HW237323   0.843   1.756   2.621  0.4552 -0.1978 -0.1719
 8622SOL     OW37324   1.708   0.907   6.469  0.1737 -0.5716 -0.2397
 8622SOL    HW137325   1.623   0.866   6.488 -0.3314 -0.0238 -1.3306
 8622SOL    HW237326   1.759   0.841   6.517  1.0691 -0.6202 -1.2690
 8623SOL     OW37327   0.491   2.366   8.271 -0.3072  0.1887  0.8088
 8623SOL    HW137328   0.576   2.338   8.307 -0.0176  1.9351  1.4926
 8623SOL    HW237329   0.494   2.461   8.261  0.6205 -0.0948 -1.6023
 8624SOL     OW37330   2.643   3.846   8.006  0.5768 -0.0480  0.0301
 8624SOL    HW137331   2.572   3.869   7.946 -0.9845  0.2627  1.9800
 8624SOL    HW237332   2.613   3.764   8.045 -1.9828  0.2879 -1.2338
 8625SOL     OW37333   3.614   2.139   3.819 -0.2229  0.0885  0.3879
 8625SOL    HW137334   3.584   2.071   3.758 -0.3890 -0.8566  1.5280
 8625SOL    HW237335   3.563   2.116   3.896  0.4818 -2.2094  0.1744
 8626SOL     OW37336   1.510   3.492   5.925  0.0153 -0.1126  0.0987
 8626SOL    HW137337   1.435   3.519   5.978  0.3198 -1.3465  1.1703
 8626SOL    HW237338   1.549   3.420   5.975  0.2428 -1.2711 -1.7230
 8627SOL     OW37339   1.327   0.064   3.167 -0.0046  0.1833 -0.5129
 8627SOL    HW137340   1.301   0.060   3.075  0.2646  1.1487 -0.6307
 8627SOL    HW237341   1.262   0.124   3.204  1.3038  1.0875  0.3087
 8628SOL     OW37342   2.254   3.146   0.230  0.0803  0.5291 -0.0310
 8628SOL    HW137343   2.273   3.233   0.264 -1.7371  0.7706  0.3992
 8628SOL    HW237344   2.180   3.118   0.284  2.4617 -1.6777  2.0405
 8629SOL     OW37345   3.339   1.794  16.985  0.3543  0.0589  0.2201
 8629SOL    HW137346   3.379   1.796  16.898 -0.9138 -2.7846 -0.4463
 8629SOL    HW237347   3.399   1.839  17.044 -1.1241  1.4854  0.6151
 8630SOL     OW37348   1.022   3.808   1.776  0.0213 -0.5073 -0.6406
 8630SOL    HW137349   0.939   3.760   1.777 -0.0846 -0.2935  0.4797
 8630SOL    HW237350   1.018   3.843   1.687  0.7939  1.9364  0.3045
 8631SOL     OW37351   1.510   2.172   1.817  0.3705  0.0916  0.4445
 8631SOL    HW137352   1.516   2.220   1.735  0.0667 -0.8387 -0.1173
 8631SOL    HW237353   1.456   2.225   1.877  0.6604  0.6667  0.1959
 8632SOL     OW37354   1.601   1.684   5.378 -0.0026  0.3593  0.0793
 8632SOL    HW137355   1.574   1.641   5.296  1.1277  1.4230 -0.8475
 8632SOL    HW237356   1.617   1.613   5.441 -0.5558 -0.9531 -1.2443
 8633SOL     OW37357   0.869   3.886  15.775 -0.2453 -0.1932  0.3876
 8633SOL    HW137358   0.813   3.824  15.822 -2.4358  0.8254 -0.8528
 8633SOL    HW237359   0.954   3.878  15.817  0.1211 -1.1690 -0.5468
 8634SOL     OW37360   2.726   2.902   0.656  0.5670 -0.3924 -0.2315
 8634SOL    HW137361   2.649   2.849   0.677  0.9835 -0.9025 -0.0131
 8634SOL    HW237362   2.788   2.852   0.709 -0.7625  0.2497  1.9012
 8635SOL     OW37363   2.151   1.903  10.943  0.0290 -0.3295  0.1613
 8635SOL    HW137364   2.106   1.986  10.928  0.7768  0.1467  0.5498
 8635SOL    HW237365   2.187   1.912  11.031 -1.1714 -1.1896  0.7378
 8636SOL     OW37366   1.032   4.492   7.968  0.3427  0.3209  0.6366
 8636SOL    HW137367   1.127   4.482   7.975  0.3654  0.7114  0.9033
 8636SOL    HW237368   1.027   4.541   7.886 -0.2337 -1.3653 -0.3416
 8637SOL     OW37369   3.765   2.762  12.631  0.3182 -0.5386 -0.3988
 8637SOL    HW137370   3.841   2.819  12.617 -1.3598  1.4066 -1.3743
 8637SOL    HW237371   3.715   2.809  12.698 -0.1865  0.0149 -1.1713
 8638SOL     OW37372   3.341   1.470   4.343  0.7560  0.3699 -0.1422
 8638SOL    HW137373   3.395   1.492   4.268  0.5228  0.5065 -0.2704
 8638SOL    HW237374   3.300   1.555   4.357 -0.7230 -0.7233  2.2176
 8639SOL     OW37375   4.395   0.715   7.903 -0.0943  0.0568 -0.3970
 8639SOL    HW137376   4.459   0.648   7.880  1.7784  1.8381 -0.3430
 8639SOL    HW237377   4.441   0.765   7.971  0.1653 -0.8964  0.1288
 8640SOL     OW37378   3.441   0.163  16.522 -0.1701 -0.1432  0.5841
 8640SOL    HW137379   3.435   0.074  16.487  0.3130  0.0538 -0.0165
 8640SOL    HW237380   3.535   0.180  16.510 -0.7551  1.7268 -1.5583
 8641SOL     OW37381   2.370   0.426   7.930 -0.3127  0.0713  0.1470
 8641SOL    HW137382   2.408   0.348   7.890  0.4809  1.4329 -1.7753
 8641SOL    HW237383   2.417   0.421   8.013  0.8652 -0.2826 -0.5393
 8642SOL     OW37384   0.733   1.533   0.641  0.4652  0.0444 -0.2139
 8642SOL    HW137385   0.812   1.479   0.637  1.2233  1.2136 -1.1792
 8642SOL    HW237386   0.732   1.562   0.550  0.2203  1.1892  0.1602
 8643SOL     OW37387   4.712   0.362   6.490 -0.1934  0.0727 -0.1694
 8643SOL    HW137388   4.654   0.314   6.431  2.3402 -2.9081 -0.2297
 8643SOL    HW237389   4.667   0.446   6.496 -0.8451 -0.3351  0.6906
 8644SOL     OW37390   2.738   2.314   5.060  0.6654 -0.4653 -0.1910
 8644SOL    HW137391   2.723   2.365   5.140  4.2084  0.7551 -0.2956
 8644SOL    HW237392   2.664   2.257   5.036  0.7703 -0.0923 -1.4345
 8645SOL     OW37393   0.517   4.429   2.170  0.4691 -0.3291 -0.2216
 8645SOL    HW137394   0.468   4.504   2.135 -0.9965 -1.4243 -0.4822
 8645SOL    HW237395   0.607   4.453   2.145  0.1702 -1.0758 -2.0219
 8646SOL     OW37396   2.525   2.190   3.295 -0.6090  0.4426  0.0557
 8646SOL    HW137397   2.570   2.274   3.311 -1.4020  0.8144  0.3199
 8646SOL    HW237398   2.435   2.218   3.309 -0.8457 -0.0418 -0.5288
 8647SOL     OW37399   4.663   2.901  12.921 -0.4305  0.1018  0.9800
 8647SOL    HW137400   4.609   2.892  12.842  0.7778  2.7039 -0.1246
 8647SOL    HW237401   4.692   2.810  12.935  0.1751  0.3545  1.3866
 8648SOL     OW37402   2.274   1.224  16.386 -0.3682  0.0150 -0.1904
 8648SOL    HW137403   2.181   1.247  16.383 -0.8856 -1.9014  0.9196
 8648SOL    HW237404   2.310   1.308  16.414  0.2962  0.3078 -1.9651
 8649SOL     OW37405   4.523   1.904  10.645 -0.4261 -0.3902 -0.1351
 8649SOL    HW137406   4.428   1.903  10.658 -0.1962 -1.4028  1.4846
 8649SOL    HW237407   4.513   1.930  10.553 -0.7581 -3.3025 -0.9222
 8650SOL     OW37408   1.367   0.890   8.633 -0.1471  0.5937  0.0784
 8650SOL    HW137409   1.404   0.960   8.687  2.6493 -0.3072 -0.6651
 8650SOL    HW237410   1.294   0.936   8.592 -0.8773 -0.7191 -0.0941
 8651SOL     OW37411   3.256   0.100   5.308 -0.2052 -0.0331 -0.0716
 8651SOL    HW137412   3.298   0.076   5.225 -0.5124  0.3069 -0.3278
 8651SOL    HW237413   3.326   0.068   5.364 -1.6690  0.2013  1.8933
 8652SOL     OW37414   4.055   0.250   7.336 -0.1860  0.5213  0.1331
 8652SOL    HW137415   4.009   0.192   7.275 -1.3412  1.6007 -0.0381
 8652SOL    HW237416   4.131   0.273   7.283  0.1582 -0.3035  0.2698
 8653SOL     OW37417   0.553   1.367  16.521 -0.5687  0.3097 -0.2023
 8653SOL    HW137418   0.590   1.358  16.433  0.9589 -1.0286  0.5724
 8653SOL    HW237419   0.612   1.318  16.579  0.8950 -0.3122 -2.1963
 8654SOL     OW37420   1.005   0.221  15.492 -0.4227 -0.2815  0.2360
 8654SOL    HW137421   0.957   0.288  15.442 -1.2950 -2.9812 -2.5504
 8654SOL    HW237422   1.071   0.189  15.431 -0.5061  1.8698 -0.9940
 8655SOL     OW37423   2.996   1.226  17.063  0.5546  0.0731 -0.2028
 8655SOL    HW137424   3.038   1.313  17.060 -1.1523  0.9795  2.6299
 8655SOL    HW237425   3.030   1.186  17.143  0.4655  1.8076  0.7120
 8656SOL     OW37426   3.217   4.201  15.051  0.0892  0.1659 -0.3362
 8656SOL    HW137427   3.181   4.117  15.077 -0.3190 -0.3136 -2.4649
 8656SOL    HW237428   3.165   4.221  14.973 -2.9369 -2.6464  0.9702
 8657SOL     OW37429   3.527   3.262  17.057 -0.0586 -0.3025  0.0854
 8657SOL    HW137430   3.557   3.350  17.081  1.7478 -1.1892  1.1344
 8657SOL    HW237431   3.450   3.281  17.003  0.1416  0.1727 -0.0408
 8658SOL     OW37432   2.397   1.152   8.550  0.1335 -0.7484  0.1591
 8658SOL    HW137433   2.362   1.101   8.623 -1.0030 -1.3467 -0.8020
 8658SOL    HW237434   2.347   1.127   8.472  0.1794 -0.5550  0.0681
 8659SOL     OW37435   3.733   3.856   2.720 -0.2590 -0.5330 -0.3412
 8659SOL    HW137436   3.712   3.932   2.774  1.7660 -0.7736  0.7584
 8659SOL    HW237437   3.664   3.791   2.733 -0.4921 -0.0627  0.7691
 8660SOL     OW37438   2.604   2.182   3.898 -0.2662 -0.3165  0.5646
 8660SOL    HW137439   2.650   2.100   3.917 -2.6982 -1.3429  2.1800
 8660SOL    HW237440   2.584   2.227   3.980 -0.4634 -0.9559  0.8681
 8661SOL     OW37441   0.524   4.290   3.695 -0.4739 -0.2676 -0.7019
 8661SOL    HW137442   0.430   4.295   3.712 -0.3659 -1.8051  0.3493
 8661SOL    HW237443   0.554   4.261   3.781 -2.2063  1.1010  0.3491
 8662SOL     OW37444   3.183   0.788  11.033 -0.4265  0.6944  0.2104
 8662SOL    HW137445   3.200   0.839  11.112 -2.5748 -0.6732  1.5858
 8662SOL    HW237446   3.109   0.829  10.989 -0.6546 -1.4216 -1.4087
 8663SOL     OW37447   4.570   4.252   1.645  0.4978  0.0213 -0.1077
 8663SOL    HW137448   4.648   4.277   1.695 -0.4296  0.6984  1.0260
 8663SOL    HW237449   4.576   4.304   1.565  2.2421  0.2200  0.1400
 8664SOL     OW37450   3.741   0.601   9.703  0.3460  0.0539 -0.0912
 8664SOL    HW137451   3.662   0.599   9.756 -0.1268  1.1270 -0.7560
 8664SOL    HW237452   3.709   0.565   9.620  0.9661  0.5406 -0.5518
 8665SOL     OW37453   4.319   4.381   1.779  0.2503  0.1674 -0.5040
 8665SOL    HW137454   4.303   4.394   1.685  2.0096  1.3375 -0.6521
 8665SOL    HW237455   4.235   4.411   1.813 -0.1068 -1.9034  0.4394
 8666SOL     OW37456   1.009   2.318  12.286 -0.1695  0.0085 -0.1221
 8666SOL    HW137457   1.044   2.374  12.217 -2.2529 -1.4339 -2.3560
 8666SOL    HW237458   1.086   2.274  12.322 -1.0621 -1.9392 -0.5873
 8667SOL     OW37459   2.684   3.261   1.842 -0.0475 -0.2758  0.0496
 8667SOL    HW137460   2.677   3.214   1.759 -0.0558  0.8752 -0.6058
 8667SOL    HW237461   2.636   3.343   1.831  0.4431 -0.5237 -3.7703
 8668SOL     OW37462   1.828   3.230   5.464 -0.2057 -0.4648  0.0943
 8668SOL    HW137463   1.840   3.169   5.391 -2.3646 -0.9837  0.1828
 8668SOL    HW237464   1.823   3.171   5.539  0.3128 -0.2301  0.3156
 8669SOL     OW37465   3.953   3.824   6.025  0.2209 -0.0372  0.1071
 8669SOL    HW137466   4.038   3.791   5.996 -0.3106 -0.6951 -0.7114
 8669SOL    HW237467   3.959   3.919   6.033 -1.5158  0.1993 -1.4492
 8670SOL     OW37468   4.069   4.589  13.769 -0.1622  0.1590  0.0512
 8670SOL    HW137469   4.013   4.519  13.735  0.7025 -0.5787  0.1454
 8670SOL    HW237470   4.116   4.631  13.698 -1.0834  0.5355 -0.3391
 8671SOL     OW37471   3.086   3.286   5.826 -0.0238 -0.4632  0.0472
 8671SOL    HW137472   3.081   3.295   5.731 -2.4174  1.6002  0.3932
 8671SOL    HW237473   2.997   3.255   5.842 -0.4130  0.3085 -0.6480
 8672SOL     OW37474   2.762   2.194   1.797 -0.1297 -0.4371 -0.1577
 8672SOL    HW137475   2.763   2.280   1.839  0.4267 -1.1710  1.3218
 8672SOL    HW237476   2.848   2.158   1.821  0.8704  1.3928 -0.9970
 8673SOL     OW37477   0.220   0.922   6.392  0.1312  0.3218  0.1450
 8673SOL    HW137478   0.272   0.908   6.471 -0.8715  2.2369  1.1453
 8673SOL    HW237479   0.283   0.978   6.346 -0.1486  0.7325  0.2633
 8674SOL     OW37480   2.476   0.917  14.674 -0.1999  0.6652 -0.2531
 8674SOL    HW137481   2.431   0.954  14.598  0.5479  0.9197 -0.5729
 8674SOL    HW237482   2.517   0.989  14.722 -1.7183  1.4898 -0.2093
 8675SOL     OW37483   2.513   3.561   0.512 -0.4600 -0.2041  0.0435
 8675SOL    HW137484   2.457   3.487   0.533 -0.5482 -0.6099 -1.6428
 8675SOL    HW237485   2.455   3.620   0.464 -3.4065 -1.7468  1.7138
 8676SOL     OW37486   2.615   2.478  16.073  0.5979 -0.0433  0.1425
 8676SOL    HW137487   2.666   2.552  16.108  2.3704 -1.6347  0.9075
 8676SOL    HW237488   2.523   2.505  16.084  1.8271  3.3056  2.3720
 8677SOL     OW37489   0.364   2.231   2.718  1.1389 -0.4769 -0.3282
 8677SOL    HW137490   0.314   2.227   2.637  1.1734 -0.0615 -0.3708
 8677SOL    HW237491   0.361   2.320   2.752 -1.0018 -1.0243  0.9221
 8678SOL     OW37492   2.772   0.040   0.495  0.1620 -0.5438 -0.1267
 8678SOL    HW137493   2.684   0.074   0.512  0.3129 -0.3125  0.1943
 8678SOL    HW237494   2.751   4.674   0.462 -1.3601 -0.7053  1.2616
 8679SOL     OW37495   2.479   3.638   0.041 -0.9629  0.8130  0.1014
 8679SOL    HW137496   2.416   3.629   0.113 -1.3938 -0.6412 -0.4756
 8679SOL    HW237497   2.479   3.552  17.687 -1.4994  1.0552 -0.4026
 8680SOL     OW37498   4.602   4.176   8.107 -0.3800 -0.3277 -0.1020
 8680SOL    HW137499   4.545   4.099   8.103  0.2426 -0.6835 -2.1987
 8680SOL    HW237500   4.681   4.140   8.066  0.5884 -0.1325  1.5711
 8681SOL     OW37501   1.693   1.028   4.237 -0.2800  0.1281 -0.6182
 8681SOL    HW137502   1.613   1.076   4.258  0.4070  0.4631  1.1966
 8681SOL    HW237503   1.745   1.104   4.210 -0.3700  1.0638  1.8232
 8682SOL     OW37504   0.166   1.382  12.931  0.3345 -0.5140 -0.3699
 8682SOL    HW137505   0.154   1.471  12.965 -0.5830 -0.1414 -1.6988
 8682SOL    HW237506   0.194   1.389  12.840 -0.3240 -0.5922 -0.5718
 8683SOL     OW37507   0.483   1.607   2.014  0.3398 -0.3410  0.2033
 8683SOL    HW137508   0.395   1.639   1.994  0.6469  1.2354  1.3015
 8683SOL    HW237509   0.475   1.524   1.968 -0.1498  0.9119 -1.9445
 8684SOL     OW37510   3.083   4.658  15.955  0.8940  1.0858  0.2079
 8684SOL    HW137511   3.002   4.709  15.959 -0.9844 -1.9004  0.5279
 8684SOL    HW237512   3.143   4.719  15.997  0.6569  3.5532 -3.1150
 8685SOL     OW37513   4.292   3.263   1.222 -0.3424 -0.0756 -0.6394
 8685SOL    HW137514   4.224   3.314   1.267 -1.4693 -1.3761 -0.8526
 8685SOL    HW237515   4.264   3.181   1.262  0.4375  0.5116  1.1336
 8686SOL     OW37516   3.008   4.014   0.035 -0.1321  0.2526 -0.7770
 8686SOL    HW137517   3.013   4.086   0.097  1.6217  0.6595 -1.3889
 8686SOL    HW237518   2.947   4.055  17.660  1.1601  2.9014 -0.3032
 8687SOL     OW37519   4.547   2.235  12.759 -0.0517  0.4470 -0.4436
 8687SOL    HW137520   4.609   2.226  12.831  2.3680  0.5047 -2.5483
 8687SOL    HW237521   4.469   2.281  12.791 -1.0740 -0.1337 -2.0645
 8688SOL     OW37522   1.120   1.011  16.307  0.0737  0.4392 -0.1268
 8688SOL    HW137523   1.042   0.963  16.335  0.1353  0.5931  0.3103
 8688SOL    HW237524   1.157   0.952  16.241  0.6830  1.6976 -0.9040
 8689SOL     OW37525   1.011   1.419   6.540  0.1572 -0.0118 -0.3439
 8689SOL    HW137526   0.965   1.495   6.578  1.7931  0.5433  0.4949
 8689SOL    HW237527   1.019   1.364   6.618  2.0862 -1.4134 -1.5517
 8690SOL     OW37528   3.429   3.330  13.611  0.8533  0.1826  0.7953
 8690SOL    HW137529   3.458   3.418  13.633 -0.8274  0.6279  1.2212
 8690SOL    HW237530   3.416   3.294  13.699 -2.1641 -0.4838  0.0584
 8691SOL     OW37531   1.078   2.617   7.611 -0.4387  0.5249 -0.2568
 8691SOL    HW137532   0.994   2.617   7.566 -0.0037  1.3081 -1.0657
 8691SOL    HW237533   1.134   2.605   7.534  0.3605 -3.0126  0.8646
 8692SOL     OW37534   0.616   2.377   9.465  0.1702  0.5234  0.0039
 8692SOL    HW137535   0.527   2.343   9.455 -0.0313  2.0701 -3.4003
 8692SOL    HW237536   0.666   2.308   9.422  1.5146  1.4713  0.0629
 8693SOL     OW37537   3.657   3.964  14.613  0.3813  0.4022  0.0843
 8693SOL    HW137538   3.667   3.869  14.608  2.3011  0.6156 -0.4795
 8693SOL    HW237539   3.584   3.970  14.674 -0.0821  1.8882 -0.6217
 8694SOL     OW37540   3.948   1.513   3.395 -0.6580 -0.4511 -0.4454
 8694SOL    HW137541   3.869   1.527   3.447  0.4470 -2.2337  1.7202
 8694SOL    HW237542   4.006   1.582   3.427  1.1835 -1.6579 -1.1405
 8695SOL     OW37543   1.366   3.062   8.719 -0.2265  0.2150  0.4605
 8695SOL    HW137544   1.290   3.019   8.758  0.6823 -0.5987  1.3197
 8695SOL    HW237545   1.385   3.114   8.798  0.6395 -1.6119  1.4587
 8696SOL     OW37546   0.388   2.759   3.649 -0.4263  0.6288 -0.5299
 8696SOL    HW137547   0.343   2.733   3.568 -0.1666 -0.7161 -0.2361
 8696SOL    HW237548   0.394   2.854   3.636 -1.4737  0.8703  0.7770
 8697SOL     OW37549   0.664   4.281   5.757  0.0728  0.5885 -0.8469
 8697SOL    HW137550   0.667   4.294   5.663  0.1105 -0.0467 -0.9300
 8697SOL    HW237551   0.642   4.371   5.781 -2.2410  0.1362 -1.3343
 8698SOL     OW37552   1.663   4.665   7.619  0.1408 -0.4226  0.0088
 8698SOL    HW137553   1.578   4.686   7.578  0.7883 -0.0971 -1.1807
 8698SOL    HW237554   1.644   4.671   7.712  1.3919  0.0488  0.2263
 8699SOL     OW37555   3.364   1.157  10.812  0.0023 -0.5093  0.6046
 8699SOL    HW137556   3.296   1.225  10.812 -0.2014 -0.7227  1.6216
 8699SOL    HW237557   3.366   1.139  10.718 -1.4946  2.7257 -0.0399
 8700SOL     OW37558   1.602   1.494   9.081  0.7346  0.2855  0.5194
 8700SOL    HW137559   1.679   1.451   9.046 -0.7982 -2.1360  0.1236
 8700SOL    HW237560   1.614   1.468   9.172  0.8773 -2.1098 -0.1794
 8701SOL     OW37561   3.540   1.154   4.338 -0.0073 -0.4071 -0.0482
 8701SOL    HW137562   3.563   1.219   4.404 -2.9609  2.7644 -2.1241
 8701SOL    HW237563   3.609   1.089   4.327  2.4580  2.2629 -0.2221
 8702SOL     OW37564   0.360   1.682   7.868 -0.2752 -0.5589 -0.4780
 8702SOL    HW137565   0.361   1.693   7.963 -1.7615 -0.4656 -0.4785
 8702SOL    HW237566   0.347   1.773   7.842 -0.1103 -0.8862 -1.7272
 8703SOL     OW37567   0.597   2.879  16.268  0.1384 -0.1002  0.0590
 8703SOL    HW137568   0.617   2.785  16.271 -0.6443 -0.3096 -0.8923
 8703SOL    HW237569   0.577   2.893  16.360  0.0832  1.0712 -0.1335
 8704SOL     OW37570   2.657   4.466   7.835  0.4723 -0.0935 -0.5082
 8704SOL    HW137571   2.595   4.415   7.886  0.4670  1.0352  0.6031
 8704SOL    HW237572   2.619   4.450   7.748 -0.9261 -0.6624  0.2198
 8705SOL     OW37573   3.687   2.584   4.050  0.2824 -0.4897 -0.2192
 8705SOL    HW137574   3.690   2.489   4.048  0.4021 -0.4614 -1.5399
 8705SOL    HW237575   3.648   2.597   3.963  2.3387 -1.0151 -1.2156
 8706SOL     OW37576   1.656   2.621   4.984  0.0448 -0.4114  0.6493
 8706SOL    HW137577   1.569   2.609   4.947  0.1390  0.6634  0.0647
 8706SOL    HW237578   1.672   2.536   5.024  2.8524 -0.7701 -1.2283
 8707SOL     OW37579   1.697   4.357  14.197  0.1996 -0.0917  0.2322
 8707SOL    HW137580   1.604   4.374  14.213  0.1578 -0.1318  0.0289
 8707SOL    HW237581   1.692   4.418  14.123 -1.2379  0.1889  0.5598
 8708SOL     OW37582   1.795   0.722  15.597  0.0391  0.2878 -0.2975
 8708SOL    HW137583   1.784   0.697  15.689 -1.9119 -0.2775 -0.6905
 8708SOL    HW237584   1.721   0.676  15.557 -0.7784  0.2085  1.3078
 8709SOL     OW37585   0.036   3.152  13.353  0.1491 -0.6103  0.3898
 8709SOL    HW137586   0.128   3.159  13.379  0.0388  0.0309  0.5995
 8709SOL    HW237587   0.048   3.219  13.286  1.6180 -1.5239 -0.2609
 8710SOL     OW37588   4.156   4.354   1.564  0.1617  0.2838 -0.6809
 8710SOL    HW137589   4.126   4.299   1.491  0.7038 -1.5342  0.4431
 8710SOL    HW237590   4.075   4.369   1.614 -0.0705 -1.9828 -0.3493
 8711SOL     OW37591   0.365   3.021   9.607  0.0572  0.5232 -0.5338
 8711SOL    HW137592   0.272   3.041   9.596  0.0485  0.4241 -0.6350
 8711SOL    HW237593   0.375   2.937   9.563 -3.2598  0.5434 -1.2691
 8712SOL     OW37594   4.342   2.646   3.482  0.0096  0.0884  0.2966
 8712SOL    HW137595   4.331   2.637   3.577 -0.0482 -0.3522  0.2507
 8712SOL    HW237596   4.431   2.614   3.470 -0.5374 -1.7031  1.0389
 8713SOL     OW37597   1.024   4.614   7.349  0.6709  0.3086  0.1857
 8713SOL    HW137598   0.998   4.679   7.415  0.8614 -0.9011  1.4601
 8713SOL    HW237599   0.947   4.612   7.292  0.5894  1.0733  0.2765
 8714SOL     OW37600   0.336   0.622   5.761  0.0251  0.3281 -0.3088
 8714SOL    HW137601   0.256   0.572   5.778  1.5582 -1.8957  0.4028
 8714SOL    HW237602   0.338   0.618   5.665  1.1576  0.3927 -0.2820
 8715SOL     OW37603   3.083   0.111   0.878 -0.4323 -0.4169  0.3800
 8715SOL    HW137604   3.068   0.204   0.864  0.4358 -0.2237  0.7333
 8715SOL    HW237605   3.067   0.083   0.788  0.4212 -0.7105  0.3229
 8716SOL     OW37606   1.022   1.246   5.945  0.1288  0.0802  0.5501
 8716SOL    HW137607   0.996   1.158   5.975  1.1433 -0.4492 -0.1375
 8716SOL    HW237608   1.006   1.249   5.851  3.1886  0.4529  0.0431
 8717SOL     OW37609   4.628   1.128   2.471 -0.4975  0.1017 -0.1309
 8717SOL    HW137610   4.612   1.067   2.398  3.1089  0.7265 -1.4127
 8717SOL    HW237611   4.555   1.096   2.525  0.5565 -1.0186  0.6215
 8718SOL     OW37612   4.448   4.637  15.737 -0.0109  0.0790  0.4591
 8718SOL    HW137613   4.405   4.632  15.652 -0.3825 -2.5995  0.7838
 8718SOL    HW237614   4.403   4.711  15.777  2.1271  0.2773  2.5379
 8719SOL     OW37615   1.231   2.342   5.094 -0.1213  0.2023  0.3611
 8719SOL    HW137616   1.139   2.330   5.117 -1.0692  1.5712 -2.7035
 8719SOL    HW237617   1.271   2.337   5.181  0.7573 -0.6948 -0.0888
 8720SOL     OW37618   0.221   2.872   6.358  0.4503  0.2212  0.0538
 8720SOL    HW137619   0.143   2.906   6.313  0.7294  2.4838  1.2820
 8720SOL    HW237620   0.286   2.876   6.288 -0.9972  1.5732 -1.2519
 8721SOL     OW37621   2.109   2.875   7.657  0.2034 -0.0316 -0.3464
 8721SOL    HW137622   2.021   2.912   7.655  0.9349  1.7420  0.7809
 8721SOL    HW237623   2.087   2.782   7.658 -2.7116  0.6937  1.1004
 8722SOL     OW37624   4.583   3.130  16.910 -0.2663  0.5809 -0.3232
 8722SOL    HW137625   4.515   3.102  16.971  1.1339  0.9169  1.3906
 8722SOL    HW237626   4.655   3.156  16.968 -1.0254 -0.5069  1.1004
 8723SOL     OW37627   1.300   2.292   2.948  0.1135 -0.0678 -0.2149
 8723SOL    HW137628   1.367   2.359   2.957  0.5553 -0.5767  0.3237
 8723SOL    HW237629   1.353   2.213   2.936  2.1324  2.0948 -5.3718
 8724SOL     OW37630   1.749   0.545   6.335 -0.0197  0.3161  0.1579
 8724SOL    HW137631   1.697   0.498   6.270 -0.8184  2.5664 -0.8035
 8724SOL    HW237632   1.837   0.508   6.327 -0.6928 -1.6601  1.6349
 8725SOL     OW37633   3.902   4.329   2.833 -0.0243 -0.3506 -0.1356
 8725SOL    HW137634   3.902   4.410   2.884 -0.1699 -1.0689  1.0044
 8725SOL    HW237635   3.958   4.361   2.762  1.7542 -2.5759  0.2447
 8726SOL     OW37636   2.134   0.884   2.061 -0.3908  0.1989  0.1910
 8726SOL    HW137637   2.098   0.799   2.036  2.7080 -1.1255  0.1983
 8726SOL    HW237638   2.121   0.941   1.986  0.9148  1.5064  0.9594
 8727SOL     OW37639   1.102   2.007   8.336  0.1445  0.5358 -0.4475
 8727SOL    HW137640   1.156   2.051   8.401  1.9468 -2.0605 -0.1918
 8727SOL    HW237641   1.074   2.083   8.284  0.0285  0.8680  0.1011
 8728SOL     OW37642   4.045   1.586   7.098 -0.4353  0.7432  0.2152
 8728SOL    HW137643   4.039   1.610   7.190 -0.2487  0.6871  0.2432
 8728SOL    HW237644   4.082   1.667   7.063 -0.7909  0.3848 -0.9878
 8729SOL     OW37645   3.654   2.566   9.401  0.1438 -0.0876  0.4203
 8729SOL    HW137646   3.728   2.516   9.435 -0.5676 -0.8329  0.8817
 8729SOL    HW237647   3.670   2.548   9.308 -3.9514 -0.1768 -0.2813
 8730SOL     OW37648   3.922   1.607   9.886 -0.0795 -0.1843  0.8014
 8730SOL    HW137649   4.014   1.628   9.870 -0.4253  1.1133  0.4914
 8730SOL    HW237650   3.879   1.691   9.869  1.0522  0.3192  0.3631
 8731SOL     OW37651   1.683   0.466   3.942 -0.6080  0.2005  0.6008
 8731SOL    HW137652   1.701   0.560   3.945 -1.1691  0.3468 -0.7302
 8731SOL    HW237653   1.599   0.458   3.987  0.4434 -0.2177  2.4908
 8732SOL     OW37654   0.289   1.791   7.020 -0.3257 -0.4813  0.1841
 8732SOL    HW137655   0.254   1.879   7.036 -0.0721 -0.6106  1.4595
 8732SOL    HW237656   0.213   1.733   7.022 -3.0419  3.0773 -0.2268
 8733SOL     OW37657   1.145   0.075  16.214 -0.6539  0.9227  0.0192
 8733SOL    HW137658   1.121   0.025  16.135 -2.4685  1.0348  0.5195
 8733SOL    HW237659   1.102   0.158  16.196 -3.9655 -0.6611  0.6534
 8734SOL     OW37660   3.377   0.517   4.465  0.1728  0.3287 -0.0606
 8734SOL    HW137661   3.404   0.427   4.447  0.6334  0.4682 -0.0868
 8734SOL    HW237662   3.459   0.554   4.499  0.4308 -0.4957  0.2159
 8735SOL     OW37663   1.686   3.825   4.949  0.1983 -0.5658  0.6160
 8735SOL    HW137664   1.617   3.881   4.984 -0.7155 -1.2596 -0.0779
 8735SOL    HW237665   1.750   3.818   5.020 -0.1333  0.0011  0.9694
 8736SOL     OW37666   1.143   0.729   6.790 -0.1497 -0.5128 -0.7139
 8736SOL    HW137667   1.129   0.823   6.792 -1.5327 -0.7291  0.8111
 8736SOL    HW237668   1.222   0.721   6.844  0.4112 -0.2083 -1.4886
 8737SOL     OW37669   3.958   2.321   6.193 -0.0363  0.0873  0.7727
 8737SOL    HW137670   3.939   2.327   6.287 -4.4205  0.6674 -0.1639
 8737SOL    HW237671   3.948   2.227   6.186  0.4674  0.0376  0.6660
 8738SOL     OW37672   1.610   4.106   4.218 -0.3033 -0.7731 -0.1842
 8738SOL    HW137673   1.615   4.201   4.234  0.7897 -0.7469 -0.6365
 8738SOL    HW237674   1.617   4.113   4.122  1.3313 -0.2203 -0.0356
 8739SOL     OW37675   0.175   3.320   4.806 -0.5129  0.4597 -0.4160
 8739SOL    HW137676   0.225   3.387   4.854 -3.0359  2.8412 -1.1156
 8739SOL    HW237677   0.172   3.255   4.877 -0.6249  1.0511  0.1283
 8740SOL     OW37678   1.949   0.155   5.091 -0.7528 -0.1590 -0.1733
 8740SOL    HW137679   1.913   0.087   5.147  0.4136 -0.1443  0.5920
 8740SOL    HW237680   1.891   0.137   5.016 -1.4234 -0.4556  0.4187
 8741SOL     OW37681   3.689   0.039   8.525  0.2361 -0.2506 -0.2184
 8741SOL    HW137682   3.677   0.018   8.618 -1.3362 -3.1116 -1.0752
 8741SOL    HW237683   3.774   0.084   8.526  0.5774 -0.8965  1.3619
 8742SOL     OW37684   0.596   4.434  13.013  0.1544  0.1472  0.6567
 8742SOL    HW137685   0.624   4.351  12.972 -0.1381 -0.0749  0.9060
 8742SOL    HW237686   0.514   4.447  12.967 -0.0424  0.4790  1.1058
 8743SOL     OW37687   3.524   2.559   1.220  0.6503  0.4505 -0.1586
 8743SOL    HW137688   3.429   2.548   1.224  0.7575 -0.1146  0.9562
 8743SOL    HW237689   3.541   2.559   1.126  0.1364  2.9302 -0.2465
 8744SOL     OW37690   3.979   0.902   6.254  0.0492  0.5689 -0.2455
 8744SOL    HW137691   3.962   0.830   6.314 -1.0101 -0.6668 -2.0252
 8744SOL    HW237692   4.070   0.916   6.280 -0.1508 -0.7446  1.1485
 8745SOL     OW37693   0.516   0.510   6.189 -0.0213  0.0645 -0.5904
 8745SOL    HW137694   0.440   0.493   6.246 -1.0002 -0.3693 -2.0382
 8745SOL    HW237695   0.557   0.585   6.231 -0.2174 -0.2215  0.1239
 8746SOL     OW37696   1.798   3.188   2.630  0.0165  0.2547 -0.0348
 8746SOL    HW137697   1.880   3.139   2.633  0.9636  1.8898  0.9479
 8746SOL    HW237698   1.739   3.125   2.671  0.8566  0.0994  0.9417
 8747SOL     OW37699   4.520   1.930  15.947  0.5553 -0.8606 -0.1566
 8747SOL    HW137700   4.565   2.000  15.993  0.0087 -0.8088  0.2892
 8747SOL    HW237701   4.589   1.866  15.932  1.6248  0.2959 -0.1656
 8748SOL     OW37702   1.649   4.536   8.095 -0.2497  0.1781 -0.6050
 8748SOL    HW137703   1.739   4.536   8.128  0.2745 -1.3289 -2.0042
 8748SOL    HW237704   1.630   4.448   8.130  2.9361  0.0321  0.8010
 8749SOL     OW37705   1.914   4.274  15.938 -0.8837  0.2608  0.0274
 8749SOL    HW137706   1.894   4.347  15.879  1.2635  0.5633 -0.3230
 8749SOL    HW237707   1.946   4.320  16.016 -2.0014 -3.3277  2.5809
 8750SOL     OW37708   0.837   3.733  16.275 -0.1387 -0.0922  0.1647
 8750SOL    HW137709   0.812   3.699  16.189  0.0102  1.1591 -0.3692
 8750SOL    HW237710   0.820   3.657  16.331  3.0979 -2.1539 -1.6949
 8751SOL     OW37711   0.161   3.648   2.917 -0.3886  0.3222 -0.2628
 8751SOL    HW137712   0.249   3.618   2.894  0.0234  2.4149 -1.3656
 8751SOL    HW237713   0.153   3.633   3.011 -2.1235  2.5169 -0.0683
 8752SOL     OW37714   2.544   1.657   9.452 -0.2117 -0.9940  0.3770
 8752SOL    HW137715   2.534   1.600   9.376  0.6275  1.1361 -1.3369
 8752SOL    HW237716   2.599   1.606   9.512  0.3207 -0.9633 -0.0852
 8753SOL     OW37717   0.335   2.639   6.824 -0.6865  0.2669  0.2178
 8753SOL    HW137718   0.289   2.571   6.775 -0.3607 -0.0738  0.3797
 8753SOL    HW237719   0.336   2.709   6.760  3.4832 -0.2536 -0.2401
 8754SOL     OW37720   2.095   0.874   3.410 -0.0589 -0.5381  0.0852
 8754SOL    HW137721   2.031   0.945   3.418  2.2545  1.5494  0.0076
 8754SOL    HW237722   2.169   0.924   3.445  0.3986 -1.3004  0.2260
 8755SOL     OW37723   0.963   1.030   0.885 -0.2699  0.3000  0.2584
 8755SOL    HW137724   0.995   0.949   0.925 -0.7184  1.2102  2.4749
 8755SOL    HW237725   0.993   1.027   0.794  0.5427 -2.8625  0.6456
 8756SOL     OW37726   2.915   4.100   0.478 -0.3398  0.2468 -1.5810
 8756SOL    HW137727   2.947   4.189   0.494 -1.0945  0.4038 -0.9592
 8756SOL    HW237728   2.825   4.105   0.510  0.4335 -0.0643  0.6266
 8757SOL     OW37729   2.068   4.569   7.613 -0.0278 -0.3346  0.2788
 8757SOL    HW137730   1.993   4.534   7.566  1.3700  0.5950 -2.6326
 8757SOL    HW237731   2.046   4.571   7.706 -1.1034  0.7986 -0.0039
 8758SOL     OW37732   3.468   4.048  11.806  0.1366 -0.2874 -0.0762
 8758SOL    HW137733   3.482   4.098  11.726 -2.2322  0.2723 -0.1419
 8758SOL    HW237734   3.400   4.101  11.848 -0.1665 -1.3188  0.7220
 8759SOL     OW37735   4.353   2.857  17.594  0.2528 -0.2607  0.5180
 8759SOL    HW137736   4.394   2.787  17.644  1.6978  0.0451 -0.2316
 8759SOL    HW237737   4.261   2.831  17.592  0.0339  0.4740  0.9764
 8760SOL     OW37738   3.075   1.458   5.860  0.3910 -0.2812  0.3522
 8760SOL    HW137739   3.031   1.504   5.790  1.0706  1.0380  0.7910
 8760SOL    HW237740   3.159   1.500   5.843  2.0221 -2.8295  2.0751
 8761SOL     OW37741   3.635   4.084  11.270 -0.0554 -0.0804 -0.1287
 8761SOL    HW137742   3.629   4.170  11.228 -0.6902  0.2724  0.6886
 8761SOL    HW237743   3.680   4.035  11.201 -2.2198 -0.9244 -0.9582
 8762SOL     OW37744   3.248   3.630   8.419 -0.4108  0.0330  0.1702
 8762SOL    HW137745   3.216   3.570   8.487  1.2751  0.2794  1.1914
 8762SOL    HW237746   3.290   3.702   8.468  0.0857  0.0231 -0.2419
 8763SOL     OW37747   2.443   3.311   6.302  0.0143  0.5479  0.2021
 8763SOL    HW137748   2.366   3.296   6.248 -1.9033  0.3645  2.9984
 8763SOL    HW237749   2.468   3.396   6.265  2.0851 -0.0199  0.2853
 8764SOL     OW37750   4.430   2.622  10.639  0.1788  0.4035  0.3922
 8764SOL    HW137751   4.451   2.714  10.651  1.9282  0.3212 -2.0562
 8764SOL    HW237752   4.337   2.614  10.616  0.6223 -0.2698 -1.1823
 8765SOL     OW37753   4.284   1.573   5.197  0.1005 -0.8381  0.6357
 8765SOL    HW137754   4.331   1.565   5.114 -2.0144  2.0277 -0.8391
 8765SOL    HW237755   4.195   1.576   5.162  1.0310  3.7159 -1.3882
 8766SOL     OW37756   0.984   1.612   7.295 -0.4541  0.2975 -0.2145
 8766SOL    HW137757   0.952   1.697   7.265  1.1541  0.9358 -0.1242
 8766SOL    HW237758   0.988   1.619   7.391  0.5155  0.4510 -0.2629
 8767SOL     OW37759   4.143   0.766  14.097 -0.6521  0.2099  0.3465
 8767SOL    HW137760   4.218   0.708  14.084  0.3690  2.2206 -2.7443
 8767SOL    HW237761   4.169   0.815  14.175 -0.5573 -2.2744  1.8795
 8768SOL     OW37762   2.015   2.485  16.828  0.1665  0.1365  0.8557
 8768SOL    HW137763   2.098   2.452  16.796  0.6612  0.5564  1.6975
 8768SOL    HW237764   1.982   2.415  16.884  0.0007  1.5891  2.5982
 8769SOL     OW37765   0.859   0.521   0.201  0.4899  0.0350  0.1784
 8769SOL    HW137766   0.827   0.589   0.141 -3.0195 -2.0415 -0.2909
 8769SOL    HW237767   0.884   0.454   0.138  0.6327  0.0828  0.1851
 8770SOL     OW37768   3.504   0.739   2.339  0.0531 -0.2728 -0.4074
 8770SOL    HW137769   3.472   0.687   2.266 -2.1551  1.4726 -0.6868
 8770SOL    HW237770   3.430   0.729   2.399  1.1921 -0.9229  0.8774
 8771SOL     OW37771   3.527   3.470   3.054 -0.4509  0.3816  0.1467
 8771SOL    HW137772   3.434   3.455   3.069 -0.0518 -0.1030  2.1550
 8771SOL    HW237773   3.543   3.539   3.119 -0.6125  1.0876 -0.5660
 8772SOL     OW37774   4.000   0.108   4.710 -0.2492  0.9342  0.0163
 8772SOL    HW137775   4.072   0.091   4.771 -2.2276 -0.3609  1.9729
 8772SOL    HW237776   3.963   0.020   4.699 -0.3464  0.9487  0.2337
 8773SOL     OW37777   4.426   4.084  11.065 -0.6726  0.1015 -0.2132
 8773SOL    HW137778   4.394   3.995  11.083 -1.5164  0.6368  0.9687
 8773SOL    HW237779   4.407   4.095  10.972  2.2632  2.9202 -0.4548
 8774SOL     OW37780   3.727   3.125  10.033 -0.2039 -0.6898  0.0685
 8774SOL    HW137781   3.690   3.044   9.998  1.0099 -0.4250 -1.8049
 8774SOL    HW237782   3.806   3.124   9.980 -0.2088 -0.1845  0.0559
 8775SOL     OW37783   3.816   1.121   3.170  0.1934  0.0041 -0.0580
 8775SOL    HW137784   3.862   1.042   3.197 -1.7954 -0.5284  1.8046
 8775SOL    HW237785   3.723   1.098   3.174  0.2595 -0.2980 -0.2842
 8776SOL     OW37786   0.593   1.973   5.877  0.1962 -0.1110 -0.2834
 8776SOL    HW137787   0.552   2.045   5.829 -0.0641 -0.2825 -0.3154
 8776SOL    HW237788   0.664   2.018   5.923 -2.1009  1.6619  1.4980
 8777SOL     OW37789   4.006   0.482  10.337  0.5306  0.1598 -0.5040
 8777SOL    HW137790   3.959   0.562  10.316  0.8678 -0.0283 -1.9753
 8777SOL    HW237791   3.988   0.478  10.431 -0.2945 -0.3526 -0.6856
 8778SOL     OW37792   4.126   3.176   7.578 -0.8905 -0.3152  0.1367
 8778SOL    HW137793   4.112   3.197   7.486 -1.2200 -2.3003 -0.2730
 8778SOL    HW237794   4.146   3.262   7.613  1.6064  0.1310 -2.5232
 8779SOL     OW37795   1.731   3.056   3.704 -0.4177 -0.3950  0.1887
 8779SOL    HW137796   1.808   3.084   3.753  0.5856  1.9525 -2.7362
 8779SOL    HW237797   1.685   3.140   3.695 -0.8472 -0.9368 -2.8775
 8780SOL     OW37798   1.089   3.089   5.113  0.0742 -0.2892  0.4251
 8780SOL    HW137799   1.163   3.030   5.128  0.5503  0.4128  0.8862
 8780SOL    HW237800   1.041   3.046   5.042  0.5704 -1.7837  1.0057
 8781SOL     OW37801   3.622   2.090  11.514  0.1132 -0.4315  0.0361
 8781SOL    HW137802   3.593   2.142  11.590  0.8978  1.4380 -0.9469
 8781SOL    HW237803   3.674   2.162  11.479  1.0807 -0.8126  0.6997
 8782SOL     OW37804   3.240   0.047  14.540 -0.1246 -0.1786  0.1897
 8782SOL    HW137805   3.159   0.062  14.491 -0.3932 -1.0154  0.3860
 8782SOL    HW237806   3.236   4.678  14.571 -1.6884 -0.3509 -0.5071
 8783SOL     OW37807   1.468   1.143   3.357  0.5749 -0.5910  0.3307
 8783SOL    HW137808   1.381   1.111   3.384 -0.8015  3.4664  0.7260
 8783SOL    HW237809   1.451   1.216   3.298 -1.4197  0.5526  2.3082
 8784SOL     OW37810   2.897   3.549   6.882 -0.7142 -0.0901  0.3232
 8784SOL    HW137811   2.849   3.574   6.961  0.3614  0.9121  0.6578
 8784SOL    HW237812   2.890   3.454   6.891 -0.6625 -0.0069  1.2993
 8785SOL     OW37813   1.348   2.315   4.216  0.7363  0.3718  0.2344
 8785SOL    HW137814   1.383   2.311   4.127  0.6160  1.4653  0.1437
 8785SOL    HW237815   1.427   2.294   4.266 -0.4102 -1.3772  1.3150
 8786SOL     OW37816   3.705   1.728   0.683  0.1911  0.2886  0.0120
 8786SOL    HW137817   3.769   1.796   0.706 -0.4325  1.2721 -1.1530
 8786SOL    HW237818   3.654   1.790   0.632  5.3058  2.9046 -1.8788
 8787SOL     OW37819   2.359   0.014   9.750  0.0171 -0.4281  0.5588
 8787SOL    HW137820   2.373   4.646   9.720 -0.8009 -0.4118  0.1195
 8787SOL    HW237821   2.442   0.050   9.721 -0.4159  0.8264  0.8485
 8788SOL     OW37822   0.478   4.237   2.369  0.3418 -0.5023  0.6327
 8788SOL    HW137823   0.543   4.170   2.349 -0.2016 -0.9370  0.3166
 8788SOL    HW237824   0.484   4.292   2.291  1.4537 -1.4520  0.0406
 8789SOL     OW37825   2.707   2.719  16.147 -0.3432  0.2874 -0.0452
 8789SOL    HW137826   2.630   2.775  16.158 -1.0789 -0.7781  0.1176
 8789SOL    HW237827   2.771   2.779  16.108 -0.9688  0.8370 -0.2171
 8790SOL     OW37828   1.826   0.877  11.396  0.4435  0.3679 -0.1323
 8790SOL    HW137829   1.765   0.949  11.413 -0.6745 -0.5616 -0.2428
 8790SOL    HW237830   1.862   0.899  11.310 -1.3438  1.8493 -0.4942
 8791SOL     OW37831   3.235   2.954   1.143 -0.5526 -0.1375  0.1308
 8791SOL    HW137832   3.304   2.994   1.196 -0.7847 -0.8501  0.9711
 8791SOL    HW237833   3.159   3.006   1.169 -0.1501  0.3578  0.3288
 8792SOL     OW37834   1.428   3.772  14.800 -0.3582 -0.3521  0.0949
 8792SOL    HW137835   1.372   3.814  14.735  0.9730 -1.0117 -1.4811
 8792SOL    HW237836   1.396   3.684  14.815  0.4512 -0.1644  3.0393
 8793SOL     OW37837   1.310   3.771   0.193 -0.3039 -0.8351  0.0762
 8793SOL    HW137838   1.379   3.752   0.129 -0.4160 -1.1736  0.0547
 8793SOL    HW237839   1.248   3.830   0.150 -0.6312  0.5203  2.4582
 8794SOL     OW37840   1.526   4.553  16.758 -0.3969 -0.4197 -0.3041
 8794SOL    HW137841   1.431   4.568  16.755 -0.2643  0.3616 -0.7099
 8794SOL    HW237842   1.532   4.459  16.741  0.7951 -0.5296  0.7496
 8795SOL     OW37843   3.226   3.436   7.019  0.3104 -0.4401 -0.3592
 8795SOL    HW137844   3.316   3.464   7.004  0.5272 -1.5313 -1.1289
 8795SOL    HW237845   3.207   3.404   6.931  1.1990  1.3193 -1.1910
 8796SOL     OW37846   2.102   2.173  11.529 -0.3281  0.0196  0.3293
 8796SOL    HW137847   2.104   2.140  11.619 -1.5663  0.0137  0.3554
 8796SOL    HW237848   2.045   2.248  11.550 -3.7912 -3.3197  2.8617
 8797SOL     OW37849   3.717   2.665   5.983  0.1311  0.2686  0.1967
 8797SOL    HW137850   3.693   2.633   6.070  1.1647  1.0554  0.7620
 8797SOL    HW237851   3.787   2.726   6.005 -0.0430  0.5221  0.0482
 8798SOL     OW37852   1.004   1.189   7.062  0.2533 -0.1000 -0.0612
 8798SOL    HW137853   1.068   1.257   7.084  0.2037 -0.4829  1.2253
 8798SOL    HW237854   1.068   1.120   7.045  0.1115  0.2780 -2.1424
 8799SOL     OW37855   3.471   0.996   2.211 -0.1899  0.0372  0.5781
 8799SOL    HW137856   3.462   0.944   2.291 -0.6290 -1.9170 -0.7444
 8799SOL    HW237857   3.451   0.935   2.140 -0.2326  0.7765 -0.0479
 8800SOL     OW37858   3.062   0.839  15.303 -0.1620 -0.0297  0.3557
 8800SOL    HW137859   2.983   0.825  15.250  0.7497 -0.1688 -0.9549
 8800SOL    HW237860   3.059   0.931  15.331 -2.4357 -0.2539  0.8273
 8801SOL     OW37861   0.623   4.607   8.776 -0.0283 -0.4225 -0.0129
 8801SOL    HW137862   0.563   4.569   8.712 -3.5279 -0.5758  3.3349
 8801SOL    HW237863   0.678   4.652   8.712 -0.3695 -3.0520 -2.1354
 8802SOL     OW37864   2.504   1.440   5.374 -0.1628  0.1688  0.3003
 8802SOL    HW137865   2.482   1.362   5.322 -0.1089 -0.9079  1.8636
 8802SOL    HW237866   2.587   1.465   5.335  1.2460 -0.9917  2.5389
 8803SOL     OW37867   4.230   4.385   5.068  0.4925 -0.5127  0.4400
 8803SOL    HW137868   4.250   4.398   4.975 -1.1875  2.1142  0.4576
 8803SOL    HW237869   4.314   4.348   5.097  1.0714  0.8949  0.5945
 8804SOL     OW37870   4.355   1.713   0.521 -0.0968 -0.5227  1.1396
 8804SOL    HW137871   4.382   1.787   0.467 -1.8064  0.5105  1.6995
 8804SOL    HW237872   4.338   1.653   0.449 -0.9604 -1.0365  1.7732
 8805SOL     OW37873   4.163   3.966   0.901 -0.1947  0.1935 -0.0024
 8805SOL    HW137874   4.080   3.922   0.919  0.1924 -0.9540 -1.0142
 8805SOL    HW237875   4.230   3.898   0.909 -0.5309 -0.1295  0.0480
 8806SOL     OW37876   2.129   4.506  16.810  0.0605  0.8372 -0.1500
 8806SOL    HW137877   2.053   4.564  16.817  0.5804  1.9252 -3.2697
 8806SOL    HW237878   2.101   4.455  16.734  0.9693  0.4772 -0.2440
 8807SOL     OW37879   3.818   4.259  12.043  0.6188  0.1925 -0.8061
 8807SOL    HW137880   3.766   4.303  12.110  0.6620 -2.3564  0.8943
 8807SOL    HW237881   3.895   4.220  12.084 -0.6154  1.2251  2.4555
 8808SOL     OW37882   0.153   0.649  17.382  0.2974  0.2711  0.2570
 8808SOL    HW137883   0.137   0.561  17.416 -2.9777  1.2230  1.1370
 8808SOL    HW237884   0.192   0.693  17.458  1.6360  2.1018 -1.4719
 8809SOL     OW37885   2.152   3.631   2.505  0.1484  0.8972  0.1816
 8809SOL    HW137886   2.156   3.708   2.561  2.9379  0.5014  0.5415
 8809SOL    HW237887   2.130   3.672   2.421  2.1987  0.5464 -0.5397
 8810SOL     OW37888   2.943   4.357   0.531  0.9718 -0.5411  0.7644
 8810SOL    HW137889   2.876   4.391   0.591  0.4905 -0.2870  0.0897
 8810SOL    HW237890   2.987   4.435   0.497 -3.6381  1.9703  0.5846
 8811SOL     OW37891   2.758   3.626   1.354 -0.3004 -0.1750 -0.4270
 8811SOL    HW137892   2.740   3.546   1.404  1.7051 -1.0627 -1.1072
 8811SOL    HW237893   2.808   3.671   1.422 -2.0684  0.4410  0.4495
 8812SOL     OW37894   4.413   0.251   4.477 -0.2955  0.1438 -0.0668
 8812SOL    HW137895   4.411   0.300   4.559  2.3394  0.9405 -0.4858
 8812SOL    HW237896   4.325   0.253   4.439 -0.0198 -1.5408 -0.8072
 8813SOL     OW37897   2.473   3.668  10.456  0.0811 -0.0980  0.5302
 8813SOL    HW137898   2.518   3.588  10.429 -0.4700  0.6846 -2.7176
 8813SOL    HW237899   2.544   3.712  10.504 -0.2123  0.6981  0.2274
 8814SOL     OW37900   1.202   1.880   7.463 -0.4582  0.2777 -0.3103
 8814SOL    HW137901   1.171   1.800   7.505  1.9312  0.4747  1.8066
 8814SOL    HW237902   1.211   1.858   7.370  0.4112  0.2248 -0.2166
 8815SOL     OW37903   1.029   3.168   2.462 -0.1232 -0.2204 -0.1990
 8815SOL    HW137904   0.997   3.105   2.398 -0.6044 -0.8246  0.6325
 8815SOL    HW237905   1.063   3.112   2.532 -3.5527 -1.3535  0.5755
 8816SOL     OW37906   4.634   4.305   4.165 -0.3450  0.0571 -0.5200
 8816SOL    HW137907   4.669   4.251   4.093  0.1277 -0.5201  0.1410
 8816SOL    HW237908   4.661   4.255   4.242  1.4997  1.0801 -0.5146
 8817SOL     OW37909   0.165   3.853   5.331 -0.2661  1.1141 -0.0475
 8817SOL    HW137910   0.088   3.827   5.382 -0.0384 -0.2796 -0.4213
 8817SOL    HW237911   0.190   3.936   5.371 -2.2039  1.2416  0.9411
 8818SOL     OW37912   2.871   2.807  12.687 -0.2410 -0.1021 -0.6425
 8818SOL    HW137913   2.877   2.760  12.604  0.4756 -0.6554 -0.2707
 8818SOL    HW237914   2.777   2.810  12.705 -0.3459 -0.9465 -1.0394
 8819SOL     OW37915   0.504   4.379   5.525  0.2918 -0.0710 -0.4049
 8819SOL    HW137916   0.567   4.447   5.547 -0.4414  0.4533  0.0858
 8819SOL    HW237917   0.531   4.374   5.433 -0.9474  1.5018 -0.8616
 8820SOL     OW37918   4.661   3.799   5.469 -0.4195 -0.3953  0.4181
 8820SOL    HW137919   4.595   3.847   5.419 -0.7544 -0.1947  1.0648
 8820SOL    HW237920   4.630   3.709   5.456 -0.4016 -0.3242 -0.1452
 8821SOL     OW37921   1.925   2.179   6.748  0.1996  0.2008 -0.2823
 8821SOL    HW137922   1.996   2.135   6.702  0.4227 -0.4184  0.6512
 8821SOL    HW237923   1.967   2.239   6.811  2.2718  0.5556 -1.9843
 8822SOL     OW37924   3.491   1.038  17.263 -0.3383  0.2839 -0.0946
 8822SOL    HW137925   3.421   1.104  17.264 -1.6512 -1.0877 -1.0965
 8822SOL    HW237926   3.568   1.091  17.243  1.3732 -3.2427 -2.7592
 8823SOL     OW37927   2.718   3.515   2.516  0.4457 -0.0435 -0.6357
 8823SOL    HW137928   2.656   3.494   2.446 -0.8604 -0.6387  0.7123
 8823SOL    HW237929   2.732   3.430   2.557  0.4692  0.5737  0.6305
 8824SOL     OW37930   0.703   4.280  17.478  0.1964  0.1510 -0.6419
 8824SOL    HW137931   0.787   4.278  17.523 -0.9345  0.8621  1.5399
 8824SOL    HW237932   0.708   4.191  17.443  2.1969  0.0540 -0.1023
 8825SOL     OW37933   0.608   0.458   8.878 -0.5057 -0.1625  0.2709
 8825SOL    HW137934   0.546   0.388   8.899 -1.5302  1.6326  3.2452
 8825SOL    HW237935   0.545   0.529   8.871  1.2940  1.3344 -0.7564
 8826SOL     OW37936   1.036   0.802  10.372  0.0219 -0.2591 -0.5570
 8826SOL    HW137937   0.955   0.755  10.355 -0.1787 -0.5937  1.2349
 8826SOL    HW237938   1.011   0.862  10.444  1.4340  0.9544 -1.0772
 8827SOL     OW37939   2.209   0.085   6.970  0.4329 -0.0377  0.1308
 8827SOL    HW137940   2.240   0.004   7.011 -1.2372 -1.5397 -1.5466
 8827SOL    HW237941   2.128   0.106   7.015 -0.8200 -1.5367 -1.4216
 8828SOL     OW37942   3.742   3.699   6.594  0.4335 -0.4305 -0.0963
 8828SOL    HW137943   3.824   3.649   6.596 -0.4522 -1.8440  0.8191
 8828SOL    HW237944   3.741   3.718   6.688  0.6903 -1.7947  0.1760
 8829SOL     OW37945   1.089   0.017   2.137  0.1530  0.8265  0.0227
 8829SOL    HW137946   1.146   0.075   2.187  0.4121  1.5680 -1.1357
 8829SOL    HW237947   1.073   0.071   2.060  1.4421  1.4498  0.1952
 8830SOL     OW37948   0.546   2.707   7.982 -0.0365  0.1806  0.0565
 8830SOL    HW137949   0.552   2.668   8.069 -2.3032  1.2017  0.6996
 8830SOL    HW237950   0.494   2.785   8.003 -1.4266 -1.3626  2.4105
 8831SOL     OW37951   1.688   3.126   7.965 -0.7931  0.3986  0.0452
 8831SOL    HW137952   1.649   3.168   7.888 -0.7155  0.4138  0.0150
 8831SOL    HW237953   1.769   3.095   7.924 -1.4787 -2.5403  0.8851
 8832SOL     OW37954   1.198   3.765   6.857 -0.3684 -0.0411  0.9106
 8832SOL    HW137955   1.257   3.693   6.836  1.3405  1.2195  1.3422
 8832SOL    HW237956   1.116   3.716   6.847  0.9889 -1.8045 -1.5674
 8833SOL     OW37957   3.963   1.442   4.930  0.1640  0.0349 -0.0876
 8833SOL    HW137958   3.938   1.470   4.841 -1.8503  1.6690  0.9840
 8833SOL    HW237959   4.005   1.356   4.926  0.3726  0.0162  2.6488
 8834SOL     OW37960   3.786   3.146   2.566  0.0558  0.1206 -0.1026
 8834SOL    HW137961   3.707   3.192   2.539  1.0558  0.3191 -2.6947
 8834SOL    HW237962   3.787   3.175   2.657 -0.4732 -2.1108  0.6227
 8835SOL     OW37963   2.539   3.992  15.340  0.0835 -0.0339  0.0565
 8835SOL    HW137964   2.509   4.000  15.249  0.8354  0.3793 -0.1584
 8835SOL    HW237965   2.453   4.015  15.374  0.6780  3.3279 -0.6872
 8836SOL     OW37966   1.726   3.261  17.648 -0.4553  0.2830 -1.0900
 8836SOL    HW137967   1.634   3.277  17.670 -1.1604 -0.0454 -3.7040
 8836SOL    HW237968   1.766   3.334   0.009 -2.6994  0.3245  0.7107
 8837SOL     OW37969   2.595   4.162  12.062 -0.0805 -0.2091 -0.3050
 8837SOL    HW137970   2.506   4.162  12.028 -0.7719  1.4149  1.4866
 8837SOL    HW237971   2.581   4.166  12.157 -0.6717 -5.6273 -0.1738
 8838SOL     OW37972   0.907   3.371  10.887  0.5169  0.2852 -0.4896
 8838SOL    HW137973   0.827   3.422  10.898  1.3233  1.3486  0.4770
 8838SOL    HW237974   0.876   3.319  10.813 -2.0033 -0.0172  0.7708
 8839SOL     OW37975   1.472   2.890   4.125  0.3216 -1.0091  0.0370
 8839SOL    HW137976   1.416   2.950   4.174  1.8916 -0.6877  1.4233
 8839SOL    HW237977   1.446   2.899   4.033 -0.5864  1.2713  0.5000
 8840SOL     OW37978   0.788   3.682   1.691  0.4685 -0.5080  0.1062
 8840SOL    HW137979   0.729   3.738   1.641  0.6951 -1.2575 -1.0061
 8840SOL    HW237980   0.714   3.633   1.727  0.2128  0.8917  1.5129
 8841SOL     OW37981   3.515   2.131   4.804 -0.1239 -0.1679 -0.5756
 8841SOL    HW137982   3.559   2.204   4.761  1.1093 -0.9604 -0.6449
 8841SOL    HW237983   3.562   2.124   4.887  1.7061  0.9006 -1.5258
 8842SOL     OW37984   2.780   1.103   4.013  0.1616  0.5463  0.5228
 8842SOL    HW137985   2.842   1.098   4.086 -0.1988 -3.2758  0.5545
 8842SOL    HW237986   2.711   1.039   4.031 -0.9894  1.8881  0.8491
 8843SOL     OW37987   3.065   0.983   9.288 -0.3775  0.1707  0.4211
 8843SOL    HW137988   3.136   1.029   9.331  0.1922  1.4201 -1.8867
 8843SOL    HW237989   2.998   1.043   9.320 -0.7485 -1.6128  3.0534
 8844SOL     OW37990   4.268   4.151  12.915  0.2309  0.5004 -0.2930
 8844SOL    HW137991   4.230   4.077  12.962  1.4625  0.5867  0.8494
 8844SOL    HW237992   4.326   4.181  12.985  2.4388  0.1268 -1.9560
 8845SOL     OW37993   4.648   2.205  16.356  0.1937 -0.1097  0.2311
 8845SOL    HW137994   4.624   2.112  16.358 -1.1714  0.3061  2.3325
 8845SOL    HW237995   4.564   2.244  16.335 -0.0212 -1.2347 -1.0502
 8846SOL     OW37996   3.152   3.037   6.928 -0.4579 -0.1048 -0.0371
 8846SOL    HW137997   3.167   3.026   7.022 -0.6847 -0.8067 -0.0813
 8846SOL    HW237998   3.197   3.121   6.917  1.3990 -0.9714  0.9036
 8847SOL     OW37999   3.041   3.333   8.868 -0.0877  0.4505  0.6044
 8847SOL    HW138000   3.103   3.395   8.906  0.6314  0.0513  0.0873
 8847SOL    HW238001   3.053   3.259   8.927  2.9340 -1.8301 -2.8104
 8848SOL     OW38002   4.069   4.068  17.104  0.5196 -0.0913 -0.2074
 8848SOL    HW138003   4.075   4.033  17.015 -1.0024  0.0855 -0.3878
 8848SOL    HW238004   4.152   4.113  17.116  1.4938 -2.4727  1.8780
 8849SOL     OW38005   4.136   0.242   1.139 -0.0200 -0.6465 -0.1143
 8849SOL    HW138006   4.209   0.204   1.090  0.1963 -1.5967  0.9457
 8849SOL    HW238007   4.127   0.167   1.198 -2.0841  0.9195  1.5676
 8850SOL     OW38008   0.940   1.727   6.016  0.1033  0.4183  0.1255
 8850SOL    HW138009   0.881   1.662   6.053 -1.1766  1.4304 -0.1066
 8850SOL    HW238010   0.912   1.813   6.047 -0.5195 -0.9386  3.2563
 8851SOL     OW38011   0.987   4.712   9.186  0.0691 -0.6239  0.7157
 8851SOL    HW138012   1.063   4.700   9.128  2.0883 -0.3006  3.3289
 8851SOL    HW238013   1.026   0.032   9.262  1.2681  0.5593 -0.5397
 8852SOL     OW38014   1.965   4.044  15.786  0.3542  0.0025 -0.1885
 8852SOL    HW138015   1.965   4.131  15.826 -0.4556  0.8441 -2.0359
 8852SOL    HW238016   1.872   4.042  15.765 -0.1377  2.5823  1.7227
 8853SOL     OW38017   1.241   0.856   4.552  0.3093  0.0467 -0.2946
 8853SOL    HW138018   1.174   0.919   4.580  2.2441  1.1617  1.8384
 8853SOL    HW238019   1.186   0.778   4.546  0.7319 -0.1413 -1.5212
 8854SOL     OW38020   1.976   1.178   1.445 -0.0921 -0.2026 -0.2320
 8854SOL    HW138021   2.026   1.199   1.523  1.3939  1.9181 -1.7792
 8854SOL    HW238022   2.021   1.239   1.387  2.0970 -0.8761  0.7611
 8855SOL     OW38023   2.534   0.832   5.746 -0.1234  0.0646  0.5300
 8855SOL    HW138024   2.617   0.877   5.758 -0.9271  1.1530  1.9467
 8855SOL    HW238025   2.562   0.748   5.710 -0.4810  0.5992 -1.0052
 8856SOL     OW38026   1.120   0.458  12.339 -0.0405  0.1027 -0.5621
 8856SOL    HW138027   1.214   0.458  12.317  0.4491  0.4165  1.5312
 8856SOL    HW238028   1.112   0.526  12.406 -0.7054  3.2580 -3.8415
 8857SOL     OW38029   0.246   0.014   5.416 -0.0338  0.3029 -0.2571
 8857SOL    HW138030   0.163   4.698   5.446  0.7315 -0.4388  0.9066
 8857SOL    HW238031   0.304   0.006   5.491 -0.2095 -0.4913 -0.2002
 8858SOL     OW38032   0.936   1.427   2.745  0.2858 -0.4462 -0.0266
 8858SOL    HW138033   0.891   1.511   2.738  1.6769  0.1487 -2.0010
 8858SOL    HW238034   0.865   1.375   2.784 -0.0779 -1.0615 -1.4863
 8859SOL     OW38035   2.099   0.050  15.905 -0.1542  0.0360  0.3871
 8859SOL    HW138036   2.114   0.055  15.810 -0.9322 -2.1514  0.1557
 8859SOL    HW238037   2.035   4.700  15.908 -0.3651  0.1523 -1.4735
 8860SOL     OW38038   4.437   1.685   7.091  0.9322  0.2576 -0.3789
 8860SOL    HW138039   4.367   1.735   7.049 -0.1844 -1.8659 -1.0000
 8860SOL    HW238040   4.404   1.695   7.180 -1.8502 -0.4933 -1.3272
 8861SOL     OW38041   1.351   4.307  10.731 -0.0868  0.3734 -0.8719
 8861SOL    HW138042   1.308   4.261  10.660 -0.6054 -2.1394  1.1032
 8861SOL    HW238043   1.294   4.383  10.748 -0.5445 -0.3994  1.0494
 8862SOL     OW38044   0.174   1.100   7.913 -1.0745  0.1242 -0.6736
 8862SOL    HW138045   0.198   1.128   7.824 -3.8784 -1.5426 -1.9943
 8862SOL    HW238046   0.135   1.013   7.899 -1.1533  0.1132 -0.3768
 8863SOL     OW38047   3.067   2.301  14.887 -0.1379  0.3609 -0.7033
 8863SOL    HW138048   3.131   2.257  14.942 -1.0115  2.3582  1.9149
 8863SOL    HW238049   3.107   2.316  14.802 -0.8161 -1.1113 -1.2749
 8864SOL     OW38050   3.163   2.654  16.771 -0.0525  0.0037  0.6618
 8864SOL    HW138051   3.096   2.679  16.834 -0.4310  2.4525 -0.7397
 8864SOL    HW238052   3.241   2.687  16.816  0.3697 -0.9656  0.6518
 8865SOL     OW38053   2.989   0.573   2.455  0.2894  0.3287  0.0575
 8865SOL    HW138054   2.995   0.526   2.538 -0.8766  1.8902  1.0331
 8865SOL    HW238055   2.900   0.551   2.429  0.0966  1.4799 -0.2514
 8866SOL     OW38056   0.043   2.013  14.346 -0.1666  0.0892  0.2740
 8866SOL    HW138057   0.047   2.097  14.391 -2.1850 -0.4224  1.4058
 8866SOL    HW238058   0.108   2.029  14.277 -1.2025 -0.9645 -0.9693
 8867SOL     OW38059   2.554   0.695  11.985  0.1176  0.0128  0.0294
 8867SOL    HW138060   2.546   0.773  11.930 -1.3732 -0.5761 -0.5968
 8867SOL    HW238061   2.609   0.637  11.933  0.1743 -1.2147  1.4652
 8868SOL     OW38062   1.989   3.696  13.525  0.1186  0.3652 -0.2160
 8868SOL    HW138063   1.912   3.651  13.560  0.0796 -0.1192 -0.9420
 8868SOL    HW238064   1.954   3.757  13.460  0.1847  1.5354  0.8380
 8869SOL     OW38065   0.376   0.953   7.732  0.2170  0.5345  0.5869
 8869SOL    HW138066   0.455   1.004   7.751 -0.3585  1.7102 -0.1716
 8869SOL    HW238067   0.317   1.009   7.682 -1.2340  0.0440  1.7712
 8870SOL     OW38068   1.292   3.763   5.541  0.6327  0.5679 -0.2567
 8870SOL    HW138069   1.299   3.669   5.526  0.8150  0.6710 -0.7946
 8870SOL    HW238070   1.373   3.782   5.588  0.8521 -1.1098  0.0463
 8871SOL     OW38071   2.964   3.500   1.214 -0.4341 -0.1233  0.1614
 8871SOL    HW138072   2.990   3.437   1.280 -1.5582 -1.3448 -0.5592
 8871SOL    HW238073   2.884   3.531   1.255  0.3208  1.1852  0.6633
 8872SOL     OW38074   1.567   2.730  17.003  0.3831 -0.1924 -0.0078
 8872SOL    HW138075   1.519   2.693  16.928  1.7737  2.2474 -2.0766
 8872SOL    HW238076   1.642   2.671  16.996 -0.0381 -0.8247  0.6640
 8873SOL     OW38077   4.227   0.807   5.944 -0.9201  0.1919 -0.2458
 8873SOL    HW138078   4.190   0.868   5.881  1.7894  2.1696  0.0881
 8873SOL    HW238079   4.304   0.860   5.964 -1.0241  0.3138 -0.1674
 8874SOL     OW38080   1.328   1.197   6.832  0.1640  0.3344 -0.4959
 8874SOL    HW138081   1.281   1.268   6.788  0.1169  0.1992 -0.6608
 8874SOL    HW238082   1.403   1.234   6.879  0.4860  2.0471 -2.3738
 8875SOL     OW38083   0.618   2.603  16.578  0.3810  0.5210 -0.4058
 8875SOL    HW138084   0.609   2.594  16.483  2.2478  0.5168 -0.5840
 8875SOL    HW238085   0.616   2.699  16.571  0.3561  0.4878 -0.8608
 8876SOL     OW38086   1.472   2.744   7.118 -0.7053 -0.1897  0.1332
 8876SOL    HW138087   1.429   2.747   7.033 -0.4994 -0.7350  0.0119
 8876SOL    HW238088   1.405   2.759   7.185  1.7062 -1.7661  2.9168
 8877SOL     OW38089   1.268   3.217   4.725  0.1588  0.1088  0.1875
 8877SOL    HW138090   1.325   3.143   4.706 -0.8558 -0.3040 -1.2530
 8877SOL    HW238091   1.236   3.235   4.636  1.6524 -0.3941 -0.4454
 8878SOL     OW38092   2.048   0.875   1.328  0.1684  0.3536  0.0857
 8878SOL    HW138093   2.027   0.784   1.312  0.3040  0.8417 -2.8356
 8878SOL    HW238094   2.021   0.909   1.243 -0.2523 -0.4653 -0.1065
 8879SOL     OW38095   2.423   1.011   7.010 -0.5527  0.2108 -0.0839
 8879SOL    HW138096   2.408   1.098   6.972  1.5424  0.2576 -0.7965
 8879SOL    HW238097   2.332   0.982   7.018  0.5085 -2.6765  1.2579
 8880SOL     OW38098   2.578   0.633   2.147 -0.2636  0.0662 -0.3409
 8880SOL    HW138099   2.561   0.641   2.241 -1.1115  0.3450 -0.5213
 8880SOL    HW238100   2.575   0.724   2.117  2.7053  0.7377  1.3398
 8881SOL     OW38101   1.344   0.840   5.676  0.1429 -0.5132  0.8986
 8881SOL    HW138102   1.375   0.930   5.666 -0.5407 -0.5456 -1.6029
 8881SOL    HW238103   1.389   0.804   5.752  4.0604 -0.4188 -1.3871
 8882SOL     OW38104   2.112   0.092  12.578 -0.1412  0.7780 -0.0938
 8882SOL    HW138105   2.182   0.095  12.512 -0.6329  1.7521 -0.5882
 8882SOL    HW238106   2.052   0.028  12.541 -0.5986  3.2756 -3.7901
 8883SOL     OW38107   4.565   0.022   0.880  0.1838 -0.0950 -0.3267
 8883SOL    HW138108   4.654   0.039   0.848  0.3136 -3.2219 -1.6289
 8883SOL    HW238109   4.552   4.667   0.824 -2.7838 -0.2908  0.6305
 8884SOL     OW38110   3.230   4.112   3.363 -0.3274  0.1886 -0.0145
 8884SOL    HW138111   3.220   4.203   3.390 -0.2791  0.6363 -1.5393
 8884SOL    HW238112   3.245   4.064   3.445 -1.9922 -2.7900 -1.4750
 8885SOL     OW38113   2.648   3.987   6.310  0.2226 -0.3534  0.1884
 8885SOL    HW138114   2.654   3.891   6.302  2.6848 -0.2021  0.1561
 8885SOL    HW238115   2.556   4.013   6.316  0.9823  2.5641 -0.8786
 8886SOL     OW38116   2.553   2.664   1.447  0.1355 -0.3126  0.1585
 8886SOL    HW138117   2.519   2.597   1.506  0.3881 -0.2615  0.3647
 8886SOL    HW238118   2.536   2.620   1.364  3.1644 -0.1279 -0.5530
 8887SOL     OW38119   4.257   4.574   4.113 -0.4023 -0.8277 -0.4875
 8887SOL    HW138120   4.329   4.621   4.154 -1.3431  0.6927 -0.5611
 8887SOL    HW238121   4.295   4.487   4.123 -0.0119 -0.8925 -2.5473
 8888SOL     OW38122   3.263   2.927   4.385  0.1306 -0.0377 -0.2690
 8888SOL    HW138123   3.343   2.918   4.438 -1.7738 -1.0863  2.4195
 8888SOL    HW238124   3.296   2.943   4.296  1.2742 -1.7141 -0.1484
 8889SOL     OW38125   2.637   2.348   9.751 -0.1308 -0.2458 -0.1296
 8889SOL    HW138126   2.617   2.356   9.844  1.2070  1.7645 -0.0241
 8889SOL    HW238127   2.581   2.275   9.722 -1.4750  0.1201  1.5416
 8890SOL     OW38128   2.244   0.763   5.740 -0.4476 -0.6042 -0.4263
 8890SOL    HW138129   2.222   0.855   5.753 -0.7492 -0.8300  0.6373
 8890SOL    HW238130   2.339   0.767   5.749 -0.4470  2.1557 -1.6544
 8891SOL     OW38131   1.920   3.008   8.442  0.0954 -0.1693 -0.1848
 8891SOL    HW138132   1.925   3.088   8.494 -3.4487  0.4900 -0.8695
 8891SOL    HW238133   1.829   2.979   8.440  1.2575 -3.8944  0.9083
 8892SOL     OW38134   1.197   2.170   0.549  0.1357 -0.0686  0.5662
 8892SOL    HW138135   1.241   2.163   0.634  0.2084  1.9601  0.6941
 8892SOL    HW238136   1.183   2.263   0.532  0.9129 -0.2871 -1.2404
 8893SOL     OW38137   2.854   0.035   4.186 -0.1447  0.0726  0.3167
 8893SOL    HW138138   2.830   4.667   4.161  4.5260 -0.6394 -1.5564
 8893SOL    HW238139   2.791   0.058   4.255  0.0072  1.2512  0.0625
 8894SOL     OW38140   3.239   3.772   2.566 -0.2998 -0.0296 -0.5382
 8894SOL    HW138141   3.259   3.766   2.659  1.9050  0.2684 -1.0091
 8894SOL    HW238142   3.323   3.814   2.547 -0.5092  0.5910 -0.0552
 8895SOL     OW38143   1.182   0.895   7.207 -0.0353 -0.5848  0.2072
 8895SOL    HW138144   1.151   0.910   7.297  0.8995 -0.8702  0.5783
 8895SOL    HW238145   1.205   0.985   7.186 -0.2812 -0.6355 -0.2756
 8896SOL     OW38146   0.682   4.366  16.142  0.0828  0.1853 -0.1523
 8896SOL    HW138147   0.751   4.306  16.171  0.1070 -0.1103 -0.8277
 8896SOL    HW238148   0.695   4.377  16.048 -0.3657 -2.7085 -0.5372
 8897SOL     OW38149   4.454   3.314   3.042  0.1879  0.5070  0.4602
 8897SOL    HW138150   4.430   3.253   3.112 -1.8450  1.0273  0.2046
 8897SOL    HW238151   4.381   3.293   2.985 -0.2801  0.6558  1.0054
 8898SOL     OW38152   3.160   2.663   6.062  0.5892  0.0851  0.5731
 8898SOL    HW138153   3.086   2.639   6.007  1.7230 -4.2774  0.9712
 8898SOL    HW238154   3.128   2.749   6.090  0.2362  0.4362 -0.8974
 8899SOL     OW38155   3.072   2.437   4.194 -0.0160 -0.0446 -0.0587
 8899SOL    HW138156   2.994   2.382   4.188 -0.6259  0.9537 -1.3497
 8899SOL    HW238157   3.040   2.519   4.232  2.5982  1.3144 -0.7432
 8900SOL     OW38158   0.932   1.119   5.723  0.5986 -1.3496 -0.1571
 8900SOL    HW138159   0.998   1.049   5.731  0.5957 -1.1665  1.4250
 8900SOL    HW238160   0.854   1.073   5.754 -0.2097 -0.4143 -0.8331
 8901SOL     OW38161   0.858   3.675   3.754 -0.1548 -0.3881 -0.1156
 8901SOL    HW138162   0.878   3.722   3.835  0.1317  0.6883 -0.8074
 8901SOL    HW238163   0.773   3.708   3.725 -0.5247 -0.3607  1.0204
 8902SOL     OW38164   1.203   1.456   6.037 -0.2657  0.5274 -0.2106
 8902SOL    HW138165   1.169   1.476   6.124  0.4968  1.3430 -0.0976
 8902SOL    HW238166   1.154   1.375   6.025  2.5237 -0.9541 -1.5872
 8903SOL     OW38167   0.383   2.716   5.425  0.0244  0.1880 -0.4943
 8903SOL    HW138168   0.397   2.806   5.455  2.1823  0.7527 -3.2643
 8903SOL    HW238169   0.426   2.713   5.340  0.1730 -1.0614 -0.3804
 8904SOL     OW38170   1.724   3.764   8.103 -0.0443  0.3545  0.0860
 8904SOL    HW138171   1.669   3.724   8.170 -2.1532 -0.0804 -1.8791
 8904SOL    HW238172   1.803   3.773   8.156  0.2745  0.9325 -0.4949
 8905SOL     OW38173   0.955   3.096   0.654 -0.2161  0.3205 -0.3737
 8905SOL    HW138174   1.030   3.147   0.624  0.1428 -0.4851 -0.8409
 8905SOL    HW238175   0.882   3.145   0.616 -0.7311 -0.0141  0.1642
 8906SOL     OW38176   0.116   1.446  13.371 -0.8289  0.3149 -0.1503
 8906SOL    HW138177   0.077   1.505  13.307 -0.2934  0.3862 -0.4065
 8906SOL    HW238178   0.041   1.398  13.406  1.3493 -2.3171  0.9082
 8907SOL     OW38179   4.166   1.959   8.685 -0.0528 -0.2138 -0.1052
 8907SOL    HW138180   4.150   1.931   8.776 -0.1412  0.6974  0.1613
 8907SOL    HW238181   4.092   1.914   8.643  0.0771  0.4670 -1.0653
 8908SOL     OW38182   1.395   1.396   5.738  0.1140  0.0379  0.2885
 8908SOL    HW138183   1.345   1.478   5.731  3.0995  1.6194 -2.0025
 8908SOL    HW238184   1.456   1.411   5.810 -1.5668 -1.1751  1.9980
 8909SOL     OW38185   3.612   2.075   4.303 -0.3439 -0.0393 -0.1526
 8909SOL    HW138186   3.541   2.133   4.331 -0.2095  0.2132 -0.3402
 8909SOL    HW238187   3.605   2.004   4.366  0.5066  0.8353  0.9158
 8910SOL     OW38188   2.311   0.018   1.374  0.6885 -0.1650  0.2862
 8910SOL    HW138189   2.274   4.682   1.307 -0.7931 -0.8936  1.7439
 8910SOL    HW238190   2.307   4.686   1.453 -0.9851  1.2379  1.1492
 8911SOL     OW38191   1.398   3.390   3.060 -0.8536 -0.1388  0.0419
 8911SOL    HW138192   1.424   3.301   3.085  0.5156 -0.0913 -1.2177
 8911SOL    HW238193   1.392   3.432   3.146 -2.9214 -1.3643  0.4918
 8912SOL     OW38194   3.579   4.715   7.266  0.4712  0.9211 -0.1927
 8912SOL    HW138195   3.579   0.017   7.173  0.9230  2.6370  0.2211
 8912SOL    HW238196   3.494   4.674   7.278  1.1504 -0.4243  0.0038
 8913SOL     OW38197   4.233   1.616  14.756 -0.1900  0.2720 -0.0570
 8913SOL    HW138198   4.310   1.563  14.772  0.1865  0.9920  0.4924
 8913SOL    HW238199   4.246   1.659  14.671 -0.6954  0.4506 -0.0468
 8914SOL     OW38200   3.049   2.044   2.188  0.4262 -0.0791 -0.1345
 8914SOL    HW138201   3.074   2.009   2.274  0.6487 -2.6189 -1.2609
 8914SOL    HW238202   3.110   2.000   2.130  1.1476  0.1615  0.4332
 8915SOL     OW38203   2.753   1.428   2.767  0.7210 -0.1278  0.3280
 8915SOL    HW138204   2.798   1.496   2.716 -1.6399  0.1508 -1.3212
 8915SOL    HW238205   2.691   1.378   2.715  0.5154  0.5743 -0.1050
 8916SOL     OW38206   4.564   3.085   5.173 -0.0317  0.3838 -0.1147
 8916SOL    HW138207   4.593   2.995   5.156  2.5413  1.3510 -0.7715
 8916SOL    HW238208   4.527   3.065   5.259 -1.1514  1.2146 -0.3986
 8917SOL     OW38209   2.769   3.123   7.195 -0.2647  0.2331 -0.0461
 8917SOL    HW138210   2.743   3.033   7.175 -1.8964  0.5377  0.6668
 8917SOL    HW238211   2.715   3.176   7.137  0.7948  0.6847 -0.6205
 8918SOL     OW38212   3.608   2.565   1.703 -0.1256  0.8411 -0.5134
 8918SOL    HW138213   3.696   2.561   1.666 -0.0670 -1.8326 -0.0978
 8918SOL    HW238214   3.560   2.593   1.625 -1.0248  0.7230 -0.0001
 8919SOL     OW38215   0.645   1.355   9.971  0.6638  0.1910  0.0469
 8919SOL    HW138216   0.601   1.279  10.008 -1.2940  0.7922 -1.0541
 8919SOL    HW238217   0.572   1.413   9.948 -0.1956 -1.2159 -0.7595
 8920SOL     OW38218   0.441   3.475  14.913  0.1430  0.5913 -0.3569
 8920SOL    HW138219   0.368   3.462  14.853  0.6964 -2.3623 -0.3874
 8920SOL    HW238220   0.516   3.457  14.855  2.4519 -0.1349  2.8408
 8921SOL     OW38221   1.625   2.065   0.566  0.1458  0.5870  0.5943
 8921SOL    HW138222   1.700   2.123   0.578  0.1100  0.5502  0.9955
 8921SOL    HW238223   1.565   2.117   0.620  0.9822 -0.5347  2.5843
 8922SOL     OW38224   2.632   4.411   5.064 -0.7435 -0.3066  0.0144
 8922SOL    HW138225   2.641   4.316   5.073 -2.5241 -0.3854  0.8016
 8922SOL    HW238226   2.561   4.413   5.128 -0.4982  0.3467  0.2586
 8923SOL     OW38227   3.255   4.042   7.394 -0.0115 -0.6458 -0.2442
 8923SOL    HW138228   3.250   4.057   7.300  1.8689  1.5978  0.0100
 8923SOL    HW238229   3.239   3.948   7.402 -1.4358 -0.6743 -3.3520
 8924SOL     OW38230   2.420   2.226   8.556 -0.2896 -0.1218  0.0629
 8924SOL    HW138231   2.500   2.191   8.517  1.1319  0.7325  2.2425
 8924SOL    HW238232   2.444   2.318   8.570 -0.9464  0.1917 -0.7966
 8925SOL     OW38233   3.978   2.770   8.103 -0.2918  0.1876  0.4840
 8925SOL    HW138234   4.029   2.711   8.159  1.1776  0.6927 -0.3330
 8925SOL    HW238235   4.045   2.802   8.043  0.7793 -2.6902  0.1567
 8926SOL     OW38236   4.228   2.137  10.413  0.6638  0.2881  0.1256
 8926SOL    HW138237   4.134   2.133  10.426  0.6780 -0.7976 -0.0869
 8926SOL    HW238238   4.249   2.216  10.463 -2.4963  2.7594 -2.5145
 8927SOL     OW38239   2.370   4.616   3.146  0.0486 -0.2361  0.7583
 8927SOL    HW138240   2.415   4.536   3.173  1.3777 -0.0492 -0.9351
 8927SOL    HW238241   2.404   4.689   3.198  0.0125  0.7704 -0.6384
 8928SOL     OW38242   4.079   4.359   7.071 -0.9827  0.0412 -0.3082
 8928SOL    HW138243   4.134   4.436   7.064  1.7166 -1.9521 -0.8420
 8928SOL    HW238244   4.031   4.376   7.152 -0.3842  1.7664 -0.3251
 8929SOL     OW38245   0.331   3.558   8.089 -0.6815  0.3353 -0.1518
 8929SOL    HW138246   0.404   3.501   8.064 -2.9705 -1.8995 -1.7124
 8929SOL    HW238247   0.351   3.553   8.183  0.0060 -0.5302 -0.3515
 8930SOL     OW38248   3.855   2.551  11.589  0.7676 -0.1196 -0.2195
 8930SOL    HW138249   3.916   2.488  11.628  0.8953 -0.1462 -0.4611
 8930SOL    HW238250   3.868   2.632  11.637 -0.2937  1.0120 -1.8354
 8931SOL     OW38251   1.244   0.046   3.530 -0.2944 -0.3841 -0.5163
 8931SOL    HW138252   1.242   0.130   3.575  0.2903  0.8484 -2.7612
 8931SOL    HW238253   1.272   0.056   3.439 -0.8690 -0.9410 -0.7554
 8932SOL     OW38254   3.952   1.657  16.829 -0.1923 -0.7999 -0.0581
 8932SOL    HW138255   4.031   1.699  16.797 -0.6869  0.8206  0.8418
 8932SOL    HW238256   3.973   1.648  16.922 -0.5256 -0.1292  0.0776
 8933SOL     OW38257   2.868   4.607   3.863 -0.1442  0.0943  0.7212
 8933SOL    HW138258   2.779   4.642   3.862 -0.4992 -0.8000  0.6246
 8933SOL    HW238259   2.880   4.594   3.957  2.1348 -0.4507  0.3570
 8934SOL     OW38260   0.941   2.240   9.000  0.0396 -0.7946  0.3833
 8934SOL    HW138261   0.857   2.249   8.955  1.4506  0.7553 -1.9211
 8934SOL    HW238262   0.974   2.156   8.966 -0.7331 -0.3482 -1.4403
 8935SOL     OW38263   3.596   2.915   9.940 -0.1916 -0.0715  0.2304
 8935SOL    HW138264   3.574   2.839   9.886  0.4307 -1.8397  2.5112
 8935SOL    HW238265   3.514   2.921   9.987  0.1581  0.2329  0.8027
 8936SOL     OW38266   3.031   0.304  13.807 -0.1992  0.1498 -0.3092
 8936SOL    HW138267   2.935   0.303  13.810 -0.2039  0.0039 -0.5378
 8936SOL    HW238268   3.046   0.355  13.887 -0.8409 -0.1131 -0.0225
 8937SOL     OW38269   3.058   1.499   8.339 -0.0401 -0.1388  0.7151
 8937SOL    HW138270   2.998   1.425   8.344 -1.1185  0.6316 -0.8792
 8937SOL    HW238271   3.045   1.530   8.249  1.0635 -0.7221  0.3483
 8938SOL     OW38272   3.523   3.467   7.031  0.5436  0.3663  0.1166
 8938SOL    HW138273   3.578   3.392   7.055 -0.2563  0.1045  1.1419
 8938SOL    HW238274   3.537   3.520   7.110  2.7313 -0.5240  0.3406
 8939SOL     OW38275   3.447   1.326   5.731  0.5027 -0.3159  0.5249
 8939SOL    HW138276   3.482   1.415   5.744 -0.1511 -0.0816  0.7097
 8939SOL    HW238277   3.377   1.326   5.797  0.9608 -1.7215  1.0121
 8940SOL     OW38278   0.992   4.261   3.438  0.4079 -0.2912 -0.0369
 8940SOL    HW138279   0.958   4.240   3.351  0.7653  2.5212 -0.8504
 8940SOL    HW238280   0.989   4.356   3.429  1.2887 -0.1078  1.6682
 8941SOL     OW38281   4.704   1.283   1.605 -0.8268  0.0086 -0.8049
 8941SOL    HW138282   0.022   1.248   1.524  1.6952  2.1670 -0.5330
 8941SOL    HW238283   0.049   1.349   1.625  0.1924 -0.6852 -1.8238
 8942SOL     OW38284   1.231   1.856  13.389 -0.2461  1.0896 -0.1512
 8942SOL    HW138285   1.223   1.920  13.318 -1.3049  2.0932  0.8549
 8942SOL    HW238286   1.146   1.863  13.433 -0.1202  0.4000  0.2000
 8943SOL     OW38287   4.443   1.991   2.529  0.4932 -0.2977 -0.0789
 8943SOL    HW138288   4.405   2.021   2.611  2.1746 -0.3270  0.7138
 8943SOL    HW238289   4.366   1.977   2.474 -0.9619  0.3996  1.8061
 8944SOL     OW38290   3.021   2.186   1.370 -0.1726 -0.1476 -0.0279
 8944SOL    HW138291   2.975   2.144   1.298 -0.2936  0.5555 -0.3568
 8944SOL    HW238292   3.019   2.115   1.435  1.7408 -0.0171  0.1578
 8945SOL     OW38293   1.857   3.884   0.196  0.4373  0.0222 -0.1429
 8945SOL    HW138294   1.846   3.884   0.101  1.6821 -1.1682 -0.2910
 8945SOL    HW238295   1.777   3.928   0.224  0.0347 -0.5165 -0.4709
 8946SOL     OW38296   3.090   0.755   5.575  0.0058 -0.3906  0.0776
 8946SOL    HW138297   3.026   0.713   5.518 -0.6312  2.9665 -1.7009
 8946SOL    HW238298   3.051   0.737   5.660 -3.1724 -0.6254 -1.4058
 8947SOL     OW38299   2.603   4.264   6.043 -0.1526  0.3624  0.1799
 8947SOL    HW138300   2.579   4.335   5.983 -2.9199 -0.4327  0.3812
 8947SOL    HW238301   2.518   4.221   6.042  0.8636 -1.6388  0.3395
 8948SOL     OW38302   3.298   1.598   5.784  0.0347  0.0844 -0.0946
 8948SOL    HW138303   3.394   1.600   5.782 -0.0001  0.0613 -1.9439
 8948SOL    HW238304   3.280   1.612   5.691  1.6519  1.7160 -0.1632
 8949SOL     OW38305   2.797   1.599   0.650  0.7738 -0.1948  0.2600
 8949SOL    HW138306   2.844   1.526   0.609 -1.9662 -3.0119  2.0654
 8949SOL    HW238307   2.863   1.632   0.711  1.1863 -0.6021  0.0304
 8950SOL     OW38308   4.508   0.558   5.684  0.0233  0.5501  0.3333
 8950SOL    HW138309   4.559   0.633   5.654 -0.6199  1.1598  0.7532
 8950SOL    HW238310   4.514   0.512   5.601  0.0425  0.9158  0.1317
 8951SOL     OW38311   0.121   1.715  11.652  0.5930 -0.2706 -0.2459
 8951SOL    HW138312   0.117   1.794  11.706 -0.9547 -1.8709  1.9960
 8951SOL    HW238313   0.215   1.703  11.648  0.7101  0.7247 -0.5079
 8952SOL     OW38314   0.099   0.453   7.202  0.5393 -0.5194 -0.4521
 8952SOL    HW138315   0.017   0.418   7.237 -1.9207  4.9617 -0.7644
 8952SOL    HW238316   0.166   0.451   7.270  0.8112  0.2053 -0.6932
 8953SOL     OW38317   0.121   4.702   2.030  0.2839  0.9507  0.0912
 8953SOL    HW138318   0.039   0.005   2.072  0.2651  1.2553 -0.1289
 8953SOL    HW238319   0.086   4.656   1.954  1.4596 -1.1580  0.7898
 8954SOL     OW38320   0.833   3.326   8.151 -0.2041 -0.5706  0.5337
 8954SOL    HW138321   0.800   3.369   8.230 -2.3878 -0.1552 -0.6047
 8954SOL    HW238322   0.899   3.272   8.195 -0.5366 -0.7465  0.8167
 8955SOL     OW38323   3.246   3.500   1.662  0.2982 -0.6158  0.0244
 8955SOL    HW138324   3.337   3.472   1.667  0.6891  0.9699  1.7817
 8955SOL    HW238325   3.247   3.548   1.579 -0.5466  0.0334  0.3923
 8956SOL     OW38326   2.539   3.852   3.116  0.0098 -0.2936  0.2773
 8956SOL    HW138327   2.509   3.822   3.202 -0.9587 -3.2276 -1.0821
 8956SOL    HW238328   2.479   3.927   3.118  1.9164  1.2520 -1.3934
 8957SOL     OW38329   4.366   1.463   4.579 -0.3689 -0.8062 -0.0868
 8957SOL    HW138330   4.415   1.481   4.659  0.3154  1.0804 -0.9281
 8957SOL    HW238331   4.428   1.433   4.513 -1.2722 -1.5665 -0.5998
 8958SOL     OW38332   3.342   0.400  14.528  0.1138 -0.2255 -0.0631
 8958SOL    HW138333   3.420   0.345  14.523 -1.5357 -2.6780  1.2357
 8958SOL    HW238334   3.381   0.477  14.568 -0.1729  0.5305 -1.2361
 8959SOL     OW38335   4.556   2.338   9.588  0.2557  0.4770 -0.5620
 8959SOL    HW138336   4.633   2.295   9.626  1.5374  2.4569 -0.9797
 8959SOL    HW238337   4.557   2.311   9.496  0.5848 -0.0287 -0.4133
 8960SOL     OW38338   3.030   0.786   6.765 -0.3001 -0.6325 -0.0527
 8960SOL    HW138339   3.075   0.714   6.721 -0.2047 -0.2300 -0.6085
 8960SOL    HW238340   2.938   0.764   6.745  0.3854 -2.6991 -0.9674
 8961SOL     OW38341   1.013   0.425   5.691  0.5151 -0.5119 -0.5898
 8961SOL    HW138342   1.025   0.506   5.741  0.2538 -0.3866 -0.7287
 8961SOL    HW238343   0.935   0.454   5.643 -0.2912  0.0088  1.0151
 8962SOL     OW38344   4.478   1.526  14.811 -0.4929  0.1670 -0.2895
 8962SOL    HW138345   4.446   1.436  14.814  2.2639 -0.9096 -2.5269
 8962SOL    HW238346   4.563   1.508  14.770 -1.9833 -1.0149 -2.8761
 8963SOL     OW38347   2.444   1.980   7.202 -0.3841 -0.0831  0.3313
 8963SOL    HW138348   2.536   2.005   7.201 -1.1728  2.7754  0.4936
 8963SOL    HW238349   2.452   1.888   7.174 -1.2426  0.2285 -0.9416
 8964SOL     OW38350   2.297   4.033   1.402  0.0316  0.1155  0.7498
 8964SOL    HW138351   2.362   3.978   1.359  1.0986  1.0389  1.1958
 8964SOL    HW238352   2.336   4.119   1.420 -1.9438  0.8732  1.3699
 8965SOL     OW38353   1.256   2.911  15.091 -0.4528  0.4981  0.2884
 8965SOL    HW138354   1.318   2.862  15.037  0.2604  1.7890 -0.0769
 8965SOL    HW238355   1.309   2.959  15.155 -1.3839 -2.1458  3.0107
 8966SOL     OW38356   4.365   1.123  11.474  0.1737  0.2665 -0.1464
 8966SOL    HW138357   4.424   1.153  11.404 -1.2452  1.1227 -0.9731
 8966SOL    HW238358   4.397   1.035  11.491  0.3131  0.3082 -0.1911
 8967SOL     OW38359   0.887   3.340  16.300  0.1636 -0.0795  0.1767
 8967SOL    HW138360   0.927   3.265  16.257 -1.2979  0.1181 -1.5339
 8967SOL    HW238361   0.825   3.366  16.232 -0.7326  1.0523  1.4225
 8968SOL     OW38362   4.416   2.205   4.877 -0.2950  0.0175  0.0710
 8968SOL    HW138363   4.444   2.124   4.834  1.5394 -0.0536  1.3925
 8968SOL    HW238364   4.393   2.171   4.964  1.2904  0.5995  0.7073
 8969SOL     OW38365   3.456   3.196  10.205  0.1413  0.1825  0.5516
 8969SOL    HW138366   3.547   3.196  10.173  0.2828 -0.3234  0.9576
 8969SOL    HW238367   3.425   3.115  10.165  0.1499  0.8079 -0.7135
 8970SOL     OW38368   3.479   3.565   5.131  0.2940  0.4439  0.3296
 8970SOL    HW138369   3.476   3.484   5.080 -0.2099  0.9369 -0.4282
 8970SOL    HW238370   3.474   3.639   5.070 -0.7134 -0.5270 -0.7547
 8971SOL     OW38371   2.022   2.857   0.020 -0.2725 -0.1111  0.7871
 8971SOL    HW138372   1.958   2.866  17.636 -0.9262 -0.6437  1.3158
 8971SOL    HW238373   1.986   2.800   0.088  0.0280  0.6630  1.5893
 8972SOL     OW38374   3.620   2.371  12.215 -0.3655  0.0897 -0.9643
 8972SOL    HW138375   3.549   2.345  12.157 -0.8203  3.7386 -2.0650
 8972SOL    HW238376   3.612   2.467  12.212 -1.6399  0.0120  0.2231
 8973SOL     OW38377   1.894   0.352   6.000  0.5242 -0.4717 -0.3061
 8973SOL    HW138378   1.973   0.349   6.053 -0.6019 -1.2469  1.3142
 8973SOL    HW238379   1.914   0.275   5.947  2.6180 -1.2560  1.6573
 8974SOL     OW38380   2.855   2.698   0.783 -0.5584 -0.0776  0.4597
 8974SOL    HW138381   2.821   2.619   0.826  0.7981  0.7468  3.0752
 8974SOL    HW238382   2.921   2.647   0.737 -0.2757 -0.2959  1.1050
 8975SOL     OW38383   1.511   4.426   3.884 -0.0772 -0.0536  0.0657
 8975SOL    HW138384   1.505   4.432   3.789  1.1252  1.7950  0.1160
 8975SOL    HW238385   1.603   4.400   3.893  0.2830  0.3044 -2.5314
 8976SOL     OW38386   1.551   0.469   2.235 -0.0379 -0.2297  0.0698
 8976SOL    HW138387   1.646   0.477   2.250  0.0787 -2.5740  0.6469
 8976SOL    HW238388   1.547   0.426   2.150  0.3589  2.2606 -1.2201
 8977SOL     OW38389   2.991   3.122   6.180  0.0356 -0.1116 -0.5507
 8977SOL    HW138390   2.913   3.176   6.176  0.4468  0.5010 -0.3198
 8977SOL    HW238391   3.040   3.174   6.243 -0.0207 -3.9330  2.6616
 8978SOL     OW38392   0.310   1.669   4.104  0.3567 -0.1878 -0.5240
 8978SOL    HW138393   0.231   1.616   4.088  0.2467  0.0805 -0.8730
 8978SOL    HW238394   0.280   1.759   4.093 -0.1672 -0.6327 -2.8423
 8979SOL     OW38395   2.623   4.507   0.914 -0.0983  0.6343 -0.0026
 8979SOL    HW138396   2.645   4.599   0.905 -3.4599  1.5753  1.3796
 8979SOL    HW238397   2.527   4.509   0.914 -0.0939  0.9172 -1.9326
 8980SOL     OW38398   0.505   1.612   6.982  0.0936 -0.2256 -0.3811
 8980SOL    HW138399   0.424   1.664   6.989  0.8247  0.7856  0.5092
 8980SOL    HW238400   0.471   1.523   6.989 -0.8957  0.2858  1.3786
 8981SOL     OW38401   4.078   4.008  16.832  0.2981 -0.3453 -0.0675
 8981SOL    HW138402   4.059   4.062  16.756 -0.8534 -0.3910  0.1809
 8981SOL    HW238403   4.065   3.921  16.794  0.7085  0.8404 -2.9097
 8982SOL     OW38404   3.323   1.776   4.370  0.2094 -0.2967  0.4657
 8982SOL    HW138405   3.336   1.812   4.457  2.5579 -0.9487  0.3783
 8982SOL    HW238406   3.234   1.804   4.348  1.0277  1.0035 -1.2525
 8983SOL     OW38407   4.013   3.581  10.880  0.0572  0.1964 -0.8182
 8983SOL    HW138408   3.991   3.625  10.798 -0.5783 -1.5992 -1.5990
 8983SOL    HW238409   3.970   3.638  10.944  0.6722 -0.7134  0.4100
 8984SOL     OW38410   2.594   3.643   9.048 -0.0625 -0.4707  0.6226
 8984SOL    HW138411   2.659   3.705   9.081  0.5198 -0.7443 -0.0344
 8984SOL    HW238412   2.636   3.560   9.072 -0.8817 -1.2707 -0.7069
 8985SOL     OW38413   2.320   0.795   4.819  0.1136 -0.6881  0.3283
 8985SOL    HW138414   2.407   0.821   4.849  1.3823 -4.0718 -0.4422
 8985SOL    HW238415   2.276   0.881   4.816 -2.0456 -1.8318 -1.1827
 8986SOL     OW38416   4.265   2.858   5.880 -0.1372  0.1129  0.4100
 8986SOL    HW138417   4.246   2.847   5.973 -2.8667  1.6394  0.0502
 8986SOL    HW238418   4.191   2.910   5.847  0.1858 -0.8669 -1.9081
 8987SOL     OW38419   1.870   1.867   6.946  0.0654  0.1595  0.1252
 8987SOL    HW138420   1.959   1.889   6.973  0.5388  1.7864 -2.7778
 8987SOL    HW238421   1.831   1.954   6.944  0.1410  0.1734 -0.8829
 8988SOL     OW38422   3.899   3.527   1.946 -0.4010  0.0405  0.6895
 8988SOL    HW138423   3.991   3.554   1.939 -0.8475  2.1731  3.1428
 8988SOL    HW238424   3.864   3.596   2.001 -1.3185  0.7401 -0.7739
 8989SOL     OW38425   3.145   1.774   3.737  0.0268  0.6277 -0.0634
 8989SOL    HW138426   3.174   1.683   3.739 -0.6304  0.3900 -1.3685
 8989SOL    HW238427   3.167   1.803   3.649 -1.1243 -0.7762 -0.8174
 8990SOL     OW38428   1.663   1.450   7.997 -0.0471  0.8886 -0.2757
 8990SOL    HW138429   1.751   1.452   7.960  0.0105 -1.4374 -0.2746
 8990SOL    HW238430   1.669   1.527   8.053  1.4696  0.0226  0.7510
 8991SOL     OW38431   3.465   3.465   3.508 -0.3927  0.1737 -0.3362
 8991SOL    HW138432   3.407   3.454   3.584 -1.9421 -2.9328 -1.9884
 8991SOL    HW238433   3.553   3.462   3.544 -0.8323  1.1486  0.8246
 8992SOL     OW38434   2.244   3.885   2.425 -0.4147  0.4440 -0.2014
 8992SOL    HW138435   2.252   3.908   2.517  1.6350  2.3081 -0.8479
 8992SOL    HW238436   2.215   3.967   2.385  0.1315  0.1005 -1.2853
 8993SOL     OW38437   4.678   3.517   3.536  0.2545 -0.2137 -0.6211
 8993SOL    HW138438   4.649   3.434   3.498  1.0570 -0.6271 -0.3239
 8993SOL    HW238439   4.621   3.525   3.613 -0.8040  0.3860 -1.4611
 8994SOL     OW38440   0.167   2.293  17.245 -0.5289  0.6179  0.0178
 8994SOL    HW138441   0.225   2.303  17.170 -1.6237  0.1363 -0.8795
 8994SOL    HW238442   0.092   2.333  17.202 -0.7401  0.3569  0.1437
 8995SOL     OW38443   1.815   2.573  12.835  0.6445 -0.3250 -0.1009
 8995SOL    HW138444   1.877   2.522  12.783  1.3044  1.7364 -1.3438
 8995SOL    HW238445   1.759   2.608  12.766 -0.5421 -0.0970  0.9849
 8996SOL     OW38446   1.531   0.457   3.558 -0.0687 -0.7855 -0.2670
 8996SOL    HW138447   1.608   0.456   3.501 -1.0068 -0.9794 -1.5128
 8996SOL    HW238448   1.568   0.424   3.640  0.1639  1.6036  0.5979
 8997SOL     OW38449   2.236   3.306   8.476 -0.2996 -0.0881  0.0498
 8997SOL    HW138450   2.142   3.326   8.481 -0.1063  1.0273 -0.6422
 8997SOL    HW238451   2.260   3.286   8.566 -1.9138 -1.3435  0.1950
 8998SOL     OW38452   2.092   3.074  15.214 -0.4640  0.5310  0.5779
 8998SOL    HW138453   2.125   3.023  15.140 -2.9747 -1.9524  1.1741
 8998SOL    HW238454   2.169   3.122  15.245  0.4108 -0.5855  0.1490
 8999SOL     OW38455   1.548   0.058  15.276  0.4533  0.0438 -0.4578
 8999SOL    HW138456   1.604   0.003  15.221 -0.2310 -0.9972 -0.0875
 8999SOL    HW238457   1.588   0.142  15.251 -0.0119  0.7672  1.2378
 9000SOL     OW38458   2.983   3.878   2.205 -0.1575 -0.1741  0.3191
 9000SOL    HW138459   2.974   3.785   2.186  3.8240 -0.7371  1.1855
 9000SOL    HW238460   2.987   3.918   2.118 -0.3038  1.4498  1.0619
 9001SOL     OW38461   2.469   2.775  15.928 -0.5472  0.1759 -0.1878
 9001SOL    HW138462   2.482   2.809  16.017 -1.9200  1.8119 -0.6116
 9001SOL    HW238463   2.554   2.745  15.897 -0.2884 -0.9472  1.5723
 9002SOL     OW38464   4.300   0.730   1.967  0.4294 -0.5229  0.3208
 9002SOL    HW138465   4.281   0.657   1.908  1.3522  0.7127 -1.5330
 9002SOL    HW238466   4.387   0.752   1.932  0.1717 -1.4029 -0.8884
 9003SOL     OW38467   3.150   0.183   5.763  0.1475  0.5218  0.0663
 9003SOL    HW138468   3.172   0.160   5.673 -1.1018  2.6420 -0.7722
 9003SOL    HW238469   3.134   0.096   5.800 -0.6193  0.3605 -0.6432
 9004SOL     OW38470   3.294   3.549   3.988  0.3606 -0.8562  0.4531
 9004SOL    HW138471   3.206   3.512   3.990 -1.6808  3.9742  0.9244
 9004SOL    HW238472   3.280   3.638   4.020 -1.7890 -0.4458 -1.6260
 9005SOL     OW38473   0.004   1.807   4.415  0.0158 -0.3027 -0.3001
 9005SOL    HW138474   4.701   1.728   4.367  0.7620 -0.1316 -0.9565
 9005SOL    HW238475   0.081   1.787   4.469 -0.6103  0.5078  0.9026
 9006SOL     OW38476   1.594   2.515  16.114 -0.1368 -0.1533  0.5729
 9006SOL    HW138477   1.602   2.610  16.125  1.8796 -0.3190  0.6016
 9006SOL    HW238478   1.503   2.508  16.086 -0.1990 -0.9824  1.0091
 9007SOL     OW38479   1.939   0.902   7.427  0.2867 -0.0270  0.3962
 9007SOL    HW138480   1.945   0.990   7.465  1.5052  0.4535 -0.9442
 9007SOL    HW238481   1.870   0.862   7.481  0.3808 -1.0207 -0.2151
 9008SOL     OW38482   1.240   2.601  12.290  0.2228 -0.6646  0.0309
 9008SOL    HW138483   1.291   2.625  12.212 -2.1042 -1.4372 -1.7209
 9008SOL    HW238484   1.155   2.621  12.251 -0.3887 -2.1707  0.6024
 9009SOL     OW38485   0.969   2.137   6.320 -0.2882  0.6711  0.1653
 9009SOL    HW138486   0.886   2.162   6.278 -1.5314 -1.0698  1.5729
 9009SOL    HW238487   1.029   2.134   6.246 -1.0212 -0.5212 -0.3841
 9010SOL     OW38488   2.463   0.703   0.322 -0.0277  0.4527 -0.1273
 9010SOL    HW138489   2.503   0.626   0.283 -2.5519 -2.0696  2.2164
 9010SOL    HW238490   2.475   0.695   0.417 -1.9815  1.0358  0.1792
 9011SOL     OW38491   3.443   0.839   2.631  0.1181 -0.8167 -0.5480
 9011SOL    HW138492   3.468   0.931   2.638  1.7960 -1.2931 -0.2208
 9011SOL    HW238493   3.365   0.843   2.576 -1.0430  0.1292  1.1702
 9012SOL     OW38494   2.566   2.142   4.191 -0.1714  0.3393  0.2687
 9012SOL    HW138495   2.490   2.101   4.150 -0.4827  3.4661 -2.3141
 9012SOL    HW238496   2.517   2.208   4.240  0.0377  1.0139 -0.4280
 9013SOL     OW38497   0.027   0.779   5.133 -0.1766  1.4476 -0.0092
 9013SOL    HW138498   0.117   0.755   5.110 -0.5222  3.1437 -3.2228
 9013SOL    HW238499   0.046   0.839   5.205 -0.4452  1.3112  0.1709
 9014SOL     OW38500   2.785   3.392   6.452 -0.1098 -0.1874 -0.4744
 9014SOL    HW138501   2.834   3.471   6.478 -0.2737 -0.6950  1.3718
 9014SOL    HW238502   2.792   3.402   6.357 -0.9795 -0.7818 -0.6023
 9015SOL     OW38503   1.321   4.538   1.440 -0.2354 -0.2757  0.5199
 9015SOL    HW138504   1.375   4.501   1.371  1.2486  0.5154  1.2664
 9015SOL    HW238505   1.379   4.602   1.483  0.7052 -1.0852  0.4374
 9016SOL     OW38506   3.109   0.859   5.957  0.8523  0.3176  0.0538
 9016SOL    HW138507   3.055   0.936   5.975  1.1989  0.2274  1.4737
 9016SOL    HW238508   3.041   0.808   5.913  0.8743 -0.6995  1.2280
 9017SOL     OW38509   2.480   0.542  13.692  0.0644 -0.1904 -0.6932
 9017SOL    HW138510   2.388   0.565  13.689 -0.3364 -1.6450  0.4059
 9017SOL    HW238511   2.500   0.505  13.606  1.8553  0.7480 -0.6984
 9018SOL     OW38512   0.256   1.478   3.518 -0.4007  0.0168 -0.2477
 9018SOL    HW138513   0.344   1.443   3.506 -0.4114  0.0087 -0.3004
 9018SOL    HW238514   0.229   1.483   3.426 -0.5382  1.8304 -0.1152
 9019SOL     OW38515   2.546   0.884   7.230  0.2111 -0.1458  0.0301
 9019SOL    HW138516   2.533   0.940   7.153 -1.5604  2.3259  2.1423
 9019SOL    HW238517   2.465   0.889   7.280  0.3976  0.9645  0.2072
 9020SOL     OW38518   2.304   1.320  10.395 -0.6602  0.3107 -0.2613
 9020SOL    HW138519   2.303   1.250  10.460 -2.5065 -0.1879 -0.8287
 9020SOL    HW238520   2.213   1.323  10.365 -0.0778  2.6837 -1.8527
 9021SOL     OW38521   1.274   2.025  10.297  0.2345 -0.1609  0.5749
 9021SOL    HW138522   1.331   2.101  10.289 -1.2833  1.2316  3.0378
 9021SOL    HW238523   1.335   1.953  10.281  1.0936  0.4373  1.2219
 9022SOL     OW38524   3.555   1.611   8.921  0.9766  0.1935 -0.1914
 9022SOL    HW138525   3.563   1.691   8.973 -2.0456  0.5950 -0.3413
 9022SOL    HW238526   3.534   1.638   8.832  1.5765  3.5834  0.6989
 9023SOL     OW38527   1.432   1.965   3.427 -0.0201 -0.1366  0.0480
 9023SOL    HW138528   1.440   1.898   3.495  1.2092 -0.8003 -0.7522
 9023SOL    HW238529   1.345   1.926   3.412 -1.0140  0.7322  3.5525
 9024SOL     OW38530   0.579   3.724   4.287 -0.0776  0.1683  0.0998
 9024SOL    HW138531   0.659   3.681   4.257  0.4851  1.7099 -0.6375
 9024SOL    HW238532   0.578   3.696   4.378  0.4934 -3.8076 -1.1264
 9025SOL     OW38533   0.618   1.335  16.254  0.5310  0.4505  0.0836
 9025SOL    HW138534   0.567   1.269  16.207  0.9143 -0.5955  1.1417
 9025SOL    HW238535   0.606   1.411  16.197 -0.4417 -1.0930 -1.7655
 9026SOL     OW38536   2.175   2.070   4.612  0.4356  0.4079 -0.8596
 9026SOL    HW138537   2.186   2.047   4.520 -0.3703  0.9769 -1.1001
 9026SOL    HW238538   2.085   2.103   4.612  0.7287  1.1954 -1.9117
 9027SOL     OW38539   0.441   4.491   7.736  0.0720  0.1099  0.2277
 9027SOL    HW138540   0.445   4.399   7.763  3.1367  0.7720  2.0122
 9027SOL    HW238541   0.523   4.530   7.766 -2.7710  6.1899 -0.0143
 9028SOL     OW38542   3.144   1.854   9.753 -0.1867  0.1544  0.0139
 9028SOL    HW138543   3.097   1.935   9.733 -0.4994  0.2173  0.9930
 9028SOL    HW238544   3.160   1.831   9.661 -0.6878  3.7832 -0.9897
 9029SOL     OW38545   2.324   1.332  14.678 -0.5271 -0.2320  0.1982
 9029SOL    HW138546   2.348   1.274  14.750  0.1330  2.1805  1.9004
 9029SOL    HW238547   2.276   1.269  14.624 -0.2893 -1.7274  1.7426
 9030SOL     OW38548   3.981   2.577   9.496  0.2353  0.2076 -0.4855
 9030SOL    HW138549   4.006   2.497   9.543  1.9982  0.0468 -1.6843
 9030SOL    HW238550   3.944   2.631   9.566  0.9800 -0.4938  0.4393
 9031SOL     OW38551   2.302   1.756   6.801 -0.0815  0.0023  0.4168
 9031SOL    HW138552   2.264   1.672   6.824  1.6858 -1.3022 -1.3230
 9031SOL    HW238553   2.395   1.738   6.818 -0.3183 -1.2220  0.4218
 9032SOL     OW38554   1.404   1.569  13.014 -0.0631  0.3351 -0.9425
 9032SOL    HW138555   1.359   1.603  12.936  1.9701  1.1974 -1.7438
 9032SOL    HW238556   1.492   1.602  12.995 -0.5201  2.7124  1.1506
 9033SOL     OW38557   0.955   2.461   9.481  0.3615  0.6621 -0.1124
 9033SOL    HW138558   0.936   2.425   9.395  2.3225 -1.2111  0.2365
 9033SOL    HW238559   0.875   2.513   9.494 -0.1869 -1.4687  4.9012
 9034SOL     OW38560   3.507   2.820   0.988 -0.0779  0.3985  0.3064
 9034SOL    HW138561   3.443   2.769   1.037  1.4904 -0.2713  1.6504
 9034SOL    HW238562   3.564   2.851   1.058  1.0001 -0.0963 -0.3543
 9035SOL     OW38563   1.760   0.336  17.158  0.3530  0.0836  0.1737
 9035SOL    HW138564   1.715   0.252  17.163 -0.2943  0.3660 -0.7247
 9035SOL    HW238565   1.778   0.340  17.064  0.1591 -2.3132  0.0542
 9036SOL     OW38566   4.066   2.449   5.498  0.2867 -0.8609  0.6013
 9036SOL    HW138567   4.012   2.379   5.462  0.9442 -0.2247 -1.5916
 9036SOL    HW238568   4.155   2.424   5.470 -0.9796 -3.4434 -1.1424
 9037SOL     OW38569   1.432   0.554   8.411  0.7808 -0.6138 -0.0401
 9037SOL    HW138570   1.492   0.525   8.342 -0.0519 -2.3399 -0.0158
 9037SOL    HW238571   1.414   0.471   8.454  0.5874 -0.1002  0.8548
 9038SOL     OW38572   2.860   3.874   9.488 -0.2161  0.2715 -0.2873
 9038SOL    HW138573   2.894   3.845   9.573 -1.1449  2.4252  0.8253
 9038SOL    HW238574   2.772   3.905   9.510 -0.2524 -0.8950  1.2032
 9039SOL     OW38575   0.788   1.680   0.991  0.2967 -0.5144  0.0018
 9039SOL    HW138576   0.733   1.615   1.034 -1.6357  1.0531 -0.0634
 9039SOL    HW238577   0.814   1.743   1.059 -0.5463 -1.9641  1.6566
 9040SOL     OW38578   1.341   2.118   4.672  0.0530  0.2933  0.0866
 9040SOL    HW138579   1.381   2.100   4.757  1.7472 -1.4972 -1.0827
 9040SOL    HW238580   1.272   2.182   4.689 -0.0405 -0.3014  2.0543
 9041SOL     OW38581   1.299   2.395   7.098 -0.1896 -0.4444 -0.1962
 9041SOL    HW138582   1.252   2.317   7.127 -1.1782 -0.0316 -0.6973
 9041SOL    HW238583   1.304   2.373   7.005  0.0812 -1.5957  0.0869
 9042SOL     OW38584   3.504   4.486   6.219 -0.3490 -0.5835  0.2430
 9042SOL    HW138585   3.575   4.443   6.266 -0.1337 -1.2175 -0.6510
 9042SOL    HW238586   3.473   4.417   6.160 -1.7394  0.5823 -0.4200
 9043SOL     OW38587   3.369   4.213   4.396 -0.7376  0.1658  0.3511
 9043SOL    HW138588   3.354   4.179   4.308 -1.6525  2.1817 -0.2734
 9043SOL    HW238589   3.393   4.127   4.432 -0.5840 -0.0460 -0.2551
 9044SOL     OW38590   0.181   2.501   8.422  0.2363 -0.2506 -0.5282
 9044SOL    HW138591   0.152   2.427   8.475  2.2930  0.0502  1.0622
 9044SOL    HW238592   0.222   2.563   8.483  1.4296  0.5790 -2.1622
 9045SOL     OW38593   1.653   0.456   5.066  0.2392  0.2245  0.5735
 9045SOL    HW138594   1.647   0.533   5.122 -2.7695 -0.0978  0.6904
 9045SOL    HW238595   1.635   0.383   5.125  0.5724 -0.6936 -0.4675
 9046SOL     OW38596   0.668   3.835  12.892  0.7273  0.4236  0.3266
 9046SOL    HW138597   0.645   3.748  12.923 -1.4891  0.2120 -1.8849
 9046SOL    HW238598   0.751   3.813  12.849  0.3427 -2.1469  0.9112
 9047SOL     OW38599   4.372   3.442   7.182 -0.0040 -0.0979  0.0050
 9047SOL    HW138600   4.320   3.451   7.102  0.5921 -1.1730 -0.4907
 9047SOL    HW238601   4.334   3.365   7.224  0.6106 -1.1229 -1.3325
 9048SOL     OW38602   4.358   3.445   1.548 -0.0568 -0.3124  0.4329
 9048SOL    HW138603   4.328   3.441   1.457 -0.3685  1.2157  0.4705
 9048SOL    HW238604   4.347   3.353   1.574 -3.5624  0.5043  1.8461
 9049SOL     OW38605   4.125   1.244   6.150 -0.2106 -0.6084 -0.2427
 9049SOL    HW138606   4.088   1.176   6.093  2.0322  0.3720 -2.8780
 9049SOL    HW238607   4.219   1.233   6.137 -0.0832  0.6415 -0.3375
 9050SOL     OW38608   2.742   3.292   1.421 -0.1977 -0.3863 -0.3012
 9050SOL    HW138609   2.789   3.346   1.485 -2.8454 -1.1765  2.3149
 9050SOL    HW238610   2.721   3.205   1.455 -0.2279  0.6251  2.2295
 9051SOL     OW38611   0.263   4.291   2.543 -1.0085  0.1981  0.1776
 9051SOL    HW138612   0.343   4.275   2.593 -1.3598 -0.1002  0.6384
 9051SOL    HW238613   0.297   4.266   2.457 -1.3858 -1.1678  0.4280
 9052SOL     OW38614   0.426   4.353   7.488 -0.1761  0.3162 -0.2689
 9052SOL    HW138615   0.423   4.414   7.562  2.8467  1.5836 -1.1792
 9052SOL    HW238616   0.511   4.376   7.450  0.2164  0.3211  0.6080
 9053SOL     OW38617   3.491   1.310   8.124  0.2136 -0.5308  0.2562
 9053SOL    HW138618   3.431   1.352   8.186  1.2467  0.2348  0.7300
 9053SOL    HW238619   3.573   1.337   8.166 -1.0307  0.2821  2.1670
 9054SOL     OW38620   2.232   1.763   1.012 -0.8007 -0.2112 -0.2327
 9054SOL    HW138621   2.197   1.686   0.967 -0.0670 -2.4703  3.0513
 9054SOL    HW238622   2.326   1.745   1.022 -0.7800 -0.9037 -1.6095
 9055SOL     OW38623   1.184   2.932   2.663  0.6189 -0.2474  0.0312
 9055SOL    HW138624   1.130   2.855   2.681  1.6750 -1.1265 -0.5755
 9055SOL    HW238625   1.251   2.901   2.603 -0.4776 -1.6424 -0.4736
 9056SOL     OW38626   3.301   2.492   8.415  0.1578  0.5338  0.7867
 9056SOL    HW138627   3.289   2.528   8.503 -2.7398  0.8881  0.2535
 9056SOL    HW238628   3.371   2.426   8.419 -1.5740 -1.3482  0.4111
 9057SOL     OW38629   3.478   3.661   2.802 -0.4056  0.3385 -0.2095
 9057SOL    HW138630   3.407   3.676   2.865 -0.2879 -1.0565  0.2683
 9057SOL    HW238631   3.504   3.572   2.825 -0.0255  0.1637 -1.3186
 9058SOL     OW38632   1.227   4.417   4.197 -0.2648  0.1474  0.2091
 9058SOL    HW138633   1.257   4.326   4.193 -1.7377 -0.2278 -2.6365
 9058SOL    HW238634   1.134   4.409   4.220 -0.7596 -0.2924 -1.8858
 9059SOL     OW38635   2.930   1.637   9.710  0.2253  0.3183 -0.1485
 9059SOL    HW138636   3.022   1.614   9.722  0.9430  3.2267 -0.1723
 9059SOL    HW238637   2.913   1.678   9.795  0.1879  2.1950 -1.0523
 9060SOL     OW38638   2.261   1.436   3.578  0.1589  0.1887  0.3369
 9060SOL    HW138639   2.295   1.492   3.507 -1.2253  0.6516  0.0326
 9060SOL    HW238640   2.341   1.386   3.588  0.0848 -0.6571 -3.2054
 9061SOL     OW38641   3.552   2.778   6.416  0.3267 -0.4901 -0.1678
 9061SOL    HW138642   3.605   2.844   6.371 -1.1732 -0.5491 -2.0000
 9061SOL    HW238643   3.513   2.836   6.481  1.9328 -1.0019  1.2579
 9062SOL     OW38644   0.915   2.350  13.321  0.1437  0.3880  0.5125
 9062SOL    HW138645   0.952   2.313  13.401 -0.5562 -1.5833 -0.0847
 9062SOL    HW238646   0.983   2.415  13.301  0.2198  0.4053  0.8223
 9063SOL     OW38647   3.165   2.597  11.648 -0.7420 -0.5427  0.2588
 9063SOL    HW138648   3.243   2.624  11.696  0.4425  2.6050 -3.4372
 9063SOL    HW238649   3.102   2.652  11.694  1.3283  1.4199  0.7443
 9064SOL     OW38650   3.869   4.577  10.019  0.8394  0.2540  0.0710
 9064SOL    HW138651   3.957   4.544  10.002  0.8580  0.9441 -1.1064
 9064SOL    HW238652   3.837   4.496  10.060 -0.7227 -0.1755 -2.0096
 9065SOL     OW38653   4.118   4.151  12.079  0.1932 -0.1215 -0.8888
 9065SOL    HW138654   4.212   4.134  12.088 -0.4060 -1.6971  2.6191
 9065SOL    HW238655   4.087   4.074  12.032 -1.7433  0.4971 -0.6032
 9066SOL     OW38656   1.229   3.588  12.403 -0.4221 -0.2000 -0.4321
 9066SOL    HW138657   1.235   3.509  12.457  0.6714  0.2414  0.0830
 9066SOL    HW238658   1.314   3.587  12.359 -0.3475 -2.1293 -0.2481
 9067SOL     OW38659   1.584   2.182  12.365  0.2766 -0.2127 -0.0187
 9067SOL    HW138660   1.674   2.161  12.343 -0.5755 -1.1597 -2.5687
 9067SOL    HW238661   1.533   2.169  12.285 -0.6289 -0.4461  0.5886
 9068SOL     OW38662   1.577   1.156   2.239 -0.1100  0.0097 -0.6268
 9068SOL    HW138663   1.510   1.192   2.297  0.0049  0.8521 -1.0129
 9068SOL    HW238664   1.552   1.200   2.158 -1.4168  0.0389 -0.2086
 9069SOL     OW38665   2.545   2.503   9.500  0.1949 -0.0247  0.2640
 9069SOL    HW138666   2.456   2.517   9.470  0.2855 -0.1519 -0.0615
 9069SOL    HW238667   2.537   2.408   9.513  0.2401 -0.0096  0.4063
 9070SOL     OW38668   1.140   2.969  11.052 -0.4056 -0.3256 -0.5907
 9070SOL    HW138669   1.052   2.932  11.055 -0.6886  0.5618  1.8491
 9070SOL    HW238670   1.131   3.057  11.015  0.8107 -0.2147 -0.6164
 9071SOL     OW38671   1.433   3.628   6.492 -0.1174  0.1366 -0.1682
 9071SOL    HW138672   1.493   3.554   6.480 -1.7650 -1.3231  0.6097
 9071SOL    HW238673   1.350   3.580   6.496  0.3250 -0.5032  1.9033
 9072SOL     OW38674   2.409   1.811  13.385  0.2431  0.6044 -0.0139
 9072SOL    HW138675   2.397   1.719  13.409  2.2859  0.7376  1.5625
 9072SOL    HW238676   2.497   1.826  13.420  0.8247  0.0594 -1.2280
 9073SOL     OW38677   4.519   1.491   6.708 -0.1934  0.3265 -0.7240
 9073SOL    HW138678   4.545   1.505   6.799 -0.4752  0.7180 -0.7031
 9073SOL    HW238679   4.489   1.400   6.709  0.3584  0.1679  1.4470
 9074SOL     OW38680   2.254   4.460  12.339  0.0674 -0.0956 -0.0658
 9074SOL    HW138681   2.279   4.372  12.311 -0.2111 -0.1513 -0.1454
 9074SOL    HW238682   2.340   4.502  12.349 -0.0801 -0.3305  2.2378
 9075SOL     OW38683   1.183   3.368  17.138 -0.4370  0.5496 -0.3278
 9075SOL    HW138684   1.127   3.290  17.137  3.4251 -2.2269  1.9004
 9075SOL    HW238685   1.220   3.362  17.226  0.1998  0.9061 -0.5730
 9076SOL     OW38686   2.228   0.095   5.072  0.3332  0.0022 -1.1760
 9076SOL    HW138687   2.214   0.019   5.128  0.1231  1.0247  0.1541
 9076SOL    HW238688   2.142   0.117   5.036 -0.4009  0.1375  0.6403
 9077SOL     OW38689   2.929   1.217   9.325 -0.2769  0.6609 -0.2579
 9077SOL    HW138690   2.985   1.267   9.266  0.4166 -2.5868 -2.3372
 9077SOL    HW238691   2.853   1.275   9.320  0.5156  1.7518  0.2704
 9078SOL     OW38692   4.156   0.504   2.862  0.3319 -0.0436  0.1103
 9078SOL    HW138693   4.067   0.471   2.875  0.0908  0.5228 -0.1276
 9078SOL    HW238694   4.141   0.598   2.859 -0.7730 -0.2714 -1.2300
 9079SOL     OW38695   2.899   2.591  17.075  0.4299 -0.1435 -0.0475
 9079SOL    HW138696   2.957   2.665  17.058 -1.2451  1.1874  0.0175
 9079SOL    HW238697   2.808   2.619  17.067  0.3830 -0.6003 -1.1148
 9080SOL     OW38698   3.730   0.343  10.496 -0.2221  0.0743 -0.4631
 9080SOL    HW138699   3.794   0.272  10.489 -0.4597 -0.0936 -0.9382
 9080SOL    HW238700   3.775   0.422  10.526 -0.0027 -0.2511  0.0634
 9081SOL     OW38701   1.388   0.136   8.181  0.3044  0.0658 -0.0785
 9081SOL    HW138702   1.347   0.210   8.137 -1.3826  0.6286  2.4688
 9081SOL    HW238703   1.463   0.128   8.122  1.1723  0.4395  0.9747
 9082SOL     OW38704   4.674   4.359   6.427 -0.1076  0.5676  0.0920
 9082SOL    HW138705   0.009   4.370   6.350 -0.2353  0.9624  0.0574
 9082SOL    HW238706   4.689   4.265   6.440  1.0183  0.8138  0.4945
 9083SOL     OW38707   3.909   3.796  11.903 -0.1118 -0.1537 -0.4760
 9083SOL    HW138708   3.833   3.847  11.931  0.4594  0.5041 -0.1521
 9083SOL    HW238709   3.912   3.819  11.810  1.1141  1.3996 -0.0401
 9084SOL     OW38710   1.521   2.130   7.219 -0.2292 -0.1299  0.3356
 9084SOL    HW138711   1.490   2.121   7.309  0.5627  2.5347  0.8772
 9084SOL    HW238712   1.443   2.112   7.167 -0.4113  0.0889  0.5346
 9085SOL     OW38713   4.036   3.109  11.397 -0.3717  0.2125 -0.3222
 9085SOL    HW138714   4.115   3.055  11.396 -0.3234  0.2355  2.6378
 9085SOL    HW238715   3.995   3.079  11.316 -1.0199  0.9233 -0.2492
 9086SOL     OW38716   2.852   1.946   9.360 -0.1734 -0.5230 -0.9010
 9086SOL    HW138717   2.763   1.923   9.387  0.1013 -1.4339 -0.7726
 9086SOL    HW238718   2.848   2.040   9.342 -1.1133 -0.3128  0.3664
 9087SOL     OW38719   3.118   4.013   5.565  0.2663 -0.0880  0.7817
 9087SOL    HW138720   3.211   4.027   5.580  0.5835 -0.6734 -0.6332
 9087SOL    HW238721   3.113   3.925   5.526 -1.0126  0.0626  0.6092
 9088SOL     OW38722   3.048   2.289   5.950  0.2532  0.0408  0.1366
 9088SOL    HW138723   3.076   2.198   5.943  1.0428  0.3455 -0.6306
 9088SOL    HW238724   3.104   2.325   6.019  0.5851  0.1371 -0.1904
 9089SOL     OW38725   1.048   0.911   0.641  0.8866 -0.1898 -0.0710
 9089SOL    HW138726   0.965   0.905   0.595  1.8088 -0.0572 -1.7721
 9089SOL    HW238727   1.064   0.821   0.669  2.1653  0.8825  2.6695
 9090SOL     OW38728   4.568   3.781   6.742  0.3180  0.4983  0.0644
 9090SOL    HW138729   4.484   3.794   6.786  0.2654  1.9053 -0.4495
 9090SOL    HW238730   4.569   3.852   6.678 -0.1148 -0.3714 -0.9090
 9091SOL     OW38731   2.780   3.303   7.413 -0.1222  0.0441  0.3753
 9091SOL    HW138732   2.816   3.255   7.338  2.1710  2.0603  0.1835
 9091SOL    HW238733   2.853   3.296   7.475 -1.1765 -2.3104  1.3650
 9092SOL     OW38734   1.739   2.524  16.966 -0.1080 -0.2542  0.4240
 9092SOL    HW138735   1.800   2.458  16.933 -0.2679 -0.1356 -0.1204
 9092SOL    HW238736   1.736   2.493  17.056  0.0149 -1.0978  0.1357
 9093SOL     OW38737   0.735   4.344   3.247 -0.2478  0.2014  0.2019
 9093SOL    HW138738   0.750   4.250   3.240 -0.2044  0.2978 -0.9831
 9093SOL    HW238739   0.728   4.366   3.340  1.1177  1.1440  0.0862
 9094SOL     OW38740   4.082   0.062   2.669 -0.4681  0.0253 -0.5355
 9094SOL    HW138741   4.085   4.713   2.734  2.3328 -0.4377 -1.1438
 9094SOL    HW238742   4.170   0.048   2.632  0.2065  0.4455  0.9292
 9095SOL     OW38743   0.673   2.092   1.038  0.6519 -0.4246  0.3477
 9095SOL    HW138744   0.598   2.033   1.034  1.5843 -1.6028  0.2434
 9095SOL    HW238745   0.754   2.042   1.045  1.6291  1.0162 -0.3965
 9096SOL     OW38746   3.247   1.997   2.887  0.1470  0.1823 -0.3906
 9096SOL    HW138747   3.222   2.084   2.917 -0.6722  0.7996 -2.9010
 9096SOL    HW238748   3.182   1.943   2.933 -0.7810  0.8866 -0.8855
 9097SOL     OW38749   1.348   2.842   8.950 -0.1881  0.0764  0.3541
 9097SOL    HW138750   1.391   2.928   8.947  0.3495 -0.2302 -0.7193
 9097SOL    HW238751   1.325   2.829   9.042 -3.8005  0.5163 -0.5171
 9098SOL     OW38752   2.060   3.414   3.308  0.4981  0.2139  0.0040
 9098SOL    HW138753   2.153   3.422   3.325  0.5020 -2.1428  1.0965
 9098SOL    HW238754   2.061   3.353   3.233  1.1619  2.4765 -1.8232
 9099SOL     OW38755   3.607   1.036   7.795  0.1649  0.4030 -0.0858
 9099SOL    HW138756   3.632   0.951   7.831 -0.7036  0.4231  0.5353
 9099SOL    HW238757   3.689   1.085   7.806  0.0542  0.5046  0.2780
 9100SOL     OW38758   3.601   3.976  15.083  0.3491 -0.4644 -0.2453
 9100SOL    HW138759   3.523   3.941  15.127  2.1492 -1.7993  1.8592
 9100SOL    HW238760   3.583   3.974  14.989  0.5584 -0.8604 -0.2733
 9101SOL     OW38761   1.655   3.235   2.904  0.0009  0.7673  0.0035
 9101SOL    HW138762   1.630   3.200   2.818 -2.0813  0.9610  0.5248
 9101SOL    HW238763   1.740   3.276   2.891  0.5734 -0.0562  1.1666
 9102SOL     OW38764   1.244   3.044   6.518  0.4959  0.2759  0.3079
 9102SOL    HW138765   1.286   2.975   6.569 -0.3595 -0.4265  0.0636
 9102SOL    HW238766   1.222   2.995   6.439 -0.3076  0.9932  0.0839
 9103SOL     OW38767   2.045   0.027   9.489  0.3863  0.2266  0.1060
 9103SOL    HW138768   2.020   4.661   9.519  1.3316  0.3178  1.1686
 9103SOL    HW238769   2.117   0.003   9.431 -0.4130 -0.1332 -0.7329
 9104SOL     OW38770   4.016   1.210   6.405  0.2327 -0.0553  0.2235
 9104SOL    HW138771   4.084   1.201   6.471  1.1625  1.6191 -0.4917
 9104SOL    HW238772   4.068   1.212   6.325  1.6432  1.0767  1.1618
 9105SOL     OW38773   1.236   1.284   3.877  0.5950 -0.0684 -0.5015
 9105SOL    HW138774   1.292   1.242   3.812  1.9886 -0.1882  0.7605
 9105SOL    HW238775   1.230   1.374   3.844  2.6882 -0.5056 -2.1056
 9106SOL     OW38776   0.745   3.572  11.035  0.1648 -0.4989  0.3925
 9106SOL    HW138777   0.716   3.638  11.098 -1.0653  1.7657 -2.5616
 9106SOL    HW238778   0.839   3.569  11.054  0.0493  1.5115  1.2687
 9107SOL     OW38779   4.488   0.987   5.971 -0.4991  0.0623  0.0907
 9107SOL    HW138780   4.460   1.057   6.030  0.4923  1.5855 -1.2639
 9107SOL    HW238781   4.535   1.032   5.901 -0.1379 -0.8167 -0.2339
 9108SOL     OW38782   2.685   3.475  15.856  0.1506 -0.1840  0.4982
 9108SOL    HW138783   2.598   3.446  15.828 -0.3692  0.1547  1.7540
 9108SOL    HW238784   2.743   3.411  15.816  2.2103  0.4864  2.4002
 9109SOL     OW38785   0.249   3.924   1.729 -0.0284 -0.4584  0.3022
 9109SOL    HW138786   0.315   3.885   1.786  0.5671  0.9728  0.5863
 9109SOL    HW238787   0.196   3.968   1.795  0.4978  1.7250 -0.7470
 9110SOL     OW38788   3.495   3.484  10.283  0.2440 -0.0804 -0.2951
 9110SOL    HW138789   3.470   3.543  10.211 -0.8521  1.3438  1.2330
 9110SOL    HW238790   3.471   3.400  10.245 -2.3170  0.8961 -0.8307
 9111SOL     OW38791   3.659   4.263   7.682  0.5368  0.2455  0.1100
 9111SOL    HW138792   3.603   4.230   7.611 -0.1870  2.2905 -0.2621
 9111SOL    HW238793   3.679   4.352   7.654 -1.2037  1.3254  2.3568
 9112SOL     OW38794   2.393   2.950   8.326 -0.3475 -0.3736 -0.2433
 9112SOL    HW138795   2.390   3.033   8.278  1.7092  0.2947  0.7992
 9112SOL    HW238796   2.306   2.955   8.364 -0.4144  0.9112 -0.5707
 9113SOL     OW38797   2.101   4.515   1.787  0.9364  0.5036 -0.4519
 9113SOL    HW138798   2.034   4.448   1.804  2.2903 -0.9847 -1.0365
 9113SOL    HW238799   2.061   4.586   1.838 -1.2741 -0.3290 -1.0135
 9114SOL     OW38800   0.548   3.940   7.615  0.1322  0.5703 -0.1143
 9114SOL    HW138801   0.604   3.995   7.560  0.0099  1.2054  0.4034
 9114SOL    HW238802   0.524   3.873   7.550 -0.0330 -0.6598  1.2263
 9115SOL     OW38803   0.173   1.339  15.608  0.0876 -0.1293  0.2269
 9115SOL    HW138804   0.248   1.313  15.660  1.4129 -1.0384 -2.1131
 9115SOL    HW238805   0.104   1.288  15.651 -1.7455 -0.9003 -3.5849
 9116SOL     OW38806   3.762   2.610   4.685 -0.0503 -0.0240  0.1441
 9116SOL    HW138807   3.855   2.615   4.706  0.0940 -0.8969 -0.3016
 9116SOL    HW238808   3.753   2.525   4.641 -1.6269  0.4091 -0.3480
 9117SOL     OW38809   2.808   0.940   1.534  0.0840  0.1052  0.5410
 9117SOL    HW138810   2.875   0.932   1.602  0.8121 -1.2209 -0.3393
 9117SOL    HW238811   2.821   1.033   1.518  1.2841 -0.1667 -0.0454
 9118SOL     OW38812   3.912   0.690   7.831  0.0478 -0.1375 -0.5686
 9118SOL    HW138813   3.906   0.719   7.740  2.0496  0.9886 -0.3636
 9118SOL    HW238814   4.007   0.703   7.833  0.3223 -2.0139 -1.2284
 9119SOL     OW38815   2.209   3.489   6.484 -0.2090 -0.1743  0.0184
 9119SOL    HW138816   2.262   3.542   6.425  1.5408 -1.6000  0.3113
 9119SOL    HW238817   2.139   3.469   6.422 -0.2412 -1.3917  0.4585
 9120SOL     OW38818   0.210   3.405   0.001 -0.2652  0.3965  0.5068
 9120SOL    HW138819   0.224   3.473   0.067 -0.7517  0.2072  0.8092
 9120SOL    HW238820   0.270   3.332   0.018 -2.7920 -1.6606  0.5106
 9121SOL     OW38821   3.245   3.157   4.670  0.4692  0.4234 -0.5595
 9121SOL    HW138822   3.237   3.184   4.579 -2.9934 -0.3570 -0.4750
 9121SOL    HW238823   3.309   3.087   4.677  2.5399  2.1714 -2.0080
 9122SOL     OW38824   0.373   3.661   5.560 -0.1700 -0.7100  0.3809
 9122SOL    HW138825   0.461   3.698   5.555  0.3905 -2.2026 -0.9269
 9122SOL    HW238826   0.321   3.741   5.567  0.6880 -0.2238  1.2780
 9123SOL     OW38827   4.504   4.532   4.917  0.0526 -0.7762 -0.3305
 9123SOL    HW138828   4.514   4.487   4.832  1.3078  0.2790 -0.7401
 9123SOL    HW238829   4.574   4.597   4.909 -1.7185  1.1451 -0.0121
 9124SOL     OW38830   3.292   2.589   1.718 -0.0594  0.0810 -0.3666
 9124SOL    HW138831   3.212   2.555   1.678 -1.3624  1.7853  0.8364
 9124SOL    HW238832   3.329   2.632   1.640  3.4524  1.3201  2.0015
 9125SOL     OW38833   2.482   4.282   6.491  0.2086  0.3994  0.3168
 9125SOL    HW138834   2.572   4.249   6.478 -1.5411 -3.6554 -1.5351
 9125SOL    HW238835   2.440   4.200   6.515 -2.0985  1.9384  1.4777
 9126SOL     OW38836   3.833   1.092   3.982 -0.0055 -0.2774  0.2259
 9126SOL    HW138837   3.928   1.080   3.978  0.4099  3.8709 -1.5917
 9126SOL    HW238838   3.822   1.066   3.890  1.0636  0.8886 -0.2239
 9127SOL     OW38839   0.247   1.163  17.679 -0.4187  0.7473  0.4043
 9127SOL    HW138840   0.160   1.197  17.661 -0.1079  1.0193 -0.5731
 9127SOL    HW238841   0.238   1.152   0.087 -0.3046  1.5338  0.5044
 9128SOL     OW38842   1.975   1.741   4.658  0.4869  0.0387  0.3969
 9128SOL    HW138843   2.013   1.770   4.575  0.0784 -2.2374 -0.5954
 9128SOL    HW238844   1.962   1.649   4.634 -1.2832  0.4915 -0.3865
 9129SOL     OW38845   0.093   4.576   7.581 -0.1558 -0.2811 -0.0723
 9129SOL    HW138846   0.079   4.550   7.490 -0.0519 -0.2274 -0.1036
 9129SOL    HW238847   0.048   4.500   7.618 -0.5697  0.3082  0.6344
 9130SOL     OW38848   4.343   1.972   7.505 -0.1302 -0.3653  0.3511
 9130SOL    HW138849   4.321   2.065   7.494  0.2541 -0.4691 -1.2870
 9130SOL    HW238850   4.346   1.961   7.600  0.7680 -2.1822  0.1065
 9131SOL     OW38851   2.424   2.366   6.909 -0.5197 -0.1220 -0.1064
 9131SOL    HW138852   2.469   2.416   6.978 -1.1422 -0.3247  0.4482
 9131SOL    HW238853   2.362   2.435   6.885  0.3907  0.0149 -2.0822
 9132SOL     OW38854   4.522   3.081   7.689 -0.4600 -0.1547 -0.3859
 9132SOL    HW138855   4.440   3.045   7.657 -1.0549 -0.2067  1.1952
 9132SOL    HW238856   4.590   3.019   7.662 -0.4345  0.8110 -2.5156
 9133SOL     OW38857   0.541   1.152   6.943 -0.3025  0.1895  0.1857
 9133SOL    HW138858   0.459   1.199   6.959 -0.2859  0.6642 -1.1066
 9133SOL    HW238859   0.547   1.128   6.850  0.9092 -0.7613  0.4990
 9134SOL     OW38860   1.310   1.390  12.327 -0.1156 -0.1885  0.0618
 9134SOL    HW138861   1.317   1.302  12.290 -0.5402 -0.3241  0.3005
 9134SOL    HW238862   1.371   1.440  12.272  0.6782 -0.3475  0.7946
 9135SOL     OW38863   2.411   4.594  14.160  0.9338  0.6571 -0.3572
 9135SOL    HW138864   2.342   4.660  14.168 -0.4916 -0.9984  1.0338
 9135SOL    HW238865   2.376   4.525  14.216  0.6067  0.1891 -1.1378
 9136SOL     OW38866   0.280   3.042  15.923 -0.1243  0.2714 -0.2786
 9136SOL    HW138867   0.260   3.026  15.831  0.6128 -0.6316 -0.2942
 9136SOL    HW238868   0.337   3.117  15.906 -1.0327  0.9791 -0.1397
 9137SOL     OW38869   2.710   2.910  17.650  0.3953  0.7452 -0.6359
 9137SOL    HW138870   2.774   2.957  17.597  0.1067  0.0944 -1.5859
 9137SOL    HW238871   2.736   2.819  17.632  0.4110  0.8113 -0.9589
 9138SOL     OW38872   3.118   4.719   3.622  0.1528 -0.1262  0.0601
 9138SOL    HW138873   3.111   0.091   3.644  0.2335  0.4873 -2.5073
 9138SOL    HW238874   3.081   0.006   3.534 -0.7139 -0.9683  0.3567
 9139SOL     OW38875   0.685   3.427   2.139  0.4516 -0.1256 -0.3433
 9139SOL    HW138876   0.750   3.392   2.201 -2.4968 -0.6441  2.4729
 9139SOL    HW238877   0.623   3.355   2.146 -1.3409  1.1853 -2.9044
 9140SOL     OW38878   2.247   1.104   5.490  0.0688  0.5254 -0.5855
 9140SOL    HW138879   2.323   1.142   5.447 -0.0911 -0.6513 -1.9131
 9140SOL    HW238880   2.244   1.019   5.447  1.7114  0.9374 -1.4955
 9141SOL     OW38881   0.532   3.733   6.681  0.1231  0.0226  0.1779
 9141SOL    HW138882   0.551   3.795   6.611 -3.1706  0.5630 -0.2561
 9141SOL    HW238883   0.516   3.652   6.632 -0.8005  0.6947 -0.6479
 9142SOL     OW38884   1.917   0.182   2.227 -0.0745 -0.1071 -0.0399
 9142SOL    HW138885   1.829   0.149   2.247  1.4682 -2.4516  2.7270
 9142SOL    HW238886   1.919   0.258   2.285  1.1076  1.9024 -2.7387
 9143SOL     OW38887   1.135   0.174   8.743 -0.1469 -0.4381  0.7836
 9143SOL    HW138888   1.185   0.240   8.695 -0.2961 -0.5532  0.4656
 9143SOL    HW238889   1.045   0.183   8.711 -0.3509 -1.7275  1.0068
 9144SOL     OW38890   3.466   4.252   2.329 -0.3563 -0.2902 -0.2407
 9144SOL    HW138891   3.391   4.224   2.275 -2.2866  0.6006  1.9808
 9144SOL    HW238892   3.486   4.336   2.287  1.6152 -0.6317  0.0451
 9145SOL     OW38893   0.616   2.559   1.775 -0.4198 -0.0126  0.0102
 9145SOL    HW138894   0.589   2.491   1.713  3.7323  0.1415 -1.9551
 9145SOL    HW238895   0.596   2.640   1.728 -1.7801 -1.0351 -1.1535
 9146SOL     OW38896   2.253   3.884   5.508 -0.3287 -0.4823  0.4210
 9146SOL    HW138897   2.248   3.979   5.519  2.5543 -0.3614  0.7316
 9146SOL    HW238898   2.340   3.872   5.547 -1.3323 -1.0205  2.4891
 9147SOL     OW38899   1.747   0.860   2.782  0.0990  0.0588  0.0752
 9147SOL    HW138900   1.691   0.797   2.735  0.7020  0.2380 -0.8770
 9147SOL    HW238901   1.697   0.877   2.862 -1.4982 -0.1057 -0.8736
 9148SOL     OW38902   2.025   1.256   9.135 -0.0857  0.3341 -0.1522
 9148SOL    HW138903   2.057   1.166   9.136  0.6405  0.6185  1.1261
 9148SOL    HW238904   2.013   1.268   9.229 -2.2149  0.1394 -0.3899
 9149SOL     OW38905   1.816   0.133   6.187 -0.1561 -0.3983 -0.5016
 9149SOL    HW138906   1.879   0.084   6.239 -2.0760  1.0136  3.1751
 9149SOL    HW238907   1.856   0.127   6.100  0.4351 -0.1270 -0.2426
 9150SOL     OW38908   3.015   0.094   7.170 -0.0695  0.6295  0.3749
 9150SOL    HW138909   3.096   0.135   7.199  2.0390 -2.4016 -1.2184
 9150SOL    HW238910   3.030   0.003   7.196 -0.6627  0.3381 -0.2971
 9151SOL     OW38911   3.096   2.709   7.614 -0.3774  0.0125  0.5908
 9151SOL    HW138912   3.024   2.720   7.677  0.1036  0.7519  1.0111
 9151SOL    HW238913   3.157   2.653   7.662 -0.0710  1.5552  1.9856
 9152SOL     OW38914   2.369   4.194   5.820 -0.0592  0.4239  0.2046
 9152SOL    HW138915   2.340   4.229   5.904 -0.2998 -3.6460  1.8159
 9152SOL    HW238916   2.370   4.101   5.839  1.1015  0.2839 -0.5545
 9153SOL     OW38917   3.286   2.519   9.794  0.5834 -0.1576 -0.1929
 9153SOL    HW138918   3.365   2.491   9.840 -1.2586 -0.5534  2.7425
 9153SOL    HW238919   3.300   2.499   9.701  0.0032 -2.5134  0.2256
 9154SOL     OW38920   2.049   1.816   4.408 -0.2254 -0.6866  0.6920
 9154SOL    HW138921   2.063   1.747   4.344 -2.0245  0.4759 -0.9527
 9154SOL    HW238922   2.077   1.896   4.363  1.0485 -0.4731  1.8620
 9155SOL     OW38923   2.639   3.750   4.601  0.2599 -0.1691  0.5321
 9155SOL    HW138924   2.556   3.745   4.648  1.0732 -0.0648  1.9773
 9155SOL    HW238925   2.616   3.791   4.518 -3.0926 -0.8298  1.1357
 9156SOL     OW38926   0.059   3.439   8.286  0.3490 -0.8885  0.2874
 9156SOL    HW138927   0.004   3.392   8.348  0.0802  0.6286  1.1811
 9156SOL    HW238928   0.080   3.517   8.338 -1.1718 -0.6754  0.5695
 9157SOL     OW38929   2.384   4.024   8.731 -0.1806  0.2623 -0.0860
 9157SOL    HW138930   2.331   3.945   8.737 -0.2762  0.2758 -0.7038
 9157SOL    HW238931   2.332   4.091   8.776  1.5244  2.1869 -0.9983
 9158SOL     OW38932   0.769   2.552   3.407 -0.0209 -0.1432 -0.4815
 9158SOL    HW138933   0.847   2.558   3.352  1.0666  0.3490  1.0979
 9158SOL    HW238934   0.706   2.521   3.342  0.0342  0.6302 -0.9064
 9159SOL     OW38935   3.845   4.093   2.210 -0.4394  0.0826 -0.4451
 9159SOL    HW138936   3.890   4.015   2.242  0.4226  0.4166 -0.8525
 9159SOL    HW238937   3.774   4.096   2.275  1.6539 -1.1978  1.9010
 9160SOL     OW38938   1.402   0.349   7.984 -0.4493 -0.7369 -0.0415
 9160SOL    HW138939   1.356   0.432   7.997 -0.1110 -0.5702  0.0914
 9160SOL    HW238940   1.354   0.331   7.903  0.9262  0.2791 -1.0758
 9161SOL     OW38941   4.005   4.490   5.737 -0.9217 -0.7622 -0.4052
 9161SOL    HW138942   4.045   4.573   5.708 -1.4431 -0.5052 -0.3879
 9161SOL    HW238943   3.970   4.520   5.821  0.8337  0.3619 -0.0578
 9162SOL     OW38944   4.501   1.891  10.345  0.0526 -0.1958 -0.2154
 9162SOL    HW138945   4.566   1.849  10.289 -3.0121 -0.9664 -3.1917
 9162SOL    HW238946   4.480   1.975  10.302  2.2249 -0.2040 -1.3357
 9163SOL     OW38947   4.123   4.550   3.217  0.3623  0.0348 -0.1758
 9163SOL    HW138948   4.072   4.482   3.173  2.2756 -0.2931 -1.8645
 9163SOL    HW238949   4.063   4.575   3.287 -0.6787  0.9746 -1.4045
 9164SOL     OW38950   2.764   0.266  13.828  0.4731 -0.0638  0.0887
 9164SOL    HW138951   2.678   0.265  13.787  0.4593 -0.3743  0.1308
 9164SOL    HW238952   2.787   0.173  13.830 -1.2829 -0.5060 -0.8750
 9165SOL     OW38953   2.761   1.672   1.412 -0.1272  0.1959  0.1736
 9165SOL    HW138954   2.726   1.637   1.494 -2.0075  0.2562 -0.6094
 9165SOL    HW238955   2.695   1.732   1.377 -0.4552  0.8591  1.9633
 9166SOL     OW38956   3.440   4.171   8.383  0.2734  0.0928 -1.0752
 9166SOL    HW138957   3.365   4.166   8.323 -0.3567  0.7529 -0.3379
 9166SOL    HW238958   3.471   4.080   8.379  0.0108 -0.1084  1.8408
 9167SOL     OW38959   4.490   2.818   4.895 -0.3558  0.6681  0.1695
 9167SOL    HW138960   4.580   2.786   4.904 -1.7478 -2.2409  3.4025
 9167SOL    HW238961   4.447   2.788   4.975 -0.1362  1.2233  0.4962
 9168SOL     OW38962   3.422   2.914   1.915  0.3106 -0.5149 -0.4295
 9168SOL    HW138963   3.361   2.841   1.921  2.4629 -2.3406 -0.9555
 9168SOL    HW238964   3.400   2.976   1.985 -0.3642  0.0262 -1.1144
 9169SOL     OW38965   4.196   0.338   3.151  0.3384  0.3598 -0.1904
 9169SOL    HW138966   4.186   0.420   3.198  2.3340  1.6787 -2.0929
 9169SOL    HW238967   4.258   0.298   3.212  1.0564  0.2981 -0.9676
 9170SOL     OW38968   3.303   2.186   1.961  0.3973 -0.0355  0.3099
 9170SOL    HW138969   3.340   2.213   1.877 -2.1379  0.4828 -0.6424
 9170SOL    HW238970   3.335   2.096   1.969  0.3847 -0.2567 -2.1880
 9171SOL     OW38971   1.884   0.080   9.277 -0.2171 -0.3203  0.5156
 9171SOL    HW138972   1.936   0.079   9.358  0.5597  0.2520  0.0181
 9171SOL    HW238973   1.805   0.127   9.306  0.3759  2.4551 -2.3384
 9172SOL     OW38974   1.609   0.550  15.305 -0.1046 -0.1127 -0.5289
 9172SOL    HW138975   1.655   0.520  15.384  1.5261 -0.6901 -1.6915
 9172SOL    HW238976   1.565   0.627  15.340  1.5391  0.2025  0.8725
 9173SOL     OW38977   3.972   4.661   3.869  0.0971 -0.3019  0.3632
 9173SOL    HW138978   3.929   4.698   3.946 -0.0148 -1.4650  0.8600
 9173SOL    HW238979   3.901   4.609   3.830 -0.3210  1.2264 -0.9357
 9174SOL     OW38980   0.545   2.592   3.775 -0.5612  0.4696  0.5589
 9174SOL    HW138981   0.507   2.670   3.733  0.5370  1.5019  1.4692
 9174SOL    HW238982   0.576   2.639   3.852 -0.9472  3.0123 -0.8272
 9175SOL     OW38983   1.910   1.095   8.389 -0.0331 -0.1504  0.8031
 9175SOL    HW138984   1.921   1.016   8.442  1.3756 -1.5459 -1.5624
 9175SOL    HW238985   1.814   1.097   8.387 -0.0298 -0.6558 -0.2221
 9176SOL     OW38986   4.003   4.044  13.036 -0.6417 -0.2211 -0.1674
 9176SOL    HW138987   3.967   3.965  12.995  2.8604 -0.8481 -2.0436
 9176SOL    HW238988   4.083   4.006  13.072 -1.6069 -0.3515  1.7951
 9177SOL     OW38989   0.520   0.318   7.912  0.4150  0.5347 -0.4339
 9177SOL    HW138990   0.464   0.248   7.946  0.2625  1.0442  0.3702
 9177SOL    HW238991   0.474   0.393   7.951  0.6939 -0.0473  1.0277
 9178SOL     OW38992   0.380   2.092   8.586 -0.9292 -0.1534 -0.3200
 9178SOL    HW138993   0.374   2.023   8.519 -2.6560 -1.0213  0.7183
 9178SOL    HW238994   0.300   2.142   8.567  0.3461  1.8403 -0.4179
 9179SOL     OW38995   1.602   3.297   3.736 -0.3031  0.0375 -0.0646
 9179SOL    HW138996   1.604   3.379   3.687 -1.3301 -0.2919 -0.6499
 9179SOL    HW238997   1.511   3.268   3.723 -0.8240  2.2123 -1.1707
 9180SOL     OW38998   4.136   0.246   4.436 -0.1526 -0.6229 -0.0192
 9180SOL    HW138999   4.051   0.209   4.460 -1.6143  1.4962 -1.8977
 9180SOL    HW239000   4.133   0.226   4.342 -2.0799 -1.5526  0.2469
 9181SOL     OW39001   3.018   2.022   9.163 -0.0162  0.2585  0.0623
 9181SOL    HW139002   3.071   2.033   9.242 -0.6267  0.1056  0.4879
 9181SOL    HW239003   2.937   1.995   9.205  1.0456 -2.2299  0.5162
 9182SOL     OW39004   2.411   1.900   9.165  0.1156  0.4456 -0.2045
 9182SOL    HW139005   2.321   1.923   9.187 -0.3867 -2.2147  0.5277
 9182SOL    HW239006   2.399   1.844   9.089 -1.0420 -0.0298  0.3317
 9183SOL     OW39007   2.744   3.261  14.869  0.0524  0.1847  0.0688
 9183SOL    HW139008   2.811   3.195  14.890 -0.6082 -0.8189 -0.9489
 9183SOL    HW239009   2.663   3.220  14.899  1.5116 -0.4489  3.1683
 9184SOL     OW39010   4.174   3.825  11.907 -0.5076  0.1601 -0.1424
 9184SOL    HW139011   4.079   3.821  11.919 -0.5164  0.7199  0.0028
 9184SOL    HW239012   4.188   3.804  11.815 -0.4789 -0.8658  0.1013
 9185SOL     OW39013   3.544   3.600   1.977 -0.0513  0.3937 -0.1893
 9185SOL    HW139014   3.504   3.682   1.950 -2.0822  0.6986  3.7453
 9185SOL    HW239015   3.603   3.639   2.042  0.9778 -0.6994 -0.4716
 9186SOL     OW39016   1.065   3.233  15.748 -0.2311  0.4308  0.0697
 9186SOL    HW139017   1.117   3.312  15.739  0.5018 -0.3103 -2.2759
 9186SOL    HW239018   1.011   3.241  15.669 -1.2943 -0.2096  0.7238
 9187SOL     OW39019   4.159   3.129   6.065 -0.0893 -0.3286  0.3824
 9187SOL    HW139020   4.170   3.160   5.975  0.9178  0.1381  0.6719
 9187SOL    HW239021   4.207   3.046   6.072 -1.9487 -1.4623 -0.2955
 9188SOL     OW39022   0.621   1.740   9.443  0.2647  0.1174 -0.0472
 9188SOL    HW139023   0.707   1.761   9.480  0.6232 -0.7445 -0.3980
 9188SOL    HW239024   0.591   1.818   9.396  0.3316 -1.4582 -2.7231
 9189SOL     OW39025   2.490   0.966   7.596  0.5722 -0.1698 -0.1976
 9189SOL    HW139026   2.514   0.890   7.544 -0.2713  1.3122 -2.7169
 9189SOL    HW239027   2.399   0.940   7.609  0.5554 -0.3989 -0.8070
 9190SOL     OW39028   1.013   3.674  12.248 -0.2041  0.6323  0.7524
 9190SOL    HW139029   1.084   3.651  12.307 -0.0954 -0.6540  0.1330
 9190SOL    HW239030   1.049   3.660  12.160 -1.0358  0.6191  0.4095
 9191SOL     OW39031   1.912   3.986   8.789  0.6553 -0.0160 -0.0883
 9191SOL    HW139032   1.853   4.049   8.829  0.2727 -1.0219  0.9346
 9191SOL    HW239033   1.993   4.031   8.815 -0.2060  0.7008  1.2931
 9192SOL     OW39034   4.671   2.502   2.207 -0.0506  0.4039 -0.4453
 9192SOL    HW139035   4.704   2.592   2.201  1.5439 -0.2625 -2.0466
 9192SOL    HW239036   0.034   2.463   2.183 -0.0032  0.4886 -0.4170
 9193SOL     OW39037   4.158   0.564   5.109  0.1460 -0.2943  0.2191
 9193SOL    HW139038   4.066   0.545   5.090  0.3888 -0.2982 -0.9569
 9193SOL    HW239039   4.189   0.592   5.022  1.2247 -0.8199  0.4363
 9194SOL     OW39040   2.487   3.067   0.930 -0.2193 -0.3252  0.0500
 9194SOL    HW139041   2.426   3.128   0.971  0.4395 -0.5369  1.3268
 9194SOL    HW239042   2.450   3.060   0.842  0.3511  0.7114 -0.2733
 9195SOL     OW39043   3.463   1.136   6.893  0.4103  0.4988 -0.7161
 9195SOL    HW139044   3.421   1.132   6.806 -0.3638 -0.4277 -0.3023
 9195SOL    HW239045   3.395   1.180   6.944  1.2890  0.9601  0.0525
 9196SOL     OW39046   0.512   1.083   6.683  0.1224  0.0097  0.1413
 9196SOL    HW139047   0.558   1.034   6.614 -1.1931  0.0959 -0.8172
 9196SOL    HW239048   0.528   1.173   6.655 -0.2822  0.3784  1.1083
 9197SOL     OW39049   2.015   3.235   3.092  0.0323 -0.1978 -0.0831
 9197SOL    HW139050   1.959   3.188   3.154 -1.1561  1.4808  0.1177
 9197SOL    HW239051   2.019   3.177   3.016 -4.3592 -0.3765 -0.1756
 9198SOL     OW39052   3.352   0.689   4.868  0.1490  0.0818 -0.0350
 9198SOL    HW139053   3.381   0.686   4.960  3.1341 -0.7118 -1.0040
 9198SOL    HW239054   3.345   0.783   4.850 -0.5556  0.2973  1.3279
 9199SOL     OW39055   4.240   4.702   3.874  0.2045  0.1900  0.1220
 9199SOL    HW139056   4.270   4.660   3.955  2.0880  0.8390 -0.2347
 9199SOL    HW239057   4.148   4.677   3.871  0.4105 -0.5769  0.1055
 9200SOL     OW39058   4.565   1.079   7.013 -0.4376 -0.3187  0.4751
 9200SOL    HW139059   4.482   1.053   7.054 -1.1343  0.9806 -0.1603
 9200SOL    HW239060   4.590   0.997   6.970  0.0356  0.1306 -0.0983
 9201SOL     OW39061   0.443   2.549   5.082  0.3413  0.4166  0.2283
 9201SOL    HW139062   0.500   2.590   5.148  0.6404  1.0304 -0.4108
 9201SOL    HW239063   0.484   2.570   4.999  1.7277 -0.2903  0.7299
 9202SOL     OW39064   3.040   0.809  17.226  0.0917 -0.2440  0.1906
 9202SOL    HW139065   3.059   0.898  17.255  0.2253  0.1103 -1.0017
 9202SOL    HW239066   3.029   0.817  17.131 -1.4465 -1.1977  0.2782
 9203SOL     OW39067   4.025   2.985   7.230  0.1748 -0.7251  0.5204
 9203SOL    HW139068   4.043   2.903   7.185  0.5193 -0.1848 -0.3201
 9203SOL    HW239069   3.936   2.977   7.264 -1.2992 -1.3176 -3.5343
 9204SOL     OW39070   4.298   2.921   3.676 -0.0680  0.7194 -0.1533
 9204SOL    HW139071   4.306   2.831   3.706 -0.7202  1.1316  1.2462
 9204SOL    HW239072   4.253   2.916   3.591 -1.2514 -0.0102  0.5204
 9205SOL     OW39073   0.154   4.402  11.651  0.1016  0.0093 -0.4357
 9205SOL    HW139074   0.117   4.353  11.725  1.3310 -1.6914 -0.9577
 9205SOL    HW239075   0.090   4.381  11.582  1.7508 -1.0040 -1.6526
 9206SOL     OW39076   2.857   1.530   2.150 -0.2909 -0.3877 -0.7176
 9206SOL    HW139077   2.784   1.527   2.089 -0.2317 -0.3438 -0.7902
 9206SOL    HW239078   2.935   1.551   2.099 -1.6017  2.6567 -1.4229
 9207SOL     OW39079   3.385   1.556  16.305 -0.0702  0.8846  0.4554
 9207SOL    HW139080   3.451   1.544  16.237  0.7376  2.3082  0.9965
 9207SOL    HW239081   3.311   1.554  16.244 -0.2731  2.7923  0.6425
 9208SOL     OW39082   4.455   4.330  12.752  0.2819  0.0717 -0.0384
 9208SOL    HW139083   4.386   4.281  12.797 -0.5039 -0.1941 -1.5224
 9208SOL    HW239084   4.534   4.296  12.794 -0.4107 -0.4887  0.8074
 9209SOL     OW39085   0.020   3.340   6.195 -0.3431 -0.5465 -0.2581
 9209SOL    HW139086   4.708   3.413   6.142  1.4661  1.1641  0.9455
 9209SOL    HW239087   0.012   3.262   6.141 -2.2221 -0.6585  0.2029
 9210SOL     OW39088   0.120   2.051  15.303 -0.0952  0.1963  0.2866
 9210SOL    HW139089   0.144   2.008  15.221 -0.1585  1.0812 -0.1942
 9210SOL    HW239090   0.026   2.060  15.285 -0.1369  0.7638  0.8204
 9211SOL     OW39091   0.868   0.352   7.625 -0.0159 -0.1046  0.7978
 9211SOL    HW139092   0.944   0.410   7.625 -0.4118  0.4225 -0.5695
 9211SOL    HW239093   0.828   0.365   7.711 -1.5278  0.3497  0.0215
 9212SOL     OW39094   1.699   0.232   2.886  0.3692  0.0740  0.4274
 9212SOL    HW139095   1.685   0.290   2.961 -3.1069  1.0446 -1.0009
 9212SOL    HW239096   1.627   0.256   2.828 -0.5889  0.2843  1.6916
 9213SOL     OW39097   1.016   2.487  14.324 -0.0427 -0.5602  0.1264
 9213SOL    HW139098   1.073   2.467  14.399  0.5086  0.5348 -0.0143
 9213SOL    HW239099   0.928   2.492  14.361 -1.1046  1.1048 -2.6606
 9214SOL     OW39100   4.474   1.444   1.540  0.2211  0.0509  0.1048
 9214SOL    HW139101   4.393   1.398   1.560  0.9874 -0.3349  2.3099
 9214SOL    HW239102   4.527   1.373   1.575 -1.2702 -0.6047  1.0591
 9215SOL     OW39103   3.764   1.539   3.864 -0.0161  0.3538  0.2665
 9215SOL    HW139104   3.713   1.608   3.906  2.9213  1.9940  1.0901
 9215SOL    HW239105   3.738   1.464   3.919 -2.6897  1.4930  0.5505
 9216SOL     OW39106   3.300   4.561  12.339 -0.6119 -0.5898 -0.5460
 9216SOL    HW139107   3.294   4.654  12.357  0.0236 -0.8751  1.1080
 9216SOL    HW239108   3.214   4.531  12.368 -0.3618 -0.8417 -0.0796
 9217SOL     OW39109   1.460   0.430  10.665 -0.5862  0.1033 -0.2839
 9217SOL    HW139110   1.472   0.463  10.754  3.2405 -4.5607  0.9247
 9217SOL    HW239111   1.399   0.494  10.629 -0.8728  0.2904  0.5433
 9218SOL     OW39112   1.870   0.310  13.373  0.3884  0.0732  0.2792
 9218SOL    HW139113   1.924   0.255  13.431 -0.6318 -0.5351  0.6467
 9218SOL    HW239114   1.940   0.373  13.358 -1.8700  2.5308  0.2285
 9219SOL     OW39115   4.351   2.705   5.110  0.2017 -0.0590  0.4564
 9219SOL    HW139116   4.285   2.644   5.143  0.5860 -0.2838  0.8146
 9219SOL    HW239117   4.310   2.778   5.155  0.2037  1.3812 -1.8858
 9220SOL     OW39118   1.203   2.292  11.455  0.0091 -0.0688  0.0093
 9220SOL    HW139119   1.112   2.300  11.429 -0.6075  0.5419  2.3145
 9220SOL    HW239120   1.201   2.212  11.508  0.2931 -0.7588 -1.0284
 9221SOL     OW39121   3.097   4.490   6.450 -0.5678 -0.1935  0.1015
 9221SOL    HW139122   3.184   4.450   6.454 -0.7404 -0.2973  3.1003
 9221SOL    HW239123   3.051   4.445   6.521 -1.2091 -0.8710 -0.7313
 9222SOL     OW39124   3.691   4.299  15.472  0.1070 -0.2464 -0.1211
 9222SOL    HW139125   3.728   4.218  15.506 -0.8937 -0.1278  1.2830
 9222SOL    HW239126   3.608   4.301  15.521  0.4248  2.4436  0.2918
 9223SOL     OW39127   0.894   4.391  10.334 -0.8160 -0.2926 -0.1354
 9223SOL    HW139128   0.956   4.386  10.407 -1.3419  0.8545  0.3753
 9223SOL    HW239129   0.915   4.478  10.300 -1.7367  0.9492  2.4580
 9224SOL     OW39130   1.856   4.471   0.671  0.7596  0.4506  0.4752
 9224SOL    HW139131   1.918   4.543   0.656  0.8677  0.5471  1.3940
 9224SOL    HW239132   1.778   4.512   0.634 -1.2440 -2.2280  1.7368
 9225SOL     OW39133   2.594   2.538   6.624  0.4075  0.5920  0.1644
 9225SOL    HW139134   2.514   2.583   6.598  1.3016  1.0018 -1.8960
 9225SOL    HW239135   2.565   2.447   6.628 -2.3239  1.3672 -2.2173
 9226SOL     OW39136   4.096   3.052   3.032  0.1705  0.5130 -0.1255
 9226SOL    HW139137   4.143   3.083   3.110 -0.8033  2.3684 -0.2833
 9226SOL    HW239138   4.153   3.087   2.964  2.0764  0.3346  1.3576
 9227SOL     OW39139   0.268   0.148   5.847 -0.2469  0.3804 -0.1689
 9227SOL    HW139140   0.299   0.152   5.937  0.9800  0.6528 -0.5906
 9227SOL    HW239141   0.183   0.191   5.849  0.7326  2.5127 -3.2114
 9228SOL     OW39142   2.923   4.005  10.528 -0.1633 -0.7359 -0.2694
 9228SOL    HW139143   2.861   4.018  10.599 -0.6966 -3.2486 -0.2833
 9228SOL    HW239144   2.935   3.910  10.530  0.3297 -0.6071  3.0064
 9229SOL     OW39145   4.309   0.465   4.655  0.4136  0.4544 -0.2146
 9229SOL    HW139146   4.273   0.543   4.613  2.6872  1.3731 -0.4611
 9229SOL    HW239147   4.279   0.453   4.746  2.6262  0.9760  0.5766
 9230SOL     OW39148   2.589   0.764   2.441 -0.1358 -0.2911  0.2410
 9230SOL    HW139149   2.506   0.811   2.428 -0.5443 -0.7080  1.4022
 9230SOL    HW239150   2.649   0.834   2.414 -0.4282 -0.3426 -0.5546
 9231SOL     OW39151   0.295   3.337   6.285  0.4549  0.4993  0.1729
 9231SOL    HW139152   0.200   3.331   6.296  0.3702  0.6297 -0.4830
 9231SOL    HW239153   0.306   3.293   6.201 -2.3873  1.2151 -0.5746
 9232SOL     OW39154   0.504   4.361   1.849  0.0788  0.0527 -0.2953
 9232SOL    HW139155   0.455   4.322   1.921 -0.7813  0.1170 -0.8534
 9232SOL    HW239156   0.456   4.438   1.818 -0.9706 -0.4428  0.1179
 9233SOL     OW39157   2.530   0.437   4.020 -0.4638 -0.2216 -0.2933
 9233SOL    HW139158   2.435   0.429   4.021 -0.5224  0.5527  0.7286
 9233SOL    HW239159   2.557   0.390   4.099 -0.3899  1.3471  0.6194
 9234SOL     OW39160   3.719   0.258  15.267 -0.3182 -0.3855 -0.0201
 9234SOL    HW139161   3.782   0.301  15.208 -0.0271 -0.6736  0.0794
 9234SOL    HW239162   3.649   0.228  15.209 -0.0061  2.1054 -1.6677
 9235SOL     OW39163   3.354   2.625  15.153 -0.3974 -0.1443 -0.1183
 9235SOL    HW139164   3.439   2.626  15.198  0.4267  1.4959 -1.7285
 9235SOL    HW239165   3.337   2.718  15.145 -2.6181 -0.4537  1.0194
 9236SOL     OW39166   3.735   4.069   1.484 -0.2077  0.2266 -0.1526
 9236SOL    HW139167   3.807   4.060   1.546 -0.1297  0.0285 -0.2736
 9236SOL    HW239168   3.725   3.980   1.450  1.4758  0.2585 -0.7030
 9237SOL     OW39169   3.327   1.959   3.337 -0.0940  1.0838 -0.1864
 9237SOL    HW139170   3.409   1.912   3.355 -0.4916  0.8811  1.0507
 9237SOL    HW239171   3.356   2.034   3.285  2.7109  0.1404  0.0212
 9238SOL     OW39172   3.498   0.540   0.930 -0.3763 -0.2199 -0.2423
 9238SOL    HW139173   3.575   0.498   0.968 -0.0626 -2.0615 -2.9213
 9238SOL    HW239174   3.543   0.587   0.860 -1.3692 -0.7491 -1.2437
 9239SOL     OW39175   2.203   3.210   7.244 -0.6074  0.1775  0.1258
 9239SOL    HW139176   2.222   3.296   7.282 -0.6031 -0.6504  1.9745
 9239SOL    HW239177   2.290   3.170   7.247 -0.2345  0.6832 -3.4880
 9240SOL     OW39178   3.360   4.275   6.073  0.2558 -0.1496  0.1825
 9240SOL    HW139179   3.273   4.298   6.039  0.0755  0.3744  0.9946
 9240SOL    HW239180   3.391   4.222   5.999 -0.7644 -0.1620 -0.2363
 9241SOL     OW39181   3.385   0.088   8.034 -0.5520 -0.2608 -0.0232
 9241SOL    HW139182   3.402   0.139   8.114  1.0280 -0.8040 -0.0063
 9241SOL    HW239183   3.469   0.041   8.035  0.8461  2.2455 -1.4247
 9242SOL     OW39184   0.832   4.641   3.944  0.1568 -0.1320  0.1204
 9242SOL    HW139185   0.918   4.655   3.905 -1.5453  1.4519 -3.0853
 9242SOL    HW239186   0.826   4.546   3.935 -3.3416  0.3233 -2.2270
 9243SOL     OW39187   0.922   1.148  16.818 -0.4074  0.5358  0.6111
 9243SOL    HW139188   0.977   1.187  16.887  0.9504 -1.1032  0.4399
 9243SOL    HW239189   0.906   1.065  16.862  2.2928 -0.0060  0.6027
 9244SOL     OW39190   1.581   2.839  10.121  0.2833  0.2369  0.0553
 9244SOL    HW139191   1.667   2.849  10.079 -0.1491 -3.5515 -1.7259
 9244SOL    HW239192   1.549   2.928  10.134 -0.0080  0.1949 -0.3713
 9245SOL     OW39193   2.177   3.723   9.347  0.1183 -0.0182  0.4505
 9245SOL    HW139194   2.209   3.792   9.289 -1.6625  0.1237 -0.3603
 9245SOL    HW239195   2.224   3.742   9.428 -0.3484  1.8867  0.2716
 9246SOL     OW39196   3.632   4.449   4.364 -0.2001  0.2035  0.2525
 9246SOL    HW139197   3.580   4.483   4.292  1.2004  0.5646 -0.5890
 9246SOL    HW239198   3.566   4.391   4.402 -0.9763  1.3322  0.6263
 9247SOL     OW39199   1.898   3.575   5.575 -0.0815 -0.3284 -0.3624
 9247SOL    HW139200   1.960   3.632   5.621 -1.3381  1.2230 -0.5807
 9247SOL    HW239201   1.870   3.630   5.502  1.4049  2.0482  0.8347
 9248SOL     OW39202   3.331   3.525  11.516 -0.2519  0.3742 -0.2467
 9248SOL    HW139203   3.255   3.582  11.507 -0.9414 -1.0656 -3.2797
 9248SOL    HW239204   3.353   3.546  11.607  1.7700 -0.0942 -0.6253
 9249SOL     OW39205   4.072   3.582  15.192 -0.1852  0.3312 -0.2465
 9249SOL    HW139206   3.984   3.621  15.192 -0.5816 -0.5773  2.9945
 9249SOL    HW239207   4.109   3.627  15.268 -3.2769  1.0688  0.8291
 9250SOL     OW39208   0.887   1.389   8.170 -0.1240 -0.4455  1.1311
 9250SOL    HW139209   0.900   1.309   8.221  2.5165  0.5698  2.0466
 9250SOL    HW239210   0.911   1.459   8.231  0.5550 -0.0736  0.4352
 9251SOL     OW39211   2.767   2.394   2.668  0.2825 -0.3759  0.1473
 9251SOL    HW139212   2.819   2.336   2.612  1.8343  0.5596  0.6075
 9251SOL    HW239213   2.696   2.405   2.605  1.1742 -2.0397 -1.1489
 9252SOL     OW39214   1.550   4.159   3.488  0.3786 -0.6887 -0.4250
 9252SOL    HW139215   1.466   4.180   3.447  1.1600 -0.7498 -2.0240
 9252SOL    HW239216   1.579   4.102   3.417  0.8461 -1.6688  0.5486
 9253SOL     OW39217   1.837   0.864   8.556  0.3674 -0.9999  0.0087
 9253SOL    HW139218   1.774   0.796   8.531  1.6619 -1.6951 -1.3064
 9253SOL    HW239219   1.777   0.924   8.600 -0.8319 -2.2638  0.0956
 9254SOL     OW39220   0.671   3.837   7.089  0.0138 -0.1409 -0.3045
 9254SOL    HW139221   0.689   3.914   7.143 -0.5285  0.8241 -1.4998
 9254SOL    HW239222   0.576   3.834   7.086 -0.0807  2.9362 -0.6552
 9255SOL     OW39223   0.995   1.112   4.263  0.5622  0.1900  0.1134
 9255SOL    HW139224   0.921   1.092   4.207  1.0423  0.1929 -0.5205
 9255SOL    HW239225   1.036   1.025   4.263 -1.2323 -0.6457 -2.5268
 9256SOL     OW39226   2.345   3.577   1.131  0.1389  0.2303  0.3949
 9256SOL    HW139227   2.349   3.615   1.219 -1.9378 -1.5773  1.2904
 9256SOL    HW239228   2.419   3.619   1.087  0.7279  0.5207  1.6745
 9257SOL     OW39229   4.563   0.228   7.590  0.1464 -0.6166 -0.0379
 9257SOL    HW139230   4.521   0.224   7.676 -2.9149 -1.1912 -1.5880
 9257SOL    HW239231   4.654   0.211   7.617 -0.0091 -1.6539 -0.1594
 9258SOL     OW39232   1.074   2.677   2.622  0.2480  0.0654  0.5540
 9258SOL    HW139233   1.042   2.604   2.675 -1.7178  0.2883 -0.3167
 9258SOL    HW239234   1.092   2.636   2.538 -2.2827  1.8365 -0.8518
 9259SOL     OW39235   3.646   4.391   3.497 -0.4000 -0.4515 -0.0701
 9259SOL    HW139236   3.632   4.324   3.563  0.5279 -0.1362  0.4477
 9259SOL    HW239237   3.605   4.354   3.418 -1.8498  0.7773  0.1001
 9260SOL     OW39238   0.699   3.359   7.171  0.3626  0.0070 -0.4543
 9260SOL    HW139239   0.682   3.418   7.244  0.6954  1.1631 -1.2987
 9260SOL    HW239240   0.719   3.418   7.098  1.9884 -1.4224 -1.1806
 9261SOL     OW39241   2.549   0.879   3.199  0.5049  0.5293  0.3780
 9261SOL    HW139242   2.540   0.827   3.279 -1.6011 -0.1818 -0.3145
 9261SOL    HW239243   2.627   0.929   3.221  0.0487  2.2711 -2.0009
 9262SOL     OW39244   0.839   4.720   2.887  0.2908 -0.3016 -0.6035
 9262SOL    HW139245   0.863   4.669   2.963 -0.7895 -0.3750 -0.3058
 9262SOL    HW239246   0.764   4.676   2.847 -0.5589  0.9425 -0.4077
 9263SOL     OW39247   4.686   2.594   9.652  0.0211 -0.4610  0.3589
 9263SOL    HW139248   4.653   2.504   9.657  0.4676 -0.6196  0.4835
 9263SOL    HW239249   4.623   2.644   9.600 -0.1135 -0.5917  0.3982
 9264SOL     OW39250   1.356   2.243  12.886 -0.3767  0.1481 -0.3783
 9264SOL    HW139251   1.357   2.148  12.896 -1.6990  0.0254 -1.4051
 9264SOL    HW239252   1.412   2.255  12.810 -3.0667  5.0499 -1.6007
 9265SOL     OW39253   3.165   1.503   3.724 -0.2309  0.4751 -0.9027
 9265SOL    HW139254   3.131   1.445   3.656  0.1499  0.8510 -1.4211
 9265SOL    HW239255   3.145   1.441   3.794  0.9948  1.4335  0.2952
 9266SOL     OW39256   4.663   0.604   0.644  0.2003  0.3788 -0.2583
 9266SOL    HW139257   4.686   0.697   0.653  0.3715  0.1613  1.5382
 9266SOL    HW239258   0.028   0.563   0.633 -0.5467 -0.8870 -1.3578
 9267SOL     OW39259   3.453   0.996   8.184 -0.4139  0.3500 -0.4991
 9267SOL    HW139260   3.515   1.069   8.185  0.4770 -0.4156  0.1037
 9267SOL    HW239261   3.437   0.994   8.090  0.4000  0.5418 -0.6371
 9268SOL     OW39262   0.778   1.904   7.946  0.5287 -0.3101 -0.0427
 9268SOL    HW139263   0.798   1.815   7.977  0.2202 -0.1206  0.7149
 9268SOL    HW239264   0.726   1.934   8.021 -1.5097  1.4510 -2.1534
 9269SOL     OW39265   0.382   1.854  17.397  0.1593 -0.1301  0.1312
 9269SOL    HW139266   0.303   1.909  17.396  0.1800 -0.0787  1.3695
 9269SOL    HW239267   0.406   1.840  17.489 -2.3040  1.7929  1.0574
 9270SOL     OW39268   4.338   4.600   6.721  0.0368  0.7721  0.4102
 9270SOL    HW139269   4.366   4.515   6.687 -1.2389  0.0975  1.0807
 9270SOL    HW239270   4.276   4.626   6.653  1.2569  0.0224 -0.9932
 9271SOL     OW39271   4.507   0.668  16.258 -0.1889  0.0767  0.2434
 9271SOL    HW139272   4.421   0.628  16.267  0.5622 -1.7915 -0.9295
 9271SOL    HW239273   4.509   0.656  16.163  0.1825  0.9046  0.1485
 9272SOL     OW39274   2.523   2.172   2.781  0.1707 -0.1443  1.0171
 9272SOL    HW139275   2.567   2.167   2.696 -0.5513  1.2890  0.5681
 9272SOL    HW239276   2.547   2.258   2.815 -0.8626  0.8196 -0.7025
 9273SOL     OW39277   4.294   3.846   5.442 -0.1158 -0.0389  0.4880
 9273SOL    HW139278   4.287   3.761   5.486  2.0073  0.1058  1.1054
 9273SOL    HW239279   4.212   3.848   5.393  0.6991 -0.6767 -0.8860
 9274SOL     OW39280   4.081   3.918   0.441  0.1502 -0.2601  0.4094
 9274SOL    HW139281   4.038   3.833   0.454 -2.0824  1.1362  2.1282
 9274SOL    HW239282   4.166   3.899   0.401 -1.0193  2.1644 -3.2405
 9275SOL     OW39283   2.365   4.659   5.797  0.7173  0.0796 -0.3536
 9275SOL    HW139284   2.418   4.717   5.743 -0.4826  0.7030 -0.8773
 9275SOL    HW239285   2.290   4.627   5.746  1.0065 -3.4132  1.4242
 9276SOL     OW39286   1.125   1.403   7.155  0.0606 -0.0289  0.4442
 9276SOL    HW139287   1.162   1.484   7.119 -1.8445  0.0234 -1.3991
 9276SOL    HW239288   1.062   1.449   7.211 -0.6097 -0.9977  0.4708
 9277SOL     OW39289   1.380   0.813   0.752 -0.5602  0.1885 -0.1912
 9277SOL    HW139290   1.366   0.784   0.842  1.4162 -2.5200 -0.7443
 9277SOL    HW239291   1.386   0.907   0.765  2.8395 -0.2655  1.3860
 9278SOL     OW39292   2.597   4.247   7.313  0.1971  0.0910 -0.6330
 9278SOL    HW139293   2.608   4.158   7.279 -2.5497 -1.1171  1.6940
 9278SOL    HW239294   2.547   4.287   7.241  0.0684 -0.8945 -1.0914
 9279SOL     OW39295   3.607   0.035   3.015  0.1283 -0.6594 -0.4243
 9279SOL    HW139296   3.664   0.053   2.940 -1.8975 -0.7305 -1.9935
 9279SOL    HW239297   3.670   0.003   3.080 -1.7917 -1.7534  0.9067
 9280SOL     OW39298   4.339   2.383  14.459  0.0785  0.0714  0.1497
 9280SOL    HW139299   4.314   2.449  14.395 -0.1772 -0.0253  0.1470
 9280SOL    HW239300   4.334   2.299  14.412  1.5599 -1.0018  1.9095
 9281SOL     OW39301   2.848   0.256   5.528 -0.3247  0.4743  0.4031
 9281SOL    HW139302   2.828   0.181   5.584  0.6654  0.3053  0.5251
 9281SOL    HW239303   2.837   0.222   5.439 -0.7819 -1.2466  1.1027
 9282SOL     OW39304   1.223   3.904   3.899 -0.4332 -0.0780  0.4826
 9282SOL    HW139305   1.133   3.906   3.933 -0.8796  1.9618 -0.8055
 9282SOL    HW239306   1.221   3.986   3.849  1.8591  0.5435  1.3993
 9283SOL     OW39307   0.523   1.049   2.743  0.0697  0.3478  0.3830
 9283SOL    HW139308   0.482   1.132   2.767 -1.5640 -0.1430 -0.7347
 9283SOL    HW239309   0.565   1.076   2.661 -0.6192 -1.2565 -0.4874
 9284SOL     OW39310   1.654   2.887   0.263  0.2181  0.2679 -0.3232
 9284SOL    HW139311   1.711   2.810   0.252 -1.4041 -0.8634 -0.8255
 9284SOL    HW239312   1.674   2.925   0.178  0.4591  1.1653  0.1355
 9285SOL     OW39313   4.384   1.332   7.089  0.4909 -0.4054  0.2063
 9285SOL    HW139314   4.370   1.356   7.180  0.1654 -1.0064  0.3107
 9285SOL    HW239315   4.346   1.245   7.078  0.3330 -0.6432  2.6625
 9286SOL     OW39316   4.331   3.343  15.573  0.3048 -0.3546  0.2747
 9286SOL    HW139317   4.320   3.262  15.524 -0.8975  0.2999 -0.5573
 9286SOL    HW239318   4.242   3.370  15.596  1.3958  3.9776 -0.4544
 9287SOL     OW39319   1.956   0.001  13.279  0.0704  0.1917 -0.3981
 9287SOL    HW139320   2.036   0.040  13.244 -0.5397 -1.1354 -3.2629
 9287SOL    HW239321   1.891   0.046  13.224 -2.1859 -0.2094  1.9395
 9288SOL     OW39322   3.573   2.833   7.454 -0.3090 -0.3030 -0.2730
 9288SOL    HW139323   3.533   2.832   7.541  1.1475  0.9595  0.4109
 9288SOL    HW239324   3.524   2.775   7.397  0.0895 -2.5132  1.6424
 9289SOL     OW39325   0.175   1.744   6.097  0.3052  0.2363 -0.7632
 9289SOL    HW139326   0.199   1.724   6.006  0.4796  0.2410 -0.7186
 9289SOL    HW239327   0.169   1.840   6.098  0.9647  0.2641  0.1024
 9290SOL     OW39328   2.775   1.069  15.396  0.2254 -0.1110  0.0138
 9290SOL    HW139329   2.750   1.128  15.325 -0.9883 -0.9643 -0.2776
 9290SOL    HW239330   2.858   1.101  15.431  0.2824 -0.6949  0.4113
 9291SOL     OW39331   1.083   0.711   9.142  0.2924 -0.3736  0.1790
 9291SOL    HW139332   1.150   0.756   9.193 -0.7261 -0.3026  1.4397
 9291SOL    HW239333   1.137   0.640   9.105  0.9196  1.1892 -1.8899
 9292SOL     OW39334   2.153   0.168   0.678 -0.3836 -0.4311 -0.0439
 9292SOL    HW139335   2.091   0.240   0.686  1.6885  1.0381  2.5595
 9292SOL    HW239336   2.222   0.209   0.626 -0.8289  1.0359  0.5433
 9293SOL     OW39337   2.417   2.851   9.402 -0.5216 -0.3781 -0.3375
 9293SOL    HW139338   2.398   2.937   9.440  1.7819  0.6418 -1.4675
 9293SOL    HW239339   2.340   2.801   9.426 -2.3626  3.3679  1.4350
 9294SOL     OW39340   2.291   4.003  10.406  0.3824 -0.1069  0.1939
 9294SOL    HW139341   2.253   4.018  10.492 -1.1041  0.8288 -0.6129
 9294SOL    HW239342   2.336   4.085  10.387  0.5367  0.2591  2.1378
 9295SOL     OW39343   4.218   3.545   2.926  0.1078 -0.4967  0.1022
 9295SOL    HW139344   4.172   3.621   2.961 -2.5108 -2.2111  0.4086
 9295SOL    HW239345   4.266   3.572   2.848  1.1171  1.0813  1.2820
 9296SOL     OW39346   1.669   1.403  13.239 -0.0115  0.4469 -0.5796
 9296SOL    HW139347   1.731   1.460  13.283 -0.9461 -0.3852  1.8248
 9296SOL    HW239348   1.601   1.377  13.302  0.0654 -0.8787 -1.0379
 9297SOL     OW39349   3.200   0.014  13.450  0.0094  0.6642 -0.1596
 9297SOL    HW139350   3.232   0.102  13.427  1.1480  0.6479  1.3605
 9297SOL    HW239351   3.253   4.686  13.388 -0.5121  1.2015 -1.0379
 9298SOL     OW39352   2.686   1.717  11.054  0.0630  0.2781 -0.1289
 9298SOL    HW139353   2.782   1.715  11.050  0.1072  2.4699 -0.0814
 9298SOL    HW239354   2.666   1.624  11.050 -0.8730  0.5573 -2.0103
 9299SOL     OW39355   3.887   3.218   8.063 -0.0052  0.0948 -0.0639
 9299SOL    HW139356   3.952   3.255   8.004 -0.3581 -0.2778 -0.6907
 9299SOL    HW239357   3.829   3.170   8.003 -0.6954  1.7030 -0.7034
 9300SOL     OW39358   1.953   4.511   4.417 -0.2196 -0.2210  0.4495
 9300SOL    HW139359   1.860   4.525   4.397 -0.2047  0.8061  1.1052
 9300SOL    HW239360   1.977   4.603   4.419  2.4266 -0.9430  1.9825
 9301SOL     OW39361   2.473   2.910  16.848  0.2577 -0.7288 -0.0365
 9301SOL    HW139362   2.528   2.965  16.791  0.9476 -0.9271  0.4471
 9301SOL    HW239363   2.388   2.950  16.832 -0.8885 -2.7182  1.1194
 9302SOL     OW39364   0.210   3.988   2.972  0.6207  0.1159 -0.2415
 9302SOL    HW139365   0.277   3.964   2.909  1.1904  0.7587  0.1188
 9302SOL    HW239366   0.259   3.976   3.053 -3.2629 -1.5989  1.8898
 9303SOL     OW39367   2.697   2.531   8.038  0.5810  0.3918 -0.3009
 9303SOL    HW139368   2.722   2.440   8.058 -1.1287 -0.2528 -1.0650
 9303SOL    HW239369   2.604   2.529   8.061  0.6317  1.7099 -0.0261
 9304SOL     OW39370   3.142   0.062  12.176 -0.1074  0.0436  0.0250
 9304SOL    HW139371   3.156   0.017  12.093 -1.7320 -1.3271  0.4852
 9304SOL    HW239372   3.228   0.103  12.187 -0.7486  1.2000  0.6720
 9305SOL     OW39373   0.373   1.058   8.097  0.2099  0.0077 -0.0320
 9305SOL    HW139374   0.294   1.075   8.045 -0.6338  0.6375  1.4441
 9305SOL    HW239375   0.340   1.011   8.173  4.0588 -1.5812  0.6153
 9306SOL     OW39376   3.442   4.320  15.568 -0.3312  0.0992 -0.0240
 9306SOL    HW139377   3.381   4.319  15.495  0.2454 -0.2666 -0.4937
 9306SOL    HW239378   3.384   4.356  15.635 -0.4856  1.3588 -0.8356
 9307SOL     OW39379   3.035   0.426   8.231 -0.2062  0.3365  0.0614
 9307SOL    HW139380   3.124   0.403   8.257 -0.3837  0.3090  0.6576
 9307SOL    HW239381   3.042   0.502   8.173 -0.2190  0.8886  0.7836
 9308SOL     OW39382   4.140   3.784   1.747 -0.0138 -0.2057  0.3624
 9308SOL    HW139383   4.224   3.823   1.722  0.7132 -1.2799  1.0658
 9308SOL    HW239384   4.083   3.800   1.672  1.4921 -0.6810 -0.8913
 9309SOL     OW39385   1.999   2.455   3.166  0.1185  0.5531  0.5012
 9309SOL    HW139386   1.931   2.523   3.166 -2.3376 -1.8592  1.1880
 9309SOL    HW239387   1.948   2.373   3.159  2.1217 -0.7264  0.9253
 9310SOL     OW39388   1.120   4.571   6.628 -0.1900 -0.0165 -0.5220
 9310SOL    HW139389   1.034   4.532   6.645 -0.3518 -0.2151 -1.8218
 9310SOL    HW239390   1.186   4.502   6.622 -0.5872 -0.4949  0.6288
 9311SOL     OW39391   1.091   1.440  12.903 -0.0905 -0.3823  0.2817
 9311SOL    HW139392   1.041   1.359  12.888  1.0817 -1.0695  0.1303
 9311SOL    HW239393   1.159   1.405  12.960  1.2694 -1.1332 -1.8088
 9312SOL     OW39394   1.812   4.256   7.477  0.1333 -0.5912 -0.0000
 9312SOL    HW139395   1.751   4.182   7.483 -0.5525 -0.0734 -0.6249
 9312SOL    HW239396   1.898   4.223   7.504  1.0810  2.0199  0.1598
 9313SOL     OW39397   0.088   4.304   8.720  0.2596  0.3233  0.4139
 9313SOL    HW139398   0.124   4.334   8.636 -1.8455  2.2533  0.2075
 9313SOL    HW239399   0.136   4.224   8.743  0.5941  0.3315 -0.2619
 9314SOL     OW39400   3.531   0.689   1.804  0.4667  0.1384 -0.2463
 9314SOL    HW139401   3.565   0.605   1.772  2.2995  1.3372 -1.4778
 9314SOL    HW239402   3.570   0.757   1.749 -0.7239  0.4755 -0.6842
 9315SOL     OW39403   3.712   1.128   4.924  1.0841  0.3871 -0.2823
 9315SOL    HW139404   3.681   1.214   4.895 -2.0116 -0.3063  0.9896
 9315SOL    HW239405   3.718   1.148   5.017 -2.3417  0.4434 -0.0936
 9316SOL     OW39406   1.939   1.657   1.958 -0.3531 -0.0872  0.1676
 9316SOL    HW139407   1.859   1.644   1.907 -1.3085  2.0597  1.1146
 9316SOL    HW239408   2.000   1.697   1.897  1.7795 -2.4178  0.7941
 9317SOL     OW39409   1.433   1.965   4.146  0.5721  0.0213  0.3309
 9317SOL    HW139410   1.402   2.010   4.225 -1.0221  0.2637 -0.4231
 9317SOL    HW239411   1.460   1.882   4.185  0.9036 -0.0312 -0.0158
 9318SOL     OW39412   3.406   3.055   0.508  0.8538 -0.1316 -0.2397
 9318SOL    HW139413   3.468   2.990   0.475  0.1441 -1.6537  1.3867
 9318SOL    HW239414   3.374   3.014   0.589 -1.5310  1.1573 -0.5173
 9319SOL     OW39415   2.009   1.301   9.401 -0.0753  0.0301 -0.3835
 9319SOL    HW139416   2.092   1.285   9.445  0.9768 -1.8487 -3.0476
 9319SOL    HW239417   1.945   1.258   9.457  2.0728  1.2285  2.9815
 9320SOL     OW39418   0.960   2.466  15.009  0.2886  0.1916 -0.1533
 9320SOL    HW139419   1.042   2.512  14.990  0.9666 -1.3418 -0.9433
 9320SOL    HW239420   0.954   2.398  14.942 -1.9923 -1.4366  1.7235
 9321SOL     OW39421   0.692   2.862   4.772  0.0594  0.3581 -0.0397
 9321SOL    HW139422   0.747   2.858   4.694  2.2253 -1.5401  1.5939
 9321SOL    HW239423   0.697   2.771   4.799 -0.2391  0.9210  1.9057
 9322SOL     OW39424   1.883   4.022   4.258 -0.9918  0.4490  0.4635
 9322SOL    HW139425   1.798   4.063   4.242 -0.1373  1.7214 -0.8541
 9322SOL    HW239426   1.921   4.098   4.303  2.5093 -1.3440  0.4878
 9323SOL     OW39427   4.709   2.517   0.964 -0.9048  0.1681  0.4193
 9323SOL    HW139428   0.021   2.585   1.023  2.1174  0.4753 -1.6194
 9323SOL    HW239429   4.666   2.571   0.897  0.1896 -0.1993 -0.5746
 9324SOL     OW39430   1.904   0.372  13.715 -0.5297 -0.2143 -0.0318
 9324SOL    HW139431   1.930   0.316  13.642 -1.4995 -1.9066  0.8952
 9324SOL    HW239432   1.856   0.309  13.770  1.1371 -1.2965  0.1769
 9325SOL     OW39433   1.012   1.737   0.550  0.0232  0.5257 -0.0386
 9325SOL    HW139434   0.996   1.774   0.637 -1.9872 -0.4040 -0.0195
 9325SOL    HW239435   1.025   1.645   0.573  0.7001  0.5542 -0.3010
 9326SOL     OW39436   3.045   2.789   8.992 -0.2349 -0.0787  0.3060
 9326SOL    HW139437   3.054   2.701   8.956 -1.6738 -0.8923  1.9449
 9326SOL    HW239438   3.126   2.824   8.954  2.0181 -2.7885  2.6249
 9327SOL     OW39439   4.594   2.362  14.277  0.0829  0.0005  0.5574
 9327SOL    HW139440   4.559   2.344  14.190  1.8657  0.2153 -0.2149
 9327SOL    HW239441   4.558   2.449  14.293 -3.2423 -1.2622 -0.1165
 9328SOL     OW39442   3.549   1.084   3.188  0.0934  0.0123 -0.4930
 9328SOL    HW139443   3.502   1.166   3.202  0.2211 -0.2028  1.1708
 9328SOL    HW239444   3.524   1.072   3.097  1.1906 -0.6365 -0.7180
 9329SOL     OW39445   0.294   3.902  12.983  0.0891 -0.3797  0.1423
 9329SOL    HW139446   0.317   3.894  12.890  1.6202 -1.8816  0.6438
 9329SOL    HW239447   0.367   3.959  13.007  0.3741  0.0606 -1.8235
 9330SOL     OW39448   2.894   4.102   2.635  0.0593 -0.3965  0.5154
 9330SOL    HW139449   2.924   4.058   2.555  1.0460 -1.7152  1.5873
 9330SOL    HW239450   2.975   4.102   2.687  0.7397 -0.8055 -0.5411
 9331SOL     OW39451   1.959   2.695   2.634  0.3229  0.0374  0.9737
 9331SOL    HW139452   1.959   2.720   2.727 -0.6562  2.9656  0.1747
 9331SOL    HW239453   2.009   2.615   2.649  1.4458  0.5948  0.1733
 9332SOL     OW39454   4.105   0.050   5.965 -0.0440 -0.5484  0.3957
 9332SOL    HW139455   4.088   4.679   5.987 -2.8335 -0.3642 -1.0789
 9332SOL    HW239456   4.111   0.048   5.870 -0.9772  0.8355  0.3126
 9333SOL     OW39457   1.658   0.888   8.840  0.0120 -0.2135 -0.6642
 9333SOL    HW139458   1.565   0.867   8.838  0.4765 -2.5199  2.2742
 9333SOL    HW239459   1.696   0.801   8.853  0.2059  0.0009  0.2166
 9334SOL     OW39460   3.969   4.085   8.438  0.7313 -0.3255  0.2949
 9334SOL    HW139461   4.040   4.066   8.500 -0.1928 -1.2734  1.0587
 9334SOL    HW239462   3.891   4.066   8.490  1.8199  1.5080  2.6036
 9335SOL     OW39463   0.492   3.338   8.100 -0.0291  0.1580  0.2204
 9335SOL    HW139464   0.550   3.271   8.135  0.1392 -0.6523 -1.5832
 9335SOL    HW239465   0.451   3.288   8.029  2.8508 -1.0021 -0.6095
 9336SOL     OW39466   1.424   4.540   4.371 -0.4115 -0.0022  0.5614
 9336SOL    HW139467   1.405   4.634   4.375 -1.5280 -0.1435 -1.4623
 9336SOL    HW239468   1.350   4.502   4.325  0.1534 -2.4508  1.7166
 9337SOL     OW39469   4.513   4.308   2.965 -0.0635  0.4292 -0.3748
 9337SOL    HW139470   4.464   4.289   2.884  1.3983 -3.1657 -0.4055
 9337SOL    HW239471   4.586   4.247   2.953 -0.6965 -0.4061  0.0556
 9338SOL     OW39472   3.246   1.442   2.519 -0.6234 -0.2905  0.3180
 9338SOL    HW139473   3.161   1.449   2.476  0.1329 -0.8236 -1.2659
 9338SOL    HW239474   3.251   1.348   2.534 -1.2431 -0.4341 -0.3702
 9339SOL     OW39475   1.770   4.523   2.264 -0.3028 -0.0472  0.5188
 9339SOL    HW139476   1.682   4.556   2.280 -0.7596 -0.3215 -1.4510
 9339SOL    HW239477   1.794   4.593   2.204 -0.2354  0.0066  0.6088
 9340SOL     OW39478   1.832   1.948   3.054  0.2953  0.2960 -1.6212
 9340SOL    HW139479   1.877   1.876   3.097 -2.6541 -2.0209 -2.3872
 9340SOL    HW239480   1.858   2.023   3.108 -3.2243  0.4741 -0.1371
 9341SOL     OW39481   0.970   2.026   4.053  0.4328  0.1523  0.2960
 9341SOL    HW139482   1.053   2.019   4.008  2.2808 -0.6586  3.8021
 9341SOL    HW239483   0.977   1.955   4.117  0.7052 -0.5320 -0.5027
 9342SOL     OW39484   4.172   4.492   4.776 -0.0117 -0.1349 -0.4435
 9342SOL    HW139485   4.082   4.513   4.752 -0.2823 -0.2051  0.4997
 9342SOL    HW239486   4.211   4.473   4.691  2.0948 -0.0500  0.5046
 9343SOL     OW39487   3.779   2.741   3.472  0.0888  0.9515  0.3951
 9343SOL    HW139488   3.843   2.671   3.482 -0.3794  0.2066 -1.9368
 9343SOL    HW239489   3.709   2.695   3.425  0.6973 -1.2107  1.6077
 9344SOL     OW39490   1.028   3.580  10.723 -0.0680 -0.1077  0.8128
 9344SOL    HW139491   1.000   3.524  10.795  0.6688 -1.4460  0.0452
 9344SOL    HW239492   0.975   3.532  10.659 -0.0108  0.3933  0.3814
 9345SOL     OW39493   2.429   1.025  10.210  0.4253 -0.6890  0.3983
 9345SOL    HW139494   2.491   1.091  10.240  0.2785  0.3579 -1.5481
 9345SOL    HW239495   2.348   1.040  10.259 -0.0833  0.1254 -0.6792
 9346SOL     OW39496   1.643   4.366   4.258 -0.1466  0.3661 -0.3573
 9346SOL    HW139497   1.579   4.437   4.264 -0.4005  0.2194 -1.2182
 9346SOL    HW239498   1.717   4.409   4.216  1.8312 -0.9958  1.7519
 9347SOL     OW39499   1.515   0.125   7.411  0.1590  0.4111 -0.4016
 9347SOL    HW139500   1.419   0.127   7.420  0.3488  1.4297  1.3166
 9347SOL    HW239501   1.518   0.041   7.364 -1.1490  0.6373 -0.9050
 9348SOL     OW39502   3.769   2.993   5.141  0.5874 -0.0766 -0.2527
 9348SOL    HW139503   3.715   2.930   5.094 -0.0108  0.7194 -0.6412
 9348SOL    HW239504   3.841   3.011   5.080  0.2899  0.8950 -0.3239
 9349SOL     OW39505   0.921   1.314  10.044  0.0778  0.2582  0.1281
 9349SOL    HW139506   0.900   1.281  10.131  1.9431 -1.3344 -0.0248
 9349SOL    HW239507   0.834   1.335  10.010  1.5786  4.0281 -1.4427
 9350SOL     OW39508   3.493   1.573   7.094  0.2450  0.0015 -0.2863
 9350SOL    HW139509   3.534   1.580   7.180  1.7302 -0.6965 -0.9480
 9350SOL    HW239510   3.563   1.550   7.033 -0.5425 -2.2288 -0.3671
 9351SOL     OW39511   1.664   2.339  17.173  0.4231  0.3115 -0.5391
 9351SOL    HW139512   1.676   2.277  17.244 -1.3454 -1.5193 -1.8189
 9351SOL    HW239513   1.587   2.298  17.134 -0.5375  0.8368  0.8142
 9352SOL     OW39514   3.324   3.279   7.559  0.2212 -0.0447  0.1335
 9352SOL    HW139515   3.383   3.220   7.607  1.9376  1.0918 -0.5868
 9352SOL    HW239516   3.301   3.345   7.624 -0.7630 -0.1569 -0.0884
 9353SOL     OW39517   1.407   2.210   7.740  0.1353 -0.4582  0.0537
 9353SOL    HW139518   1.473   2.237   7.804 -0.8748 -1.2602  1.4559
 9353SOL    HW239519   1.337   2.275   7.740 -0.0319 -0.6359  1.1242
 9354SOL     OW39520   2.827   1.963  11.197 -0.0416 -0.2021 -0.0467
 9354SOL    HW139521   2.893   1.894  11.190 -1.2245 -1.2211 -1.2991
 9354SOL    HW239522   2.872   2.045  11.219 -1.1972  0.5950 -0.6763
 9355SOL     OW39523   4.276   2.145   5.326 -0.7851 -0.3406  0.2403
 9355SOL    HW139524   4.280   2.080   5.257  0.3112  0.7165 -0.7030
 9355SOL    HW239525   4.181   2.150   5.331 -1.0276 -3.1057 -1.5524
 9356SOL     OW39526   1.978   2.720  13.905  0.0744 -0.7654  0.4837
 9356SOL    HW139527   1.931   2.664  13.843  0.0318  1.1691 -1.2180
 9356SOL    HW239528   1.909   2.762  13.956 -1.4377  0.3615 -2.4833
 9357SOL     OW39529   1.396   3.239   8.535  0.4225 -0.1898 -0.0286
 9357SOL    HW139530   1.478   3.267   8.576  0.6533 -0.2324 -0.4609
 9357SOL    HW239531   1.359   3.179   8.599  2.7088  0.6866  2.0975
 9358SOL     OW39532   0.559   3.810   5.181  0.1016 -0.3022 -0.6346
 9358SOL    HW139533   0.636   3.802   5.124  1.3057  0.3273  0.9091
 9358SOL    HW239534   0.543   3.904   5.166 -1.5433 -0.3578  0.7076
 9359SOL     OW39535   3.743   0.950   7.492  0.1653 -0.1256  0.5324
 9359SOL    HW139536   3.784   0.899   7.561 -0.6291  0.5419  1.5052
 9359SOL    HW239537   3.653   0.928   7.517 -1.4649  6.0363  0.1203
 9360SOL     OW39538   2.544   3.877  14.021 -0.3510 -0.4610  0.0344
 9360SOL    HW139539   2.589   3.843  14.099 -1.3095 -2.3537 -0.2515
 9360SOL    HW239540   2.454   3.897  14.048 -0.4322  0.5549 -0.9906
 9361SOL     OW39541   2.592   4.714  12.125  0.6442  0.6079  0.0201
 9361SOL    HW139542   2.619   4.629  12.092  0.5399  0.6354 -0.1364
 9361SOL    HW239543   2.677   0.037  12.121  2.4512 -2.8771  0.0279
 9362SOL     OW39544   2.316   2.924  17.076  0.0862 -0.6777  0.6770
 9362SOL    HW139545   2.372   2.888  17.007 -1.8368  0.8962 -1.6961
 9362SOL    HW239546   2.371   2.904  17.152  2.1525 -1.3703 -1.0137
 9363SOL     OW39547   1.412   2.272  11.265 -0.1744 -1.0265 -0.0665
 9363SOL    HW139548   1.355   2.285  11.341 -1.6019 -1.9312 -0.9853
 9363SOL    HW239549   1.386   2.346  11.210 -1.8882 -1.7719 -0.2540
 9364SOL     OW39550   1.334   1.659  12.403 -0.1872  0.6789  0.2106
 9364SOL    HW139551   1.428   1.676  12.396  0.0692 -0.6696  0.4034
 9364SOL    HW239552   1.326   1.576  12.356 -0.7482 -0.1262  1.7597
 9365SOL     OW39553   0.469   3.870  13.249 -0.2420  0.1252 -0.3370
 9365SOL    HW139554   0.483   3.919  13.167  0.1945  3.2426  1.5980
 9365SOL    HW239555   0.532   3.916  13.304 -0.2676 -0.4165  0.1419
 9366SOL     OW39556   3.599   0.911   1.112 -0.0377 -0.5906  0.3450
 9366SOL    HW139557   3.671   0.947   1.061  0.9252 -3.0043 -0.0064
 9366SOL    HW239558   3.533   0.972   1.078  0.4873 -0.9590 -1.3427
 9367SOL     OW39559   1.845   3.573   3.367  0.7046 -0.2684 -0.5712
 9367SOL    HW139560   1.898   3.502   3.331 -0.1491 -1.3852  0.3830
 9367SOL    HW239561   1.891   3.596   3.448  0.9822  1.8320 -1.3368
 9368SOL     OW39562   1.687   1.993   3.336 -0.4268  0.0221  0.4567
 9368SOL    HW139563   1.726   1.907   3.350  0.1090  0.2827  0.5818
 9368SOL    HW239564   1.593   1.982   3.353 -0.1490 -2.6360  0.2478
 9369SOL     OW39565   0.764   4.721   8.575 -0.4550 -0.4373 -0.0294
 9369SOL    HW139566   0.810   4.653   8.525 -0.3721  1.0933 -2.0424
 9369SOL    HW239567   0.694   0.012   8.510  0.1838  1.4911 -0.3637
 9370SOL     OW39568   1.798   3.532   4.419  0.5260 -0.4574 -0.0974
 9370SOL    HW139569   1.853   3.599   4.378 -2.0076  0.7758 -1.4810
 9370SOL    HW239570   1.781   3.466   4.352 -0.2676 -0.4661  0.1209
 9371SOL     OW39571   2.214   3.046  17.659  0.0458  0.1133  0.0022
 9371SOL    HW139572   2.140   2.991  17.685  1.3005 -1.1671  0.9231
 9371SOL    HW239573   2.236   3.083   0.058  1.5900 -2.6467  0.7875
 9372SOL     OW39574   0.137   2.015   6.097  0.3197  0.3106  0.2680
 9372SOL    HW139575   0.045   2.042   6.098  0.5641  1.0296  2.6063
 9372SOL    HW239576   0.169   2.090   6.147 -0.3152  0.6505  0.1681
 9373SOL     OW39577   3.425   4.214   1.016 -0.2171  0.1876 -0.2775
 9373SOL    HW139578   3.368   4.263   1.075 -0.2840  0.0365 -0.2181
 9373SOL    HW239579   3.377   4.132   1.001 -1.3402  0.5119  1.5626
 9374SOL     OW39580   2.776   2.265   8.098 -0.0750 -0.3535 -0.4479
 9374SOL    HW139581   2.805   2.199   8.162  0.2691  0.0524 -0.1830
 9374SOL    HW239582   2.857   2.315   8.102 -0.8106  0.7150  1.0355
 9375SOL     OW39583   3.899   1.937  16.525 -0.2300  0.7221 -0.1226
 9375SOL    HW139584   3.907   1.842  16.513 -1.2127  0.3365  2.2330
 9375SOL    HW239585   3.823   1.960  16.472 -0.4061 -0.5320 -0.4073
 9376SOL     OW39586   3.992   2.126   2.549 -0.3848  0.0171 -0.5432
 9376SOL    HW139587   4.052   2.057   2.520 -0.8406  0.2023 -1.9216
 9376SOL    HW239588   4.053   2.200   2.544 -0.5194  0.0292 -1.8834
 9377SOL     OW39589   1.188   0.061   8.345 -0.2056  0.0848  0.4100
 9377SOL    HW139590   1.267   0.082   8.295  0.6827  0.9711  2.1454
 9377SOL    HW239591   1.135   0.132   8.309  0.6493 -0.7726 -2.5474
 9378SOL     OW39592   2.062   1.035   4.034 -0.1013 -0.1839  0.0467
 9378SOL    HW139593   2.029   1.049   3.945  1.1035  2.6814  0.0637
 9378SOL    HW239594   2.032   1.115   4.077  0.6760  0.1943 -0.1103
 9379SOL     OW39595   1.819   2.438  14.873  0.4331 -0.3652  0.3486
 9379SOL    HW139596   1.884   2.414  14.939 -0.5354 -1.5111  0.8934
 9379SOL    HW239597   1.865   2.406  14.796 -0.7850  2.7354 -1.6369
 9380SOL     OW39598   3.121   2.670   4.361  0.5009 -0.4484  0.2916
 9380SOL    HW139599   3.053   2.710   4.414 -0.2668 -0.8949 -0.3620
 9380SOL    HW239600   3.169   2.749   4.339 -0.1072  0.0249  0.6745
 9381SOL     OW39601   0.490   2.707   7.692  0.0730 -0.4960  0.0285
 9381SOL    HW139602   0.570   2.655   7.688 -1.4413 -2.9164  1.0411
 9381SOL    HW239603   0.459   2.705   7.782 -2.0431  2.4857 -0.6197
 9382SOL     OW39604   4.515   4.303   5.047  0.1800  0.6323 -0.0885
 9382SOL    HW139605   4.488   4.384   5.002  0.9573  0.8790 -0.1065
 9382SOL    HW239606   4.609   4.313   5.059 -0.2399 -0.1542  3.7321
 9383SOL     OW39607   3.923   3.669  14.879 -0.3209 -0.1656 -0.7190
 9383SOL    HW139608   3.915   3.719  14.961 -1.9072 -1.0179 -0.3319
 9383SOL    HW239609   4.015   3.681  14.859  0.2340 -3.4404 -0.1446
 9384SOL     OW39610   4.246   2.327   6.977  0.4797  0.1377  0.1915
 9384SOL    HW139611   4.224   2.300   7.066  0.5467  0.5762  0.3416
 9384SOL    HW239612   4.340   2.339   6.990  0.3416  1.8218 -0.3580
 9385SOL     OW39613   4.076   0.363   2.037  0.5084  0.2672  0.7074
 9385SOL    HW139614   4.010   0.383   2.103  0.6220 -1.0626  1.2133
 9385SOL    HW239615   4.144   0.315   2.085  0.5319 -1.1123 -0.7009
 9386SOL     OW39616   1.076   4.627   1.402 -0.7869  0.6398 -0.5139
 9386SOL    HW139617   1.140   4.561   1.425 -2.4499 -0.5915  0.5912
 9386SOL    HW239618   1.084   4.693   1.470  0.2205 -1.2844  1.2218
 9387SOL     OW39619   3.283   0.639  15.247  0.2834 -0.3670  0.2217
 9387SOL    HW139620   3.266   0.692  15.169  0.8207 -2.8632 -1.5775
 9387SOL    HW239621   3.208   0.644  15.307  1.3090 -1.2743  1.5810
 9388SOL     OW39622   1.516   2.831   2.253  0.0215 -0.5272  0.5505
 9388SOL    HW139623   1.600   2.877   2.256  0.4147 -1.1512 -0.7629
 9388SOL    HW239624   1.546   2.746   2.220  1.3699  1.1270 -2.4453
 9389SOL     OW39625   4.581   1.264  11.386 -0.1724 -0.0259 -0.1308
 9389SOL    HW139626   4.586   1.213  11.305 -0.2577  1.0712 -0.8280
 9389SOL    HW239627   4.610   1.348  11.350  3.3008 -1.8612 -1.6344
 9390SOL     OW39628   0.776   3.346   4.472  0.0316 -0.0931  0.6967
 9390SOL    HW139629   0.769   3.283   4.400 -0.7582  1.1182 -0.2960
 9390SOL    HW239630   0.683   3.359   4.491  0.2965 -0.5700  2.3314
 9391SOL     OW39631   2.682   0.575   3.545  0.2714 -0.0113 -0.3859
 9391SOL    HW139632   2.602   0.576   3.598 -1.4740  1.9686 -3.0606
 9391SOL    HW239633   2.744   0.546   3.612 -1.6931  1.0324  1.8461
 9392SOL     OW39634   4.578   1.355   8.294 -0.3046 -0.4722 -0.1207
 9392SOL    HW139635   4.549   1.336   8.383 -0.9249  0.0050 -0.2263
 9392SOL    HW239636   4.521   1.427   8.268  0.4797 -0.1293 -0.9210
 9393SOL     OW39637   3.439   4.486   2.165 -0.2325  0.3529  0.3871
 9393SOL    HW139638   3.462   4.571   2.205  2.1616 -0.0647 -0.0730
 9393SOL    HW239639   3.351   4.491   2.129  0.6893 -0.3931 -1.9412
 9394SOL     OW39640   1.717   0.101   1.997 -0.0715 -0.3430 -0.1532
 9394SOL    HW139641   1.750   0.161   2.064  2.3345 -0.4317 -1.2682
 9394SOL    HW239642   1.643   0.061   2.042  0.5139 -0.9619  0.2542
 9395SOL     OW39643   0.066   1.597   8.528 -0.2653 -0.0934  0.1089
 9395SOL    HW139644   0.132   1.621   8.594 -0.9994  2.7611 -0.1719
 9395SOL    HW239645   0.116   1.616   8.449  0.2872 -0.0174  0.4741
 9396SOL     OW39646   1.937   3.332  11.394  0.3687 -0.1120  0.0237
 9396SOL    HW139647   1.907   3.266  11.332  0.1470 -0.7079  0.7769
 9396SOL    HW239648   1.850   3.367  11.408  0.4854  0.2611 -0.1784
 9397SOL     OW39649   1.460   1.904  13.981 -0.4276  0.0607 -0.3589
 9397SOL    HW139650   1.407   1.941  14.052 -0.3114 -1.4439  0.5078
 9397SOL    HW239651   1.536   1.962  13.977  1.6133 -2.5795 -0.2889
 9398SOL     OW39652   1.691   1.325   4.912 -0.0545 -0.1658  0.1663
 9398SOL    HW139653   1.682   1.276   4.994 -0.9953  2.3882  1.5879
 9398SOL    HW239654   1.603   1.348   4.882  0.7027 -1.4089 -3.0401
 9399SOL     OW39655   1.911   1.495   7.345 -0.4932  0.3390  0.5288
 9399SOL    HW139656   2.003   1.521   7.337 -0.2438 -1.2472 -1.9753
 9399SOL    HW239657   1.872   1.574   7.308 -2.4289  0.1282  2.1012
 9400SOL     OW39658   1.011   4.138   8.822 -0.2724 -0.0731 -0.6580
 9400SOL    HW139659   1.101   4.158   8.799 -0.0453 -1.8091 -1.2929
 9400SOL    HW239660   0.978   4.108   8.737  0.4673 -0.4483 -0.8064
 9401SOL     OW39661   3.994   4.000   4.467 -0.2331 -0.5395  0.0007
 9401SOL    HW139662   4.061   4.067   4.454 -0.8211  0.3362  1.4145
 9401SOL    HW239663   3.918   4.025   4.414  1.0814  1.3698 -0.9860
 9402SOL     OW39664   0.438   2.227   4.852  0.2907 -0.0754 -0.1572
 9402SOL    HW139665   0.499   2.160   4.882  1.5449  0.4701 -1.4833
 9402SOL    HW239666   0.368   2.211   4.916 -1.5361  1.7700 -1.6822
 9403SOL     OW39667   3.623   3.572   4.323 -0.3644 -0.6261  0.7408
 9403SOL    HW139668   3.531   3.596   4.310  0.1300  0.0308 -1.4847
 9403SOL    HW239669   3.641   3.605   4.411  1.5035 -0.2135  0.1933
 9404SOL     OW39670   1.578   1.385   0.735 -0.2921 -0.0855 -0.6545
 9404SOL    HW139671   1.548   1.436   0.659 -0.2400  1.7495  0.5541
 9404SOL    HW239672   1.558   1.447   0.806  0.9184 -1.1715  0.6291
 9405SOL     OW39673   4.503   3.050   1.432  0.0901 -0.9935  0.0585
 9405SOL    HW139674   4.466   3.116   1.490 -0.5653 -0.8317 -0.5405
 9405SOL    HW239675   4.482   2.971   1.481  0.7628 -0.6309  0.9241
 9406SOL     OW39676   0.394   1.602   8.878  0.2857 -0.0445  0.0813
 9406SOL    HW139677   0.362   1.642   8.958  0.9790  0.2901  0.1964
 9406SOL    HW239678   0.417   1.512   8.902 -2.0454  0.0995  2.7376
 9407SOL     OW39679   4.704   0.561   3.999  0.7201 -0.0285  0.3195
 9407SOL    HW139680   4.661   0.644   3.979 -0.3538 -1.0007 -1.3887
 9407SOL    HW239681   4.650   0.495   3.955  0.4776  0.8799 -0.7503
 9408SOL     OW39682   2.781   1.075   3.710 -0.5538 -0.6298  0.1785
 9408SOL    HW139683   2.797   1.151   3.655 -0.4467 -0.5895  0.2652
 9408SOL    HW239684   2.790   1.113   3.797  0.2855  1.1779 -0.7142
 9409SOL     OW39685   4.289   4.704   1.785 -0.8352  0.5093  0.0868
 9409SOL    HW139686   4.283   0.076   1.763 -0.7065  0.7227  0.9810
 9409SOL    HW239687   4.239   4.676   1.708  0.1648  1.0182 -0.7468
 9410SOL     OW39688   1.144   1.584  11.782 -0.6332  0.0302  0.0254
 9410SOL    HW139689   1.066   1.625  11.746 -0.1211  0.9118 -0.0747
 9410SOL    HW239690   1.186   1.543  11.707 -1.0642 -0.2506 -0.0644
 9411SOL     OW39691   0.249   1.130   6.166 -0.0034  0.2218  0.7137
 9411SOL    HW139692   0.217   1.177   6.243  0.5413 -1.5263  2.0114
 9411SOL    HW239693   0.303   1.195   6.120 -0.0072 -1.0870 -1.1253
 9412SOL     OW39694   1.468   0.986   7.499 -0.3556 -0.2608 -0.3052
 9412SOL    HW139695   1.374   1.002   7.489 -0.8272 -3.4350 -1.2600
 9412SOL    HW239696   1.504   1.073   7.517  0.3993 -0.4902 -0.7016
 9413SOL     OW39697   3.341   4.325   7.461  0.6406  0.6452 -0.0774
 9413SOL    HW139698   3.355   4.324   7.555  0.6868 -1.4545 -0.0923
 9413SOL    HW239699   3.323   4.232   7.446  1.1519  1.0486 -3.2624
 9414SOL     OW39700   4.304   2.305   6.344 -0.1640 -0.2956 -0.1072
 9414SOL    HW139701   4.251   2.349   6.409  0.5175  2.3169 -1.3251
 9414SOL    HW239702   4.289   2.369   6.274 -2.1142 -1.1385 -0.4575
 9415SOL     OW39703   0.514   4.040  13.036 -0.1116 -0.4447  0.3099
 9415SOL    HW139704   0.553   3.968  12.987  0.1035  1.2382 -1.9757
 9415SOL    HW239705   0.569   4.109  12.997  0.9058 -0.7291  1.2377
 9416SOL     OW39706   4.105   0.982  17.435  0.0090 -0.2663 -0.1916
 9416SOL    HW139707   4.089   0.888  17.445  2.0367 -0.5037  0.8923
 9416SOL    HW239708   4.198   0.990  17.457 -0.2247  0.5781  0.5022
 9417SOL     OW39709   0.183   2.210   4.579 -0.0616  0.0838  0.3385
 9417SOL    HW139710   0.155   2.146   4.644 -1.3368 -0.6834 -0.9805
 9417SOL    HW239711   0.151   2.171   4.497  0.5690  1.3291 -0.5030
 9418SOL     OW39712   3.906   3.317  12.246  0.6564  0.4960 -0.6451
 9418SOL    HW139713   3.830   3.341  12.194 -1.1730  0.6716  2.1384
 9418SOL    HW239714   3.920   3.227  12.218  1.0890  0.0828  0.8798
 9419SOL     OW39715   0.980   2.076   0.454 -0.1319  0.0260 -0.3267
 9419SOL    HW139716   1.061   2.124   0.471 -0.8949  0.5619  1.8579
 9419SOL    HW239717   0.951   2.049   0.542 -2.2251  0.6467 -0.8301
 9420SOL     OW39718   2.306   0.267   9.848 -0.4113  0.2974  0.3517
 9420SOL    HW139719   2.349   0.261   9.933 -0.3805  2.6203  0.4851
 9420SOL    HW239720   2.323   0.179   9.813  2.5861  1.4428 -1.0129
 9421SOL     OW39721   4.481   0.489   6.946  0.3346  1.0868  0.6170
 9421SOL    HW139722   4.408   0.528   6.996 -1.7369 -0.1604 -1.4425
 9421SOL    HW239723   4.548   0.547   6.983 -1.3020  1.9786  2.2398
 9422SOL     OW39724   0.147   2.727   1.418  0.5438 -0.3540  0.5753
 9422SOL    HW139725   0.233   2.707   1.381 -0.6064 -0.2550 -2.0829
 9422SOL    HW239726   0.174   2.705   1.508 -0.4014  0.7337  1.1081
 9423SOL     OW39727   0.296   3.457   6.804 -0.0364 -0.3020  0.1296
 9423SOL    HW139728   0.374   3.427   6.851  0.0065  1.0532  0.9445
 9423SOL    HW239729   0.327   3.472   6.714  2.8857  3.4307  1.7296
 9424SOL     OW39730   0.452   1.888   9.282  0.1224  0.1888 -0.3614
 9424SOL    HW139731   0.455   1.916   9.191 -1.9555  1.5711 -0.0178
 9424SOL    HW239732   0.362   1.913   9.305  1.4318  2.2836  2.5778
 9425SOL     OW39733   2.529   3.161   9.460  0.2529  0.3229  0.2232
 9425SOL    HW139734   2.613   3.171   9.504  1.0027 -1.3404 -0.8319
 9425SOL    HW239735   2.555   3.130   9.373 -0.9607  1.1441 -0.4295
 9426SOL     OW39736   3.551   2.543   2.670  0.0787 -0.4142 -0.2000
 9426SOL    HW139737   3.506   2.499   2.598 -0.3286 -1.5609  0.7644
 9426SOL    HW239738   3.504   2.509   2.746 -1.8700  2.6412 -0.0486
 9427SOL     OW39739   2.688   0.936   7.774  0.1283 -0.7442 -0.3970
 9427SOL    HW139740   2.606   0.945   7.726 -0.3559  1.5222  0.8517
 9427SOL    HW239741   2.678   0.851   7.818  0.4003 -0.4120  0.3061
 9428SOL     OW39742   1.303   1.091   6.009  0.1415 -0.1455  0.2960
 9428SOL    HW139743   1.357   1.166   6.037 -2.1078  1.9426 -0.9480
 9428SOL    HW239744   1.330   1.037   6.083  0.1164 -1.1771 -0.4524
 9429SOL     OW39745   3.311   3.573  14.971 -0.2717 -0.1757  0.0582
 9429SOL    HW139746   3.327   3.618  14.888 -1.6455  2.0258  0.9851
 9429SOL    HW239747   3.385   3.511  14.968 -0.2968 -0.1912 -0.2874
 9430SOL     OW39748   2.179   3.778   6.911 -0.2487  0.2497  0.8625
 9430SOL    HW139749   2.216   3.708   6.857  0.6483  2.2173 -1.0642
 9430SOL    HW239750   2.155   3.842   6.845  0.3711 -1.4543 -1.0371
 9431SOL     OW39751   0.042   4.367   6.170  0.4753  0.0810  0.9180
 9431SOL    HW139752   4.699   4.329   6.109  0.0802 -0.5124  1.6984
 9431SOL    HW239753   0.097   4.290   6.184 -0.4764 -0.4325  1.8950
 9432SOL     OW39754   3.664   2.078   6.589  0.0115 -0.0925 -0.8016
 9432SOL    HW139755   3.636   2.025   6.514  0.6197 -1.1788 -0.2496
 9432SOL    HW239756   3.612   2.033   6.656 -0.7733  0.3924 -1.0809
 9433SOL     OW39757   4.273   0.968   1.819  0.3361  0.1525  0.1326
 9433SOL    HW139758   4.270   0.881   1.858 -0.0922  0.7232  1.3595
 9433SOL    HW239759   4.188   1.007   1.839  0.4516  0.0547  0.8162
 9434SOL     OW39760   2.833   2.621   9.898  0.6073 -0.7514 -0.4125
 9434SOL    HW139761   2.764   2.618   9.964  1.1529 -1.6163  0.1091
 9434SOL    HW239762   2.862   2.712   9.891 -1.1734 -0.1558 -0.0960
 9435SOL     OW39763   4.620   2.323   5.525  0.3788 -0.6460  0.7370
 9435SOL    HW139764   4.636   2.417   5.512 -2.7725 -0.6177 -2.8786
 9435SOL    HW239765   4.683   2.284   5.464 -0.5002  1.1594 -1.3047
 9436SOL     OW39766   1.789   3.539   7.933 -0.0616 -0.3915  0.2910
 9436SOL    HW139767   1.759   3.629   7.949  0.0865 -0.3054  0.0833
 9436SOL    HW239768   1.842   3.520   8.011 -0.9078  0.8635  1.1769
 9437SOL     OW39769   4.118   3.384   1.405 -0.1852  0.1872  0.9066
 9437SOL    HW139770   4.125   3.422   1.492  0.7197  0.3838  0.7475
 9437SOL    HW239771   4.024   3.383   1.389 -0.0290  0.8475 -0.0611
 9438SOL     OW39772   3.903   2.456   7.435  0.5155  0.6009 -0.3412
 9438SOL    HW139773   3.867   2.510   7.506  0.0661  1.5205 -1.2693
 9438SOL    HW239774   3.832   2.468   7.373 -0.9239  0.8665  1.3437
 9439SOL     OW39775   1.724   2.314   0.724  0.4882 -0.6419  0.2329
 9439SOL    HW139776   1.785   2.376   0.685  1.0243 -1.0123  0.4781
 9439SOL    HW239777   1.652   2.375   0.739 -0.2137 -0.8201 -2.4979
 9440SOL     OW39778   3.922   2.749   4.046  0.0603  0.0775  0.1330
 9440SOL    HW139779   3.987   2.688   4.079  1.8897  2.0001  0.1268
 9440SOL    HW239780   3.842   2.702   4.070  0.5653 -0.5736  0.5206
 9441SOL     OW39781   3.106   0.109   6.809  0.2366  0.1472  0.1350
 9441SOL    HW139782   3.084   0.019   6.831  1.5220 -0.2457 -0.1671
 9441SOL    HW239783   3.166   0.135   6.879 -1.0225 -1.1173  1.6774
 9442SOL     OW39784   0.108   1.580  16.526  0.3657 -0.3757 -0.2209
 9442SOL    HW139785   0.168   1.510  16.550  0.1842 -0.8562 -1.1684
 9442SOL    HW239786   0.172   1.641  16.489  0.3462  0.8023  1.6495
 9443SOL     OW39787   3.280   0.826   7.021  0.0378  0.7167 -0.1293
 9443SOL    HW139788   3.212   0.825   6.953 -1.1432  2.3578  1.0360
 9443SOL    HW239789   3.351   0.792   6.966 -0.3703 -1.2712  0.5962
 9444SOL     OW39790   2.854   3.841   5.449 -0.3770 -0.5455 -0.0198
 9444SOL    HW139791   2.817   3.754   5.435  0.0433 -0.6067 -0.7691
 9444SOL    HW239792   2.947   3.822   5.452 -0.5407 -1.5033 -1.1105
 9445SOL     OW39793   1.548   1.278   7.510 -0.5725  0.1778 -0.2414
 9445SOL    HW139794   1.579   1.362   7.543  4.1337 -1.3029 -0.9774
 9445SOL    HW239795   1.465   1.307   7.471 -0.7613 -0.0337 -0.0062
 9446SOL     OW39796   3.514   4.679   3.693 -0.1144 -0.1179 -0.3239
 9446SOL    HW139797   3.454   4.617   3.734  1.0658 -1.3169 -0.3973
 9446SOL    HW239798   3.480   0.039   3.732 -1.5562 -0.3311 -1.1519
 9447SOL     OW39799   4.674   4.159   2.123 -0.4128  0.3272 -0.1270
 9447SOL    HW139800   4.631   4.147   2.207  2.1657 -1.7996  0.8762
 9447SOL    HW239801   0.028   4.209   2.154 -1.3965  2.5726 -1.2734
 9448SOL     OW39802   2.859   4.291   1.221 -0.4666 -0.0974 -0.0287
 9448SOL    HW139803   2.908   4.362   1.263  1.8639 -0.4469 -2.1510
 9448SOL    HW239804   2.921   4.221   1.245 -0.3509 -0.0086 -0.0691
 9449SOL     OW39805   3.923   1.742   2.423 -0.0468 -0.0518 -0.2178
 9449SOL    HW139806   3.864   1.706   2.357  1.0235 -0.0485 -1.1839
 9449SOL    HW239807   3.909   1.670   2.484  3.1313  1.1546  1.9564
 9450SOL     OW39808   0.907   4.164   7.765 -0.1069 -0.8815  0.6690
 9450SOL    HW139809   0.946   4.200   7.686 -0.4556  2.5856  2.0758
 9450SOL    HW239810   0.987   4.156   7.817 -0.3004  1.7750  1.3463
 9451SOL     OW39811   4.669   2.740   4.270 -0.0636  0.1436  0.8320
 9451SOL    HW139812   4.582   2.764   4.239  0.6215  0.1134 -1.0729
 9451SOL    HW239813   0.004   2.812   4.241  1.8515 -0.7837  2.2156
 9452SOL     OW39814   3.441   0.902   8.939 -0.3956  0.7448  0.0416
 9452SOL    HW139815   3.349   0.928   8.944 -0.7059 -0.7463  2.3889
 9452SOL    HW239816   3.478   0.956   9.009 -0.0301 -1.6598  1.7098
 9453SOL     OW39817   0.897   3.015   7.106 -0.9908 -0.4871 -0.3234
 9453SOL    HW139818   0.801   3.015   7.107 -0.9796 -2.3944 -0.1244
 9453SOL    HW239819   0.915   2.925   7.133 -0.1960 -0.2632 -0.1128
 9454SOL     OW39820   1.053   1.077  12.308 -0.0553 -0.1851 -0.1808
 9454SOL    HW139821   1.008   1.079  12.224 -0.7819 -0.7043  0.1951
 9454SOL    HW239822   1.133   1.126  12.287  1.0528 -0.7026  2.8420
 9455SOL     OW39823   3.845   2.641   2.541 -0.1089 -0.3332 -0.5906
 9455SOL    HW139824   3.819   2.557   2.580 -0.8449 -0.3228 -1.0555
 9455SOL    HW239825   3.872   2.694   2.615 -2.3837 -0.3858  0.2583
 9456SOL     OW39826   2.463   2.509   8.175 -0.5908 -0.5398  0.2368
 9456SOL    HW139827   2.379   2.551   8.189  0.8776  2.1533  0.9830
 9456SOL    HW239828   2.438   2.417   8.173 -2.4538 -0.0060 -0.5945
 9457SOL     OW39829   3.365   1.467  14.409  0.4362 -0.2759  0.5221
 9457SOL    HW139830   3.407   1.381  14.414 -3.7224 -2.4932 -1.7743
 9457SOL    HW239831   3.294   1.457  14.472 -0.8298 -0.1810 -0.8691
 9458SOL     OW39832   0.710   0.669   7.966 -0.1140  0.1084  0.2663
 9458SOL    HW139833   0.748   0.694   8.050 -0.6469 -1.1716  0.8931
 9458SOL    HW239834   0.620   0.698   7.982 -0.3799 -1.3319  1.4157
 9459SOL     OW39835   2.399   4.496   4.644 -0.1443  0.2959 -0.2309
 9459SOL    HW139836   2.307   4.470   4.634  0.3159 -0.9124 -1.3667
 9459SOL    HW239837   2.423   4.514   4.553 -1.0565  2.2490 -0.0861
 9460SOL     OW39838   1.953   3.642   5.969  0.2116  0.0656  0.1694
 9460SOL    HW139839   1.986   3.584   5.900 -0.6421 -1.2282  0.8482
 9460SOL    HW239840   2.026   3.638   6.031 -0.4042 -3.9136  0.6414
 9461SOL     OW39841   4.134   2.009   2.923  0.1276  0.0789 -0.7297
 9461SOL    HW139842   4.057   2.059   2.948 -2.5295 -2.4593 -3.8478
 9461SOL    HW239843   4.187   1.995   3.002 -2.7053  0.9852  1.3281
 9462SOL     OW39844   3.149   1.555  15.874 -0.0124 -0.2831 -0.1990
 9462SOL    HW139845   3.201   1.477  15.891 -0.9357 -0.4953  1.6226
 9462SOL    HW239846   3.076   1.515  15.826  0.4204 -2.0855  0.6537
 9463SOL     OW39847   1.391   2.626   3.495 -0.3065 -0.1698 -0.6216
 9463SOL    HW139848   1.442   2.607   3.574 -1.6803  3.2511  1.1284
 9463SOL    HW239849   1.438   2.707   3.477  1.5296 -1.2372 -0.5836
 9464SOL     OW39850   1.811   2.452   4.085 -0.3492  0.0426 -0.2974
 9464SOL    HW139851   1.802   2.455   3.990  0.7713  1.7613 -0.3375
 9464SOL    HW239852   1.754   2.379   4.110  1.2133 -0.9247  0.4405
 9465SOL     OW39853   3.400   3.367   1.409  0.7341 -0.2477  0.8892
 9465SOL    HW139854   3.423   3.367   1.316 -2.4429  0.6262  0.0912
 9465SOL    HW239855   3.423   3.278   1.437 -1.2271 -0.4081  2.0048
 9466SOL     OW39856   4.543   1.536  14.454  0.9750  0.1986  0.2146
 9466SOL    HW139857   4.586   1.621  14.444  0.9648  0.2517  0.6283
 9466SOL    HW239858   4.574   1.496  14.535 -1.6160 -2.0265  0.0967
 9467SOL     OW39859   1.360   3.713   3.704  0.3300  0.4990 -0.2390
 9467SOL    HW139860   1.336   3.730   3.613 -0.4312 -0.3502 -0.1931
 9467SOL    HW239861   1.282   3.754   3.740 -0.3216  0.0042 -1.0939
 9468SOL     OW39862   3.400   2.442   4.883 -0.1940  0.3003  0.2736
 9468SOL    HW139863   3.405   2.426   4.977 -1.2349  0.3640  0.3452
 9468SOL    HW239864   3.428   2.533   4.881  1.3523 -0.2393 -2.7786
 9469SOL     OW39865   4.327   2.515   1.903  0.2956 -0.5125 -0.4291
 9469SOL    HW139866   4.317   2.419   1.905 -2.6313 -0.2045 -0.5387
 9469SOL    HW239867   4.371   2.532   1.986 -0.7678  2.0236 -0.4109
 9470SOL     OW39868   4.535   2.789   5.931  0.2882  0.1019 -0.3100
 9470SOL    HW139869   4.442   2.811   5.933 -0.2971 -2.1944 -1.4929
 9470SOL    HW239870   4.544   2.760   6.022 -0.6721  1.4335  0.2015
 9471SOL     OW39871   0.479   3.584   9.183 -0.1507 -0.1232  0.0594
 9471SOL    HW139872   0.552   3.533   9.218  0.5990  1.8403  1.3635
 9471SOL    HW239873   0.438   3.511   9.137 -2.0329  2.1510 -1.9302
 9472SOL     OW39874   3.438   2.830   3.080 -0.2998 -0.6345 -0.4499
 9472SOL    HW139875   3.518   2.842   3.030 -0.1484 -0.1541 -0.0954
 9472SOL    HW239876   3.391   2.914   3.086  0.7424 -0.1111  0.3828
 9473SOL     OW39877   4.413   1.350   8.527  0.0430  0.4794  0.5630
 9473SOL    HW139878   4.419   1.301   8.609  1.5350  0.6540  0.5546
 9473SOL    HW239879   4.318   1.350   8.521  0.1662 -0.6824 -1.6389
 9474SOL     OW39880   3.724   0.452  14.167  0.1698 -0.4382 -0.2029
 9474SOL    HW139881   3.668   0.520  14.129 -0.2586  0.3112  1.7549
 9474SOL    HW239882   3.680   0.423  14.247  1.7944  0.3483  0.9711
 9475SOL     OW39883   2.212   0.269  13.816 -0.3622  0.1163  0.0717
 9475SOL    HW139884   2.156   0.215  13.872 -0.0416 -0.9708 -0.6504
 9475SOL    HW239885   2.150   0.296  13.747 -0.5894 -0.6623 -0.0254
 9476SOL     OW39886   2.177   4.542   0.406  0.3368  0.2365 -0.1930
 9476SOL    HW139887   2.179   4.557   0.311 -1.9961 -0.0715 -0.3095
 9476SOL    HW239888   2.109   4.475   0.411  0.1980  0.4278  0.4469
 9477SOL     OW39889   3.365   2.849   4.118 -0.5058  0.2826 -0.0221
 9477SOL    HW139890   3.446   2.818   4.158 -0.8144 -2.3144 -1.4026
 9477SOL    HW239891   3.313   2.771   4.101 -2.5010  2.3769 -3.3941
 9478SOL     OW39892   3.150   2.988  11.983  0.1748 -0.9339  0.1079
 9478SOL    HW139893   3.167   2.905  12.026 -2.1026 -1.0221  0.8244
 9478SOL    HW239894   3.103   3.035  12.053  3.3688  2.3836  0.0113
 9479SOL     OW39895   0.308   0.373   6.027  0.0183  0.2015 -0.0740
 9479SOL    HW139896   0.239   0.417   5.977 -0.2383 -0.0659  0.0428
 9479SOL    HW239897   0.377   0.377   5.960  1.7881 -0.2359  1.7192
 9480SOL     OW39898   3.388   2.912   6.669  0.3323  0.2329  0.6502
 9480SOL    HW139899   3.308   2.868   6.697  0.8909  0.3342  2.4038
 9480SOL    HW239900   3.359   2.949   6.585  0.4525 -0.4334  0.3166
 9481SOL     OW39901   2.907   1.612   2.608 -0.4671 -0.1819  0.0853
 9481SOL    HW139902   2.866   1.682   2.556 -0.4747 -0.0503  0.2711
 9481SOL    HW239903   2.938   1.670   2.677  1.0216 -2.2839  1.1630
 9482SOL     OW39904   1.044   0.917   3.313 -0.2466 -0.0234 -0.2451
 9482SOL    HW139905   1.024   0.873   3.231 -1.1752 -0.4853  0.2246
 9482SOL    HW239906   1.008   1.004   3.296 -1.7880 -0.9150 -1.5557
 9483SOL     OW39907   2.789   2.904   9.012 -0.6332 -0.0449  0.3338
 9483SOL    HW139908   2.874   2.861   9.002 -0.1471  0.6820  1.3221
 9483SOL    HW239909   2.770   2.932   8.923  2.8828  1.1070 -0.0347
 9484SOL     OW39910   4.150   3.151  11.049 -0.4762 -0.0434 -0.2174
 9484SOL    HW139911   4.082   3.097  11.089 -2.3811  2.7950  0.3562
 9484SOL    HW239912   4.215   3.086  11.022 -0.3546  0.8403 -2.0248
 9485SOL     OW39913   3.790   2.949   7.368 -0.4245  0.0806  0.5520
 9485SOL    HW139914   3.729   2.900   7.423 -0.1267  0.4908  1.2418
 9485SOL    HW239915   3.731   3.014   7.330  0.6604  0.0601 -1.1859
 9486SOL     OW39916   1.185   0.531   3.573  0.3434 -0.2149 -0.3121
 9486SOL    HW139917   1.102   0.506   3.614  0.8533 -0.2401  0.7097
 9486SOL    HW239918   1.203   0.616   3.614 -1.8033  0.7514 -1.3691
 9487SOL     OW39919   1.950   1.449   1.700  0.9579 -0.5889 -0.0742
 9487SOL    HW139920   1.893   1.459   1.777  0.5841 -3.6266  0.0310
 9487SOL    HW239921   2.008   1.525   1.705  0.6357 -0.5611  3.3730
 9488SOL     OW39922   1.275   1.461   7.493  0.4024 -0.0576 -0.2776
 9488SOL    HW139923   1.216   1.530   7.524 -1.1380 -1.2289 -0.5603
 9488SOL    HW239924   1.208   1.393   7.478  2.0620 -1.7565  0.0462
 9489SOL     OW39925   2.346   1.799   2.853 -0.3227  0.8618  0.2011
 9489SOL    HW139926   2.259   1.838   2.851 -0.7397  0.0026  1.6047
 9489SOL    HW239927   2.356   1.781   2.760 -0.6966 -2.5766  0.8182
 9490SOL     OW39928   4.696   3.915   8.910  0.4402 -0.7409  0.1693
 9490SOL    HW139929   4.684   3.890   9.002  3.1261  2.7106  1.4970
 9490SOL    HW239930   4.614   3.963   8.897  0.3050 -0.9062  0.3986
 9491SOL     OW39931   3.749   2.682   1.338  0.0623 -0.1382 -0.4628
 9491SOL    HW139932   3.672   2.637   1.302  2.2251 -3.6026 -0.7549
 9491SOL    HW239933   3.799   2.607   1.370  0.0481 -0.7379 -1.8404
 9492SOL     OW39934   3.029   0.457  13.492  0.5111 -0.6879  0.0915
 9492SOL    HW139935   3.014   0.442  13.586 -0.9291  0.6933  0.0701
 9492SOL    HW239936   3.087   0.383  13.475  1.2081 -0.2745  0.6490
 9493SOL     OW39937   0.429   1.758  12.236 -0.4334 -0.9504  0.2124
 9493SOL    HW139938   0.475   1.829  12.281  0.9365 -1.1163 -0.9384
 9493SOL    HW239939   0.479   1.683  12.267 -0.0118 -1.1785 -1.0300
 9494SOL     OW39940   3.079   2.752   0.042 -0.2561 -0.0211 -0.3451
 9494SOL    HW139941   3.122   2.816   0.099 -1.0436  0.0430  0.1834
 9494SOL    HW239942   3.084   2.679   0.104  1.7453 -1.7289 -2.5135
 9495SOL     OW39943   1.246   4.182   6.004 -0.2340 -0.0307 -0.2400
 9495SOL    HW139944   1.200   4.176   6.088 -1.2860 -2.0617 -0.9611
 9495SOL    HW239945   1.302   4.107   6.024  0.5354 -0.0338 -2.4282
 9496SOL     OW39946   0.869   0.560   2.765 -0.5704  0.1442 -0.0135
 9496SOL    HW139947   0.841   0.473   2.737 -0.6653  0.3708 -0.6413
 9496SOL    HW239948   0.926   0.539   2.838  0.8559 -1.4980 -1.5903
 9497SOL     OW39949   4.591   3.014   2.831  0.4379 -0.2758  0.0976
 9497SOL    HW139950   4.644   2.968   2.897 -1.3503  0.6376  2.1593
 9497SOL    HW239951   4.639   2.997   2.750  0.3308  0.3717 -0.1029
 9498SOL     OW39952   4.304   4.474  12.536 -0.2057 -0.4115  0.2035
 9498SOL    HW139953   4.399   4.482  12.535 -0.1792 -0.9309 -1.6165
 9498SOL    HW239954   4.281   4.413  12.606  2.3600 -1.9801 -0.3455
 9499SOL     OW39955   0.371   3.249   5.215 -0.2503  0.7534 -0.0444
 9499SOL    HW139956   0.451   3.222   5.171  1.0090  3.0643  0.8008
 9499SOL    HW239957   0.407   3.300   5.288 -0.0801  0.1453  0.3023
 9500SOL     OW39958   2.605   4.537   5.468  0.0824  0.6968  0.0971
 9500SOL    HW139959   2.583   4.630   5.461 -1.0067  0.5361  1.4167
 9500SOL    HW239960   2.533   4.494   5.515 -1.3440 -0.5688 -3.2315
 9501SOL     OW39961   4.572   2.518   3.406 -0.2137 -0.1923  0.2189
 9501SOL    HW139962   4.620   2.436   3.390 -0.2492 -0.3048  0.6941
 9501SOL    HW239963   4.528   2.543   3.325 -2.0837 -1.5546  0.8023
 9502SOL     OW39964   4.176   0.184   4.154  0.1115 -0.1096 -0.2578
 9502SOL    HW139965   4.133   0.264   4.122 -2.7646 -0.9255  1.6032
 9502SOL    HW239966   4.118   0.113   4.126  0.2447 -0.2789 -0.1021
 9503SOL     OW39967   3.349   0.772   6.030  0.1196  0.1282  0.3690
 9503SOL    HW139968   3.260   0.798   6.008  0.6306  0.8771 -0.8388
 9503SOL    HW239969   3.343   0.716   6.107  1.2175  0.3574  0.6214
 9504SOL     OW39970   4.685   2.727   1.804 -0.0554  0.5515 -0.2601
 9504SOL    HW139971   0.035   2.685   1.757  0.8123  1.2703  0.4237
 9504SOL    HW239972   4.619   2.658   1.809 -1.2001  1.6134 -0.3885
 9505SOL     OW39973   4.145   2.442   3.704 -0.0961  0.2868 -0.2011
 9505SOL    HW139974   4.198   2.448   3.783  3.2694 -1.0059 -2.3558
 9505SOL    HW239975   4.195   2.372   3.661 -1.0553 -0.5788  0.0799
 9506SOL     OW39976   2.053   2.311   9.530 -0.7177 -1.0304  0.0779
 9506SOL    HW139977   2.112   2.277   9.598  1.3663  2.6795  0.1187
 9506SOL    HW239978   2.106   2.295   9.452 -0.3903  2.2659 -0.3826
 9507SOL     OW39979   0.895   0.384   1.792  0.2954 -0.1397 -0.3422
 9507SOL    HW139980   0.980   0.369   1.834  1.8180 -0.2852 -3.4577
 9507SOL    HW239981   0.843   0.317   1.836 -1.5573  0.2641 -1.9009
 9508SOL     OW39982   0.900   2.148   4.661 -0.3088  0.6651 -0.2636
 9508SOL    HW139983   0.832   2.200   4.703 -1.1403 -1.1784  0.6756
 9508SOL    HW239984   0.981   2.195   4.681 -0.4399  1.1039 -0.7698
 9509SOL     OW39985   3.968   3.364   4.143 -0.4802 -0.3161  0.5671
 9509SOL    HW139986   3.897   3.333   4.200 -0.7514  0.0552  0.4316
 9509SOL    HW239987   4.019   3.409   4.210  0.9899 -1.9346  0.5515
 9510SOL     OW39988   4.078   4.235   0.925 -0.8045 -0.3006 -0.3231
 9510SOL    HW139989   4.033   4.247   0.841 -0.5394 -0.8108 -0.5447
 9510SOL    HW239990   4.111   4.146   0.908  0.0227  0.0088 -0.3267
 9511SOL     OW39991   3.432   3.099  15.016 -0.3238  0.4262 -0.0945
 9511SOL    HW139992   3.523   3.122  15.033 -0.5681  0.7414  0.7754
 9511SOL    HW239993   3.437   3.098  14.920  1.6229  0.1943  0.0044
 9512SOL     OW39994   2.281   0.820   1.112 -0.3167  0.2502  0.0658
 9512SOL    HW139995   2.289   0.744   1.170 -1.4039  1.0378  1.2500
 9512SOL    HW239996   2.223   0.872   1.168 -0.2841  0.9813 -0.5792
 9513SOL     OW39997   3.327   1.153   5.520  0.5370  0.5150 -0.4297
 9513SOL    HW139998   3.249   1.201   5.491  0.4680  1.2190  0.9063
 9513SOL    HW239999   3.373   1.214   5.577 -1.0614 -0.4572  1.9215
 9514SOL     OW40000   2.596   3.526   2.222 -0.3028  0.9045 -0.2072
 9514SOL    HW140001   2.633   3.612   2.203 -0.1552  0.8207 -0.2959
 9514SOL    HW240002   2.520   3.561   2.268 -0.5403  0.4518 -0.2515
 9515SOL     OW40003   3.340   2.738  17.108 -0.3388 -0.0660 -0.0756
 9515SOL    HW140004   3.432   2.735  17.135 -0.0305  0.8807 -1.0027
 9515SOL    HW240005   3.355   2.710  17.018 -0.6465 -1.3646  0.2769
 9516SOL     OW40006   3.202   0.654  11.561 -0.3017  0.2266  0.6186
 9516SOL    HW140007   3.291   0.688  11.549 -0.0494 -1.2711 -1.8228
 9516SOL    HW240008   3.180   0.636  11.469 -3.2123 -1.1045  1.5769
 9517SOL     OW40009   0.615   2.940   7.169 -0.2247 -0.0345 -0.4734
 9517SOL    HW140010   0.585   2.882   7.099 -0.3032 -0.2343 -0.2733
 9517SOL    HW240011   0.625   2.878   7.241 -2.4053  2.0175  1.6134
 9518SOL     OW40012   4.177   4.477   5.453  0.3501  0.7800  0.1076
 9518SOL    HW140013   4.263   4.500   5.418  0.1432  1.4957  0.0709
 9518SOL    HW240014   4.129   4.542   5.403 -1.2071 -1.5815 -1.4838
 9519SOL     OW40015   2.101   3.062   2.904  0.4960  0.8985 -0.6276
 9519SOL    HW140016   2.122   2.969   2.894  2.3758  1.5131 -2.4715
 9519SOL    HW240017   2.076   3.085   2.814 -2.7958 -1.7799 -0.4058
 9520SOL     OW40018   2.550   1.928   8.299  0.1446  0.0202 -0.0529
 9520SOL    HW140019   2.601   1.862   8.253  0.8592  0.6121 -0.1092
 9520SOL    HW240020   2.609   1.966   8.364 -1.1489  1.1836  0.4314
 9521SOL     OW40021   0.522   2.034  16.692  0.0724 -0.4825  0.2697
 9521SOL    HW140022   0.520   1.998  16.781  3.9735  1.3383  1.0950
 9521SOL    HW240023   0.580   1.972  16.649  0.9572  0.2129  0.4503
 9522SOL     OW40024   3.668   4.064   6.301 -0.3657 -0.2952 -0.0789
 9522SOL    HW140025   3.604   4.129   6.328 -0.9520 -1.4444  1.2827
 9522SOL    HW240026   3.637   3.988   6.350  1.7683 -2.1894 -1.6253
 9523SOL     OW40027   2.590   4.346   8.245  0.6680 -0.0349  0.3398
 9523SOL    HW140028   2.510   4.398   8.258 -0.2238 -1.2335 -0.3933
 9523SOL    HW240029   2.584   4.280   8.313  0.2553 -0.9445 -0.5763
 9524SOL     OW40030   2.603   2.486   0.265  0.3434 -0.2285  0.1195
 9524SOL    HW140031   2.630   2.435   0.189 -0.5210 -0.4858 -0.0220
 9524SOL    HW240032   2.616   2.575   0.233 -3.4317  0.7487  1.2931
 9525SOL     OW40033   2.732   1.330  12.516 -0.0561  0.6138 -0.2064
 9525SOL    HW140034   2.784   1.326  12.596 -1.7292  2.0930  0.9489
 9525SOL    HW240035   2.665   1.395  12.538  0.0391  0.2040  1.3056
 9526SOL     OW40036   3.437   0.798   6.754  0.3224  0.6896  0.1714
 9526SOL    HW140037   3.406   0.826   6.668  3.0734  1.3321 -0.6223
 9526SOL    HW240038   3.400   0.710   6.756  0.8898  0.4014 -1.6820
 9527SOL     OW40039   2.744   0.752   3.036 -0.7103 -0.1470 -0.3760
 9527SOL    HW140040   2.735   0.791   2.949  1.3347 -0.1038 -0.5579
 9527SOL    HW240041   2.672   0.796   3.081  0.2383  0.9090  0.0958
 9528SOL     OW40042   3.374   1.887  14.502  0.5092  0.2818 -0.3195
 9528SOL    HW140043   3.375   1.967  14.449  0.4555  0.3571 -0.2083
 9528SOL    HW240044   3.461   1.848  14.496  0.6573  0.7259 -1.0028
 9529SOL     OW40045   2.512   3.703  16.789  0.0256 -0.0589  1.0191
 9529SOL    HW140046   2.511   3.772  16.722  1.2237 -0.0250  1.0479
 9529SOL    HW240047   2.464   3.736  16.866 -0.7256 -1.2703  1.0744
 9530SOL     OW40048   1.615   4.662   3.568 -0.0957 -0.0238  0.1496
 9530SOL    HW140049   1.567   4.599   3.620  1.2649 -1.3337 -0.2007
 9530SOL    HW240050   1.563   4.676   3.488  2.0595  0.0338 -1.2597
 9531SOL     OW40051   4.586   3.799   6.096 -0.3243 -0.5076 -0.1790
 9531SOL    HW140052   4.495   3.799   6.124  0.0911  0.7982  1.1543
 9531SOL    HW240053   4.581   3.769   6.005  1.3618  3.3529 -1.5450
 9532SOL     OW40054   1.914   1.477   4.553  0.6413 -0.0394  0.4932
 9532SOL    HW140055   1.922   1.382   4.546  0.1767 -0.0504  0.1143
 9532SOL    HW240056   1.938   1.495   4.462  1.2235  0.2361  0.7002
 9533SOL     OW40057   3.415   2.421   2.476  0.5215 -0.5739  0.3392
 9533SOL    HW140058   3.460   2.446   2.395 -0.8164  0.2832 -0.1345
 9533SOL    HW240059   3.385   2.333   2.454 -1.6290  0.5942 -1.4082
 9534SOL     OW40060   1.407   0.329   9.504 -0.5143  0.1186  0.2830
 9534SOL    HW140061   1.445   0.372   9.428  1.4646 -1.5413  0.3521
 9534SOL    HW240062   1.347   0.399   9.532 -0.3595  0.5306 -0.4368
 9535SOL     OW40063   4.066   3.083   1.619 -0.3077 -0.5084 -0.1048
 9535SOL    HW140064   4.025   3.114   1.699  1.1913 -0.6194  0.7073
 9535SOL    HW240065   4.034   2.992   1.617  2.5318 -1.5301  1.3717
 9536SOL     OW40066   2.949   3.982   8.370 -0.1313  0.8321 -0.6207
 9536SOL    HW140067   2.990   3.900   8.342  2.1075  1.1403  1.7321
 9536SOL    HW240068   2.865   3.968   8.326  0.8765 -0.7889 -2.0166
 9537SOL     OW40069   0.086   4.584  15.101 -0.2676 -0.3585 -0.5069
 9537SOL    HW140070   0.112   4.493  15.086 -1.4896 -1.0001  1.1646
 9537SOL    HW240071   0.023   4.574  15.173 -0.1107 -1.4314 -0.5122
 9538SOL     OW40072   0.552   2.228   6.945 -0.4101 -0.5649  0.0822
 9538SOL    HW140073   0.647   2.239   6.948 -0.4579  0.0356 -0.5610
 9538SOL    HW240074   0.511   2.304   6.904  0.0747 -0.8565 -0.9406
 9539SOL     OW40075   1.705   0.362   8.571 -0.0514 -0.3807 -0.3658
 9539SOL    HW140076   1.757   0.416   8.511  0.1279 -0.2965 -0.1343
 9539SOL    HW240077   1.636   0.326   8.516  0.0494 -0.4629 -0.4369
 9540SOL     OW40078   1.726   0.915   4.489 -0.3332  0.2395 -0.5000
 9540SOL    HW140079   1.642   0.871   4.481 -0.0614 -0.3027 -0.3796
 9540SOL    HW240080   1.723   0.980   4.419 -2.2784  1.1507  0.4590
 9541SOL     OW40081   1.357   2.875   5.942 -0.0315  0.3957 -0.2409
 9541SOL    HW140082   1.407   2.956   5.955  0.0635  0.4696 -1.0254
 9541SOL    HW240083   1.271   2.911   5.962  0.1521  0.3353  0.6441
 9542SOL     OW40084   3.852   4.284   7.333  0.1878  0.6323 -0.0151
 9542SOL    HW140085   3.803   4.362   7.361 -1.6582 -0.8426  0.8605
 9542SOL    HW240086   3.806   4.250   7.257  0.8060 -2.2323  0.8833
 9543SOL     OW40087   0.628   2.925   2.207 -0.9419  0.1291  0.5905
 9543SOL    HW140088   0.705   2.877   2.180 -1.6192  0.0274 -1.1787
 9543SOL    HW240089   0.560   2.879   2.157 -0.8918  0.2179  0.4411
 9544SOL     OW40090   3.177   3.531  16.852  0.2216  0.0695  0.2417
 9544SOL    HW140091   3.202   3.544  16.944  1.0240  2.3133 -0.3023
 9544SOL    HW240092   3.139   3.618  16.842  0.9146  0.2515 -0.7318
 9545SOL     OW40093   1.740   0.422  10.436  0.3718 -0.2873 -0.0888
 9545SOL    HW140094   1.704   0.476  10.365  0.6436 -0.1367 -0.1105
 9545SOL    HW240095   1.732   0.335  10.396  1.1066 -0.1369 -0.5597
 9546SOL     OW40096   1.558   1.289   4.002  0.1055 -0.5166 -0.4061
 9546SOL    HW140097   1.474   1.274   4.045  0.4664 -2.8451 -0.5062
 9546SOL    HW240098   1.590   1.367   4.046 -1.3132 -1.5205  2.4146
 9547SOL     OW40099   4.532   3.988   7.654  0.2005 -0.0276 -0.2305
 9547SOL    HW140100   4.516   3.894   7.651  3.7601 -0.7273  2.5128
 9547SOL    HW240101   4.619   3.972   7.691 -1.2068 -0.7146  2.7742
 9548SOL     OW40102   2.682   2.254   1.487 -0.3124  0.3626  0.0686
 9548SOL    HW140103   2.639   2.330   1.526 -1.1133 -0.5424  0.9637
 9548SOL    HW240104   2.775   2.274   1.490 -0.2694 -0.0430  1.6211
 9549SOL     OW40105   4.343   1.611  15.823  0.2376  0.2146  0.3027
 9549SOL    HW140106   4.423   1.568  15.794 -0.4838 -0.0024 -1.3360
 9549SOL    HW240107   4.391   1.678  15.871  0.3632 -0.2135  0.7826
 9550SOL     OW40108   4.644   2.561   8.048  0.0536  0.0981  0.0834
 9550SOL    HW140109   0.009   2.552   8.089  1.0079  4.4470 -0.9494
 9550SOL    HW240110   4.630   2.473   8.014  2.2308 -0.1260 -0.2330
 9551SOL     OW40111   2.316   2.275   2.238 -0.1058 -0.0466  0.3472
 9551SOL    HW140112   2.254   2.206   2.262  0.7584 -1.4478 -1.4728
 9551SOL    HW240113   2.274   2.322   2.166 -1.1866  0.8118  1.5324
 9552SOL     OW40114   2.213   3.615   8.232  0.6546  0.0422  0.2276
 9552SOL    HW140115   2.291   3.573   8.269 -0.4815 -1.2297  1.1409
 9552SOL    HW240116   2.176   3.650   8.313  1.4121  0.4031  0.4185
 9553SOL     OW40117   4.357   2.863   8.842  0.7030  0.3968  0.1995
 9553SOL    HW140118   4.283   2.881   8.785  0.2319  0.2287  0.7554
 9553SOL    HW240119   4.308   2.853   8.924 -0.2354 -0.1388 -0.4264
 9554SOL     OW40120   1.098   4.560  11.075 -0.1870  0.4010  0.4211
 9554SOL    HW140121   1.042   4.579  11.000 -0.2612  2.5114  1.0088
 9554SOL    HW240122   1.068   4.620  11.143 -1.3340  2.0379 -1.5476
 9555SOL     OW40123   2.138   3.958   8.385  0.4421  0.1160  0.2360
 9555SOL    HW140124   2.138   3.910   8.467 -1.3327 -1.0025 -0.3936
 9555SOL    HW240125   2.229   3.987   8.387  0.2308  0.7531  0.3978
 9556SOL     OW40126   1.626   4.098   5.797 -0.5211 -0.4764  0.3982
 9556SOL    HW140127   1.607   4.091   5.704 -0.5552 -2.0687  0.5113
 9556SOL    HW240128   1.714   4.059   5.803 -0.1590 -0.1475 -2.9128
 9557SOL     OW40129   4.607   2.211  10.540  0.8528 -0.3355 -0.1043
 9557SOL    HW140130   4.701   2.198  10.527  0.4910 -0.9940 -2.2228
 9557SOL    HW240131   4.602   2.243  10.630  0.5259  1.2447 -0.6836
 9558SOL     OW40132   3.248   0.292   0.396 -0.3190 -0.5418 -0.0053
 9558SOL    HW140133   3.194   0.300   0.317 -0.2621 -2.1286 -0.2091
 9558SOL    HW240134   3.187   0.329   0.460 -0.0674  1.0508 -0.6667
 9559SOL     OW40135   2.666   1.726   8.157 -0.2294  0.2444 -0.7086
 9559SOL    HW140136   2.626   1.639   8.155  1.2428 -0.4470 -0.1892
 9559SOL    HW240137   2.755   1.690   8.161 -0.4869 -0.2816  0.4097
 9560SOL     OW40138   3.704   1.176   6.768 -0.5791  0.7693 -0.1255
 9560SOL    HW140139   3.632   1.174   6.831  0.5053  1.8873  1.1518
 9560SOL    HW240140   3.723   1.267   6.746  1.2227 -0.2214 -2.6548
 9561SOL     OW40141   1.591   2.111   4.517  0.3365  0.5579  0.5325
 9561SOL    HW140142   1.566   2.203   4.526 -1.0499  0.1654  0.6798
 9561SOL    HW240143   1.511   2.083   4.472  0.9097  2.2427 -1.5501
 9562SOL     OW40144   2.589   0.135   6.588 -0.2810  0.1791 -1.0635
 9562SOL    HW140145   2.643   0.063   6.621 -3.1950 -0.1340  2.9874
 9562SOL    HW240146   2.528   0.154   6.659  1.4934 -0.3125  0.6064
 9563SOL     OW40147   3.015   1.711  11.586  0.6058 -0.4588 -0.6787
 9563SOL    HW140148   3.019   1.687  11.679 -2.7401 -1.0172 -0.6764
 9563SOL    HW240149   2.943   1.774  11.594 -0.0852 -0.9545 -3.0157
 9564SOL     OW40150   0.806   1.398   4.045  0.4299  0.0905 -0.1390
 9564SOL    HW140151   0.774   1.486   4.067  2.4019  0.6835  0.3288
 9564SOL    HW240152   0.901   1.406   4.053  0.3937 -1.5554  1.8334
 9565SOL     OW40153   3.761   1.197   6.471  0.1687 -0.0014  0.1077
 9565SOL    HW140154   3.853   1.198   6.445  0.4055  0.0753  0.9445
 9565SOL    HW240155   3.762   1.145   6.552 -1.4815 -1.1199 -0.5951
   4.72109   4.72109  17.68679
