Membrane in water
40155
    1TCq1    O1    1   1.073   0.162  10.255 -0.1807 -0.6269  0.3848
    1TCq1    C1    2   1.066   0.252  10.357  0.5585  0.4609 -0.1099
    1TCq1    O2    3   1.156   0.309  10.415  1.0455  0.0436 -0.2420
    1TCq1    C2    4   0.925   0.276  10.380 -0.6171 -0.6568  0.0746
    1TCq1    C3    5   0.827   0.258  10.282  0.3472  1.0249  0.1492
    1TCq1    C4    6   0.693   0.271  10.319 -1.2600 -0.1412  0.1871
    1TCq1    C5    7   0.653   0.302  10.447  0.0002  0.4553  0.5014
    1TCq1    C6    8   0.755   0.328  10.533  0.2100  0.4025  0.5682
    1TCq1    C7    9   0.888   0.311  10.505 -0.1256 -0.1632 -0.4459
    1TCq1    C8   10   0.711   0.322  10.675  0.2762  0.5229 -0.7243
    1TCq1    O4   11   0.593   0.325  10.702  0.1030 -0.1957  0.0564
    1TCq1    C9   12   0.601   0.236  10.214 -0.0968 -0.1130 -0.1395
    1TCq1    O5   13   0.642   0.141  10.144  0.7698 -0.3679  0.0526
    1TCq1    O6   14   0.480   0.270  10.228 -0.2347  0.4477 -0.0206
    1TCq1    H1   15   0.993   0.108  10.244  1.4681 -2.9169 -0.2887
    1TCq1    H2   16   0.855   0.245  10.178  0.8569 -0.6474  0.4986
    1TCq1    H3   17   0.550   0.301  10.480 -0.3839 -1.3856 -0.7515
    1TCq1    H4   18   0.964   0.319  10.582  1.1793 -2.6841 -1.4759
    2MPD2     C   19   0.816   0.357  11.173  0.5492  0.0219  0.4041
    2MPD2    C1   20   0.695   0.329  11.112 -0.4100  0.3305 -0.3904
    2MPD2    C2   21   0.685   0.339  10.972  0.3676  0.1255 -0.0045
    2MPD2    C3   22   0.799   0.355  10.897 -0.0599  0.5364  0.2710
    2MPD2    C4   23   0.918   0.381  10.960  0.0683  0.5564 -0.4970
    2MPD2    C5   24   0.924   0.390  11.095 -0.0101  0.3392 -0.3046
    2MPD2     H   25   0.588   0.325  10.925  0.2861  0.7087 -0.0078
    2MPD2    H1   26   1.008   0.404  10.904  2.0957 -1.8446  1.7620
    2MPD2    H2   27   0.820   0.353  11.281 -0.6939 -0.4157  0.4398
    2MPD2    H3   28   1.015   0.428  11.142  0.1478  2.0937 -2.0063
    2MPD2     N   29   0.812   0.348  10.762  0.1527 -0.2947 -0.4707
    2MPD2    H5   30   0.903   0.371  10.722 -0.1959  0.8796 -0.5966
    2MPD2    N1   31   0.575   0.316  11.179 -0.0401 -0.6234  0.4812
    2MPD2    H7   32   0.485   0.329  11.132 -0.8850 -1.2802  1.8994
    3TCq1    O1   33   0.100   4.692  10.804  0.0616 -0.0447  0.3642
    3TCq1    C1   34   0.001   0.020  10.877 -0.0948 -0.2662  0.0755
    3TCq1    O2   35   4.674   4.697  10.981  0.3809 -0.7987  0.1333
    3TCq1    C2   36   4.682   0.151  10.827  0.5712 -0.4046 -0.5801
    3TCq1    C3   37   0.028   0.210  10.727  0.1558  0.0730 -0.0831
    3TCq1    C4   38   0.025   0.345  10.726  0.4150  0.4879  0.1197
    3TCq1    C5   39   4.670   0.424  10.816 -0.1973  0.4113 -0.0562
    3TCq1    C6   40   4.596   0.360  10.911  0.4891  0.1318  0.2317
    3TCq1    C7   41   4.609   0.225  10.915  0.4012  0.7538 -0.0940
    3TCq1    C8   42   4.484   0.428  10.978  0.0373  0.2801  1.0562
    3TCq1    O4   43   4.407   0.354  11.031  0.5757  0.0479 -0.2981
    3TCq1    C9   44   0.099   0.408  10.616  0.5758 -0.4723  0.6579
    3TCq1    O5   45   0.191   0.342  10.559  0.0255  0.2641  0.2077
    3TCq1    O6   46   0.031   0.501  10.570 -0.5051  0.5290  0.2100
    3TCq1    H1   47   0.105   4.706  10.707  0.4966  1.9379  0.6722
    3TCq1    H2   48   0.092   0.160  10.655  1.1188  1.2279 -0.0190
    3TCq1    H3   49   4.658   0.528  10.790 -0.4130 -0.1554 -2.2837
    3TCq1    H4   50   4.556   0.172  10.993 -0.5993  1.6021 -0.2079
    4MPD2     C   51   4.319   0.826  11.246  0.2655 -0.5967 -0.3233
    4MPD2    C1   52   4.392   0.875  11.144 -0.1226  0.3473 -0.0656
    4MPD2    C2   53   4.443   0.782  11.047 -0.3814  0.2725 -1.0133
    4MPD2    C3   54   4.422   0.646  11.058 -0.1887 -0.2008 -0.0562
    4MPD2    C4   55   4.353   0.598  11.167 -0.2204  0.2516 -0.5796
    4MPD2    C5   56   4.300   0.689  11.255 -0.0123  0.0310  0.0032
    4MPD2     H   57   4.511   0.826  10.975 -0.5049  1.6468 -0.2899
    4MPD2    H1   58   4.340   0.492  11.182 -0.0494  0.3420  0.2074
    4MPD2    H2   59   4.299   0.886  11.335  0.7986 -0.5627 -0.2267
    4MPD2    H3   60   4.251   0.657  11.346 -1.9745 -0.5104 -1.2496
    4MPD2     N   61   4.484   0.562  10.963  0.0012 -0.7692  0.2095
    4MPD2    H5   62   4.529   0.602  10.881  0.3228 -1.6172 -0.0305
    4MPD2    N1   63   4.446   1.014  11.142 -0.0561 -0.2480 -0.3624
    4MPD2    H7   64   4.510   1.047  11.070 -0.3821 -0.3193 -0.6856
    5TCq1    O1   65   4.283   3.207  10.547 -0.1041  0.3120 -0.6268
    5TCq1    C1   66   4.204   3.099  10.543  0.9097  0.9137  0.0104
    5TCq1    O2   67   4.129   3.070  10.454  0.5180 -0.1148  0.3755
    5TCq1    C2   68   4.233   3.023  10.661 -0.2613 -0.3090  0.7060
    5TCq1    C3   69   4.127   2.961  10.733 -0.1984  0.7105 -0.4208
    5TCq1    C4   70   4.166   2.871  10.830 -0.1461  0.3434 -0.7920
    5TCq1    C5   71   4.290   2.848  10.862 -0.5061  0.0792 -0.0089
    5TCq1    C6   72   4.389   2.913  10.795 -1.0642  0.1044 -0.1544
    5TCq1    C7   73   4.362   3.001  10.694 -0.2011 -0.2529 -0.2116
    5TCq1    C8   74   4.530   2.869  10.812  0.5232 -0.2634  0.1779
    5TCq1    O4   75   4.549   2.759  10.862 -0.0081 -0.0941 -0.1448
    5TCq1    C9   76   4.063   2.801  10.905 -0.8710  0.4486 -0.3725
    5TCq1    O5   77   3.949   2.852  10.890  0.2136 -0.3733 -0.4810
    5TCq1    O6   78   4.101   2.723  10.994  0.0715 -0.0024 -0.3993
    5TCq1    H1   79   4.316   3.217  10.639  1.8195 -1.3101 -1.1401
    5TCq1    H2   80   4.027   2.969  10.693 -0.2136 -1.6048 -0.8391
    5TCq1    H3   81   4.312   2.759  10.919  1.5231  0.9383  0.5761
    5TCq1    H4   82   4.434   3.027  10.617 -0.8937  1.6283 -0.2185
    6MPD2     C   83   0.112   3.054  10.734  0.1097 -0.2599 -0.5874
    6MPD2    C1   84   0.039   2.942  10.769 -0.0527  0.7252 -0.2392
    6MPD2    C2   85   0.105   2.819  10.781 -0.0450 -0.4773  0.0759
    6MPD2    C3   86   0.240   2.811  10.768  0.9378 -0.2841  1.0788
    6MPD2    C4   87   0.314   2.918  10.730  0.4116 -0.5361  0.1819
    6MPD2    C5   88   0.248   3.044  10.724  0.2526 -0.6186  0.0194
    6MPD2     H   89   0.046   2.732  10.807 -0.3526 -1.1164 -2.7485
    6MPD2    H1   90   0.417   2.914  10.696  0.6005 -0.1539  0.7136
    6MPD2    H2   91   0.058   3.143  10.701 -1.6673 -0.8218  0.8020
    6MPD2    H3   92   0.305   3.135  10.705 -2.0183  0.3422 -2.2119
    6MPD2     N   93   0.293   2.681  10.775  0.2979 -0.0122 -0.6563
    6MPD2    H5   94   0.229   2.604  10.791  1.8806 -1.2487 -0.2477
    6MPD2    N1   95   4.623   2.964  10.790  0.0502 -0.5259  0.2086
    6MPD2    H7   96   4.582   3.057  10.782  0.6984 -0.1814  0.8587
    7TCq1    O1   97   2.418   2.584  12.612 -0.3221  0.2581  0.6069
    7TCq1    C1   98   2.359   2.506  12.709 -0.0791  0.0519  0.1789
    7TCq1    O2   99   2.356   2.382  12.710 -0.2973 -0.1276  0.4004
    7TCq1    C2  100   2.373   2.573  12.836  0.2359  0.1109 -0.3616
    7TCq1    C3  101   2.400   2.705  12.863  0.7082 -1.1169 -0.5576
    7TCq1    C4  102   2.416   2.749  12.991  0.4477  0.3351 -0.0322
    7TCq1    C5  103   2.406   2.663  13.094 -0.4154 -0.2497  0.2072
    7TCq1    C6  104   2.401   2.530  13.064  0.4105  0.0286 -0.4513
    7TCq1    C7  105   2.372   2.478  12.940 -0.2367 -0.6445 -0.4686
    7TCq1    C8  106   2.449   2.436  13.158 -0.1748  0.7448 -0.5072
    7TCq1    O4  107   2.422   2.319  13.142  0.1545  0.0470 -0.3130
    7TCq1    C9  108   2.427   2.892  13.014  0.1775  0.6436 -0.1953
    7TCq1    O5  109   2.444   2.968  12.913 -0.3251 -0.4878  0.5606
    7TCq1    O6  110   2.471   2.917  13.130 -0.1959  0.2127  0.1870
    7TCq1    H1  111   2.408   2.677  12.642  1.7391  0.6982 -0.0442
    7TCq1    H2  112   2.401   2.773  12.778 -0.9562  1.4686  1.4968
    7TCq1    H3  113   2.410   2.708  13.192 -1.8994  2.3886 -0.9477
    7TCq1    H4  114   2.370   2.371  12.923 -0.4984 -0.5371 -1.1523
    8MPD2     C  115   2.782   2.288  13.523 -0.7776  0.4073  0.0044
    8MPD2    C1  116   2.672   2.219  13.460 -0.9116  0.0429 -0.0727
    8MPD2    C2  117   2.600   2.287  13.371 -0.1595 -0.0334 -0.2129
    8MPD2    C3  118   2.609   2.419  13.350 -0.1583 -0.8432 -0.7357
    8MPD2    C4  119   2.714   2.491  13.410  0.8585  0.0619  0.3262
    8MPD2    C5  120   2.793   2.420  13.498 -0.2909 -0.1666  0.1199
    8MPD2     H  121   2.512   2.240  13.328  0.7701 -2.2618  0.3845
    8MPD2    H1  122   2.721   2.598  13.395 -2.1065 -0.0363 -1.8377
    8MPD2    H2  123   2.850   2.230  13.584  1.8158  1.9780 -1.3839
    8MPD2    H3  124   2.871   2.474  13.550  0.5691 -0.3129 -1.0253
    8MPD2     N  125   2.534   2.492  13.250  0.2905 -0.4962 -0.2793
    8MPD2    H5  126   2.546   2.593  13.253  1.4741 -0.6411  0.0738
    8MPD2    N1  127   2.658   2.084  13.490 -0.3235  0.2742 -0.3615
    8MPD2    H7  128   2.702   2.066  13.580 -0.3325 -0.3714 -0.4852
    9TCq1    O1  129   0.847   0.877  11.041 -0.2191  0.4097  0.0799
    9TCq1    C1  130   0.959   0.886  11.114  1.0235 -0.3253  0.8163
    9TCq1    O2  131   1.003   0.807  11.196  0.4881  0.0623  0.2619
    9TCq1    C2  132   1.021   1.012  11.085 -0.5931  0.4954 -0.2221
    9TCq1    C3  133   1.156   1.020  11.082 -0.5499 -0.1505 -0.0934
    9TCq1    C4  134   1.213   1.141  11.073  0.3914  0.3360 -0.7950
    9TCq1    C5  135   1.136   1.250  11.075  0.4565 -0.4744 -0.2694
    9TCq1    C6  136   1.001   1.240  11.079 -0.5517  0.2093 -0.6143
    9TCq1    C7  137   0.939   1.122  11.093 -0.0018 -0.0248 -0.0004
    9TCq1    C8  138   0.923   1.366  11.089 -0.2145 -0.4414  0.0631
    9TCq1    O4  139   0.973   1.470  11.046 -0.1789 -0.0492 -0.1367
    9TCq1    C9  140   1.356   1.155  11.059 -0.5419  0.4320  0.1243
    9TCq1    O5  141   1.405   1.272  11.070  0.6139 -0.0993 -0.1849
    9TCq1    O6  142   1.418   1.048  11.054 -0.2458 -0.1556 -0.1470
    9TCq1    H1  143   0.846   0.952  10.978  0.9270  1.4222  1.2703
    9TCq1    H2  144   1.213   0.927  11.085  0.3096  0.2854 -3.2272
    9TCq1    H3  145   1.180   1.348  11.058  1.0636 -0.5759  0.7300
    9TCq1    H4  146   0.832   1.114  11.107  0.2648 -1.0106  1.4338
   10MPD2     C  147   0.706   1.566  11.112  0.3712 -0.2753  0.6775
   10MPD2    C1  148   0.712   1.451  11.181 -0.2261 -0.1910  0.4494
   10MPD2    C2  149   0.615   1.415  11.276 -0.1632  0.7419 -0.3984
   10MPD2    C3  150   0.518   1.497  11.317 -0.2900  0.1697 -0.3440
   10MPD2    C4  151   0.512   1.616  11.256  0.5780  0.0947 -0.0273
   10MPD2    C5  152   0.606   1.654  11.156 -0.3907  0.2799  0.5682
   10MPD2     H  153   0.623   1.316  11.320 -0.5845  0.1242 -1.6904
   10MPD2    H1  154   0.436   1.683  11.294 -0.3514 -0.1465 -1.4586
   10MPD2    H2  155   0.780   1.596  11.039 -1.4081  0.1993 -0.9393
   10MPD2    H3  156   0.598   1.754  11.113  0.3867  0.1569  0.1366
   10MPD2     N  157   0.430   1.467  11.422  0.0418 -0.1473  0.6396
   10MPD2    H5  158   0.364   1.536  11.455 -2.9329 -2.6639  0.0310
   10MPD2    N1  159   0.811   1.351  11.169 -0.0547 -0.4102  0.0476
   10MPD2    H7  160   0.818   1.269  11.228  1.3758  0.4213  1.0256
   11TCq1    O1  161   1.295   0.991  14.447 -0.0291  0.2367  0.4157
   11TCq1    C1  162   1.414   1.038  14.471 -0.2379  0.3821  0.2969
   11TCq1    O2  163   1.472   1.033  14.580 -0.1681 -0.2415 -0.1882
   11TCq1    C2  164   1.454   1.125  14.361 -0.2659 -0.7266 -0.1241
   11TCq1    C3  165   1.569   1.205  14.378  0.5198 -0.2344 -0.0114
   11TCq1    C4  166   1.598   1.292  14.277 -0.2417 -0.3560  0.0913
   11TCq1    C5  167   1.526   1.297  14.165  0.0682 -0.0786 -0.4646
   11TCq1    C6  168   1.415   1.214  14.153  0.3152 -0.1041  0.9108
   11TCq1    C7  169   1.384   1.112  14.240  0.0024 -0.0692  0.1645
   11TCq1    C8  170   1.321   1.267  14.063 -0.3537  0.1697  0.1344
   11TCq1    O4  171   1.317   1.388  14.067  0.2416 -0.1913 -0.4161
   11TCq1    C9  172   1.727   1.366  14.282 -0.0158 -0.1073 -0.1454
   11TCq1    O5  173   1.764   1.442  14.188 -0.0673  0.4688 -0.0819
   11TCq1    O6  174   1.792   1.341  14.383 -0.0051  0.1219  1.0504
   11TCq1    H1  175   1.257   1.018  14.361  0.3948 -0.9854 -0.1611
   11TCq1    H2  176   1.627   1.209  14.469 -0.3726  0.6142  0.5144
   11TCq1    H3  177   1.551   1.364  14.083  2.9578  1.4499  1.6743
   11TCq1    H4  178   1.303   1.044  14.217  0.9624 -0.3360 -2.4508
   12MPD2     C  179   1.123   1.333  13.856  0.0370  0.9670 -0.3029
   12MPD2    C1  180   1.150   1.204  13.899 -0.1458  0.8023  0.0068
   12MPD2    C2  181   1.085   1.091  13.839 -0.1567 -0.4443  0.1094
   12MPD2    C3  182   0.967   1.113  13.765  0.1830 -0.0111 -0.1980
   12MPD2    C4  183   0.928   1.242  13.744 -0.1670 -0.5654  0.0154
   12MPD2    C5  184   1.013   1.348  13.773  0.3729 -0.1150 -0.5589
   12MPD2     H  185   1.103   0.988  13.866  1.8194 -0.3587 -0.9093
   12MPD2    H1  186   0.842   1.251  13.678  2.1639 -3.3927 -3.3759
   12MPD2    H2  187   1.175   1.424  13.885 -0.7955  1.1001  0.7534
   12MPD2    H3  188   0.988   1.448  13.740 -1.3192  0.2697  1.8473
   12MPD2     N  189   0.888   1.009  13.711  0.1867  0.2674  0.5230
   12MPD2    H5  190   0.796   1.033  13.676  0.9046  2.7450  0.3846
   12MPD2    N1  191   1.248   1.173  13.998  0.6176 -0.1492  0.0030
   12MPD2    H7  192   1.266   1.074  14.012  1.5966  0.0758  0.3647
   13TCq1    O1  193   0.529   1.013  10.632 -0.7996  0.3939 -0.3560
   13TCq1    C1  194   0.645   0.952  10.601 -0.2334  0.7737 -0.1228
   13TCq1    O2  195   0.728   1.009  10.537  0.1676  0.4083  0.7359
   13TCq1    C2  196   0.629   0.807  10.609  0.1676 -0.4048  0.3967
   13TCq1    C3  197   0.592   0.752  10.484 -0.4857  0.0629 -0.2513
   13TCq1    C4  198   0.509   0.644  10.481 -0.2587  0.1846 -0.4421
   13TCq1    C5  199   0.455   0.591  10.600 -0.1680  0.0674 -0.0929
   13TCq1    C6  200   0.494   0.647  10.719  0.6192 -0.1902 -0.1050
   13TCq1    C7  201   0.580   0.751  10.723 -0.4734  0.1085 -0.2960
   13TCq1    C8  202   0.415   0.618  10.834  0.1136 -0.0211 -0.0948
   13TCq1    O4  203   0.395   0.708  10.918  0.0905 -0.0255  0.0887
   13TCq1    C9  204   0.461   0.586  10.359  0.4858 -0.1125  0.4639
   13TCq1    O5  205   0.514   0.625  10.252  0.1734 -0.6934 -0.0127
   13TCq1    O6  206   0.358   0.516  10.361  0.0268 -0.1258 -0.4577
   13TCq1    H1  207   0.452   0.957  10.657 -1.7589  2.1596  0.7362
   13TCq1    H2  208   0.628   0.803  10.395  0.1514 -1.8226 -1.0574
   13TCq1    H3  209   0.388   0.506  10.588 -0.0124 -0.0355 -0.2493
   13TCq1    H4  210   0.608   0.799  10.816  0.2756 -2.8462  0.9843
   14MPD2     C  211   0.305   0.289  10.946  0.0786 -0.9462  0.2328
   14MPD2    C1  212   0.291   0.425  10.932  0.6619  0.4572  0.3591
   14MPD2    C2  213   0.210   0.494  11.020 -0.6873 -0.6628 -0.4305
   14MPD2    C3  214   0.136   0.427  11.114  0.0448  0.0540 -0.3222
   14MPD2    C4  215   0.153   0.290  11.130 -0.0141 -0.3334  0.1843
   14MPD2    C5  216   0.242   0.226  11.047  0.9790 -0.5803 -0.2376
   14MPD2     H  217   0.206   0.602  11.019  1.0056 -0.6065 -1.3839
   14MPD2    H1  218   0.107   0.235  11.211  1.2728 -0.5810  0.7402
   14MPD2    H2  219   0.362   0.230  10.876  0.6931  2.0612 -1.7893
   14MPD2    H3  220   0.238   0.118  11.053 -0.9630 -0.4543  0.7851
   14MPD2     N  221   0.058   0.513  11.203 -0.1574  0.1031  0.0765
   14MPD2    H5  222   0.064   0.613  11.192  0.4552 -0.0419 -0.9128
   14MPD2    N1  223   0.376   0.484  10.835 -0.8048  0.2772  0.1649
   14MPD2    H7  224   0.417   0.422  10.765  2.6133  2.2413  0.4343
   15TCq1    O1  225   1.054   3.895   2.013 -0.0174  0.1390 -0.1512
   15TCq1    C1  226   1.045   4.021   1.962  0.2285  0.3078  0.3388
   15TCq1    O2  227   1.033   4.121   2.029  0.1382  0.3676  0.1588
   15TCq1    C2  228   1.042   4.019   1.819 -0.6641 -0.2954  0.0485
   15TCq1    C3  229   0.946   4.105   1.770 -1.2420  0.7013  0.3519
   15TCq1    C4  230   0.952   4.139   1.641  0.2571  0.5842  0.1618
   15TCq1    C5  231   1.045   4.083   1.560  0.9675  0.5300 -0.5092
   15TCq1    C6  232   1.150   4.013   1.619 -0.1325 -0.3984  0.1193
   15TCq1    C7  233   1.149   3.973   1.745 -0.5541 -0.2099  0.2637
   15TCq1    C8  234   1.234   3.930   1.541 -1.1637  0.0031 -0.2951
   15TCq1    O4  235   1.351   3.918   1.570 -0.4911  0.5065 -1.2517
   15TCq1    C9  236   0.837   4.214   1.587 -0.3504 -0.9342 -0.6496
   15TCq1    O5  237   0.760   4.251   1.676  0.1521  0.4689 -0.4407
   15TCq1    O6  238   0.843   4.265   1.474 -0.0270 -0.1530 -0.9715
   15TCq1    H1  239   1.069   3.822   1.949 -1.9349  0.1435 -0.5984
   15TCq1    H2  240   0.873   4.136   1.844  0.2236 -0.0903  2.1216
   15TCq1    H3  241   1.035   4.108   1.455 -1.9279  2.0955  0.1480
   15TCq1    H4  242   1.241   3.929   1.783  0.7851  1.2994 -1.2951
   16MPD2     C  243   1.142   3.779   1.216 -0.4541  0.6465 -0.5785
   16MPD2    C1  244   1.228   3.824   1.314 -0.4091  0.2518 -1.1404
   16MPD2    C2  245   1.362   3.785   1.309 -0.2291 -0.4452  0.1060
   16MPD2    C3  246   1.412   3.716   1.204 -0.4503  0.0407  0.1747
   16MPD2    C4  247   1.319   3.667   1.111 -1.0300  0.7064 -0.5986
   16MPD2    C5  248   1.187   3.706   1.114 -0.4292  0.5699 -0.3481
   16MPD2     H  249   1.435   3.815   1.383 -2.0032  1.2058  1.1989
   16MPD2    H1  250   1.341   3.589   1.039 -0.5534 -1.0481  1.4458
   16MPD2    H2  251   1.034   3.776   1.224 -0.4199  2.2835  0.6487
   16MPD2    H3  252   1.117   3.652   1.051 -1.4104  0.7252  0.6224
   16MPD2     N  253   1.550   3.705   1.186 -0.0483 -0.2393 -0.5032
   16MPD2    H5  254   1.606   3.758   1.253 -1.8748  1.0532  0.0082
   16MPD2    N1  255   1.173   3.895   1.424  0.4962  0.1796  0.2345
   16MPD2    H7  256   1.073   3.910   1.424  0.1136 -2.2564  0.8391
   17TCq1    O1  257   0.652   4.267  10.264  0.2805 -0.1961 -0.5247
   17TCq1    C1  258   0.632   4.274  10.397  0.2460  0.0758  0.0966
   17TCq1    O2  259   0.664   4.190  10.475 -0.3479  0.7406  0.5358
   17TCq1    C2  260   0.641   4.414  10.431  0.1847  0.3280  0.2563
   17TCq1    C3  261   0.544   4.486  10.379  0.4568  0.1915  0.1390
   17TCq1    C4  262   0.522   4.613  10.427  0.3407 -0.3395  0.6703
   17TCq1    C5  263   0.601   4.671  10.527 -0.0134  0.5039 -0.5741
   17TCq1    C6  264   0.696   4.588  10.576 -0.2917  0.2307 -0.4271
   17TCq1    C7  265   0.724   4.463  10.532 -0.6710  0.5505 -0.0117
   17TCq1    C8  266   0.795   4.667  10.649  0.2735 -0.1996  0.5517
   17TCq1    O4  267   0.760   0.034  10.724  0.0354 -0.1441  0.0179
   17TCq1    C9  268   0.419   4.683  10.351  0.8118  0.1287 -0.4773
   17TCq1    O5  269   0.375   0.064  10.413 -0.0198 -0.2780  0.5441
   17TCq1    O6  270   0.391   4.647  10.235 -0.5019 -0.2837 -0.3501
   17TCq1    H1  271   0.668   4.355  10.225 -1.2815 -0.5190 -1.8683
   17TCq1    H2  272   0.475   4.442  10.308 -0.7173  2.1899  0.0262
   17TCq1    H3  273   0.587   0.053  10.559 -0.0296 -0.1902  1.6480
   17TCq1    H4  274   0.789   4.391  10.581 -0.9451  0.6153  0.4415
   18MPD2     C  275   1.033   0.073  10.739 -0.8214 -0.4444 -0.1473
   18MPD2    C1  276   1.032   4.709  10.627  0.4119 -1.2315 -0.7970
   18MPD2    C2  277   1.150   4.703  10.552 -0.4721 -0.3105  0.6060
   18MPD2    C3  278   1.263   0.056  10.581 -0.1880  0.6424 -0.4068
   18MPD2    C4  279   1.259   0.137  10.698 -0.8963 -0.2483 -0.5877
   18MPD2    C5  280   1.144   0.141  10.776  0.4079 -0.3261 -0.3734
   18MPD2     H  281   1.143   4.631  10.471  0.4585 -1.0052  1.1499
   18MPD2    H1  282   1.351   0.191  10.721 -1.3391  0.4392 -0.4389
   18MPD2    H2  283   0.951   0.088  10.809  0.0207  2.3778  0.2259
   18MPD2    H3  284   1.156   0.201  10.866  1.3151  0.1486 -0.8086
   18MPD2     N  285   1.389   0.044  10.507  0.2125  0.7074 -0.4084
   18MPD2    H5  286   1.465   0.104  10.535  1.7935 -0.7447 -1.6048
   18MPD2    N1  287   0.918   4.641  10.593  0.0922  0.3340  0.2647
   18MPD2    H7  288   0.927   4.584  10.509  0.4508  1.5776 -0.5416
   19TMC2    C1  289   2.089   0.647  13.596 -0.5686  0.1550  0.3536
   19TMC2    C2  290   2.060   0.653  13.466  0.2489  0.0417  0.0240
   19TMC2    C3  291   1.974   0.574  13.411  0.1766  0.2363 -0.6742
   19TMC2    C4  292   2.029   0.557  13.682  0.0973 -0.2790  0.2671
   19TMC2    C5  293   1.945   0.472  13.619 -0.4542  0.1874 -1.3601
   19TMC2    C6  294   1.918   0.479  13.490 -0.5900 -0.3103 -0.0005
   19TMC2     C  295   2.196   0.739  13.647 -0.1549 -0.3974 -0.8649
   19TMC2     O  296   2.240   0.829  13.573  0.2303 -0.2217 -0.8170
   19TMC2     H  297   2.115   0.716  13.397 -0.3989 -0.1400 -0.6552
   19TMC2    H1  298   2.036   0.565  13.790 -1.0534 -1.6115  0.4404
   19TMC2    H2  299   1.855   0.403  13.446  1.5002 -1.1403 -1.5365
   19TMC2    C7  300   1.859   0.394  13.701  0.2154 -0.1048  0.2974
   19TMC2    C8  301   1.990   0.529  13.273 -0.0400 -0.3015 -0.4099
   19TMC2    O1  302   1.764   0.346  13.647  0.1760 -0.0959 -0.0355
   19TMC2    O2  303   1.956   0.412  13.244 -0.0135 -0.0908 -0.3195
   19TMC2    O5  304   1.986   0.641  13.190  0.1231 -0.3029 -0.4070
   19TMC2    H5  305   2.003   0.732  13.221  0.7442 -0.5845  0.1058
   20MPD2     C  306   2.366   0.921  13.808 -0.4094  0.7708  0.0080
   20MPD2    C1  307   2.341   0.788  13.833 -0.7620 -0.4260 -0.5802
   20MPD2    C2  308   2.399   0.722  13.942  0.1525 -0.3926  0.5639
   20MPD2    C3  309   2.489   0.789  14.016  0.3452 -0.4420 -0.5357
   20MPD2    C4  310   2.526   0.919  13.981 -0.4674  0.1635 -0.0500
   20MPD2    C5  311   2.460   0.978  13.878  0.5862 -0.8229  0.1447
   20MPD2     H  312   2.360   0.624  13.967 -0.9199  0.0108  0.4890
   20MPD2    H1  313   2.600   0.971  14.041  0.5674 -0.6167 -0.6477
   20MPD2    H2  314   2.322   0.975  13.726  0.8593 -0.5166 -1.5265
   20MPD2    H3  315   2.494   1.078  13.853 -2.0820  0.1348  0.2941
   20MPD2     N  316   2.547   0.748  14.139 -0.0093  0.4400  0.2931
   20MPD2    H5  317   2.604   0.818  14.187 -0.5910  1.8155 -1.0296
   20MPD2    N1  318   2.239   0.711  13.772  0.0686 -0.5052 -0.1582
   20MPD2    H7  319   2.216   0.620  13.811 -1.4282 -1.0496 -2.3074
   21MPD2     C  320   4.319   1.063  13.955  0.0807 -0.4127 -0.2012
   21MPD2    C1  321   4.367   0.965  14.034  0.3349  0.4409  0.1436
   21MPD2    C2  322   4.350   0.968  14.174 -0.1547 -0.0541 -0.1633
   21MPD2    C3  323   4.292   1.076  14.236 -0.1852 -0.5245  0.0547
   21MPD2    C4  324   4.230   1.175  14.158  0.2627  0.1561 -0.5564
   21MPD2    C5  325   4.254   1.170  14.022 -0.0179 -0.5713  0.2978
   21MPD2     H  326   4.414   0.898  14.226 -1.5480 -1.3635 -0.2150
   21MPD2    H1  327   4.172   1.257  14.197  0.3742 -0.3972  0.7707
   21MPD2    H2  328   4.338   1.065  13.849  2.4123  1.8991  0.2792
   21MPD2    H3  329   4.211   1.242  13.953 -0.8923 -2.0852 -0.7557
   21MPD2     N  330   4.269   1.097  14.375 -0.1204  0.4350 -0.1858
   21MPD2    H5  331   4.201   1.164  14.412 -2.2831 -1.6768 -0.3235
   21MPD2    N1  332   4.444   0.864  13.971 -0.8034 -0.1228  0.6127
   21MPD2    H7  333   4.458   0.783  14.031  2.2152 -0.0945 -0.0470
   22TCq2    C1  334   4.346   1.026  14.468 -0.3688  0.1907 -0.1013
   22TCq2    O2  335   4.426   0.938  14.449  0.0303 -0.5179  0.3497
   22TCq2    C2  336   4.316   1.049  14.609 -0.6040  0.9511  0.0625
   22TCq2    C3  337   4.362   0.951  14.697  0.8758 -0.2665  0.0521
   22TCq2    C4  338   4.339   0.956  14.831 -0.3338  0.6865  0.2108
   22TCq2    C5  339   4.255   1.056  14.879  0.9626  0.3018  0.6341
   22TCq2    C6  340   4.214   1.154  14.787 -0.0389 -0.0987  0.5244
   22TCq2    C7  341   4.250   1.155  14.654 -0.4669  0.3771 -0.3805
   22TCq2    C8  342   4.135   1.272  14.841  0.2573 -0.1834  0.7892
   22TCq2    O4  343   4.142   1.291  14.961 -0.2238 -0.0837  0.6562
   22TCq2    C9  344   4.389   0.856  14.929  0.2548 -0.3544  0.7336
   22TCq2    O5  345   4.450   0.758  14.880  0.2496  0.3079 -0.2236
   22TCq2    O6  346   4.365   0.874  15.049  0.0261  0.3387  0.0908
   22TCq2    H2  347   4.426   0.866  14.673  1.9539  0.7921 -0.8024
   22TCq2    H3  348   4.239   1.066  14.986 -1.7004 -0.1849  0.2835
   22TCq2    H4  349   4.220   1.230  14.581  0.4539 -1.0223 -2.2191
   23MPD2     C  350   0.589   1.687  14.181  0.2066  0.1409  0.0658
   23MPD2    C1  351   0.644   1.799  14.226  0.2471 -0.2161 -0.0964
   23MPD2    C2  352   0.587   1.924  14.192  0.1258 -0.2220  0.2051
   23MPD2    C3  353   0.474   1.935  14.112  0.6147 -0.0504  0.0596
   23MPD2    C4  354   0.421   1.815  14.064  0.0472 -0.0349 -0.1840
   23MPD2    C5  355   0.477   1.697  14.096  0.1922 -0.1775  0.9117
   23MPD2     H  356   0.628   2.014  14.236  1.2115 -0.6858  0.1527
   23MPD2    H1  357   0.350   1.829  13.983 -1.6069 -0.3339  1.2224
   23MPD2    H2  358   0.622   1.588  14.209 -2.7635 -0.7963  0.2544
   23MPD2    H3  359   0.435   1.605  14.055 -1.0873  0.3842  0.9491
   23MPD2     N  360   0.406   2.056  14.100 -0.2492  0.3552  0.8492
   23MPD2    H5  361   0.327   2.059  14.037  1.4949  1.7911 -1.2779
   23MPD2    N1  362   0.763   1.805  14.307  0.4783 -0.0982 -0.1875
   23MPD2    H7  363   0.795   1.897  14.335  0.6070 -0.2118  0.0397
   24TCq2    C1  364   0.422   2.173  14.174  0.3307 -0.1580 -0.0851
   24TCq2    O2  365   0.492   2.199  14.269 -0.4057  0.7345 -0.3276
   24TCq2    C2  366   0.299   2.253  14.167  0.3322 -0.6495  0.3697
   24TCq2    C3  367   0.280   2.338  14.272  0.5349  0.0570 -0.0645
   24TCq2    C4  368   0.155   2.388  14.299 -0.0214  0.4547 -0.4358
   24TCq2    C5  369   0.046   2.355  14.220  0.3348 -0.0581 -0.3062
   24TCq2    C6  370   0.069   2.283  14.106  0.5614 -0.1318 -0.8974
   24TCq2    C7  371   0.192   2.221  14.083 -0.4220 -0.5335 -0.0149
   24TCq2    C8  372   4.690   2.229  14.023 -0.7294  0.6474  0.9690
   24TCq2    O4  373   4.719   2.151  13.932 -0.1068 -0.3903 -0.1941
   24TCq2    C9  374   0.143   2.486  14.403  0.2737 -0.3649 -0.0105
   24TCq2    O5  375   0.023   2.512  14.424  0.6978  0.0228 -0.1715
   24TCq2    O6  376   0.243   2.510  14.480  0.1319  0.5560 -0.2188
   24TCq2    H2  377   0.363   2.374  14.331 -0.5281  1.4619  0.5563
   24TCq2    H3  378   4.670   2.395  14.251  1.0754  1.0856  0.5282
   24TCq2    H4  379   0.208   2.145  14.007 -2.5370 -1.5623  0.5651
   25TMC2    C1  380   4.707   4.368  10.997 -0.6851 -0.4063  0.3946
   25TMC2    C2  381   0.089   4.429  11.067 -0.6685 -0.4739  0.2015
   25TMC2    C3  382   0.066   4.473  11.195  0.5818 -0.7222 -0.6930
   25TMC2    C4  383   4.603   4.319  11.066  0.4021  0.1058 -0.3021
   25TMC2    C5  384   4.579   4.361  11.200  0.4691  0.2199 -0.5424
   25TMC2    C6  385   4.670   4.443  11.265  0.0567 -0.3219 -0.2940
   25TMC2     C  386   0.005   4.342  10.855  0.7722  0.4166 -0.0201
   25TMC2     O  387   0.096   4.387  10.786 -0.7877 -0.1787 -0.2247
   25TMC2     H  388   0.170   4.476  11.013  0.1030 -0.0144  1.7593
   25TMC2    H1  389   4.529   4.259  11.014  0.7420  0.2131 -0.9152
   25TMC2    H2  390   4.658   4.481  11.366  1.4995  2.8407 -1.3206
   25TMC2    C7  391   4.444   4.334  11.247  0.1113  0.6808 -0.1711
   25TMC2    C8  392   0.134   4.594  11.220  0.4073  0.4720  0.7765
   25TMC2    O1  393   4.361   4.294  11.168 -0.6441 -0.3453  0.4414
   25TMC2    O2  394   0.251   4.592  11.255 -0.1586 -0.4940  0.4290
   25TMC2    O5  395   0.043   4.677  11.273 -0.0325 -0.1070 -0.0791
   25TMC2    H5  396   4.670   4.677  11.244  0.1580 -0.8573 -0.6969
   26MPD2     C  397   4.525   4.158  10.426 -0.1101  0.8920  0.3642
   26MPD2    C1  398   4.477   4.077  10.526 -0.2814  0.4660 -0.3610
   26MPD2    C2  399   4.517   4.113  10.657 -0.1100  0.5567  0.4858
   26MPD2    C3  400   4.600   4.216  10.677  0.2598  0.2029 -0.4660
   26MPD2    C4  401   4.653   4.284  10.573 -0.2958  0.1762  0.1090
   26MPD2    C5  402   4.620   4.255  10.442  0.1099  0.0163  0.0549
   26MPD2     H  403   4.483   4.066  10.749 -0.8078 -1.9912 -1.0645
   26MPD2    H1  404   0.001   4.367  10.585  0.8355 -0.6553 -0.5338
   26MPD2    H2  405   4.490   4.141  10.325  0.8082 -0.8944  0.3449
   26MPD2    H3  406   4.648   4.319  10.359  2.6156  0.1761  1.0329
   26MPD2     N  407   4.629   4.256  10.809 -0.1204 -0.2754 -0.1483
   26MPD2    H5  408   4.574   4.219  10.885 -0.8449  1.7959  0.3286
   26MPD2    N1  409   4.398   3.969  10.496  0.1724  0.1823  0.3024
   26MPD2    H7  410   4.352   3.964  10.406  0.1435 -1.1508  0.3894
   27TMC2    C1  411   3.782   1.573  11.999  0.0620  0.5035 -0.1744
   27TMC2    C2  412   3.905   1.599  12.055  0.8436 -0.0114 -0.5690
   27TMC2    C3  413   3.930   1.727  12.088  0.0786  0.9079 -0.2525
   27TMC2    C4  414   3.683   1.665  11.976 -0.0645 -0.2458  0.3299
   27TMC2    C5  415   3.708   1.785  12.016  0.1819  0.2091  0.2294
   27TMC2    C6  416   3.831   1.827  12.067  0.0433  0.2439 -0.4189
   27TMC2     C  417   3.719   1.456  12.059 -0.6343  0.2685 -0.4979
   27TMC2     O  418   3.773   1.347  12.053 -0.2193  0.1602  0.2664
   27TMC2     H  419   3.969   1.514  12.076 -0.4959 -0.9219 -0.1116
   27TMC2    H1  420   3.580   1.638  11.954  0.3753 -0.8446 -0.9547
   27TMC2    H2  421   3.844   1.928  12.104 -1.0750  0.3638 -0.3595
   27TMC2    C7  422   3.597   1.845  12.082  0.1909  0.6568 -0.1106
   27TMC2    C8  423   4.055   1.753  12.160 -0.5765  0.7409 -0.2627
   27TMC2    O1  424   3.513   1.765  12.119  0.0845 -0.4815 -0.1711
   27TMC2    O2  425   4.066   1.869  12.194 -0.5980 -0.1926  0.5077
   27TMC2    O5  426   4.038   1.655  12.254 -0.1611  0.0458 -0.3826
   27TMC2    H5  427   4.097   1.576  12.247  0.0416  0.1554  0.0689
   28MPD2     C  428   3.325   1.272  12.327  0.6989 -0.4756  0.7943
   28MPD2    C1  429   3.315   1.411  12.331 -0.7524  0.2681  0.0853
   28MPD2    C2  430   3.412   1.480  12.261 -0.2511  0.2543 -0.4092
   28MPD2    C3  431   3.515   1.419  12.191  0.1267 -0.2782  0.2030
   28MPD2    C4  432   3.520   1.279  12.195  0.1809  0.9822 -0.5739
   28MPD2    C5  433   3.428   1.209  12.265  0.5832 -0.2614  0.5597
   28MPD2     H  434   3.415   1.588  12.263 -2.1312  0.2351  3.3763
   28MPD2    H1  435   3.598   1.220  12.148 -1.3436 -1.2160 -0.3211
   28MPD2    H2  436   3.254   1.214  12.385 -1.0648  1.2348  0.3865
   28MPD2    H3  437   3.445   1.102  12.261  1.3063 -0.1609  0.9130
   28MPD2     N  438   3.610   1.496  12.122 -0.3756 -0.2265 -0.0697
   28MPD2    H5  439   3.589   1.595  12.129 -0.5451 -0.2347 -0.4353
   28MPD2    N1  440   3.209   1.461  12.410  0.3333 -0.4958 -0.2145
   28MPD2    H7  441   3.137   1.398  12.445  1.4061 -1.4001  0.3528
   29MPD2     C  442   2.781   3.974  14.061  0.0398  0.5361 -0.1068
   29MPD2    C1  443   2.866   3.914  14.154 -0.2692  0.7787  0.0833
   29MPD2    C2  444   2.911   4.001  14.254 -0.5249  0.2738  0.5108
   29MPD2    C3  445   2.862   4.130  14.277 -0.5241  0.1602 -0.2288
   29MPD2    C4  446   2.763   4.174  14.196 -0.0532  0.1907 -0.5312
   29MPD2    C5  447   2.726   4.095  14.089 -0.0511 -0.9075 -0.1425
   29MPD2     H  448   2.986   3.965  14.323  1.7556  0.2241 -1.9818
   29MPD2    H1  449   2.718   4.270  14.219  2.4866  0.5453  2.8950
   29MPD2    H2  450   2.734   3.924  13.977 -0.9944 -0.3004  0.9810
   29MPD2    H3  451   2.643   4.133  14.030 -1.6790 -2.1980  1.3147
   29MPD2     N  452   2.908   4.215  14.381  1.1483  0.1214 -0.1271
   29MPD2    H5  453   2.869   4.308  14.389  2.6714  0.9322 -2.3367
   29MPD2    N1  454   2.914   3.788  14.160  0.3360  0.0499 -0.3553
   29MPD2    H7  455   2.993   3.764  14.220  3.1927 -0.5559 -4.3996
   30TCq2    C1  456   3.001   4.180  14.475  0.1892 -0.3157 -0.1142
   30TCq2    O2  457   3.050   4.070  14.506  0.4163 -0.0325  0.8837
   30TCq2    C2  458   3.045   4.295  14.551  0.5400 -0.4802 -0.5315
   30TCq2    C3  459   3.089   4.273  14.679 -0.2977 -0.3253  0.8792
   30TCq2    C4  460   3.142   4.375  14.750  0.5159 -0.2999  0.5590
   30TCq2    C5  461   3.167   4.494  14.695 -0.4365 -0.5820  0.2165
   30TCq2    C6  462   3.126   4.515  14.570 -0.2360  1.1308  0.5409
   30TCq2    C7  463   3.057   4.421  14.499  0.7356 -0.2189 -0.4037
   30TCq2    C8  464   3.173   4.630  14.494 -0.4554  0.5313  0.6649
   30TCq2    O4  465   3.108   4.652  14.393  0.1373 -0.0521 -0.1807
   30TCq2    C9  466   3.192   4.355  14.877 -0.8180 -0.7961 -0.2366
   30TCq2    O5  467   3.167   4.248  14.937  0.1215  0.0248  0.1732
   30TCq2    O6  468   3.272   4.441  14.921 -0.0134  0.5903  0.0605
   30TCq2    H2  469   3.088   4.175  14.727  2.2684  0.7321  3.0581
   30TCq2    H3  470   3.206   4.572  14.761  4.1985 -1.7893 -1.0998
   30TCq2    H4  471   3.013   4.436  14.401  2.0807  2.0018 -0.6629
   31MPD2     C  472   0.967   3.405  14.528  0.0317  0.4321 -0.0195
   31MPD2    C1  473   0.855   3.462  14.479 -0.3701 -0.0381 -0.3214
   31MPD2    C2  474   0.738   3.472  14.564  0.9371  0.3900  0.0401
   31MPD2    C3  475   0.737   3.411  14.686 -0.4848  0.0542 -0.0094
   31MPD2    C4  476   0.853   3.352  14.729  0.5012  0.5579 -0.0621
   31MPD2    C5  477   0.966   3.346  14.657  0.6538  0.1863  0.4948
   31MPD2     H  478   0.651   3.516  14.517  0.1864 -0.9818  0.1506
   31MPD2    H1  479   0.856   3.300  14.824 -0.4748  3.1603  1.3965
   31MPD2    H2  480   1.047   3.402  14.455  2.1064 -0.3192  2.2983
   31MPD2    H3  481   1.046   3.284  14.696  0.0078  0.6979  2.6888
   31MPD2     N  482   0.631   3.400  14.774 -0.3560  0.5163 -0.0867
   31MPD2    H5  483   0.653   3.335  14.848 -2.9408  0.8958  0.9933
   31MPD2    N1  484   0.843   3.522  14.355  0.3086  0.4174  0.1936
   31MPD2    H7  485   0.749   3.555  14.334 -0.0370 -1.2762 -0.9104
   32TCq2    C1  486   0.507   3.456  14.752  0.5308 -0.5184 -0.2225
   32TCq2    O2  487   0.476   3.542  14.673  0.1017  0.2667 -0.1016
   32TCq2    C2  488   0.400   3.404  14.844  0.3555 -0.5582  0.3924
   32TCq2    C3  489   0.269   3.452  14.825  0.0252  0.6127  0.2409
   32TCq2    C4  490   0.161   3.402  14.892 -0.3823  0.0553  1.1244
   32TCq2    C5  491   0.184   3.295  14.986  0.3660  0.4956  0.0288
   32TCq2    C6  492   0.304   3.238  14.993  0.2126  0.6454  0.3968
   32TCq2    C7  493   0.414   3.290  14.923 -0.0697 -0.2030  0.6228
   32TCq2    C8  494   0.335   3.111  15.046 -0.0426  0.5735 -0.0346
   32TCq2    O4  495   0.442   3.058  15.027  0.2487  0.3664 -0.2701
   32TCq2    C9  496   0.032   3.461  14.872  0.6730  0.1535 -0.5816
   32TCq2    O5  497   4.654   3.405  14.926 -0.1004  0.7152 -0.4778
   32TCq2    O6  498   0.019   3.578  14.828 -0.3696  0.5549 -0.1312
   32TCq2    H2  499   0.240   3.524  14.750 -1.9243  0.3660  0.7427
   32TCq2    H3  500   0.100   3.249  15.036  2.8747 -2.2133  1.7613
   32TCq2    H4  501   0.511   3.241  14.914 -0.0722  0.0555 -0.9568
   33MPD2     C  502   1.733   0.551  10.401  0.2163  0.0408  0.4455
   33MPD2    C1  503   1.733   0.487  10.282 -0.4736 -0.5445  0.5063
   33MPD2    C2  504   1.808   0.543  10.174  0.0187 -0.2865 -0.1402
   33MPD2    C3  505   1.861   0.673  10.184 -0.4829 -0.5016 -0.4875
   33MPD2    C4  506   1.861   0.730  10.306  0.2806 -0.0117 -0.3747
   33MPD2    C5  507   1.806   0.664  10.412  0.7777 -0.5331  0.4313
   33MPD2     H  508   1.816   0.494  10.078 -0.3844 -0.9000  0.1352
   33MPD2    H1  509   1.919   0.821  10.318  1.6040 -0.6039 -2.2899
   33MPD2    H2  510   1.682   0.512  10.488  0.1806  0.3974  0.5864
   33MPD2    H3  511   1.821   0.711  10.509  0.0786  0.8730 -0.1505
   33MPD2     N  512   1.931   0.750  10.085 -0.3814 -0.0544 -0.4202
   33MPD2    H5  513   1.972   0.837  10.115  4.1845 -0.8947 -4.1237
   33MPD2    N1  514   1.672   0.355  10.286 -1.1084  0.8606 -0.2736
   33MPD2    H7  515   1.653   0.314  10.377 -0.6127  0.1934 -0.4768
   34TCq2    C1  516   1.955   0.704   9.957 -0.8238  0.2349  0.9250
   34TCq2    O2  517   1.908   0.603   9.908  0.2716  0.6548 -0.0267
   34TCq2    C2  518   2.026   0.799   9.876  0.8358 -0.5486 -0.2849
   34TCq2    C3  519   2.103   0.754   9.773  0.2433 -0.2205 -0.0566
   34TCq2    C4  520   2.173   0.843   9.696  0.4138  0.2258 -0.1942
   34TCq2    C5  521   2.145   0.972   9.712 -0.7311  0.2817  0.5208
   34TCq2    C6  522   2.059   1.021   9.812 -0.3268  0.0622 -0.3461
   34TCq2    C7  523   2.002   0.934   9.894 -1.3566  0.7850  0.0398
   34TCq2    C8  524   2.073   1.156   9.869 -0.0108  0.2742  0.5721
   34TCq2    O4  525   2.091   1.156   9.989  0.2999 -0.4443  0.0431
   34TCq2    C9  526   2.263   0.804   9.582 -0.6090 -0.5891  0.1000
   34TCq2    O5  527   2.236   0.692   9.532  0.5566 -0.4463 -0.6064
   34TCq2    O6  528   2.344   0.896   9.546  0.0636  0.5534 -0.0052
   34TCq2    H2  529   2.112   0.648   9.752  0.1431 -0.2965  0.2836
   34TCq2    H3  530   2.187   1.045   9.643 -0.5523  0.6713  1.0466
   34TCq2    H4  531   1.934   0.973   9.968 -3.2574 -0.2204 -1.1944
   35MPD2     C  532   2.611   1.645  11.443  0.3776  0.5592 -0.1833
   35MPD2    C1  533   2.510   1.668  11.540 -0.1166 -0.6457 -0.6504
   35MPD2    C2  534   2.382   1.665  11.497 -0.5976 -0.4697 -0.7734
   35MPD2    C3  535   2.345   1.635  11.371 -0.5584  0.1483  0.6637
   35MPD2    C4  536   2.444   1.614  11.275 -0.4168 -0.2378  0.1548
   35MPD2    C5  537   2.575   1.626  11.314 -0.0129 -0.6000  0.1405
   35MPD2     H  538   2.304   1.682  11.571  0.3107 -2.5968  0.6710
   35MPD2    H1  539   2.421   1.590  11.172  1.8575 -1.5058 -0.0638
   35MPD2    H2  540   2.717   1.645  11.466  0.4586 -0.6142 -0.5444
   35MPD2    H3  541   2.656   1.611  11.243  0.2816 -0.0283  0.3518
   35MPD2     N  542   2.206   1.638  11.345  0.4255 -0.1249  0.0382
   35MPD2    H5  543   2.151   1.676  11.422  0.0186 -0.5481 -0.0397
   35MPD2    N1  544   2.534   1.705  11.673 -0.2856  0.0872 -0.4698
   35MPD2    H7  545   2.449   1.738  11.717  0.2091  0.2606  0.3468
   36TCq2    C1  546   2.142   1.598  11.226 -0.1509 -0.3316 -0.4933
   36TCq2    O2  547   2.190   1.522  11.143  0.3534 -0.1850 -0.4160
   36TCq2    C2  548   2.001   1.619  11.235  0.0364  0.2056 -0.2325
   36TCq2    C3  549   1.917   1.563  11.144 -0.0210  0.5616  0.4540
   36TCq2    C4  550   1.784   1.587  11.142 -0.5744 -0.0346  0.2513
   36TCq2    C5  551   1.729   1.665  11.240  0.0723  0.5320 -0.3620
   36TCq2    C6  552   1.807   1.720  11.332 -0.1240  0.0489  0.6284
   36TCq2    C7  553   1.945   1.702  11.331 -0.0840 -0.6198  0.1754
   36TCq2    C8  554   1.736   1.759  11.455  0.3899 -0.7335  0.0099
   36TCq2    O4  555   1.625   1.808  11.445  0.6850  0.0528  0.4793
   36TCq2    C9  556   1.692   1.529  11.043 -0.1958  0.1892  0.3937
   36TCq2    O5  557   1.567   1.521  11.063  0.5338 -1.1326  0.2833
   36TCq2    O6  558   1.754   1.459  10.959  0.1410 -0.1526 -0.3711
   36TCq2    H2  559   1.960   1.505  11.063 -0.6607 -0.0280  0.5330
   36TCq2    H3  560   1.622   1.661  11.252  0.3216  2.0978  2.4303
   36TCq2    H4  561   2.001   1.745  11.414 -0.9496 -0.8441  0.8743
   37TMC2    C1  562   4.449   1.957  11.515 -0.4896  0.1950 -0.0912
   37TMC2    C2  563   4.482   1.855  11.423 -0.8180  0.1387  0.2036
   37TMC2    C3  564   4.620   1.830  11.416  1.0834  0.0814  0.0775
   37TMC2    C4  565   4.535   2.029  11.580 -1.0114 -0.2163 -1.1849
   37TMC2    C5  566   4.666   2.006  11.556  0.2691 -0.0643  1.3047
   37TMC2    C6  567   4.709   1.889  11.494  0.3131 -0.8602  0.1269
   37TMC2     C  568   4.306   1.980  11.527  0.0281  0.6316  0.3158
   37TMC2     O  569   4.234   1.954  11.433 -0.2343 -0.2569 -0.3081
   37TMC2     H  570   4.419   1.812  11.346  2.0175 -0.8133 -1.5904
   37TMC2    H1  571   4.505   2.120  11.632 -0.8921 -1.2993  0.7562
   37TMC2    H2  572   0.094   1.863  11.483 -0.0361 -0.7366 -3.4234
   37TMC2    C7  573   0.039   2.080  11.636  0.4474 -0.4416 -0.4019
   37TMC2    C8  574   4.659   1.713  11.343 -0.3290 -0.6326  0.1251
   37TMC2    O1  575   0.011   2.149  11.736 -0.6366  0.2253  0.1248
   37TMC2    O2  576   4.690   1.729  11.228  0.8761  0.1023 -0.7453
   37TMC2    O5  577   4.581   1.615  11.387 -0.0190 -0.0347 -0.4361
   37TMC2    H5  578   4.548   1.643  11.475 -0.9058  1.0556 -1.1116
   38MPD2     C  579   3.909   2.095  11.813  0.3848 -0.2684  0.0615
   38MPD2    C1  580   4.018   2.102  11.895  0.1808  0.5208 -0.0527
   38MPD2    C2  581   4.140   2.059  11.844  0.1323  0.3861  0.4872
   38MPD2    C3  582   4.149   2.018  11.713 -0.0792 -0.4914 -0.1994
   38MPD2    C4  583   4.043   2.029  11.630  0.7357 -1.1576 -0.0720
   38MPD2    C5  584   3.922   2.063  11.686  0.2848 -0.2352  0.4818
   38MPD2     H  585   4.227   2.048  11.908  0.9971 -1.0355 -0.9380
   38MPD2    H1  586   4.033   2.019  11.523  0.2052 -0.4293 -0.0942
   38MPD2    H2  587   3.814   2.143  11.835  0.8152  0.7643 -0.3341
   38MPD2    H3  588   3.842   2.055  11.614  1.1397 -0.3632 -0.4446
   38MPD2     N  589   4.275   1.988  11.662 -0.3557  0.1121  0.3802
   38MPD2    H5  590   4.355   1.978  11.725 -0.6815  0.1719  0.7998
   38MPD2    N1  591   4.013   2.153  12.030 -0.2822 -0.0772 -0.2518
   38MPD2    H7  592   4.105   2.163  12.072 -0.5279 -0.7791  0.4400
   39MPD2     C  593   2.426   3.578   1.246  0.4271  0.0199  0.0591
   39MPD2    C1  594   2.330   3.566   1.347  0.4085  0.7093 -0.0677
   39MPD2    C2  595   2.208   3.504   1.333 -0.0406  0.1141 -0.5521
   39MPD2    C3  596   2.174   3.451   1.216  0.0378  0.4656 -0.3329
   39MPD2    C4  597   2.264   3.467   1.107 -0.2768 -0.3774  0.0419
   39MPD2    C5  598   2.387   3.530   1.121 -0.1871 -0.0869 -0.3728
   39MPD2     H  599   2.142   3.503   1.419  2.0732 -1.0909  1.0556
   39MPD2    H1  600   2.258   3.411   1.014  1.3221  0.5531 -0.6325
   39MPD2    H2  601   2.528   3.611   1.262  0.6868 -1.3157  1.1869
   39MPD2    H3  602   2.458   3.535   1.039  2.3030  1.9480  1.8898
   39MPD2     N  603   2.056   3.378   1.192 -0.5479  0.1675 -0.3490
   39MPD2    H5  604   2.033   3.374   1.093  1.3812 -0.8256 -0.7550
   39MPD2    N1  605   2.368   3.625   1.473 -0.2845 -0.8143 -0.4342
   39MPD2    H7  606   2.463   3.659   1.471 -0.6760  0.3571  1.2098
   40TCq2    C1  607   2.304   3.639   1.593 -0.5155  0.4003 -0.4986
   40TCq2    O2  608   2.188   3.616   1.628  0.0932 -0.6203  0.2337
   40TCq2    C2  609   2.396   3.701   1.690  0.5404 -0.7398 -0.2612
   40TCq2    C3  610   2.360   3.821   1.750  0.0404 -0.0669  0.2745
   40TCq2    C4  611   2.457   3.900   1.802 -0.3695 -0.4286 -1.3582
   40TCq2    C5  612   2.589   3.868   1.794  0.3617  0.6488  0.1075
   40TCq2    C6  613   2.616   3.749   1.733  0.1152  0.5259 -0.1060
   40TCq2    C7  614   2.524   3.665   1.672 -0.2502 -0.0447 -0.4342
   40TCq2    C8  615   2.756   3.722   1.691 -0.3260  0.0266  0.9670
   40TCq2    O4  616   2.774   3.638   1.602  0.4739  0.2744 -0.6223
   40TCq2    C9  617   2.425   4.035   1.862  0.8810  0.4893 -0.0629
   40TCq2    O5  618   2.309   4.039   1.912 -0.1944 -0.0361  0.9088
   40TCq2    O6  619   2.515   4.127   1.877  0.5109  1.0527  0.4064
   40TCq2    H2  620   2.253   3.840   1.755 -0.2834 -2.1157  1.1166
   40TCq2    H3  621   2.665   3.944   1.810  1.2781 -0.3416  0.4819
   40TCq2    H4  622   2.555   3.582   1.610  0.2231 -2.6872  3.3336
   41TMC2    C1  623   1.276   0.938  13.577  0.1490  0.0807 -0.4674
   41TMC2    C2  624   1.252   0.815  13.532  0.3131  0.0881 -0.1206
   41TMC2    C3  625   1.180   0.799  13.422 -0.2008  0.1388  0.6850
   41TMC2    C4  626   1.208   1.047  13.524 -0.3395 -0.2608 -0.8449
   41TMC2    C5  627   1.125   1.021  13.417  0.4149  0.4052  0.2148
   41TMC2    C6  628   1.109   0.899  13.371 -0.2152 -0.1668  0.0586
   41TMC2     C  629   1.368   0.954  13.686  0.5270  0.4063  0.6445
   41TMC2     O  630   1.393   0.853  13.748 -0.0262  0.2252 -0.3252
   41TMC2     H  631   1.298   0.733  13.585 -0.2821 -1.6897 -2.3681
   41TMC2    H1  632   1.217   1.139  13.580  1.5792  0.5466 -2.4709
   41TMC2    H2  633   1.043   0.878  13.288  1.3215  2.1375 -1.7554
   41TMC2    C7  634   1.011   1.105  13.380  0.0431 -0.3958 -0.4081
   41TMC2    C8  635   1.144   0.663  13.389 -0.4513  0.1302  1.0465
   41TMC2    O1  636   0.913   1.053  13.326 -0.2494  0.3831 -0.2351
   41TMC2    O2  637   1.033   0.627  13.358 -0.1484  0.2068  0.1254
   41TMC2    O5  638   1.260   0.595  13.398 -0.6388  0.7831  0.0928
   41TMC2    H5  639   1.342   0.648  13.383 -0.8164  0.2969 -2.4683
   42MPD2     C  640   1.574   1.017  13.883 -0.3652  0.0565 -0.1599
   42MPD2    C1  641   1.523   1.109  13.793 -0.3685  0.0000  0.3870
   42MPD2    C2  642   1.578   1.239  13.787  0.7506 -0.5801  0.3468
   42MPD2    C3  643   1.684   1.276  13.875  0.1896 -0.2025  0.1073
   42MPD2    C4  644   1.721   1.181  13.967 -0.0357  0.4131  0.0898
   42MPD2    C5  645   1.668   1.055  13.976 -0.3081  0.3638  0.2504
   42MPD2     H  646   1.538   1.312  13.718 -0.0437 -1.9008 -0.5935
   42MPD2    H1  647   1.793   1.213  14.042  0.5785  0.0094 -0.3260
   42MPD2    H2  648   1.538   0.915  13.884 -0.9708  0.2046 -3.8236
   42MPD2    H3  649   1.697   0.981  14.050 -0.0646  0.8628  0.6589
   42MPD2     N  650   1.741   1.407  13.886  0.1994 -0.3798 -0.3907
   42MPD2    H5  651   1.804   1.427  13.963  0.4321  0.9103 -0.9167
   42MPD2    N1  652   1.425   1.079  13.690  0.1382 -0.3168 -0.1625
   42MPD2    H7  653   1.402   1.153  13.624  0.0179  0.4744  0.7707
   43MPD2     C  654   3.669   0.197   0.711 -0.3800 -0.1552 -0.3325
   43MPD2    C1  655   3.578   0.105   0.757 -0.4175 -0.0599  0.4156
   43MPD2    C2  656   3.446   0.144   0.759  0.5019  0.1351  0.5141
   43MPD2    C3  657   3.408   0.278   0.730  0.0838 -0.7147 -0.9708
   43MPD2    C4  658   3.502   0.368   0.692 -0.3736 -0.1836 -0.0215
   43MPD2    C5  659   3.630   0.326   0.682 -0.4340 -0.4514 -0.1134
   43MPD2     H  660   3.367   0.078   0.793 -0.1044  1.9115  2.5926
   43MPD2    H1  661   3.479   0.472   0.671 -2.0802 -0.4008  0.8172
   43MPD2    H2  662   3.775   0.178   0.696 -0.7612 -2.1286 -0.4437
   43MPD2    H3  663   3.704   0.401   0.656 -0.0614 -0.9641 -0.5268
   43MPD2     N  664   3.276   0.323   0.736 -0.4572 -0.5488 -0.0891
   43MPD2    H5  665   3.253   0.420   0.716  2.6675 -0.0221 -1.0691
   43MPD2    N1  666   3.616   4.693   0.789 -0.6003 -0.1300 -0.0930
   43MPD2    H7  667   3.549   4.628   0.828 -1.4090 -0.9189 -2.7848
   44TCq2    C1  668   2.918   0.660   0.813  0.1574 -0.1532  0.5640
   44TCq2    O2  669   2.991   0.730   0.744  0.2482  0.1734  0.3387
   44TCq2    C2  670   2.918   0.518   0.793  0.4311  0.0826 -0.1358
   44TCq2    C3  671   2.801   0.446   0.801  0.1953 -0.7502  0.7646
   44TCq2    C4  672   2.809   0.310   0.803 -0.2908 -0.1672  0.1845
   44TCq2    C5  673   2.933   0.247   0.787 -0.6220  0.4190 -0.8332
   44TCq2    C6  674   3.050   0.330   0.783 -0.2410  0.1911 -0.2281
   44TCq2    C7  675   3.044   0.466   0.777  0.4660 -0.7443  0.4386
   44TCq2    C8  676   3.170   0.260   0.798  0.7078 -0.7470 -0.5409
   44TCq2    O4  677   3.168   0.156   0.865 -0.3112  0.7593  0.7488
   44TCq2    C9  678   2.690   0.223   0.803  0.0826 -0.2417 -0.0744
   44TCq2    O5  679   2.577   0.273   0.792  0.5847 -0.1377  0.0071
   44TCq2    O6  680   2.705   0.106   0.841  0.0190  0.1594 -0.1267
   44TCq2    H2  681   2.704   0.488   0.823  0.5188  0.2313  0.3302
   44TCq2    H3  682   2.936   0.140   0.768 -2.7246  0.3885 -1.0854
   44TCq2    H4  683   3.132   0.529   0.780 -0.9224  1.2927 -1.1932
   45TMC2    C1  684   3.874   1.865   9.052  0.5046  0.1269  0.3654
   45TMC2    C2  685   4.006   1.902   9.082 -0.0540  0.0215 -0.0322
   45TMC2    C3  686   4.028   1.988   9.190  1.1673 -0.2165  0.0909
   45TMC2    C4  687   3.767   1.925   9.123  0.5315  0.1284  0.1220
   45TMC2    C5  688   3.802   2.017   9.219 -0.1976 -0.2852 -0.0428
   45TMC2    C6  689   3.924   2.045   9.260  0.1596 -0.6590  0.0292
   45TMC2     C  690   3.848   1.749   8.971 -0.2981 -1.3302  0.0600
   45TMC2     O  691   3.945   1.695   8.923  0.3773 -0.0876  0.5931
   45TMC2     H  692   4.088   1.850   9.032 -0.4223 -0.3100 -0.2912
   45TMC2    H1  693   3.662   1.908   9.101  0.1663  1.7061  0.6038
   45TMC2    H2  694   3.960   2.109   9.340 -1.0783  0.8243 -0.5817
   45TMC2    C7  695   3.690   2.080   9.290 -0.3012  0.4903 -0.1668
   45TMC2    C8  696   4.158   2.041   9.211  0.6983 -0.0965  0.0788
   45TMC2    O1  697   3.572   2.045   9.265 -0.4601  0.0390 -0.2603
   45TMC2    O2  698   4.188   2.102   9.311 -0.4382 -0.5465 -0.4536
   45TMC2    O5  699   4.218   2.052   9.086  0.4128  0.4060  0.1017
   45TMC2    H5  700   4.171   2.014   9.009 -3.4250  1.5661  1.8477
   46MPD2     C  701   3.764   1.479   8.899  0.6756 -0.2655 -0.2873
   46MPD2    C1  702   3.675   1.578   8.943 -0.7042 -0.2465  0.6282
   46MPD2    C2  703   3.543   1.550   8.949 -0.4306  0.2275  0.3131
   46MPD2    C3  704   3.499   1.416   8.925 -0.1047 -0.3531 -0.3279
   46MPD2    C4  705   3.589   1.326   8.876  0.1182  0.3354  0.5435
   46MPD2    C5  706   3.723   1.355   8.865  0.2608  0.7518 -0.3584
   46MPD2     H  707   3.474   1.626   8.985  1.0628  1.5874  0.2854
   46MPD2    H1  708   3.559   1.225   8.850  0.0263 -0.0777  2.2167
   46MPD2    H2  709   3.871   1.490   8.904  0.4636  2.1762 -1.2437
   46MPD2    H3  710   3.788   1.273   8.837  1.0547  0.7934  1.3849
   46MPD2     N  711   3.369   1.384   8.956  0.4201  0.3884 -0.8169
   46MPD2    H5  712   3.315   1.445   9.015 -1.6315  0.7232 -3.0369
   46MPD2    N1  713   3.717   1.708   8.980 -0.2735 -0.1764  0.2604
   46MPD2    H7  714   3.651   1.779   9.009  1.2338  0.6181  1.7280
   47TMC2    C1  715   1.755   3.863   8.664  0.2017 -0.0862 -0.3007
   47TMC2    C2  716   1.857   3.803   8.598 -0.3161 -0.5987 -0.4950
   47TMC2    C3  717   1.973   3.877   8.584  0.2998 -0.0593  0.5447
   47TMC2    C4  718   1.764   3.989   8.714  0.0782  0.3035  0.1456
   47TMC2    C5  719   1.879   4.055   8.708  0.3295 -0.1696 -0.2199
   47TMC2    C6  720   1.985   4.005   8.640 -0.4670 -0.2716 -0.6040
   47TMC2     C  721   1.632   3.791   8.697  0.7736 -0.0063 -0.6907
   47TMC2     O  722   1.553   3.837   8.777  0.0043  0.2349  0.1577
   47TMC2     H  723   1.853   3.700   8.561 -0.6586 -0.8239  0.1704
   47TMC2    H1  724   1.674   4.037   8.750  0.8393  0.1281  2.2697
   47TMC2    H2  725   2.081   4.054   8.628 -0.6819  0.6539  1.4065
   47TMC2    C7  726   1.886   4.173   8.795  0.0089 -0.2790 -0.3855
   47TMC2    C8  727   2.099   3.816   8.536 -0.4816 -0.4306 -0.0845
   47TMC2    O1  728   1.779   4.206   8.852 -0.2757  0.0343 -0.0794
   47TMC2    O2  729   2.208   3.839   8.594 -0.8103  0.0333 -0.1466
   47TMC2    O5  730   2.077   3.786   8.407 -0.2004  0.1229 -0.2458
   47TMC2    H5  731   1.981   3.789   8.388 -0.8934 -0.3993  3.1829
   48MPD2     C  732   1.421   3.583   8.745 -0.0816  0.2224 -0.2004
   48MPD2    C1  733   1.557   3.556   8.737 -0.2582  0.1679 -0.3341
   48MPD2    C2  734   1.594   3.425   8.773  0.1376 -0.8431 -0.0468
   48MPD2    C3  735   1.507   3.326   8.817 -0.0043  0.1428  0.6606
   48MPD2    C4  736   1.372   3.355   8.826 -0.6336 -0.1149 -0.6565
   48MPD2    C5  737   1.336   3.486   8.793  0.1195 -0.3381  0.1734
   48MPD2     H  738   1.697   3.393   8.762  0.6720 -0.0111  2.4522
   48MPD2    H1  739   1.300   3.276   8.844 -0.1489 -0.0931  1.3309
   48MPD2    H2  740   1.376   3.680   8.731  0.1107  0.6369  2.1869
   48MPD2    H3  741   1.233   3.517   8.803 -0.0886 -1.2627  0.9025
   48MPD2     N  742   1.562   3.197   8.831 -0.2122  0.0242  0.4216
   48MPD2    H5  743   1.659   3.190   8.805  0.5282  1.3317  2.8424
   48MPD2    N1  744   1.648   3.650   8.690  0.5745  0.2143  0.0037
   48MPD2    H7  745   1.740   3.611   8.673  0.4681 -0.4358  0.8870
   49MPD2     C  746   0.371   4.159   9.933 -0.2631  0.8579  0.5542
   49MPD2    C1  747   0.236   4.170   9.929  0.0285  0.1196 -0.1733
   49MPD2    C2  748   0.176   4.271  10.000 -0.2627  0.4442 -0.3010
   49MPD2    C3  749   0.249   4.377  10.052  0.1212 -0.0623 -0.3333
   49MPD2    C4  750   0.381   4.374  10.049 -0.8188  0.0931 -0.5895
   49MPD2    C5  751   0.444   4.265   9.992 -0.6384  0.4009 -0.2559
   49MPD2     H  752   0.068   4.282  10.002 -0.2692  0.2672  0.4887
   49MPD2    H1  753   0.445   4.453  10.086 -2.0104  1.2179 -0.9360
   49MPD2    H2  754   0.432   4.085   9.882 -2.1858  1.8099 -3.1841
   49MPD2    H3  755   0.552   4.279   9.996 -0.6286 -0.0485  0.9880
   49MPD2     N  756   0.198   4.493  10.112  0.0823  0.1269 -0.1566
   49MPD2    H5  757   0.252   4.569  10.153  0.2777 -0.8409  1.3835
   49MPD2    N1  758   0.156   4.077   9.858  0.1971 -0.6976 -0.1282
   49MPD2    H7  759   0.057   4.090   9.871  0.4268 -1.2244  2.0949
   50TCq2    C1  760   0.196   3.959   9.809  0.0341 -0.2651 -0.0835
   50TCq2    O2  761   0.306   3.899   9.805  0.3435 -0.1579  0.6194
   50TCq2    C2  762   0.082   3.876   9.792 -0.3460 -0.2879 -0.2180
   50TCq2    C3  763   4.691   3.940   9.741 -0.5914 -0.1048  0.1030
   50TCq2    C4  764   4.588   3.866   9.711  1.1042  0.3654 -0.3659
   50TCq2    C5  765   4.599   3.730   9.735 -0.0414  0.6478  0.6806
   50TCq2    C6  766   4.708   3.668   9.788 -0.3236 -0.0130  0.7640
   50TCq2    C7  767   0.100   3.744   9.810  0.5077 -0.5259 -0.8855
   50TCq2    C8  768   4.700   3.530   9.842 -0.2135  0.2590  0.2126
   50TCq2    O4  769   4.589   3.490   9.863 -0.2621  0.0093 -0.2168
   50TCq2    C9  770   4.471   3.935   9.656  0.2206  0.0718  0.4787
   50TCq2    O5  771   4.376   3.866   9.620 -0.4696  0.1772 -0.5848
   50TCq2    O6  772   4.478   4.059   9.667 -0.0837  0.4405  0.8300
   50TCq2    H2  773   4.687   4.045   9.714 -0.5429 -0.6585 -2.0645
   50TCq2    H3  774   4.509   3.673   9.714  2.1765 -2.4975 -0.2881
   50TCq2    H4  775   0.178   3.699   9.870  0.5128  0.4107 -0.1898
   51MPD2     C  776   4.402   2.209   1.071 -0.1742 -0.1334 -0.6409
   51MPD2    C1  777   4.423   2.347   1.080  0.8838  0.2582 -0.0953
   51MPD2    C2  778   4.517   2.393   1.170  0.1796  0.0673 -0.0877
   51MPD2    C3  779   4.592   2.317   1.255 -0.1073  0.2810 -0.3175
   51MPD2    C4  780   4.563   2.182   1.263 -0.1894 -0.5664  0.3264
   51MPD2    C5  781   4.468   2.132   1.173  0.7470  0.5079 -0.8900
   51MPD2     H  782   4.545   2.498   1.161  1.9830 -0.2493  1.7811
   51MPD2    H1  783   4.620   2.119   1.330 -4.1256  1.1438  5.2207
   51MPD2    H2  784   4.342   2.156   0.999 -1.9850 -1.2652  1.7209
   51MPD2    H3  785   4.440   2.029   1.185  0.1552  0.6088 -1.3980
   51MPD2     N  786   4.691   2.375   1.335  0.0042  0.1875 -0.9207
   51MPD2    H5  787   0.028   2.308   1.386 -0.3179 -0.2152 -1.0931
   51MPD2    N1  788   4.361   2.431   0.987 -0.0303  0.3358 -1.0480
   51MPD2    H7  789   4.374   2.530   1.008 -0.0830 -0.0484  0.8271
   52TCq2    C1  790   4.706   2.511   1.366  0.4143  0.1862 -0.5185
   52TCq2    O2  791   4.626   2.602   1.354 -0.0402  0.2608 -0.1338
   52TCq2    C2  792   0.104   2.535   1.445 -0.2333  0.4011  0.7184
   52TCq2    C3  793   0.200   2.442   1.442  0.3325 -0.0537 -0.2741
   52TCq2    C4  794   0.283   2.429   1.547 -0.0750  0.5747  0.2880
   52TCq2    C5  795   0.259   2.494   1.661 -0.1835 -0.8598 -0.3751
   52TCq2    C6  796   0.155   2.581   1.663 -0.4995 -0.2762  0.4741
   52TCq2    C7  797   0.078   2.605   1.556  0.1828 -1.0965 -0.4557
   52TCq2    C8  798   0.131   2.657   1.794 -0.3073  0.1900 -0.2278
   52TCq2    O4  799   0.222   2.665   1.872 -0.1159  0.3426 -0.1483
   52TCq2    C9  800   0.383   2.326   1.535 -0.0294  0.0073 -1.1229
   52TCq2    O5  801   0.404   2.260   1.431 -0.0406  0.4920 -0.4296
   52TCq2    O6  802   0.446   2.297   1.643 -0.6296  0.5149  0.0676
   52TCq2    H2  803   0.235   2.385   1.357  0.8147  1.4199 -1.0721
   52TCq2    H3  804   0.315   2.481   1.753  0.6486  1.0866 -0.6188
   52TCq2    H4  805   0.001   2.682   1.563  2.3138  0.8324  2.0181
   53TMC2    C1  806   0.569   2.274  12.091  0.1495 -0.3166  0.0570
   53TMC2    C2  807   0.678   2.227  12.152  0.2471  0.6161  0.1563
   53TMC2    C3  808   0.674   2.195  12.282  0.0461  0.0635 -0.4807
   53TMC2    C4  809   0.451   2.293  12.156 -0.7187  0.4622 -0.8894
   53TMC2    C5  810   0.453   2.273  12.291 -0.0003  0.0593 -1.3406
   53TMC2    C6  811   0.557   2.214  12.351 -0.7145 -0.5147  0.2377
   53TMC2     C  812   0.578   2.281  11.946  0.1673 -1.0738  0.4916
   53TMC2     O  813   0.685   2.258  11.896 -0.8180 -0.6101  0.3161
   53TMC2     H  814   0.769   2.221  12.093  0.2131  1.5310 -0.0054
   53TMC2    H1  815   0.376   2.350  12.103 -1.0354 -0.9848 -1.9801
   53TMC2    H2  816   0.564   2.189  12.456  2.7912 -1.3986 -0.1875
   53TMC2    C7  817   0.332   2.300  12.361 -0.5389 -0.7261  0.4187
   53TMC2    C8  818   0.795   2.189  12.354  0.3197 -0.2922 -0.1932
   53TMC2    O1  819   0.235   2.321  12.295  0.0119  0.0551  0.1846
   53TMC2    O2  820   0.798   2.218  12.477  0.7782 -0.5220 -0.4063
   53TMC2    O5  821   0.902   2.204  12.272 -0.0420  0.6683  0.4773
   53TMC2    H5  822   0.902   2.164  12.182 -0.0370  3.0508 -0.5832
   54MPD2     C  823   0.523   2.246  11.660 -0.2357 -0.1970  0.3129
   54MPD2    C1  824   0.426   2.237  11.760  0.0573  0.0306 -0.9771
   54MPD2    C2  825   0.303   2.187  11.730  0.5208 -0.0887 -0.4145
   54MPD2    C3  826   0.273   2.149  11.603  0.0624  0.3727 -0.4598
   54MPD2    C4  827   0.361   2.176  11.504 -0.1252 -0.5854 -0.6020
   54MPD2    C5  828   0.483   2.219  11.530  0.4299 -0.3051 -0.4872
   54MPD2     H  829   0.223   2.186  11.803  1.3749  2.0551  0.5688
   54MPD2    H1  830   0.335   2.163  11.400 -0.0463  2.7467 -1.0520
   54MPD2    H2  831   0.625   2.281  11.672  0.2727 -0.7905 -2.2414
   54MPD2    H3  832   0.547   2.234  11.444 -0.1706 -0.2761 -0.9279
   54MPD2     N  833   0.151   2.084  11.566  0.2865  0.6081 -0.3300
   54MPD2    H5  834   0.136   2.049  11.472  0.9078 -1.4245  0.3289
   54MPD2    N1  835   0.451   2.280  11.892  0.1597  0.3534  0.6445
   54MPD2    H7  836   0.376   2.274  11.960  1.6792  2.2181  2.5092
   55MPD2     C  837   0.858   4.016   0.069  0.1163  0.4395 -0.2593
   55MPD2    C1  838   0.768   3.962   0.155 -0.1810 -0.1374  0.6432
   55MPD2    C2  839   0.657   4.044   0.202  0.3221  0.0179  0.0841
   55MPD2    C3  840   0.639   4.167   0.151 -0.0020 -0.0694 -0.6433
   55MPD2    C4  841   0.733   4.222   0.060 -0.1217  0.3796  0.1500
   55MPD2    C5  842   0.846   4.146   0.020 -0.0719  0.1011  0.1743
   55MPD2     H  843   0.602   4.014   0.291  0.1867 -1.2972 -0.4329
   55MPD2    H1  844   0.718   4.325   0.029 -1.7484  0.6958  1.9962
   55MPD2    H2  845   0.949   3.963   0.040 -0.6651 -0.6361 -0.7293
   55MPD2    H3  846   0.928   4.180  17.641  0.8623 -1.5235  0.5326
   55MPD2     N  847   0.526   4.238   0.201  0.1594 -0.0518  0.4745
   55MPD2    H5  848   0.469   4.191   0.270  1.0517  1.5154  2.2851
   55MPD2    N1  849   0.791   3.831   0.207 -0.0879 -0.5957 -0.2642
   55MPD2    H7  850   0.877   3.790   0.174  0.7370  2.4792 -1.8858
   56TCq2    C1  851   0.708   3.768   0.290  0.1527  0.0420  0.3303
   56TCq2    O2  852   0.601   3.800   0.335 -0.4338 -0.1062  0.2331
   56TCq2    C2  853   0.772   3.650   0.335 -0.4214  0.9517  0.0453
   56TCq2    C3  854   0.886   3.599   0.280  0.4755 -0.2316  0.4562
   56TCq2    C4  855   0.936   3.484   0.332 -0.6784 -0.4237  0.1952
   56TCq2    C5  856   0.892   3.431   0.446  0.6652  0.0393  0.8584
   56TCq2    C6  857   0.786   3.485   0.505  0.8011 -0.5999  0.5061
   56TCq2    C7  858   0.725   3.594   0.450 -0.2239 -0.1890 -0.4985
   56TCq2    C8  859   0.732   3.429   0.634  0.1720  0.8026 -0.2152
   56TCq2    O4  860   0.808   3.340   0.678 -0.3540 -0.8424 -0.4312
   56TCq2    C9  861   1.032   3.408   0.252  0.2502  0.1481  0.5490
   56TCq2    O5  862   1.052   3.441   0.133  0.3701  0.2694  0.0184
   56TCq2    O6  863   1.077   3.306   0.315  0.1039  0.3977  0.0191
   56TCq2    H2  864   0.927   3.631   0.184 -1.1740 -2.3337 -0.9559
   56TCq2    H3  865   0.933   3.339   0.484  1.0602  0.5820  1.7356
   56TCq2    H4  866   0.649   3.645   0.509 -1.1922  1.7452 -3.4245
   57TMC2    C1  867   4.640   1.070  13.107  0.1990 -0.3619 -0.6331
   57TMC2    C2  868   4.655   0.935  13.133  0.0069  0.1052  0.2390
   57TMC2    C3  869   4.684   0.852  13.032 -0.5587  0.0054 -0.2176
   57TMC2    C4  870   4.665   1.108  12.975  0.0608  0.0983 -0.2069
   57TMC2    C5  871   4.691   1.023  12.874  0.4847 -0.4945 -0.6134
   57TMC2    C6  872   4.700   0.890  12.904 -0.0686  0.2212  0.2520
   57TMC2     C  873   4.617   1.171  13.206 -0.1865  0.7376  0.9628
   57TMC2     O  874   4.577   1.279  13.163 -0.7823  0.6128 -0.2508
   57TMC2     H  875   4.610   0.888  13.220 -0.9785 -0.2069 -0.4358
   57TMC2    H1  876   4.659   1.211  12.942 -2.3580 -0.1022 -0.4433
   57TMC2    H2  877   0.003   0.812  12.833 -0.1249 -0.1225  0.6091
   57TMC2    C7  878   0.073   1.081  12.784  0.0915 -0.6874 -0.4623
   57TMC2    C8  879   4.706   0.719  13.071 -0.5083 -0.0030  0.4391
   57TMC2    O1  880   0.060   1.196  12.739  0.0260  0.7942 -0.0138
   57TMC2    O2  881   0.038   0.680  13.178 -0.2299  0.0835 -0.3325
   57TMC2    O5  882   4.619   0.649  12.999  0.0794 -0.0240  0.0705
   57TMC2    H5  883   4.565   0.694  12.931  0.1601  1.5598  1.0533
   58MPD2     C  884   4.667   1.342  13.696  0.2741  0.2403  0.0604
   58MPD2    C1  885   4.572   1.362  13.599 -0.3606 -0.3159 -0.3564
   58MPD2    C2  886   4.584   1.300  13.473 -1.1758 -0.5115  0.2971
   58MPD2    C3  887   4.684   1.212  13.446 -0.6739 -0.1290  0.1248
   58MPD2    C4  888   0.061   1.185  13.544 -0.5869  0.5494 -0.0235
   58MPD2    C5  889   0.051   1.257  13.666 -0.1285 -0.7608 -0.0043
   58MPD2     H  890   4.507   1.323  13.400 -1.2501 -3.3395 -0.5281
   58MPD2    H1  891   0.140   1.117  13.516 -1.1211  0.6935 -1.8958
   58MPD2    H2  892   4.661   1.390  13.793  0.9871 -1.7078  1.0684
   58MPD2    H3  893   0.129   1.238  13.740  0.0726 -0.7103 -0.2042
   58MPD2     N  894   4.686   1.133  13.322  0.1036 -0.0492 -0.2115
   58MPD2    H5  895   0.036   1.060  13.314 -1.1917 -1.1216 -1.6767
   58MPD2    N1  896   4.473   1.456  13.617  0.3612 -0.2485 -0.2263
   58MPD2    H7  897   4.434   1.490  13.530  0.7060 -2.5041 -1.2665
   59MPD2     C  898   2.512   1.214  13.182 -0.1279  0.0170 -0.5694
   59MPD2    C1  899   2.624   1.191  13.112  0.0475  0.2855 -0.4974
   59MPD2    C2  900   2.750   1.221  13.148  0.2661  0.2996  0.0366
   59MPD2    C3  901   2.764   1.259  13.280 -0.3653 -0.4941  0.4396
   59MPD2    C4  902   2.653   1.278  13.361  0.0025  0.0501 -0.2485
   59MPD2    C5  903   2.526   1.259  13.311  0.2988 -0.6880  0.6086
   59MPD2     H  904   2.840   1.195  13.093  2.2027  0.8679  2.9258
   59MPD2    H1  905   2.658   1.301  13.467 -1.6177  0.0091 -0.1570
   59MPD2    H2  906   2.412   1.182  13.153 -1.2189  3.3234 -0.5185
   59MPD2    H3  907   2.434   1.252  13.368  0.8466  2.0285  1.7980
   59MPD2     N  908   2.891   1.276  13.338  0.4485 -0.1112 -0.0715
   59MPD2    H5  909   2.889   1.302  13.436 -2.7437  0.2681 -0.2518
   59MPD2    N1  910   2.619   1.138  12.974 -0.8486 -0.3323  0.2905
   59MPD2    H7  911   2.709   1.137  12.928 -0.9891  0.9127 -0.0131
   60TCq2    C1  912   2.508   1.090  12.909  0.9518  1.0153  0.0130
   60TCq2    O2  913   2.390   1.083  12.939  0.4992 -0.3355 -0.1867
   60TCq2    C2  914   2.549   1.014  12.795 -0.6664  0.1980 -0.5394
   60TCq2    C3  915   2.519   0.879  12.790 -0.9317 -0.7579  0.3004
   60TCq2    C4  916   2.549   0.813  12.674 -0.7697  0.0140  0.2786
   60TCq2    C5  917   2.614   0.879  12.571 -0.8245  0.1592  0.6192
   60TCq2    C6  918   2.645   1.010  12.585 -0.4918  0.5822  0.3732
   60TCq2    C7  919   2.619   1.079  12.696 -0.0461  1.0954  0.3085
   60TCq2    C8  920   2.737   1.052  12.481 -0.4512  0.1110  0.4718
   60TCq2    O4  921   2.812   0.975  12.427 -0.2952  0.3868 -0.4817
   60TCq2    C9  922   2.527   0.676  12.664  0.0305 -0.1864 -0.2908
   60TCq2    O5  923   2.465   0.615  12.753  0.5065 -0.4374 -0.8296
   60TCq2    O6  924   2.537   0.632  12.547  0.3661 -0.2291 -0.2800
   60TCq2    H2  925   2.469   0.821  12.865  2.1398 -3.0156  0.6092
   60TCq2    H3  926   2.647   0.831  12.479  0.6276  1.2765  0.5530
   60TCq2    H4  927   2.658   1.180  12.707  0.0931  0.6346  4.1822
   61MPD2     C  928   1.650   2.970  14.586  0.6690 -0.7962  0.8257
   61MPD2    C1  929   1.667   2.903  14.702  0.1423 -1.0655  0.2367
   61MPD2    C2  930   1.753   2.793  14.702  0.0321  0.5088 -0.1991
   61MPD2    C3  931   1.840   2.772  14.598 -0.1725 -0.1045 -0.0494
   61MPD2    C4  932   1.839   2.855  14.493 -0.3630  0.4789 -0.6058
   61MPD2    C5  933   1.737   2.952  14.481 -0.3326  0.3789  0.5361
   61MPD2     H  934   1.757   2.735  14.793 -1.2719 -1.6703 -1.5111
   61MPD2    H1  935   1.904   2.842  14.407 -0.1542  1.5685 -0.6039
   61MPD2    H2  936   1.585   3.056  14.572 -0.4387 -1.7270  0.2799
   61MPD2    H3  937   1.727   3.009  14.389 -1.2453 -0.6862 -0.0288
   61MPD2     N  938   1.928   2.664  14.599 -0.7551  0.1501  0.0170
   61MPD2    H5  939   1.996   2.664  14.523 -0.1398 -1.0959  0.5606
   61MPD2    N1  940   1.612   2.939  14.825  0.0500 -0.4138 -0.6478
   61MPD2    H7  941   1.652   2.896  14.908  2.1774  0.7387 -1.0901
   62TCq2    C1  942   1.503   3.022  14.848 -0.0952 -0.0405 -0.1815
   62TCq2    O2  943   1.411   3.050  14.775  0.0834  0.0010 -0.0083
   62TCq2    C2  944   1.492   3.046  14.992  0.0863  0.5373  0.3138
   62TCq2    C3  945   1.366   3.066  15.029 -0.2580 -0.2405 -0.2610
   62TCq2    C4  946   1.349   3.114  15.156 -0.6266 -0.4445 -0.7827
   62TCq2    C5  947   1.460   3.151  15.234 -0.1495 -0.4326 -0.4959
   62TCq2    C6  948   1.584   3.135  15.184  0.7719  0.0709 -0.2982
   62TCq2    C7  949   1.602   3.074  15.066 -0.6824 -0.2265  0.2381
   62TCq2    C8  950   1.699   3.202  15.249 -0.8148 -0.0905  0.1104
   62TCq2    O4  951   1.805   3.202  15.190  0.0006 -0.1294 -0.0444
   62TCq2    C9  952   1.214   3.140  15.203 -0.3284  0.3925 -0.7796
   62TCq2    O5  953   1.193   3.163  15.323  0.0548 -0.3393 -0.0155
   62TCq2    O6  954   1.128   3.126  15.116 -0.1292  0.2359  0.4032
   62TCq2    H2  955   1.288   3.041  14.958 -1.9906 -1.6831  2.1359
   62TCq2    H3  956   1.431   3.211  15.319  0.3212  0.3492 -0.8793
   62TCq2    H4  957   1.700   3.076  15.019 -1.1163  1.8704 -0.5613
   63TMC2    C1  958   1.475   2.765  10.895  0.1491  0.1099  0.4152
   63TMC2    C2  959   1.517   2.827  11.010  0.8311  0.1325  0.3123
   63TMC2    C3  960   1.650   2.838  11.027  0.2513 -0.2749 -0.7840
   63TMC2    C4  961   1.561   2.729  10.794 -0.4320  0.4059  0.0027
   63TMC2    C5  962   1.692   2.730  10.812  0.4918  0.3831 -0.1054
   63TMC2    C6  963   1.732   2.798  10.923  0.0247  0.0371  0.9700
   63TMC2     C  964   1.352   2.689  10.912  0.1504  0.1209 -0.4175
   63TMC2     O  965   1.263   2.735  10.983  0.2316  0.5098  0.4195
   63TMC2     H  966   1.448   2.862  11.085 -0.2281  0.2532 -0.7233
   63TMC2    H1  967   1.534   2.680  10.701  1.3886 -0.7526  0.0848
   63TMC2    H2  968   1.838   2.818  10.935  0.1664 -0.1614  0.0952
   63TMC2    C7  969   1.781   2.671  10.706 -0.4597 -0.0774 -0.0164
   63TMC2    C8  970   1.700   2.926  11.131 -0.4984  0.3185  0.4729
   63TMC2    O1  971   1.726   2.588  10.637  0.2528 -0.0562 -0.0034
   63TMC2    O2  972   1.638   2.951  11.227  0.1045 -0.2948 -0.5016
   63TMC2    O5  973   1.786   3.012  11.077 -0.2120 -0.1578  0.4833
   63TMC2    H5  974   1.822   2.978  10.992  2.3674 -0.6090  1.7584
   64MPD2     C  975   1.086   2.250  10.848 -0.1642 -0.1815  0.0018
   64MPD2    C1  976   1.212   2.240  10.794  1.0369 -1.1227  0.3249
   64MPD2    C2  977   1.297   2.349  10.790  0.0079 -0.0787  0.2126
   64MPD2    C3  978   1.257   2.468  10.839 -0.0901  0.8115 -0.4009
   64MPD2    C4  979   1.131   2.483  10.893 -0.5057 -0.7356  0.4995
   64MPD2    C5  980   1.046   2.376  10.898 -0.3416 -0.5050  0.2898
   64MPD2     H  981   1.400   2.336  10.757  0.0151  0.7298 -0.0650
   64MPD2    H1  982   1.101   2.578  10.936 -0.3768 -0.9729  1.0998
   64MPD2    H2  983   1.023   2.164  10.870 -0.6478 -0.0014 -0.6991
   64MPD2    H3  984   0.952   2.376  10.951  0.7134 -1.2290  2.1507
   64MPD2     N  985   1.356   2.569  10.841  0.0019 -0.2980 -0.5863
   64MPD2    H5  986   1.445   2.547  10.798  0.5339 -0.7116  0.7198
   64MPD2    N1  987   1.271   2.118  10.750  0.5734  0.0025 -0.3062
   64MPD2    H7  988   1.368   2.130  10.722 -0.2106  1.1992 -2.5660
   65MPD2     C  989   2.347   2.033  15.715  0.0492  0.3943  0.5505
   65MPD2    C1  990   2.359   1.983  15.587 -0.2101  0.1047  0.0959
   65MPD2    C2  991   2.375   1.847  15.575  0.0069  0.2186 -1.0180
   65MPD2    C3  992   2.378   1.757  15.685 -0.5322  0.0496  0.4861
   65MPD2    C4  993   2.346   1.810  15.806 -0.9973  0.2265  0.2656
   65MPD2    C5  994   2.334   1.946  15.824 -0.4716  1.3402 -0.0003
   65MPD2     H  995   2.406   1.801  15.482  2.4531  0.8529 -0.5233
   65MPD2    H1  996   2.333   1.741  15.888 -1.3919  0.6310  0.5458
   65MPD2    H2  997   2.347   2.139  15.736  0.9253  0.2582  1.2588
   65MPD2    H3  998   2.311   1.988  15.921  1.6852  0.6727  0.7748
   65MPD2     N  999   2.399   1.617  15.681  0.7819 -0.2536 -0.2862
   65MPD2    H5 1000   2.393   1.561  15.766  0.0319 -1.0205 -0.8315
   65MPD2    N1 1001   2.350   2.056  15.466 -0.4264  0.3108 -0.0022
   65MPD2    H7 1002   2.349   2.000  15.381  1.5742 -0.7461  0.6685
   66TCq2    C1 1003   2.301   2.181  15.468 -0.1434 -0.4221 -0.0536
   66TCq2    O2 1004   2.263   2.253  15.564  0.2594  0.0147 -0.2005
   66TCq2    C2 1005   2.280   2.238  15.339 -0.3250  0.4148  0.3419
   66TCq2    C3 1006   2.374   2.200  15.243 -0.3452 -1.0179  0.0807
   66TCq2    C4 1007   2.381   2.279  15.133 -0.0549  0.0332  0.8887
   66TCq2    C5 1008   2.310   2.392  15.125  0.9469  0.7335 -0.7750
   66TCq2    C6 1009   2.219   2.424  15.221  0.4428  0.2719  0.2990
   66TCq2    C7 1010   2.210   2.350  15.333 -0.2897  0.4142 -0.0312
   66TCq2    C8 1011   2.158   2.562  15.216  0.0168 -0.3157  0.0479
   66TCq2    O4 1012   2.178   2.621  15.108  0.0109  0.7300  0.2626
   66TCq2    C9 1013   2.466   2.245  15.018  0.3953 -0.2557 -0.5927
   66TCq2    O5 1014   2.520   2.131  15.012  0.3119  0.0669  0.5012
   66TCq2    O6 1015   2.491   2.336  14.935 -0.0259  0.0101 -0.4444
   66TCq2    H2 1016   2.418   2.102  15.227  0.5009 -0.7370  0.7256
   66TCq2    H3 1017   2.305   2.449  15.033  0.1277  0.3906 -0.9395
   66TCq2    H4 1018   2.132   2.371  15.405  0.7003 -0.0043  1.1580
   67MPD2     C 1019   2.399   1.724  13.998  0.3854 -0.0648  0.3309
   67MPD2    C1 1020   2.439   1.857  14.028 -0.6076  0.1765 -0.4198
   67MPD2    C2 1021   2.415   1.960  13.938 -0.1820  0.0654 -1.1375
   67MPD2    C3 1022   2.357   1.936  13.817  0.7554 -0.1630 -0.2855
   67MPD2    C4 1023   2.316   1.810  13.788 -0.2134 -0.0469  0.7806
   67MPD2    C5 1024   2.343   1.707  13.871  0.7176  0.3169  0.0239
   67MPD2     H 1025   2.456   2.055  13.969  2.0606 -0.8785 -1.2397
   67MPD2    H1 1026   2.261   1.786  13.698  1.2891 -1.0391  0.1130
   67MPD2    H2 1027   2.412   1.646  14.073  0.0510 -0.8370 -0.4215
   67MPD2    H3 1028   2.319   1.605  13.846  1.7051  0.5919 -2.0562
   67MPD2     N 1029   2.332   2.036  13.715  0.6193  0.3617 -0.1385
   67MPD2    H5 1030   2.259   2.014  13.649  1.0496 -2.4404  0.3169
   67MPD2    N1 1031   2.509   1.893  14.144  0.1009  0.6978 -0.6689
   67MPD2    H7 1032   2.525   1.990  14.172 -0.0394  0.0679  1.6322
   68TCq2    C1 1033   2.572   1.809  14.231  0.4597  0.2906 -0.0582
   68TCq2    O2 1034   2.601   1.688  14.223  0.3702 -0.7858  0.1461
   68TCq2    C2 1035   2.635   1.889  14.336 -0.2088  0.2184 -0.0720
   68TCq2    C3 1036   2.583   2.010  14.366 -0.0714  0.0310  0.2927
   68TCq2    C4 1037   2.648   2.089  14.459 -0.5552 -0.6118  0.5680
   68TCq2    C5 1038   2.756   2.043  14.530  0.1039 -1.0177  0.3697
   68TCq2    C6 1039   2.788   1.910  14.514  0.0268 -0.1341  0.4071
   68TCq2    C7 1040   2.738   1.837  14.413  0.6623 -0.9566 -0.7094
   68TCq2    C8 1041   2.887   1.847  14.595  0.2798  0.5174  0.0508
   68TCq2    O4 1042   2.950   1.748  14.563  0.4758  0.2437 -0.1193
   68TCq2    C9 1043   2.590   2.212  14.490  0.2722 -0.0076  0.2318
   68TCq2    O5 1044   2.558   2.275  14.384 -0.3384  0.2338  0.5838
   68TCq2    O6 1045   2.618   2.263  14.600  0.4892 -0.7343 -0.1317
   68TCq2    H2 1046   2.482   2.037  14.340  0.0963  1.4460  1.1363
   68TCq2    H3 1047   2.804   2.114  14.596 -2.6299  1.1786 -0.0200
   68TCq2    H4 1048   2.767   1.734  14.403 -1.1840 -1.6445  1.0144
   69TMC2    C1 1049   4.188   2.878  11.784  0.4486 -0.0184 -1.0196
   69TMC2    C2 1050   4.121   2.760  11.765  0.6122  0.4081 -0.0637
   69TMC2    C3 1051   4.124   2.715  11.639  0.1606 -0.1726  0.3054
   69TMC2    C4 1052   4.254   2.943  11.682 -0.1617 -0.6827 -0.1711
   69TMC2    C5 1053   4.268   2.877  11.561  0.7487 -0.1307  0.3289
   69TMC2    C6 1054   4.202   2.761  11.539  0.0565 -0.2212  0.7982
   69TMC2     C 1055   4.208   2.917  11.918 -0.6423 -0.1195 -0.4104
   69TMC2     O 1056   4.143   2.868  12.011 -0.2754  0.2116 -0.4361
   69TMC2     H 1057   4.066   2.713  11.845 -0.0517  2.2258  0.5558
   69TMC2    H1 1058   4.301   3.040  11.692 -0.0163 -0.8351  0.5903
   69TMC2    H2 1059   4.216   2.702  11.449 -0.9277  0.9833 -0.1509
   69TMC2    C7 1060   4.408   2.879  11.532 -0.2533  0.2581 -1.1219
   69TMC2    C8 1061   4.028   2.611  11.601 -0.4653 -0.1112  0.5731
   69TMC2    O1 1062   4.478   2.906  11.629  0.1367 -0.4946  0.2437
   69TMC2    O2 1063   3.980   2.535  11.679 -0.6517  0.3491 -0.0253
   69TMC2    O5 1064   3.961   2.660  11.495 -0.8993  0.1165  0.1017
   69TMC2    H5 1065   3.992   2.748  11.465 -1.9911  0.1800 -0.8587
   70MPD2     C 1066   4.418   3.205  12.012  0.0990 -0.4179 -0.6856
   70MPD2    C1 1067   4.322   3.114  12.031 -0.0037 -0.9124 -0.9671
   70MPD2    C2 1068   4.258   3.093  12.155  0.3919  1.0800 -0.0865
   70MPD2    C3 1069   4.294   3.168  12.261 -0.3302 -0.1913 -0.9353
   70MPD2    C4 1070   4.391   3.263  12.250  0.0010 -0.1609  0.1597
   70MPD2    C5 1071   4.454   3.281  12.124  0.0609 -0.1358 -0.2878
   70MPD2     H 1072   4.173   3.026  12.162 -0.2699  1.8579 -0.5581
   70MPD2    H1 1073   4.421   3.331  12.329 -0.3291  2.4812 -1.9888
   70MPD2    H2 1074   4.470   3.212  11.917 -0.2033 -1.3416 -0.9279
   70MPD2    H3 1075   4.540   3.347  12.122  1.5154 -2.0299 -0.1612
   70MPD2     N 1076   4.246   3.156  12.392 -0.6409 -0.1918 -0.2810
   70MPD2    H5 1077   4.287   3.220  12.458 -0.2213 -2.2808  1.4817
   70MPD2    N1 1078   4.291   3.027  11.922 -0.4769  0.4134 -0.0767
   70MPD2    H7 1079   4.339   3.048  11.834  2.4758 -1.8652  1.0150
   71TMC2    C1 1080   1.981   3.008   1.675  0.4083  0.8071  0.3623
   71TMC2    C2 1081   2.072   3.065   1.756  0.1166  0.1927 -1.1419
   71TMC2    C3 1082   2.050   3.068   1.887  0.0347  0.2231 -0.3431
   71TMC2    C4 1083   1.862   2.959   1.724 -0.4098  0.3545 -0.8877
   71TMC2    C5 1084   1.839   2.968   1.864  0.8525  0.1048 -0.0914
   71TMC2    C6 1085   1.933   3.023   1.950 -0.5381  0.1698 -0.0156
   71TMC2     C 1086   2.014   2.995   1.538 -0.2573 -0.4153  0.6133
   71TMC2     O 1087   2.136   2.996   1.507 -0.0509 -0.0248  0.1868
   71TMC2     H 1088   2.172   3.082   1.718 -0.0206  0.8780 -1.2090
   71TMC2    H1 1089   1.796   2.919   1.648 -2.4429 -0.2019  1.1807
   71TMC2    H2 1090   1.910   3.045   2.054 -0.2938  2.9396 -0.5443
   71TMC2    C7 1091   1.698   2.954   1.914  0.0943 -0.3555  0.0251
   71TMC2    C8 1092   2.141   3.156   1.969  0.1076  0.1859 -0.6878
   71TMC2    O1 1093   1.666   2.981   2.027 -0.2341  0.3686  0.3664
   71TMC2    O2 1094   2.149   3.142   2.091  0.0668 -0.4125 -0.0089
   71TMC2    O5 1095   2.189   3.252   1.885 -0.4079 -0.1277  0.4861
   71TMC2    H5 1096   2.133   3.251   1.804 -0.5708  1.2387  0.5752
   72MPD2     C 1097   1.912   2.823   1.069  0.6240 -0.7029 -0.2342
   72MPD2    C1 1098   2.026   2.871   1.119  0.6344  0.3194  0.6707
   72MPD2    C2 1099   2.031   2.929   1.240  0.0634  0.5370 -0.2780
   72MPD2    C3 1100   1.919   2.932   1.319 -0.0542  0.2638 -0.4132
   72MPD2    C4 1101   1.800   2.896   1.258 -0.5976 -0.1689 -0.6066
   72MPD2    C5 1102   1.794   2.847   1.131  0.0417  0.1833 -0.0061
   72MPD2     H 1103   2.126   2.974   1.268  0.1214  0.1693  0.1288
   72MPD2    H1 1104   1.720   2.887   1.330  0.0603  2.2197  0.4194
   72MPD2    H2 1105   1.906   2.785   0.967  2.8063  0.2751 -0.7484
   72MPD2    H3 1106   1.700   2.812   1.088 -1.8222  0.4770  3.8641
   72MPD2     N 1107   1.911   2.976   1.451  0.3264 -0.0092 -0.3681
   72MPD2    H5 1108   1.824   2.989   1.503  2.1451 -1.9508  3.1838
   72MPD2    N1 1109   2.147   2.865   1.045 -0.5624 -0.1956 -0.4903
   72MPD2    H7 1110   2.214   2.930   1.085 -0.2662 -0.3338 -0.7561
   73TMC2    C1 1111   2.593   0.193  13.939 -0.0546 -0.1624  0.0983
   73TMC2    C2 1112   2.494   0.185  14.026  0.1362  0.4935 -0.5787
   73TMC2    C3 1113   2.522   0.218  14.160  0.6436  0.3902 -0.2668
   73TMC2    C4 1114   2.723   0.225  13.986 -0.2855 -0.2007  0.4182
   73TMC2    C5 1115   2.741   0.273  14.113  0.2574  0.0957 -0.5269
   73TMC2    C6 1116   2.640   0.269  14.208  0.1714  0.3816  0.1955
   73TMC2     C 1117   2.570   0.266  13.821 -0.4371  0.0939 -0.7298
   73TMC2     O 1118   2.658   0.348  13.788 -0.2853 -0.4708 -0.4521
   73TMC2     H 1119   2.390   0.175  13.997  0.2835 -2.2718 -0.1063
   73TMC2    H1 1120   2.801   0.243  13.913 -2.9551 -1.4444 -2.7105
   73TMC2    H2 1121   2.653   0.299  14.311  0.2661 -1.3132  0.6667
   73TMC2    C7 1122   2.806   0.402  14.121  0.0646 -0.4575  0.1361
   73TMC2    C8 1123   2.400   0.226  14.243 -0.0602 -0.0682  0.1058
   73TMC2    O1 1124   2.839   0.442  14.231  0.7277 -0.0622  0.0019
   73TMC2    O2 1125   2.287   0.233  14.197  0.4555 -0.4811 -0.4688
   73TMC2    O5 1126   2.439   0.201  14.373 -0.0854  0.1386 -0.0191
   73TMC2    H5 1127   2.535   0.208  14.388 -0.2916 -1.1944  1.7596
   74MPD2     C 1128   2.311   0.403  13.399 -0.2936  0.0308 -0.9229
   74MPD2    C1 1129   2.399   0.478  13.479 -0.1941 -0.0313  0.8062
   74MPD2    C2 1130   2.453   0.418  13.596 -0.0400 -0.0415 -0.1472
   74MPD2    C3 1131   2.413   0.287  13.641  0.3221  0.8585 -0.2606
   74MPD2    C4 1132   2.311   0.226  13.565 -0.2229  0.0576 -0.9206
   74MPD2    C5 1133   2.265   0.283  13.446  0.2467  0.0759  0.4438
   74MPD2     H 1134   2.509   0.476  13.668 -0.7160 -0.9531  1.1259
   74MPD2    H1 1135   2.287   0.123  13.589 -0.3236  0.4130  0.4901
   74MPD2    H2 1136   2.275   0.433  13.302 -0.4389 -0.4632 -1.0210
   74MPD2    H3 1137   2.220   0.213  13.376 -1.0922  1.0124  0.3756
   74MPD2     N 1138   2.468   0.222  13.750  0.0732  0.4623  0.0919
   74MPD2    H5 1139   2.425   0.133  13.776 -0.6219  0.3041 -1.5889
   74MPD2    N1 1140   2.429   0.612  13.437 -0.3155  0.0795 -0.2998
   74MPD2    H7 1141   2.380   0.657  13.360  0.1176 -1.5209 -1.5158
   75TCq2    C1 1142   2.377   2.168  13.721  0.2756  0.4848  0.0729
   75TCq2    O2 1143   2.438   2.222  13.810  0.1132 -0.4307 -0.0685
   75TCq2    C2 1144   2.330   2.265  13.620 -0.1755 -0.0286 -0.1700
   75TCq2    C3 1145   2.357   2.396  13.652  0.1409  0.0694  0.4961
   75TCq2    C4 1146   2.313   2.486  13.564  0.1176 -0.1882 -0.0599
   75TCq2    C5 1147   2.236   2.458  13.447 -0.8610 -0.5133 -0.5534
   75TCq2    C6 1148   2.203   2.326  13.426 -0.4143 -0.3229  0.3007
   75TCq2    C7 1149   2.256   2.225  13.511  0.7349 -0.3179  0.2832
   75TCq2    C8 1150   2.126   2.279  13.308  0.0045 -0.0154  0.3749
   75TCq2    O4 1151   2.107   2.158  13.301  0.1442 -0.3547  0.3517
   75TCq2    C9 1152   2.340   2.620  13.586 -1.0327  0.8903  0.6577
   75TCq2    O5 1153   2.287   2.705  13.513 -0.2543  0.3304  0.3890
   75TCq2    O6 1154   2.413   2.659  13.682  0.4894  0.2282 -0.3748
   75TCq2    H2 1155   2.419   2.420  13.738 -1.9563 -0.9150  2.2691
   75TCq2    H3 1156   2.208   2.534  13.376 -2.7707 -0.3453  0.3704
   75TCq2    H4 1157   2.210   2.128  13.499 -0.3182  0.2019  0.0849
   76MPD2     C 1158   0.600   2.574  12.233 -0.3538 -0.0566  0.0697
   76MPD2    C1 1159   0.677   2.590  12.118 -0.6127 -0.0390  0.2552
   76MPD2    C2 1160   0.814   2.564  12.128 -0.2409  0.6093 -0.0333
   76MPD2    C3 1161   0.877   2.545  12.254  0.4235  0.3013 -0.1125
   76MPD2    C4 1162   0.798   2.525  12.363  0.0611  0.1603 -0.1605
   76MPD2    C5 1163   0.661   2.535  12.352 -0.0846  0.2625  0.5233
   76MPD2     H 1164   0.868   2.558  12.034  0.1785  2.2487  0.0933
   76MPD2    H1 1165   0.837   2.509  12.462  0.2167 -0.0023 -0.2496
   76MPD2    H2 1166   0.492   2.578  12.225 -0.2040 -1.5425 -2.7893
   76MPD2    H3 1167   0.606   2.520  12.444  1.1609 -1.2671  1.0224
   76MPD2     N 1168   1.021   2.541  12.271 -0.1804  0.1380  0.0111
   76MPD2    H5 1169   1.063   2.502  12.355  0.9204 -2.5091 -1.7453
   76MPD2    N1 1170   0.630   2.636  11.993  0.6396 -0.7367  0.3833
   76MPD2    H7 1171   0.703   2.664  11.929  1.0992 -0.2125  1.1358
   77TCq2    C1 1172   1.114   2.584  12.182  0.3202 -0.3123  0.5451
   77TCq2    O2 1173   1.088   2.658  12.087  0.6435 -0.7831  0.4923
   77TCq2    C2 1174   1.256   2.564  12.222  0.5806 -0.2212  0.2075
   77TCq2    C3 1175   1.338   2.672  12.194 -0.4207 -0.1512 -0.5282
   77TCq2    C4 1176   1.461   2.685  12.252  0.1925 -0.0720 -0.7189
   77TCq2    C5 1177   1.498   2.596  12.346  0.2735 -0.5635  0.7898
   77TCq2    C6 1178   1.410   2.499  12.375  0.0343 -0.4961  0.6936
   77TCq2    C7 1179   1.289   2.471  12.317 -0.6490 -0.0758 -0.6552
   77TCq2    C8 1180   1.469   2.396  12.462 -1.0502 -0.2719  0.0506
   77TCq2    O4 1181   1.592   2.393  12.477  0.2755 -0.4486 -0.0622
   77TCq2    C9 1182   1.554   2.796  12.229  0.3237 -0.0825 -0.2655
   77TCq2    O5 1183   1.515   2.883  12.146 -0.5976  0.2410 -0.4949
   77TCq2    O6 1184   1.672   2.786  12.273  0.1144 -0.6984  0.7707
   77TCq2    H2 1185   1.308   2.742  12.117 -0.5695  0.1972 -0.1577
   77TCq2    H3 1186   1.594   2.597  12.397  1.0302 -0.4663 -0.6185
   77TCq2    H4 1187   1.231   2.382  12.338  0.5063 -0.2315  1.8605
   78MPD1     C 1188   1.342   2.626   2.065 -0.0169  0.0307  0.3328
   78MPD1    C1 1189   1.227   2.571   2.013  0.1300 -0.0854 -0.1790
   78MPD1    C2 1190   1.237   2.496   1.896 -0.4767  0.3546 -0.3200
   78MPD1    C3 1191   1.350   2.492   1.824 -0.0467 -0.5498 -0.5353
   78MPD1    C4 1192   1.454   2.565   1.867 -0.8651  0.0966  0.4009
   78MPD1    C5 1193   1.451   2.635   1.985 -0.0667 -0.4813  0.4241
   78MPD1     H 1194   1.153   2.444   1.852  1.2330 -1.1138 -1.8374
   78MPD1    H1 1195   1.548   2.565   1.813  1.3838  2.5205  4.3169
   78MPD1    H2 1196   1.340   2.674   2.163  0.8535 -1.2153  0.9601
   78MPD1    H3 1197   1.536   2.692   2.022  0.0832  0.4141 -1.2539
   78MPD1     N 1198   1.357   2.434   1.695  0.4174 -1.0682 -0.3795
   78MPD1    H5 1199   1.445   2.449   1.647  0.5690  0.5537  0.3850
   78MPD1    N1 1200   1.114   2.554   2.092 -0.3501 -0.1915 -0.3673
   78MPD1    H6 1201   1.108   2.604   2.181 -1.6994  1.4387 -1.3523
   78MPD1    H7 1202   1.027   2.561   2.039 -1.5344 -0.6698  1.5018
   79TCq2    C1 1203   1.259   2.366   1.630 -0.0761  0.4892  0.6922
   79TCq2    O2 1204   1.159   2.307   1.664 -0.9351 -1.0683 -0.2587
   79TCq2    C2 1205   1.300   2.324   1.495  0.0044 -0.3381  0.4319
   79TCq2    C3 1206   1.211   2.248   1.423  0.5216  0.4318 -0.0867
   79TCq2    C4 1207   1.238   2.203   1.299 -0.9842 -0.4152 -0.5225
   79TCq2    C5 1208   1.344   2.247   1.226 -0.4135 -0.3305  0.1638
   79TCq2    C6 1209   1.430   2.330   1.294  0.6574  0.5446 -0.0025
   79TCq2    C7 1210   1.413   2.371   1.424  0.0593  0.6057  0.8777
   79TCq2    C8 1211   1.552   2.382   1.240 -0.3412 -0.6318 -0.2638
   79TCq2    O4 1212   1.638   2.408   1.318 -0.8625  0.2996  0.3639
   79TCq2    C9 1213   1.151   2.116   1.230 -0.1189 -0.6954 -0.3492
   79TCq2    O5 1214   1.050   2.073   1.296 -0.8379 -0.1750 -0.1915
   79TCq2    O6 1215   1.192   2.078   1.113 -0.6735 -0.2500  0.1593
   79TCq2    H2 1216   1.129   2.204   1.479 -1.3480  1.5701 -1.9344
   79TCq2    H3 1217   1.379   2.212   1.130  1.9374  1.9134  0.1989
   79TCq2    H4 1218   1.483   2.437   1.475 -1.0409  1.9599  0.6387
   80MPD2     C 1219   0.046   2.084  12.420 -0.5009 -0.1437 -0.9919
   80MPD2    C1 1220   4.699   2.073  12.297 -0.6012 -0.1813  0.4927
   80MPD2    C2 1221   4.559   2.098  12.296  0.3018  0.4098  0.2189
   80MPD2    C3 1222   4.491   2.131  12.409 -0.0893 -0.3535 -0.9684
   80MPD2    C4 1223   4.558   2.147  12.523  0.1080 -0.4102  0.1476
   80MPD2    C5 1224   4.692   2.120  12.529  0.5513  0.4813  0.4934
   80MPD2     H 1225   4.499   2.094  12.206  2.7456 -0.0199 -1.3910
   80MPD2    H1 1226   4.509   2.165  12.618 -0.9394  0.1724 -0.5001
   80MPD2    H2 1227   0.153   2.068  12.431 -0.2506  1.8732 -0.5921
   80MPD2    H3 1228   0.019   2.128  12.627 -1.1096  1.5464  1.2078
   80MPD2     N 1229   4.353   2.166  12.417 -0.3263 -0.3875  0.1507
   80MPD2    H5 1230   4.321   2.162  12.513 -1.6967 -1.3879 -0.3391
   80MPD2    N1 1231   0.045   2.029  12.178  0.6595 -0.0768 -0.0795
   80MPD2    H7 1232   4.709   2.019  12.094  2.4626 -1.4872 -1.1264
   81TCq2    C1 1233   0.180   2.007  12.163  0.4128 -0.3741 -0.7502
   81TCq2    O2 1234   0.271   2.016  12.242  0.2640  0.1821  0.0550
   81TCq2    C2 1235   0.213   1.956  12.035 -0.7585  0.2987 -0.0339
   81TCq2    C3 1236   0.343   1.959  11.998 -0.1903 -0.2987  1.0046
   81TCq2    C4 1237   0.392   1.889  11.897 -0.4878 -0.4630  0.1088
   81TCq2    C5 1238   0.304   1.816  11.819  0.0415 -0.1576  1.0334
   81TCq2    C6 1239   0.172   1.805  11.858 -0.8489 -0.2595 -0.1206
   81TCq2    C7 1240   0.120   1.878  11.963 -0.4398  0.2886  0.3061
   81TCq2    C8 1241   0.097   1.692  11.817 -0.1262 -0.3108  0.0967
   81TCq2    O4 1242   0.128   1.641  11.709  0.0111  0.2023  0.1415
   81TCq2    C9 1243   0.534   1.900  11.864  0.3141 -0.0116 -0.2216
   81TCq2    O5 1244   0.548   1.862  11.745  0.1119  0.1143 -0.5993
   81TCq2    O6 1245   0.623   1.939  11.945  0.4234 -0.5805  0.2933
   81TCq2    H2 1246   0.414   2.016  12.058 -0.9740  2.2250 -0.4378
   81TCq2    H3 1247   0.349   1.748  11.748  0.2282 -0.8031  1.7641
   81TCq2    H4 1248   0.016   1.877  11.994 -0.9206 -2.8524 -1.4265
   82MPD2     C 1249   3.758   1.335  10.177  0.1057 -0.7365 -1.2957
   82MPD2    C1 1250   3.678   1.226  10.204  0.9309  0.1696 -0.1959
   82MPD2    C2 1251   3.700   1.164  10.321  0.3749  0.4841 -0.0199
   82MPD2    C3 1252   3.799   1.210  10.407  0.5824 -0.1546  0.0848
   82MPD2    C4 1253   3.876   1.323  10.378 -0.1511 -0.0328 -0.0407
   82MPD2    C5 1254   3.860   1.382  10.260  0.2016  0.7283 -0.1159
   82MPD2     H 1255   3.631   1.089  10.359 -0.9109  0.8884 -1.5346
   82MPD2    H1 1256   3.959   1.358  10.439 -0.8420 -0.6761  1.2408
   82MPD2    H2 1257   3.749   1.392  10.085 -0.1264 -1.0279 -1.4527
   82MPD2    H3 1258   3.909   1.475  10.235  2.5473 -0.2810  0.6789
   82MPD2     N 1259   3.807   1.154  10.538 -0.6252  0.2146 -0.7561
   82MPD2    H5 1260   3.887   1.190  10.589  0.6638 -0.4729 -2.3183
   82MPD2    N1 1261   3.579   1.193  10.117  0.0716  0.3763 -0.4710
   82MPD2    H7 1262   3.555   1.259  10.044  0.7445  1.2977  0.1353
   83TCq2    C1 1263   3.743   1.044  10.586  0.1268  0.7063  0.6385
   83TCq2    O2 1264   3.669   0.961  10.532  0.0145 -0.3454 -0.3729
   83TCq2    C2 1265   3.776   1.025  10.723  0.2785 -0.1869 -0.0998
   83TCq2    C3 1266   3.833   1.139  10.788 -0.0927  0.2618 -0.1906
   83TCq2    C4 1267   3.810   1.150  10.920 -0.2923  0.1551 -0.3347
   83TCq2    C5 1268   3.734   1.049  10.983 -1.0221  0.2644 -0.0439
   83TCq2    C6 1269   3.692   0.937  10.919 -0.0013 -0.5738  0.0457
   83TCq2    C7 1270   3.709   0.918  10.783  0.3488 -0.4324  0.0269
   83TCq2    C8 1271   3.574   0.873  10.971  0.2283 -0.3105 -0.2383
   83TCq2    O4 1272   3.499   0.940  11.042 -0.8118  0.2751 -0.2766
   83TCq2    C9 1273   3.869   1.249  11.007  0.1071 -0.2992 -0.4854
   83TCq2    O5 1274   3.920   1.353  10.957  0.6521  0.4352 -0.5638
   83TCq2    O6 1275   3.898   1.208  11.119 -0.1016  0.0108 -0.3582
   83TCq2    H2 1276   3.903   1.207  10.741 -0.3839  0.2819 -0.5936
   83TCq2    H3 1277   3.720   1.062  11.090  0.7854  2.7585 -0.1046
   83TCq2    H4 1278   3.669   0.837  10.723  0.0340 -1.3167  1.4330
   84TCq2    C1 1279   0.064   4.503  10.145  0.5581 -0.7291  0.3850
   84TCq2    O2 1280   4.692   4.424  10.144  0.4912 -0.2260 -0.2692
   84TCq2    C2 1281   0.040   4.635  10.197  0.0593 -0.0990  0.7679
   84TCq2    C3 1282   0.111   0.018  10.149 -0.3463  0.2650  0.0671
   84TCq2    C4 1283   0.092   0.142  10.203  0.1767 -0.1040  0.8759
   84TCq2    C5 1284   0.006   0.152  10.311  0.4760 -0.2392 -0.3649
   84TCq2    C6 1285   4.645   0.048  10.355 -0.3079 -0.3494 -0.2181
   84TCq2    C7 1286   4.663   4.644  10.293  0.4027  0.1472  1.2501
   84TCq2    C8 1287   4.536   0.074  10.448  0.2446  0.9536 -0.7535
   84TCq2    O4 1288   4.498   0.190  10.467 -0.0573 -0.4272  0.2217
   84TCq2    C9 1289   0.173   0.251  10.151 -0.5729 -0.3611  1.4767
   84TCq2    O5 1290   0.256   0.218  10.062 -0.0729 -0.0466  0.3288
   84TCq2    O6 1291   0.188   0.343  10.231  0.0292  0.3690  0.0836
   84TCq2    H2 1292   0.187   4.719  10.075 -0.5755 -1.0667  0.1725
   84TCq2    H3 1293   0.005   0.247  10.364 -0.0883  0.2360 -1.2293
   84TCq2    H4 1294   4.603   4.556  10.312  0.6592 -0.4155 -0.4891
   85MPD2     C 1295   4.406   3.097  16.129 -0.2316  0.5156  0.0555
   85MPD2    C1 1296   4.495   3.021  16.066 -0.4233 -0.1721 -0.0008
   85MPD2    C2 1297   4.593   3.089  15.988  0.1700 -0.0298  0.5234
   85MPD2    C3 1298   4.604   3.223  15.995 -0.1336  0.3278 -0.3810
   85MPD2    C4 1299   4.516   3.300  16.066  0.6303  0.0404 -0.2046
   85MPD2    C5 1300   4.415   3.238  16.131 -0.3679 -0.0092 -1.3948
   85MPD2     H 1301   4.674   3.028  15.949  0.8346 -0.2445  2.2115
   85MPD2    H1 1302   4.524   3.407  16.052  1.7007 -0.0894 -0.5291
   85MPD2    H2 1303   4.315   3.058  16.173  0.6682 -1.2012  0.3880
   85MPD2    H3 1304   4.333   3.294  16.176 -0.3407 -1.7256  0.7656
   85MPD2     N 1305   0.002   3.277  15.937 -0.1389  0.0760 -0.1299
   85MPD2    H5 1306   0.050   3.222  15.867  2.1168  0.7519  0.8975
   85MPD2    N1 1307   4.504   2.879  16.089 -0.4201 -0.1559  0.4456
   85MPD2    H7 1308   4.572   2.831  16.032 -0.7472 -1.4674  1.1727
   86TCq2    C1 1309   0.053   3.402  15.965  0.4785  0.3400 -1.0443
   86TCq2    O2 1310   0.031   3.490  16.052  0.0434  0.1820 -0.4376
   86TCq2    C2 1311   0.147   3.448  15.865  0.0540 -0.1351 -0.0385
   86TCq2    C3 1312   0.125   3.577  15.820 -0.0702 -0.2557  0.1437
   86TCq2    C4 1313   0.222   3.639  15.749  0.3850  0.2891  0.1578
   86TCq2    C5 1314   0.354   3.584  15.734 -0.5544  0.1154  0.0942
   86TCq2    C6 1315   0.373   3.457  15.786 -0.1037 -0.0330  0.1073
   86TCq2    C7 1316   0.273   3.388  15.855  0.4271 -0.3746 -0.3623
   86TCq2    C8 1317   0.472   3.374  15.721 -0.4297 -0.2180  0.2383
   86TCq2    O4 1318   0.499   3.267  15.770 -0.4399 -0.0174 -0.3925
   86TCq2    C9 1319   0.202   3.773  15.706  0.9013  0.0938 -0.0687
   86TCq2    O5 1320   0.303   3.836  15.675  0.0188 -0.1890 -0.0909
   86TCq2    O6 1321   0.088   3.825  15.718 -0.1825  0.1258 -0.6628
   86TCq2    H2 1322   0.032   3.634  15.825  0.6816  1.1903 -2.4605
   86TCq2    H3 1323   0.437   3.647  15.704 -0.7156 -0.2910 -1.1973
   86TCq2    H4 1324   0.289   3.294  15.907  0.3839 -1.3716 -2.1217
   87MPD2     C 1325   1.281   1.159   0.895 -0.1904  0.6552 -0.1008
   87MPD2    C1 1326   1.295   1.302   0.898 -0.6338 -0.5248 -0.0568
   87MPD2    C2 1327   1.176   1.385   0.884 -0.4321  0.2802  0.9437
   87MPD2    C3 1328   1.049   1.331   0.865  0.2004 -0.1192  0.9160
   87MPD2    C4 1329   1.033   1.191   0.855 -0.0970  0.5352 -0.0984
   87MPD2    C5 1330   1.144   1.108   0.877 -0.5789  0.0970  0.5328
   87MPD2     H 1331   1.194   1.492   0.893 -0.1011  0.2599  0.4952
   87MPD2    H1 1332   0.937   1.150   0.828 -0.3366  0.4442  0.8728
   87MPD2    H2 1333   1.360   1.088   0.918 -2.1946 -1.1807  1.1647
   87MPD2    H3 1334   1.119   1.003   0.885 -0.5180  0.1472  1.3176
   87MPD2     N 1335   0.934   1.412   0.837 -0.2307  0.6660  0.0280
   87MPD2    H5 1336   0.852   1.355   0.823  0.6114 -0.3142 -0.9513
   87MPD2    N1 1337   1.421   1.351   0.942  0.0671 -0.1482  0.0183
   87MPD2    H7 1338   1.486   1.278   0.968 -0.8320 -0.5790  1.0359
   88TCq2    C1 1339   1.455   1.480   0.973 -0.5418 -0.4147  0.1329
   88TCq2    O2 1340   1.378   1.574   0.999 -0.4690  0.2103  0.0154
   88TCq2    C2 1341   1.592   1.511   0.989  0.1843 -0.5813  0.0194
   88TCq2    C3 1342   1.626   1.639   1.030 -0.9555 -0.8043  0.1482
   88TCq2    C4 1343   1.760   1.673   1.036  0.0698  0.8634 -0.1626
   88TCq2    C5 1344   1.856   1.583   0.999  0.3870  0.3636 -0.2352
   88TCq2    C6 1345   1.818   1.461   0.960 -0.6737 -0.1190 -0.6118
   88TCq2    C7 1346   1.687   1.422   0.945 -0.4654 -0.4031  0.7308
   88TCq2    C8 1347   1.916   1.363   0.911  0.4074  0.6379  0.3979
   88TCq2    O4 1348   2.018   1.413   0.866  0.2881  0.8433 -0.0624
   88TCq2    C9 1349   1.799   1.804   1.090 -0.7948  0.1350  0.2645
   88TCq2    O5 1350   1.701   1.882   1.100  0.2522 -0.1716  0.2772
   88TCq2    O6 1351   1.919   1.835   1.068 -0.1000  0.1192 -0.9609
   88TCq2    H2 1352   1.561   1.719   1.065 -0.4847 -0.0607 -0.6558
   88TCq2    H3 1353   1.959   1.617   1.005  0.7049 -0.3132 -1.7576
   88TCq2    H4 1354   1.653   1.324   0.916 -0.1530  0.1575 -1.5833
   89MPD2     C 1355   3.053   3.724   1.639  0.0383 -0.2582  0.1967
   89MPD2    C1 1356   2.980   3.819   1.719  0.4363 -0.0117  0.2174
   89MPD2    C2 1357   3.050   3.923   1.782 -0.4581  0.2720 -0.5865
   89MPD2    C3 1358   3.183   3.941   1.750 -0.5545 -0.1040 -0.0709
   89MPD2    C4 1359   3.248   3.854   1.667  0.0627 -0.3356  0.0072
   89MPD2    C5 1360   3.182   3.739   1.625  0.3347 -0.5102  0.3297
   89MPD2     H 1361   2.994   3.986   1.850  0.2896  0.1384  0.1510
   89MPD2    H1 1362   3.354   3.855   1.646 -0.2421 -2.6089 -1.6951
   89MPD2    H2 1363   2.996   3.637   1.610 -0.0416 -0.0045 -0.4013
   89MPD2    H3 1364   3.240   3.671   1.564  0.0920 -0.3284 -0.1107
   89MPD2     N 1365   3.243   4.039   1.829 -0.1611  0.1681 -0.0112
   89MPD2    H5 1366   3.182   4.088   1.893 -0.2135  2.6449 -2.0015
   89MPD2    N1 1367   2.850   3.802   1.755 -0.1058 -0.3062  0.0682
   89MPD2    H7 1368   2.811   3.862   1.827 -0.8569 -2.8205  1.7502
   90TCq2    C1 1369   3.371   4.087   1.806 -0.5440 -0.5369  0.2204
   90TCq2    O2 1370   3.453   4.050   1.725 -0.3366  0.0978 -0.0241
   90TCq2    C2 1371   3.409   4.176   1.915  0.0060 -0.0670  0.0090
   90TCq2    C3 1372   3.321   4.223   2.007  0.3796  0.0819  0.8801
   90TCq2    C4 1373   3.361   4.302   2.114 -0.5039 -0.3884  0.5407
   90TCq2    C5 1374   3.496   4.341   2.123 -0.6264 -0.1094 -0.4522
   90TCq2    C6 1375   3.577   4.309   2.019  0.2880 -0.9445 -0.0763
   90TCq2    C7 1376   3.538   4.225   1.912 -0.2160  0.1648  0.8049
   90TCq2    C8 1377   3.723   4.329   2.040 -0.3185 -0.0582 -0.2169
   90TCq2    O4 1378   3.761   4.338   2.156  0.2401  0.5659 -0.1026
   90TCq2    C9 1379   3.274   4.331   2.222  0.1909 -0.6769 -0.3160
   90TCq2    O5 1380   3.162   4.265   2.225 -0.1445  0.5167 -0.1447
   90TCq2    O6 1381   3.321   4.413   2.309  0.0390 -0.1456 -0.0393
   90TCq2    H2 1382   3.216   4.197   2.002  0.1660  1.1027  0.1223
   90TCq2    H3 1383   3.533   4.417   2.189  0.3112  0.9181 -2.1617
   90TCq2    H4 1384   3.593   4.218   1.820  0.4057  2.9481  0.9653
   91TMC2    C1 1385   0.360   4.128  16.515 -0.7684  0.0169  0.2221
   91TMC2    C2 1386   0.426   4.236  16.468  0.2451 -0.0471  0.2900
   91TMC2    C3 1387   0.358   4.331  16.390  0.2732 -0.3360  0.0046
   91TMC2    C4 1388   0.229   4.103  16.481  0.7940 -0.0672 -1.1794
   91TMC2    C5 1389   0.161   4.206  16.401 -0.1366 -0.6174 -1.1097
   91TMC2    C6 1390   0.228   4.318  16.352 -0.3608  0.3194  0.2673
   91TMC2     C 1391   0.438   4.006  16.538  0.1084 -0.2663  0.2587
   91TMC2     O 1392   0.387   3.893  16.527  0.4058  0.1284 -0.4577
   91TMC2     H 1393   0.533   4.249  16.481 -0.4495  1.6800  4.2237
   91TMC2    H1 1394   0.178   4.008  16.492 -0.6079  1.0608  1.9996
   91TMC2    H2 1395   0.167   4.394  16.305 -0.6499  0.2026  0.4529
   91TMC2    C7 1396   0.018   4.184  16.383  0.0816  0.2346 -0.0405
   91TMC2    C8 1397   0.426   4.460  16.372  0.2718  0.3327 -0.2323
   91TMC2    O1 1398   4.688   4.109  16.465  0.3479  0.1970  0.1686
   91TMC2    O2 1399   0.539   4.474  16.415  0.2312 -0.4615 -0.4110
   91TMC2    O5 1400   0.386   4.500  16.252  0.1628  0.1699 -0.2801
   91TMC2    H5 1401   0.308   4.451  16.219 -0.3894  0.9845 -0.1700
   92MPD2     C 1402   0.689   3.827  16.575  0.1716 -0.7079 -0.3363
   92MPD2    C1 1403   0.687   3.960  16.587  0.1558  0.7238 -0.1684
   92MPD2    C2 1404   0.806   4.020  16.612 -0.0041 -0.5111  0.0500
   92MPD2    C3 1405   0.927   3.938  16.630 -0.0852 -0.6874 -0.3097
   92MPD2    C4 1406   0.919   3.801  16.639 -0.4198 -0.5692  0.3851
   92MPD2    C5 1407   0.799   3.748  16.609 -0.1713  0.7917  0.0552
   92MPD2     H 1408   0.815   4.127  16.597 -3.2367 -0.4091 -0.9855
   92MPD2    H1 1409   1.001   3.737  16.670  0.8086  0.8886  0.1970
   92MPD2    H2 1410   0.594   3.781  16.549  0.8034 -1.7256 -0.8551
   92MPD2    H3 1411   0.794   3.640  16.604 -2.2024  0.9174 -0.2986
   92MPD2     N 1412   1.051   4.011  16.658 -0.6165 -0.2829  0.4331
   92MPD2    H5 1413   1.034   4.109  16.675 -0.3643 -0.1893  0.1497
   92MPD2    N1 1414   0.569   4.041  16.577  0.2495 -0.0972 -1.0545
   92MPD2    H7 1415   0.579   4.140  16.596 -0.4151 -0.3776  0.7214
   93MPD2     C 1416   1.717   4.691  13.616 -0.3207  0.8683 -0.7795
   93MPD2    C1 1417   1.679   4.595  13.707  0.0968 -0.4493 -0.3571
   93MPD2    C2 1418   1.577   4.507  13.679 -0.4925  0.4757  0.8011
   93MPD2    C3 1419   1.521   4.507  13.549  0.1238 -1.0076  0.4330
   93MPD2    C4 1420   1.564   4.605  13.460  0.6226 -0.7960  0.0020
   93MPD2    C5 1421   1.656   4.696  13.499 -0.7043 -0.5648 -0.1324
   93MPD2     H 1422   1.554   4.436  13.757 -0.8135  0.2054  0.4585
   93MPD2    H1 1423   1.527   4.611  13.358  0.0218 -0.0060  0.2705
   93MPD2    H2 1424   1.796   0.040  13.641  1.0576 -0.3072 -1.8748
   93MPD2    H3 1425   1.676   0.056  13.429  0.4660 -0.9899 -0.2952
   93MPD2     N 1426   1.423   4.410  13.497  0.2495 -0.2415  0.2071
   93MPD2    H5 1427   1.408   4.420  13.397 -0.3211  0.1016  0.3263
   93MPD2    N1 1428   1.745   4.584  13.840  0.1153 -0.6949 -0.3305
   93MPD2    H7 1429   1.710   4.527  13.916  1.4994  0.1396  0.9351
   94TCq2    C1 1430   1.874   4.620  13.855 -0.7423 -0.3481  0.4531
   94TCq2    O2 1431   1.953   4.654  13.771  0.3304  0.1236  0.6772
   94TCq2    C2 1432   1.918   4.577  13.985  0.2964 -0.8364  0.3303
   94TCq2    C3 1433   1.847   4.596  14.105 -0.4829  0.3463 -1.2656
   94TCq2    C4 1434   1.919   4.582  14.220  0.1583 -0.2284 -0.7001
   94TCq2    C5 1435   2.053   4.557  14.221 -0.0374  0.4853  0.6409
   94TCq2    C6 1436   2.116   4.535  14.104 -0.7005 -0.1018  0.1634
   94TCq2    C7 1437   2.046   4.534  13.983 -0.9140  0.6090  0.0415
   94TCq2    C8 1438   2.259   4.538  14.091  0.1466  0.0763  0.6726
   94TCq2    O4 1439   2.312   4.515  13.981  0.2812 -0.0230 -0.0207
   94TCq2    C9 1440   1.843   4.607  14.338 -0.4040  0.4880  0.2902
   94TCq2    O5 1441   1.724   4.643  14.322 -0.2976 -0.0955  0.0699
   94TCq2    O6 1442   1.910   4.611  14.446 -0.2728 -0.0375  0.0696
   94TCq2    H2 1443   1.744   4.631  14.100 -0.5028  0.3684 -0.6857
   94TCq2    H3 1444   2.105   4.564  14.315  1.6130  0.2588 -0.2558
   94TCq2    H4 1445   2.106   4.532  13.892  0.7629 -2.5003  1.1858
   95TMC2    C1 1446   2.076   0.727  16.344  0.0134 -0.5844  0.5234
   95TMC2    C2 1447   2.142   0.608  16.333 -0.6617  0.4212 -0.1989
   95TMC2    C3 1448   2.112   0.507  16.425  0.3297  0.7594  0.3335
   95TMC2    C4 1449   1.986   0.753  16.448 -0.0393  0.3623 -0.0312
   95TMC2    C5 1450   1.972   0.659  16.542 -0.4232 -0.1729 -0.2777
   95TMC2    C6 1451   2.023   0.530  16.527  0.2707  0.9896 -0.2361
   95TMC2     C 1452   2.103   0.828  16.235  0.5529  0.0858  0.0896
   95TMC2     O 1453   2.169   0.787  16.138 -0.1402 -0.7208  0.5382
   95TMC2     H 1454   2.211   0.575  16.256  0.6115 -0.9473  1.5127
   95TMC2    H1 1455   1.936   0.848  16.458  0.7049  0.7452  0.0535
   95TMC2    H2 1456   2.001   0.457  16.604  0.8752  0.6586 -0.3830
   95TMC2    C7 1457   1.898   0.703  16.657  0.3049  0.0424  0.2088
   95TMC2    C8 1458   2.232   0.418  16.440 -0.0055 -0.4086 -0.7689
   95TMC2    O1 1459   1.864   0.821  16.662 -0.4362  0.1117  0.0234
   95TMC2    O2 1460   2.338   0.432  16.374 -0.0465  0.2309  0.0160
   95TMC2    O5 1461   2.218   0.337  16.549 -0.5398 -0.3381 -0.1528
   95TMC2    H5 1462   2.141   0.354  16.607 -0.5928  1.4554 -0.7482
   96MPD2     C 1463   1.969   1.243  15.968 -0.7153 -0.0699 -0.0686
   96MPD2    C1 1464   2.085   1.168  15.953  0.6065 -0.5218  0.9523
   96MPD2    C2 1465   2.104   1.060  16.040  0.1955 -0.4432  0.1344
   96MPD2    C3 1466   2.022   1.049  16.146 -0.3457 -0.4578 -0.1565
   96MPD2    C4 1467   1.908   1.130  16.164  0.2626 -0.0737 -0.3390
   96MPD2    C5 1468   1.881   1.223  16.069 -0.3548  0.3084  0.0695
   96MPD2     H 1469   2.191   0.996  16.027  1.3885  1.1155  0.4300
   96MPD2    H1 1470   1.850   1.118  16.254  1.3295 -3.5524 -0.1374
   96MPD2    H2 1471   1.949   1.322  15.898 -0.7692  0.9841  1.1308
   96MPD2    H3 1472   1.786   1.273  16.083 -1.1091 -0.7509 -1.2241
   96MPD2     N 1473   2.030   0.947  16.244 -0.4510 -0.8013 -0.0617
   96MPD2    H5 1474   1.967   0.950  16.324 -3.1227 -1.5834 -2.1704
   96MPD2    N1 1475   2.165   1.203  15.840  0.1981 -0.0850 -0.1211
   96MPD2    H7 1476   2.147   1.289  15.790  0.1622  0.7813  1.3809
   97MPD2     C 1477   3.163   2.569   0.467  0.1547 -0.0510 -0.3158
   97MPD2    C1 1478   3.166   2.703   0.495  0.4235  0.1976  0.6111
   97MPD2    C2 1479   3.227   2.788   0.398 -0.1391 -0.4778 -0.0182
   97MPD2    C3 1480   3.262   2.751   0.273 -0.3734 -0.3028  0.3732
   97MPD2    C4 1481   3.232   2.620   0.241 -0.5428  0.5098  0.3494
   97MPD2    C5 1482   3.180   2.529   0.333 -0.3748  0.0683  0.6995
   97MPD2     H 1483   3.260   2.885   0.432  0.4913 -0.8758  0.5034
   97MPD2    H1 1484   3.237   2.580   0.141 -0.4172 -0.5623  0.7816
   97MPD2    H2 1485   3.144   2.495   0.543  0.3984 -0.9805 -1.1541
   97MPD2    H3 1486   3.178   2.424   0.306  2.3382  0.2012 -0.1158
   97MPD2     N 1487   3.331   2.833   0.180  0.6072  0.1172 -0.2667
   97MPD2    H5 1488   3.362   2.796   0.091 -0.1758 -0.8350 -0.1364
   97MPD2    N1 1489   3.129   2.754   0.625 -0.6310 -0.2904  0.5731
   97MPD2    H7 1490   3.102   2.688   0.697  0.8186 -0.9997  0.4618
   98TCq2    C1 1491   3.344   2.968   0.187  0.0204 -0.4413  0.2605
   98TCq2    O2 1492   3.332   3.045   0.284 -0.4182 -0.8159  0.3919
   98TCq2    C2 1493   3.378   3.025   0.063 -0.5644 -0.6067  0.2894
   98TCq2    C3 1494   3.365   2.948  17.639  0.0687  0.4274 -0.1327
   98TCq2    C4 1495   3.433   2.968  17.522 -0.4289  0.0962 -0.2483
   98TCq2    C5 1496   3.520   3.069  17.514  0.3478 -0.4991  0.6804
   98TCq2    C6 1497   3.547   3.152  17.628 -0.3390  0.9480  0.5795
   98TCq2    C7 1498   3.474   3.128   0.059 -0.2775  0.1154  0.4269
   98TCq2    C8 1499   3.644   3.260  17.630  0.0609  0.0200  0.1854
   98TCq2    O4 1500   3.657   3.329   0.045  0.4908 -0.2229  0.0840
   98TCq2    C9 1501   3.404   2.883  17.416  0.3461 -0.8520 -0.0647
   98TCq2    O5 1502   3.317   2.794  17.429 -0.4896  0.0095 -0.5650
   98TCq2    O6 1503   3.477   2.886  17.315  0.0520  0.0751 -0.2874
   98TCq2    H2 1504   3.290   2.869  17.640 -0.0707  0.5552 -0.5605
   98TCq2    H3 1505   3.575   3.068  17.420  1.2745 -0.2240  1.2121
   98TCq2    H4 1506   3.499   3.186   0.147 -1.0464  2.7976 -1.1356
   99MPD2     C 1507   2.759   1.059   1.087 -0.2373  0.6347 -0.6941
   99MPD2    C1 1508   2.696   0.946   1.127 -0.3139 -0.3900  0.7030
   99MPD2    C2 1509   2.718   0.827   1.067  0.3811 -0.0616 -0.5357
   99MPD2    C3 1510   2.811   0.819   0.969  0.0633  0.1152  0.5620
   99MPD2    C4 1511   2.870   0.935   0.920 -0.4256 -0.2376  0.6315
   99MPD2    C5 1512   2.853   1.053   0.988 -0.3108 -0.2538 -0.1413
   99MPD2     H 1513   2.673   0.737   1.107 -4.6341  1.8689 -1.8991
   99MPD2    H1 1514   2.944   0.940   0.842 -1.0992 -3.1622 -0.1661
   99MPD2    H2 1515   2.748   1.155   1.138 -0.5001  0.4616 -0.4216
   99MPD2    H3 1516   2.911   1.142   0.968 -0.4676 -0.0945  0.1211
   99MPD2     N 1517   2.829   0.689   0.912 -0.1133 -0.1957 -0.8679
   99MPD2    H5 1518   2.777   0.609   0.946  1.0565 -0.7352 -0.3450
   99MPD2    N1 1519   2.604   0.956   1.236 -0.0324 -0.6190  0.1317
   99MPD2    H7 1520   2.546   0.874   1.251 -0.8200  0.0783  0.9095
  100TCq2    C1 1521   2.615   1.042   1.340 -0.4242  0.1066  0.1599
  100TCq2    O2 1522   2.705   1.119   1.359  0.1361  0.0438 -0.0152
  100TCq2    C2 1523   2.524   1.004   1.453 -0.0281  0.0353  0.7326
  100TCq2    C3 1524   2.583   0.975   1.571 -0.0335 -0.3576 -0.4759
  100TCq2    C4 1525   2.509   0.909   1.669 -0.1286  0.1947  0.1876
  100TCq2    C5 1526   2.404   0.833   1.635 -0.0754  0.3255 -0.1814
  100TCq2    C6 1527   2.354   0.852   1.504 -0.2295  0.3195  0.2842
  100TCq2    C7 1528   2.404   0.948   1.425  0.2641  0.0810  0.6890
  100TCq2    C8 1529   2.221   0.798   1.465  0.1363 -0.1103 -0.0803
  100TCq2    O4 1530   2.150   0.873   1.398  0.2920  0.7258 -0.5120
  100TCq2    C9 1531   2.560   0.911   1.802 -0.0134 -0.2803 -0.1864
  100TCq2    O5 1532   2.639   1.001   1.843 -0.2467 -0.1997 -0.4409
  100TCq2    O6 1533   2.528   0.810   1.870  0.4009 -0.2351  0.1532
  100TCq2    H2 1534   2.679   1.016   1.599 -0.5230 -0.6464  1.6348
  100TCq2    H3 1535   2.345   0.781   1.710  2.2239 -1.5084  0.3321
  100TCq2    H4 1536   2.354   0.967   1.331  2.1550  0.7138 -0.1883
  101MPD2     C 1537   3.742   1.868  13.269  0.7839  0.1520 -0.4619
  101MPD2    C1 1538   3.627   1.839  13.208 -0.2119 -0.5033 -0.2135
  101MPD2    C2 1539   3.560   1.723  13.229  0.1363 -0.2903 -0.7198
  101MPD2    C3 1540   3.610   1.631  13.320 -0.4232  0.3601 -0.2664
  101MPD2    C4 1541   3.732   1.661  13.378  0.5346  0.4335  0.0827
  101MPD2    C5 1542   3.795   1.770  13.342 -0.6946 -0.5060 -0.3366
  101MPD2     H 1543   3.460   1.707  13.191 -0.1783  0.1846 -0.0942
  101MPD2    H1 1544   3.781   1.593  13.447  1.3951  0.4734 -0.4860
  101MPD2    H2 1545   3.796   1.956  13.237  0.2304  0.6189 -0.1223
  101MPD2    H3 1546   3.887   1.803  13.389 -0.8357 -2.0005  1.0006
  101MPD2     N 1547   3.556   1.511  13.354  0.1983 -0.0622 -0.5612
  101MPD2    H5 1548   3.591   1.455  13.431  3.4624  0.1292 -1.8950
  101MPD2    N1 1549   3.579   1.932  13.117 -0.4080 -0.7495 -0.3644
  101MPD2    H7 1550   3.648   2.002  13.091 -0.7379 -0.6999 -1.0953
  102TCq2    C1 1551   3.624   2.271  12.730 -0.2605  0.4589 -0.2520
  102TCq2    O2 1552   3.739   2.248  12.770 -0.0909  0.5715  0.2425
  102TCq2    C2 1553   3.513   2.201  12.793 -0.1241 -0.4040  0.8021
  102TCq2    C3 1554   3.393   2.258  12.792 -0.1543  0.6987 -0.0041
  102TCq2    C4 1555   3.292   2.201  12.872 -0.8693 -0.5331  0.0593
  102TCq2    C5 1556   3.319   2.094  12.953  0.9245 -0.0353  0.3678
  102TCq2    C6 1557   3.449   2.050  12.971  0.1661 -0.1642 -0.3164
  102TCq2    C7 1558   3.548   2.104  12.890 -0.1619  0.4384 -0.2253
  102TCq2    C8 1559   3.454   1.936  13.057 -0.3942  0.0412 -0.0350
  102TCq2    O4 1560   3.347   1.886  13.088 -0.4237 -0.3748  0.5510
  102TCq2    C9 1561   3.159   2.258  12.871 -0.6306  0.5674  0.2493
  102TCq2    O5 1562   3.067   2.204  12.938 -0.0806 -0.4911  0.7182
  102TCq2    O6 1563   3.135   2.356  12.800 -0.2758 -0.0217  0.1676
  102TCq2    H2 1564   3.362   2.343  12.732 -1.2216  0.3964  0.1131
  102TCq2    H3 1565   3.242   2.054  13.018  0.9722  0.1086  0.5132
  102TCq2    H4 1566   3.647   2.061  12.890  0.4262  1.7620  1.5979
  103TMC2    C1 1567   1.057   2.055  13.085 -0.1761 -0.4569 -0.4106
  103TMC2    C2 1568   0.978   2.146  13.149 -0.0896  0.0332  0.8393
  103TMC2    C3 1569   0.917   2.103  13.268 -0.7027 -0.0688  0.2800
  103TMC2    C4 1570   1.088   1.929  13.147 -0.5049  0.8590  0.0773
  103TMC2    C5 1571   1.034   1.906  13.270 -0.1778 -0.6304  0.0284
  103TMC2    C6 1572   0.939   1.984  13.332 -0.3084  0.3062  0.0280
  103TMC2     C 1573   1.118   2.087  12.958 -0.2170  0.0180  0.6534
  103TMC2     O 1574   1.049   2.163  12.894  0.4360  0.5747 -0.2999
  103TMC2     H 1575   0.955   2.242  13.105 -1.5189 -0.8064 -0.2762
  103TMC2    H1 1576   1.159   1.863  13.100 -2.2722  1.4888 -3.4419
  103TMC2    H2 1577   0.919   1.974  13.438  0.6350  2.7336  0.4246
  103TMC2    C7 1578   1.051   1.770  13.318  0.2137  0.1534  0.4542
  103TMC2    C8 1579   0.852   2.201  13.343 -0.3828  0.7046 -0.3255
  103TMC2    O1 1580   1.146   1.705  13.269 -0.2287 -0.2046  0.0389
  103TMC2    O2 1581   0.868   2.321  13.340 -0.5536  0.7201  0.2597
  103TMC2    O5 1582   0.733   2.138  13.359  0.6050 -0.0304  0.0523
  103TMC2    H5 1583   0.741   2.041  13.345 -2.0766 -0.2290 -0.0528
  104MPD2     C 1584   1.469   2.078  12.877  0.0699 -0.2292 -0.1087
  104MPD2    C1 1585   1.337   2.107  12.853 -0.2816  0.2668  0.2460
  104MPD2    C2 1586   1.307   2.193  12.744 -0.4652  0.3371 -0.1579
  104MPD2    C3 1587   1.406   2.246  12.657  0.0752 -0.3622 -0.4239
  104MPD2    C4 1588   1.540   2.230  12.705 -0.4142 -0.0037 -0.4715
  104MPD2    C5 1589   1.565   2.144  12.810 -0.7095 -0.3865  0.3091
  104MPD2     H 1590   1.202   2.212  12.723 -0.8431 -1.4688  0.1261
  104MPD2    H1 1591   1.629   2.254  12.649  0.2918  2.0595  1.4934
  104MPD2    H2 1592   1.492   2.015  12.962 -0.7904 -1.5369 -0.8419
  104MPD2    H3 1593   1.666   2.116  12.837 -0.9216 -1.2611  0.1797
  104MPD2     N 1594   1.375   2.326  12.541  0.4510  1.0609  0.2114
  104MPD2    H5 1595   1.277   2.347  12.526  0.1729  0.6026  1.3694
  104MPD2    N1 1596   1.248   2.057  12.951 -0.4647 -0.5246  0.5401
  104MPD2    H7 1597   1.273   2.005  13.035 -0.2943  1.9797  2.0448
  105MPD2     C 1598   3.004   0.710  17.605  0.4351 -0.1158  0.0867
  105MPD2    C1 1599   2.977   0.849  17.597  0.1781  0.2649 -0.2591
  105MPD2    C2 1600   2.888   0.906  17.679  0.2551  0.8142 -0.4392
  105MPD2    C3 1601   2.835   0.832   0.095 -0.1840 -0.9275 -0.2061
  105MPD2    C4 1602   2.858   0.699   0.111  0.5259  1.0375 -0.0769
  105MPD2    C5 1603   2.938   0.639   0.018  0.3576 -1.2191  0.4650
  105MPD2     H 1604   2.868   1.012  17.672 -1.3955  0.4323 -1.3915
  105MPD2    H1 1605   2.803   0.637   0.181  0.9872  0.7353  0.0217
  105MPD2    H2 1606   3.054   0.652  17.528  1.8039  1.4948 -0.2387
  105MPD2    H3 1607   2.945   0.531   0.011 -0.5012 -1.2736  0.4544
  105MPD2     N 1608   2.740   0.903   0.173  0.3696  0.6961  0.9004
  105MPD2    H5 1609   2.719   0.996   0.140  1.1264  0.0681 -1.3551
  105MPD2    N1 1610   3.017   0.928  17.484  0.2512  0.2140 -0.5013
  105MPD2    H7 1611   2.996   1.027  17.491  0.2277  0.1079  0.9413
  106TCq2    C1 1612   2.675   0.857   0.288 -0.5977 -0.3201 -0.1191
  106TCq2    O2 1613   2.712   0.769   0.366 -0.5182  0.2262 -0.3623
  106TCq2    C2 1614   2.571   0.953   0.325  0.8257 -0.1966 -0.2632
  106TCq2    C3 1615   2.589   1.086   0.308  0.2469 -0.5239 -0.1412
  106TCq2    C4 1616   2.498   1.177   0.363 -0.4100 -0.1262 -1.0777
  106TCq2    C5 1617   2.395   1.139   0.438  0.8122  0.6639  0.1610
  106TCq2    C6 1618   2.376   1.005   0.452 -0.6020 -0.4202 -1.1141
  106TCq2    C7 1619   2.459   0.909   0.397 -0.0038 -0.9422 -0.4257
  106TCq2    C8 1620   2.265   0.948   0.529  0.1451  0.5676 -0.1372
  106TCq2    O4 1621   2.239   0.831   0.512 -0.0762 -0.3294  0.2082
  106TCq2    C9 1622   2.523   1.321   0.351  0.0112  1.0987 -0.0490
  106TCq2    O5 1623   2.451   1.398   0.421  0.7431 -0.3237  0.1510
  106TCq2    O6 1624   2.614   1.362   0.272  0.2594 -0.0741  0.1742
  106TCq2    H2 1625   2.680   1.133   0.274  0.3379 -1.0812 -0.6608
  106TCq2    H3 1626   2.326   1.213   0.478  0.7802 -0.7581  2.7815
  106TCq2    H4 1627   2.438   0.804   0.410  1.2620 -1.2866 -1.1283
  107TMC2    C1 1628   3.999   0.415  11.163  0.5035 -0.7649 -0.2134
  107TMC2    C2 1629   3.964   0.502  11.068  0.1102  0.4118  0.2048
  107TMC2    C3 1630   3.972   0.467  10.934  0.1959 -0.4912  0.2232
  107TMC2    C4 1631   4.056   0.291  11.135 -0.0331 -0.3120 -0.3262
  107TMC2    C5 1632   4.075   0.261  11.000 -0.5097 -0.1946 -0.5030
  107TMC2    C6 1633   4.030   0.346  10.901 -0.2915 -0.3404  0.2892
  107TMC2     C 1634   3.993   0.465  11.304 -0.0875  0.3299  0.0480
  107TMC2     O 1635   3.916   0.555  11.332  0.2425 -0.3448  0.4070
  107TMC2     H 1636   3.910   0.591  11.097 -2.1806 -1.5281  1.9500
  107TMC2    H1 1637   4.094   0.223  11.211 -3.2105 -1.3432  0.3159
  107TMC2    H2 1638   4.048   0.314  10.799  0.4666 -1.3711  0.7455
  107TMC2    C7 1639   4.132   0.133  10.976  0.8962 -0.0802  0.0953
  107TMC2    C8 1640   3.872   0.527  10.854 -0.7220 -0.2980 -0.0606
  107TMC2    O1 1641   4.095   0.042  11.050  0.0114 -0.6773 -0.0937
  107TMC2    O2 1642   3.832   0.640  10.880  0.5105 -0.4493  0.2432
  107TMC2    O5 1643   3.791   0.420  10.828  0.5834 -0.5238 -0.1585
  107TMC2    H5 1644   3.840   0.335  10.825 -1.5181 -1.7187 -0.5835
  108MPD2     C 1645   4.193   0.308  11.568  0.0741  0.1802  0.2114
  108MPD2    C1 1646   4.081   0.377  11.512  0.5353  0.3506  0.3725
  108MPD2    C2 1647   3.984   0.418  11.599  0.1614  0.5945  0.0178
  108MPD2    C3 1648   4.003   0.397  11.736  0.0159 -0.0717 -0.1545
  108MPD2    C4 1649   4.109   0.333  11.790 -0.5513  0.0626  0.3196
  108MPD2    C5 1650   4.204   0.292  11.706  0.0684 -0.0235 -0.1036
  108MPD2     H 1651   3.895   0.465  11.558  0.5366  1.1123 -0.2032
  108MPD2    H1 1652   4.124   0.330  11.898  1.9133 -0.0559 -0.0335
  108MPD2    H2 1653   4.280   0.277  11.510 -0.7691  0.8835 -1.4197
  108MPD2    H3 1654   4.296   0.253  11.750 -0.4710  0.4411  1.4564
  108MPD2     N 1655   3.916   0.454  11.834 -0.3624 -0.5667 -0.2180
  108MPD2    H5 1656   3.948   0.432  11.928 -1.1582 -1.0524 -0.0573
  108MPD2    N1 1657   4.085   0.400  11.378  0.1392 -0.1718 -0.4550
  108MPD2    H7 1658   4.161   0.352  11.330 -0.0006 -1.1004  0.2466
  109MPD2     C 1659   2.389   2.195   1.615 -0.0465  0.6936  0.6417
  109MPD2    C1 1660   2.470   2.278   1.538  0.6485 -0.3954  0.1747
  109MPD2    C2 1661   2.610   2.265   1.557 -0.2003 -0.0638  0.3506
  109MPD2    C3 1662   2.659   2.188   1.653 -0.4097 -0.4348 -0.2411
  109MPD2    C4 1663   2.576   2.101   1.723  0.0267 -0.1110  0.0693
  109MPD2    C5 1664   2.440   2.097   1.695 -0.2925  0.1245  0.5530
  109MPD2     H 1665   2.680   2.333   1.510  1.2094 -1.0576  0.9994
  109MPD2    H1 1666   2.612   2.050   1.811  0.2707 -1.7853 -0.9997
  109MPD2    H2 1667   2.281   2.191   1.619 -0.0724 -1.7066 -3.0489
  109MPD2    H3 1668   2.370   2.046   1.761  0.4024 -0.5583  0.7757
  109MPD2     N 1669   2.796   2.198   1.670  0.1716 -0.7514  0.2179
  109MPD2    H5 1670   2.843   2.255   1.600  0.5640 -0.5171  0.6749
  109MPD2    N1 1671   2.406   2.364   1.440  0.1441  0.5017  0.7600
  109MPD2    H7 1672   2.307   2.350   1.425  0.5476 -3.6131  1.9000
  110TCq2    C1 1673   2.868   2.103   1.734 -0.6755 -0.1505 -0.3815
  110TCq2    O2 1674   2.843   2.035   1.835 -0.0783 -0.0348 -0.4814
  110TCq2    C2 1675   3.012   2.116   1.699  0.3539 -0.1671 -0.5684
  110TCq2    C3 1676   3.103   2.067   1.787 -0.4595  0.5371 -0.1659
  110TCq2    C4 1677   3.239   2.082   1.752  0.3564  0.2136 -0.0399
  110TCq2    C5 1678   3.270   2.156   1.637  0.3385  0.1801  0.5833
  110TCq2    C6 1679   3.179   2.210   1.554  0.2886 -0.2197  0.5414
  110TCq2    C7 1680   3.046   2.184   1.584 -0.0673  0.6299  0.2872
  110TCq2    C8 1681   3.208   2.284   1.435 -0.2969 -0.1384  0.4734
  110TCq2    O4 1682   3.110   2.337   1.383 -0.3016 -0.0219  0.3346
  110TCq2    C9 1683   3.338   2.049   1.855  0.4627  0.2276  0.2397
  110TCq2    O5 1684   3.457   2.086   1.828  0.1835  0.0572  0.2613
  110TCq2    O6 1685   3.297   1.966   1.944  0.6023 -0.7893  0.1040
  110TCq2    H2 1686   3.076   2.017   1.879 -0.1208  0.7402  0.0420
  110TCq2    H3 1687   3.374   2.187   1.629  0.7676 -0.9218  1.8016
  110TCq2    H4 1688   2.968   2.235   1.529 -0.1477 -1.0226 -1.1284
  111TMC2    C1 1689   4.481   2.453  11.481 -0.3779  0.1949  0.2095
  111TMC2    C2 1690   4.611   2.452  11.440  0.5454  0.1850 -0.5331
  111TMC2    C3 1691   4.701   2.501  11.529 -0.4549  0.0601 -0.5914
  111TMC2    C4 1692   4.442   2.520  11.598 -0.6952 -0.4539 -0.3135
  111TMC2    C5 1693   4.538   2.568  11.679  0.1774 -0.2554 -1.2019
  111TMC2    C6 1694   4.665   2.570  11.646 -0.0951  0.9031  0.6805
  111TMC2     C 1695   4.377   2.429  11.379  0.1211 -0.4251  0.0745
  111TMC2     O 1696   4.410   2.437  11.262 -0.0797 -0.0018  0.5253
  111TMC2     H 1697   4.636   2.400  11.349  1.8690 -0.4886  0.2237
  111TMC2    H1 1698   4.341   2.551  11.623 -1.7392 -4.4388  0.4717
  111TMC2    H2 1699   0.027   2.614  11.702  1.7711 -1.2881 -0.3533
  111TMC2    C7 1700   4.497   2.637  11.799  0.2784  0.2953 -0.6474
  111TMC2    C8 1701   0.118   2.516  11.483  1.1621 -0.1643 -0.0542
  111TMC2    O1 1702   4.384   2.609  11.843 -0.7719  0.0069 -0.0984
  111TMC2    O2 1703   0.151   2.478  11.371  0.3711 -0.0702 -0.1978
  111TMC2    O5 1704   0.195   2.492  11.594  0.1605  0.0955  0.5196
  111TMC2    H5 1705   0.148   2.490  11.680  0.6474  0.5311  0.7908
  112MPD2     C 1706   3.903   2.279  11.253 -0.7825 -0.6299  0.5625
  112MPD2    C1 1707   4.012   2.305  11.176 -0.3117  0.1793  0.9923
  112MPD2    C2 1708   4.129   2.347  11.237  0.2070  0.2304 -0.4085
  112MPD2    C3 1709   4.149   2.341  11.367  0.3893 -0.2037  0.2682
  112MPD2    C4 1710   4.041   2.311  11.448 -1.0697 -0.4659  0.1181
  112MPD2    C5 1711   3.923   2.286  11.392 -0.0395  0.0382 -0.0520
  112MPD2     H 1712   4.215   2.366  11.173  2.1670 -1.6451  1.6921
  112MPD2    H1 1713   4.069   2.307  11.553  2.9521 -0.6507 -0.9768
  112MPD2    H2 1714   3.802   2.263  11.217  0.0965  0.9870 -2.6659
  112MPD2    H3 1715   3.841   2.270  11.462 -1.5589 -1.0864 -2.1038
  112MPD2     N 1716   4.258   2.393  11.434  0.0480  0.2818  0.2458
  112MPD2    H5 1717   4.248   2.385  11.535 -2.1656  0.7757  0.0593
  112MPD2    N1 1718   3.999   2.312  11.037 -0.2857  0.5915 -0.3411
  112MPD2    H7 1719   4.079   2.354  10.992 -0.6396  1.2907 -0.3277
  113MPD2     C 1720   1.446   4.262   1.323  0.1474 -0.5774 -0.3308
  113MPD2    C1 1721   1.469   4.367   1.235 -1.0268  0.2506 -0.6064
  113MPD2    C2 1722   1.385   4.376   1.127  0.1891  0.1406 -0.3928
  113MPD2    C3 1723   1.280   4.291   1.109  0.2335  0.0034 -0.2882
  113MPD2    C4 1724   1.251   4.200   1.204  0.0850 -0.0696  1.2604
  113MPD2    C5 1725   1.337   4.184   1.307 -0.1814 -0.4134  1.0571
  113MPD2     H 1726   1.398   4.459   1.058  0.2542  1.7615  1.5753
  113MPD2    H1 1727   1.172   4.126   1.202  1.5451 -1.6923  2.3201
  113MPD2    H2 1728   1.510   4.241   1.408 -0.1555 -1.4208 -0.3095
  113MPD2    H3 1729   1.321   4.100   1.374  1.7482 -2.2164 -0.7350
  113MPD2     N 1730   1.171   4.313   1.026  0.5756 -0.0097 -0.0420
  113MPD2    H5 1731   1.091   4.251   1.030 -1.6787  2.7442 -1.4211
  113MPD2    N1 1732   1.562   4.474   1.236  0.6541 -0.1368  0.1661
  113MPD2    H7 1733   1.543   4.547   1.168  1.0155  1.5471  1.8508
  114TCq2    C1 1734   1.162   4.394   0.908 -0.1135  0.6058  0.4696
  114TCq2    O2 1735   1.239   4.484   0.874 -0.1046 -0.2079  0.1901
  114TCq2    C2 1736   1.021   4.393   0.855 -0.1498  0.1133 -0.2282
  114TCq2    C3 1737   0.995   4.496   0.772  0.0408  1.3331 -0.0053
  114TCq2    C4 1738   0.867   4.527   0.743 -0.1386 -0.1398  0.5688
  114TCq2    C5 1739   0.761   4.467   0.801 -0.4595 -0.4208 -0.2620
  114TCq2    C6 1740   0.789   4.375   0.892  0.1440 -0.1893 -0.4645
  114TCq2    C7 1741   0.920   4.336   0.921 -0.2159 -0.1339  0.2483
  114TCq2    C8 1742   0.679   4.303   0.951  0.0486  0.0583 -0.0063
  114TCq2    O4 1743   0.572   4.314   0.895 -0.2907  0.4740  0.0913
  114TCq2    C9 1744   0.838   4.631   0.644 -0.0618  0.2144 -0.3836
  114TCq2    O5 1745   0.721   4.646   0.591 -0.1669 -0.3720  0.1694
  114TCq2    O6 1746   0.940   4.700   0.606 -0.0252 -0.5644  0.0199
  114TCq2    H2 1747   1.077   4.544   0.720 -0.3853 -0.0268 -1.9053
  114TCq2    H3 1748   0.661   4.501   0.780 -0.7378 -0.0679  1.6402
  114TCq2    H4 1749   0.945   4.242   0.969 -1.5232 -1.9244 -2.5543
  115TMC2    C1 1750   2.008   2.598  17.400 -0.5141 -0.5020  0.7945
  115TMC2    C2 1751   2.130   2.545  17.359 -0.1443 -0.0567  0.3209
  115TMC2    C3 1752   2.238   2.631  17.361 -0.4158 -0.1551 -0.5251
  115TMC2    C4 1753   2.004   2.714  17.479 -0.2620 -0.1391 -0.5071
  115TMC2    C5 1754   2.115   2.787  17.485  1.0226 -0.3854 -0.6071
  115TMC2    C6 1755   2.236   2.757  17.426 -0.1319  0.2919  0.4021
  115TMC2     C 1756   1.900   2.505  17.409 -0.1921  0.7704 -0.4554
  115TMC2     O 1757   1.919   2.398  17.359 -0.3812 -0.4597  0.1538
  115TMC2     H 1758   2.135   2.460  17.292 -1.4217 -0.1450  0.3409
  115TMC2    H1 1759   1.917   2.751  17.532  0.6551  1.8015 -0.3579
  115TMC2    H2 1760   2.325   2.818  17.441  0.0170  0.6456 -1.9591
  115TMC2    C7 1761   2.097   2.916  17.546  0.1651 -0.6745 -0.0466
  115TMC2    C8 1762   2.360   2.593  17.281  0.0960  0.1820  0.4298
  115TMC2    O1 1763   2.003   2.936  17.618 -0.3512 -0.0210  0.1324
  115TMC2    O2 1764   2.388   2.476  17.264 -0.2212  0.1140 -0.3618
  115TMC2    O5 1765   2.438   2.697  17.258 -0.3169  0.5289 -0.4278
  115TMC2    H5 1766   2.396   2.785  17.248 -0.8175  0.1741 -1.3828
  116MPD2     C 1767   1.421   2.379  17.539 -0.7274  0.3765 -0.1580
  116MPD2    C1 1768   1.515   2.313  17.467  0.5926  0.3232 -0.3783
  116MPD2    C2 1769   1.637   2.373  17.453  0.0390 -0.4851 -0.7411
  116MPD2    C3 1770   1.664   2.503  17.485  0.1174  0.2189  0.3416
  116MPD2    C4 1771   1.565   2.578  17.546  0.1667  0.7854 -0.6727
  116MPD2    C5 1772   1.448   2.510  17.585  0.6352 -0.3629 -0.2643
  116MPD2     H 1773   1.721   2.316  17.417 -1.2446 -1.6756 -1.8421
  116MPD2    H1 1774   1.573   2.685  17.557  0.1139  0.6254  0.8809
  116MPD2    H2 1775   1.329   2.324  17.555 -0.5267 -0.9180 -3.5225
  116MPD2    H3 1776   1.374   2.568  17.639 -0.7671 -1.6177 -0.8172
  116MPD2     N 1777   1.786   2.562  17.469  0.7496  0.1315 -0.6863
  116MPD2    H5 1778   1.791   2.662  17.483  0.9816  0.0900 -0.4703
  116MPD2    N1 1779   1.493   2.174  17.436  0.2286  0.2107  0.2309
  116MPD2    H7 1780   1.410   2.132  17.476  1.0203 -0.2430  1.4164
  117TMC2    C1 1781   1.172   4.585  13.737 -0.1418  0.4718  0.3027
  117TMC2    C2 1782   1.173   4.478  13.822 -0.0127 -0.1115  0.3376
  117TMC2    C3 1783   1.270   4.478  13.926 -0.3384 -0.3841 -0.1431
  117TMC2    C4 1784   1.268   4.678  13.743  0.5987 -0.1861 -0.3446
  117TMC2    C5 1785   1.355   4.684  13.855  0.1662  0.3281 -0.2523
  117TMC2    C6 1786   1.356   4.584  13.948  0.8919 -0.4471 -0.0597
  117TMC2     C 1787   1.068   4.581  13.629 -0.2155  0.0567  0.2942
  117TMC2     O 1788   1.012   4.471  13.614  0.0466 -0.1159  0.1489
  117TMC2     H 1789   1.086   4.414  13.824  1.3900 -2.0625 -1.2161
  117TMC2    H1 1790   1.267   0.042  13.674 -1.9610 -0.4150 -0.6170
  117TMC2    H2 1791   1.423   4.582  14.032  2.7253  1.4300 -1.4916
  117TMC2    C7 1792   1.453   0.071  13.857  0.2576  0.5515 -0.4025
  117TMC2    C8 1793   1.258   4.365  14.008  0.6239 -0.3455 -0.1083
  117TMC2    O1 1794   1.449   0.150  13.765 -0.1267 -0.0727  0.3604
  117TMC2    O2 1795   1.278   4.367  14.129  0.1544  0.1169  0.1330
  117TMC2    O5 1796   1.253   4.254  13.924 -0.4135 -0.1100 -0.6788
  117TMC2    H5 1797   1.278   4.278  13.832  3.0564 -3.1804 -0.5285
  118MPD2     C 1798   1.681   0.184  14.128  0.2179  0.1769  0.2705
  118MPD2    C1 1799   1.635   0.172  14.001 -0.5647  0.1252  0.3923
  118MPD2    C2 1800   1.707   0.225  13.903  0.5385 -0.6466  0.2935
  118MPD2    C3 1801   1.817   0.313  13.929 -0.1075  0.1129  0.0917
  118MPD2    C4 1802   1.862   0.318  14.062  0.0329 -0.0773 -0.6218
  118MPD2    C5 1803   1.797   0.247  14.157 -0.1148  0.0869 -0.1359
  118MPD2     H 1804   1.673   0.219  13.800 -0.4002 -1.8506  0.6622
  118MPD2    H1 1805   1.956   0.363  14.092  0.6818 -1.5128 -0.5072
  118MPD2    H2 1806   1.643   0.131  14.215 -0.5443  1.2833  0.6084
  118MPD2    H3 1807   1.842   0.229  14.254 -0.3948 -1.1938 -0.2382
  118MPD2     N 1808   1.897   0.378  13.831 -0.4313 -0.3684 -0.1073
  118MPD2    H5 1809   1.991   0.406  13.856  0.2801 -2.7180 -0.1884
  118MPD2    N1 1810   1.521   0.085  13.977  0.5471  0.2980  0.5298
  118MPD2    H7 1811   1.482   0.037  14.058  1.5399 -0.5307  0.5196
  119MPD2     C 1812   3.968   1.590  13.129  0.5777  0.4427 -0.3911
  119MPD2    C1 1813   4.083   1.554  13.205  0.3021  0.4092 -0.0564
  119MPD2    C2 1814   4.123   1.423  13.195 -0.4450 -0.9238 -0.4450
  119MPD2    C3 1815   4.070   1.331  13.104 -0.8103 -0.3514  0.2011
  119MPD2    C4 1816   3.966   1.379  13.025  0.8587  0.2460  0.3259
  119MPD2    C5 1817   3.922   1.507  13.038 -0.0384  0.2544  0.1314
  119MPD2     H 1818   4.194   1.386  13.268  1.0947 -2.4300 -2.7018
  119MPD2    H1 1819   3.913   1.317  12.953 -1.0147 -1.7378  3.4615
  119MPD2    H2 1820   3.931   1.692  13.134 -0.7017  0.0105 -1.1086
  119MPD2    H3 1821   3.845   1.535  12.966 -0.0476  1.9859  0.8130
  119MPD2     N 1822   4.104   1.195  13.089  0.1788 -0.5931 -0.5766
  119MPD2    H5 1823   4.074   1.136  13.013 -0.1095  0.1431 -1.0375
  119MPD2    N1 1824   4.136   1.648  13.300 -0.5446  1.4929  0.4601
  119MPD2    H7 1825   4.094   1.740  13.292 -1.2868  1.2283  1.3475
  120TCq2    C1 1826   4.197   1.138  13.173 -0.1673  0.6232 -0.8748
  120TCq2    O2 1827   4.210   1.146  13.294  0.3320  0.0687  0.3420
  120TCq2    C2 1828   4.219   0.999  13.132  0.0654  0.4312  0.0944
  120TCq2    C3 1829   4.265   0.979  13.004 -0.3369 -0.1062  0.9466
  120TCq2    C4 1830   4.298   0.850  12.973 -0.4972 -0.1163 -0.6816
  120TCq2    C5 1831   4.293   0.751  13.065 -0.0269 -0.2130  0.7845
  120TCq2    C6 1832   4.261   0.781  13.192 -0.1081 -0.0561  0.2416
  120TCq2    C7 1833   4.230   0.906  13.229  0.9712 -0.0388 -0.1370
  120TCq2    C8 1834   4.288   0.682  13.296  0.0229  0.1473  0.2609
  120TCq2    O4 1835   4.353   0.584  13.264 -0.0428 -0.7702 -0.3905
  120TCq2    C9 1836   4.343   0.818  12.839  0.6698 -0.1049 -0.6255
  120TCq2    O5 1837   4.439   0.734  12.836 -0.3515 -0.0776 -0.0224
  120TCq2    O6 1838   4.292   0.880  12.745  0.8336  0.1703 -0.1438
  120TCq2    H2 1839   4.273   1.056  12.928  0.8478 -1.7342 -0.5633
  120TCq2    H3 1840   4.325   0.653  13.033 -0.7415 -0.6393  1.3531
  120TCq2    H4 1841   4.197   0.926  13.330 -1.8777  1.8844 -1.4396
  121TMC2    C1 1842   0.758   3.198  14.161  0.0627  0.0496 -0.0666
  121TMC2    C2 1843   0.826   3.190  14.281  0.0774 -0.1732 -0.2943
  121TMC2    C3 1844   0.804   3.089  14.365 -0.4429  0.7801 -0.3037
  121TMC2    C4 1845   0.661   3.111  14.130  0.1464  1.0259  0.1478
  121TMC2    C5 1846   0.627   3.017  14.224 -0.0870 -0.6836  0.0174
  121TMC2    C6 1847   0.700   3.002  14.341  0.6926 -0.0812  0.0807
  121TMC2     C 1848   0.858   3.233  14.066  0.5590 -0.2882  0.3269
  121TMC2     O 1849   0.976   3.206  14.091 -0.4402 -0.3061  0.0893
  121TMC2     H 1850   0.902   3.263  14.307 -0.3442  0.6949 -1.5197
  121TMC2    H1 1851   0.609   3.118  14.035 -0.8907  1.3101  0.7350
  121TMC2    H2 1852   0.678   2.920  14.409 -0.1754  0.4445  0.4344
  121TMC2    C7 1853   0.489   2.983  14.240 -0.5720  0.0633 -0.2218
  121TMC2    C8 1854   0.894   3.066  14.470  0.1322  0.1228 -0.4084
  121TMC2    O1 1855   0.452   2.891  14.309 -0.3362  0.4544  0.0605
  121TMC2    O2 1856   1.013   3.062  14.446  0.5512  0.5057  0.4306
  121TMC2    O5 1857   0.829   2.991  14.567  1.0345 -0.3062  0.3530
  121TMC2    H5 1858   0.736   3.013  14.588  1.0880  0.6259 -0.3578
  122MPD2     C 1859   1.009   3.375  13.851  0.8888  0.0526 -0.4020
  122MPD2    C1 1860   0.873   3.354  13.849 -0.0897  0.3829  0.1059
  122MPD2    C2 1861   0.803   3.394  13.734  0.3893  0.0699 -0.3378
  122MPD2    C3 1862   0.875   3.461  13.632  0.7048  0.6788  0.1102
  122MPD2    C4 1863   1.002   3.494  13.650  0.4887 -0.1782  0.1357
  122MPD2    C5 1864   1.072   3.451  13.760 -0.5049 -0.7685 -0.0849
  122MPD2     H 1865   0.701   3.359  13.726 -0.7465  3.0009  1.4996
  122MPD2    H1 1866   1.055   3.536  13.565  0.6861 -1.7258 -0.5053
  122MPD2    H2 1867   1.078   3.336  13.924  0.8785  0.6428 -0.0816
  122MPD2    H3 1868   1.181   3.453  13.757 -0.6465  0.8730 -3.8215
  122MPD2     N 1869   0.813   3.502  13.510  0.2158  0.3364 -0.3206
  122MPD2    H5 1870   0.881   3.540  13.446  1.8682  0.5661  1.5756
  122MPD2    N1 1871   0.802   3.284  13.952  0.1297  0.3672 -0.4389
  122MPD2    H7 1872   0.701   3.279  13.954  0.0543  0.8693 -2.6927
  123MPD2     C 1873   0.028   1.642   9.683 -0.1750 -0.0844  0.2757
  123MPD2    C1 1874   0.032   1.503   9.682 -0.2347 -0.2146  0.4353
  123MPD2    C2 1875   4.701   1.438   9.573 -0.1954  0.1634  0.3831
  123MPD2    C3 1876   4.671   1.510   9.454  0.2633 -0.7798  0.2458
  123MPD2    C4 1877   4.691   1.644   9.449 -0.1015  0.3284 -0.0060
  123MPD2    C5 1878   0.002   1.707   9.568 -0.1791  0.4532 -0.2773
  123MPD2     H 1879   4.697   1.330   9.563 -0.5853  0.1834  0.3090
  123MPD2    H1 1880   4.660   1.701   9.362 -0.5590 -0.4540 -0.3557
  123MPD2    H2 1881   0.038   1.707   9.770  0.7160  0.1528 -0.0153
  123MPD2    H3 1882   4.704   1.813   9.582 -0.3984  0.4308 -0.3996
  123MPD2     N 1883   4.639   1.437   9.340  0.1099  0.5783  0.7632
  123MPD2    H5 1884   4.632   1.337   9.358  0.1216  0.7433  1.6984
  123MPD2    N1 1885   0.086   1.439   9.798  0.2665 -0.2083  0.0005
  123MPD2    H7 1886   0.132   1.501   9.864 -2.2703  0.4032  1.2401
  124TCq2    C1 1887   4.655   1.469   9.202  0.2570  0.4564 -0.0807
  124TCq2    O2 1888   4.657   1.578   9.151 -0.3238 -0.3251  0.3022
  124TCq2    C2 1889   4.645   1.353   9.113 -0.7116 -0.1273 -0.3368
  124TCq2    C3 1890   4.641   1.367   8.977  0.2842 -0.0526 -0.2444
  124TCq2    C4 1891   4.645   1.259   8.899 -0.4737  0.5548  0.0012
  124TCq2    C5 1892   4.647   1.134   8.959  0.6421  0.0584  0.1729
  124TCq2    C6 1893   4.649   1.127   9.097 -0.1309  0.6733 -0.5450
  124TCq2    C7 1894   4.647   1.232   9.178  0.1385 -0.6399  0.6021
  124TCq2    C8 1895   4.660   0.996   9.166 -0.1022  0.5520 -0.1577
  124TCq2    O4 1896   4.707   0.991   9.281 -0.4145  0.5113  0.3330
  124TCq2    C9 1897   4.648   1.276   8.758  0.3244 -0.0344  0.0377
  124TCq2    O5 1898   4.657   1.171   8.687  0.6038  0.0583 -0.0434
  124TCq2    O6 1899   4.655   1.394   8.708  0.0492  0.0871  1.0642
  124TCq2    H2 1900   4.632   1.462   8.925  0.8342 -0.9946 -2.0555
  124TCq2    H3 1901   4.656   1.047   8.896 -0.5494  0.9014 -1.1751
  124TCq2    H4 1902   4.667   1.203   9.280  1.1237  2.3040  1.2364
  125TMC2    C1 1903   1.653   0.149   9.360  0.3020  0.6201  0.1270
  125TMC2    C2 1904   1.553   0.047   9.383 -0.3597  0.0247  0.6652
  125TMC2    C3 1905   1.602   4.639   9.385 -0.6848  0.2697 -0.1337
  125TMC2    C4 1906   1.776   0.115   9.316  0.7168 -0.0929  0.0088
  125TMC2    C5 1907   1.808   4.705   9.312  0.9711  0.1685  0.4736
  125TMC2    C6 1908   1.729   4.605   9.354  0.5403 -0.8738 -0.9945
  125TMC2     C 1909   1.614   0.289   9.365  0.4180 -0.4241 -0.1015
  125TMC2     O 1910   1.695   0.368   9.312  0.1067  0.0910 -0.0227
  125TMC2     H 1911   1.448   0.070   9.398  0.5075  2.6282  2.6738
  125TMC2    H1 1912   1.847   0.194   9.292 -0.8532  0.6725 -2.0948
  125TMC2    H2 1913   1.752   4.500   9.347  0.8782 -0.6491 -3.1004
  125TMC2    C7 1914   1.923   4.675   9.227 -0.5684 -0.8582 -0.5525
  125TMC2    C8 1915   1.519   4.534   9.452 -0.0554  0.4258 -0.2408
  125TMC2    O1 1916   2.012   0.037   9.217  0.2535  0.0708 -0.1855
  125TMC2    O2 1917   1.527   4.417   9.435  0.4023  0.2470  0.1267
  125TMC2    O5 1918   1.415   4.587   9.509 -0.1946 -0.0828 -0.2853
  125TMC2    H5 1919   1.424   4.684   9.520 -0.5793 -0.1788  0.8663
  126MPD1     C 1920   1.268   0.660   9.375 -0.0342 -0.8509  0.3279
  126MPD1    C1 1921   1.399   0.663   9.331 -0.3397 -0.2698 -0.4983
  126MPD1    C2 1922   1.477   0.548   9.341 -0.1836  0.7590  0.1997
  126MPD1    C3 1923   1.432   0.436   9.414  0.5789  0.3595  0.4078
  126MPD1    C4 1924   1.307   0.448   9.483 -0.5150  0.1467 -0.0529
  126MPD1    C5 1925   1.228   0.558   9.453 -0.8787  0.0016  0.5217
  126MPD1     H 1926   1.575   0.550   9.295 -0.8508  3.0058 -1.1558
  126MPD1    H1 1927   1.258   0.369   9.539  0.1123  0.4093  0.8536
  126MPD1    H2 1928   1.205   0.746   9.354 -1.4295 -1.7371  0.8756
  126MPD1    H3 1929   1.131   0.556   9.500 -0.9246  2.4545  0.4951
  126MPD1     N 1930   1.496   0.308   9.424 -0.2144  0.1896 -0.8836
  126MPD1    H5 1931   1.448   0.236   9.477  0.5427  0.2113 -0.1645
  126MPD1    N1 1932   1.445   0.761   9.242 -0.4163  0.1658  0.3643
  126MPD1    H6 1933   1.543   0.781   9.259 -0.5464  1.6665 -0.6283
  126MPD1    H7 1934   1.393   0.848   9.254  1.3483  1.6524 -2.4469
  127MPD2     C 1935   1.811   2.377   9.512 -0.0728 -0.1081 -0.0300
  127MPD2    C1 1936   1.887   2.356   9.395 -0.2944 -0.3667 -0.0376
  127MPD2    C2 1937   1.857   2.435   9.281  0.2245 -0.4379  0.2770
  127MPD2    C3 1938   1.761   2.534   9.278  0.2787 -0.4364 -0.6222
  127MPD2    C4 1939   1.703   2.559   9.397  0.0977  0.2649  0.2807
  127MPD2    C5 1940   1.726   2.490   9.512 -0.2422 -0.2186 -0.4139
  127MPD2     H 1941   1.920   2.424   9.193 -0.7688 -2.7071 -0.1472
  127MPD2    H1 1942   1.625   2.634   9.403 -0.3941 -0.2543  0.3793
  127MPD2    H2 1943   1.839   2.328   9.605  1.0329 -0.5924 -0.6064
  127MPD2    H3 1944   1.663   2.531   9.590 -1.5142  0.2702 -1.6922
  127MPD2     N 1945   1.737   2.600   9.156  0.1352 -0.1789 -0.0612
  127MPD2    H5 1946   1.795   2.584   9.074  1.4272  0.8288  0.6559
  127MPD2    N1 1947   1.990   2.261   9.400 -0.0708 -1.1120 -0.8365
  127MPD2    H7 1948   1.999   2.217   9.491 -0.3144  0.2178 -0.1796
  128TCq2    C1 1949   2.047   2.205   9.293 -0.5707 -0.0572 -0.4911
  128TCq2    O2 1950   2.074   2.254   9.183  0.2642 -0.2242 -0.3616
  128TCq2    C2 1951   2.079   2.060   9.315  0.6379  0.0651 -0.3094
  128TCq2    C3 1952   2.109   1.983   9.209 -0.0791 -0.2874 -0.7325
  128TCq2    C4 1953   2.163   1.862   9.224  0.6496  0.2688 -1.0587
  128TCq2    C5 1954   2.164   1.801   9.346 -0.3665 -0.0009  0.0414
  128TCq2    C6 1955   2.127   1.877   9.460  0.1970  0.5779 -0.3727
  128TCq2    C7 1956   2.078   2.009   9.446  0.5131 -0.3297 -0.4213
  128TCq2    C8 1957   2.133   1.819   9.593  0.0245 -0.3127 -0.1124
  128TCq2    O4 1958   2.135   1.896   9.694 -0.5127 -0.0822  0.1493
  128TCq2    C9 1959   2.195   1.777   9.116 -0.4666 -0.3675  0.4763
  128TCq2    O5 1960   2.261   1.675   9.138  1.0839  0.2149 -0.0653
  128TCq2    O6 1961   2.169   1.819   9.004  0.4040  0.0812 -0.1509
  128TCq2    H2 1962   2.105   2.010   9.104 -0.6243  2.5512  0.0206
  128TCq2    H3 1963   2.201   1.699   9.351  1.3053  0.6521  0.7600
  128TCq2    H4 1964   2.032   2.065   9.527 -1.3619 -4.5244  1.4105
  129MPD2     C 1965   3.449   2.477   0.632 -0.1794 -0.1998  0.0363
  129MPD2    C1 1966   3.519   2.424   0.741 -0.8242  0.3528 -0.9989
  129MPD2    C2 1967   3.655   2.457   0.757 -0.0713  0.4128 -0.6791
  129MPD2    C3 1968   3.718   2.547   0.681 -0.0459 -0.1262 -0.5142
  129MPD2    C4 1969   3.647   2.598   0.566 -0.3590 -0.2220  0.0343
  129MPD2    C5 1970   3.515   2.557   0.539 -0.3670 -0.1790  0.6136
  129MPD2     H 1971   3.712   2.402   0.831 -1.6504 -0.7008 -0.2846
  129MPD2    H1 1972   3.686   2.673   0.498  3.3149 -2.1421  0.0415
  129MPD2    H2 1973   3.351   2.438   0.607 -0.6177  0.5022  0.6534
  129MPD2    H3 1974   3.458   2.587   0.452  0.6948 -1.0062 -0.3778
  129MPD2     N 1975   3.853   2.573   0.708 -0.3646 -0.2340 -0.4744
  129MPD2    H5 1976   3.895   2.527   0.788 -3.3509 -0.4043  0.9940
  129MPD2    N1 1977   3.465   2.318   0.821  0.0986  0.3639 -0.5743
  129MPD2    H7 1978   3.525   2.272   0.888  0.2010  1.5623  0.1613
  130TCq2    C1 1979   3.338   2.263   0.821  0.0815  0.0928  0.0274
  130TCq2    O2 1980   3.238   2.303   0.757  0.1970  0.4277 -0.3379
  130TCq2    C2 1981   3.330   2.156   0.915  0.1807 -0.0993  0.7233
  130TCq2    C3 1982   3.436   2.080   0.943  0.3738  0.4071  0.5839
  130TCq2    C4 1983   3.425   2.004   1.057  0.4900 -0.2662 -0.2812
  130TCq2    C5 1984   3.307   2.001   1.127  0.1524 -0.3914  0.1108
  130TCq2    C6 1985   3.206   2.079   1.093  0.0607 -0.3363  0.2769
  130TCq2    C7 1986   3.211   2.151   0.982  0.0184  0.1449  0.5686
  130TCq2    C8 1987   3.074   2.064   1.155  0.4264 -0.7384  0.3626
  130TCq2    O4 1988   2.979   2.091   1.079  0.1904  0.2806  0.2637
  130TCq2    C9 1989   3.535   1.917   1.100  0.3702  0.2567  0.0142
  130TCq2    O5 1990   3.644   1.923   1.036  0.3730  0.6079 -0.3950
  130TCq2    O6 1991   3.509   1.855   1.204  0.0999  0.1852 -0.2613
  130TCq2    H2 1992   3.527   2.078   0.885 -0.2721  1.3675 -0.4621
  130TCq2    H3 1993   3.294   1.927   1.205 -0.0868 -1.9866 -1.4316
  130TCq2    H4 1994   3.137   2.225   0.956 -0.0045 -0.7521 -1.8793
  131MPD2     C 1995   4.434   0.639   9.802  0.2710 -0.2287  0.6024
  131MPD2    C1 1996   4.472   0.745   9.724 -0.0005 -0.4322 -0.6074
  131MPD2    C2 1997   4.545   0.845   9.781  0.4561  0.5024  0.8536
  131MPD2    C3 1998   4.594   0.830   9.912  0.6548  0.1536  0.1181
  131MPD2    C4 1999   4.581   0.715   9.984 -0.1187  0.4052  0.1391
  131MPD2    C5 2000   4.494   0.622   9.927  0.3005  0.3465  1.0193
  131MPD2     H 2001   4.566   0.935   9.725 -0.4704  0.4888  0.4831
  131MPD2    H1 2002   4.639   0.688  10.071 -2.8312  1.7789  2.3664
  131MPD2    H2 2003   4.369   0.560   9.766 -0.2899  0.7801 -0.5903
  131MPD2    H3 2004   4.476   0.532   9.985 -2.2337  0.5388  0.5041
  131MPD2     N 2005   4.679   0.927   9.948  0.1961 -0.3058 -0.1560
  131MPD2    H5 2006   4.693   0.994   9.874 -1.9381 -0.8364 -1.0511
  131MPD2    N1 2007   4.417   0.747   9.597  0.2084 -0.4741 -1.2286
  131MPD2    H7 2008   4.354   0.675   9.564 -1.3067 -0.3698  1.4229
  132TCq2    C1 2009   4.232   1.022   9.095  0.4251  0.3178 -0.0498
  132TCq2    O2 2010   4.218   0.985   8.982  0.0522  0.2150  0.1282
  132TCq2    C2 2011   4.253   0.910   9.186 -0.5879  0.4192 -0.3468
  132TCq2    C3 2012   4.203   0.790   9.156  1.0591  0.9185  0.5187
  132TCq2    C4 2013   4.212   0.689   9.257 -0.1531  0.4414  0.0016
  132TCq2    C5 2014   4.288   0.700   9.370 -0.4295 -0.8065  0.4365
  132TCq2    C6 2015   4.350   0.825   9.389  0.5354  0.6203 -0.3680
  132TCq2    C7 2016   4.335   0.924   9.301  0.9182 -0.5254  0.7915
  132TCq2    C8 2017   4.435   0.845   9.508 -0.2962 -0.0472 -0.0257
  132TCq2    O4 2018   4.514   0.937   9.501 -0.8101  0.0327 -0.1924
  132TCq2    C9 2019   4.138   0.561   9.243  0.6171 -0.3807  0.2803
  132TCq2    O5 2020   4.116   0.524   9.126 -0.7537 -0.8173 -0.1340
  132TCq2    O6 2021   4.105   0.504   9.350 -0.1731 -0.1519  0.2215
  132TCq2    H2 2022   4.140   0.770   9.070  0.8973  1.5851  0.4879
  132TCq2    H3 2023   4.298   0.610   9.431  0.0583 -0.9323  0.1699
  132TCq2    H4 2024   4.387   1.017   9.319 -0.4730  0.9785 -2.8776
  133MPD2     C 2025   2.943   0.565   8.634 -0.1193 -0.6942  0.0895
  133MPD2    C1 2026   2.832   0.644   8.643  0.1825  0.4346  0.3342
  133MPD2    C2 2027   2.846   0.760   8.722  0.3941  0.8188 -0.6310
  133MPD2    C3 2028   2.964   0.801   8.772  0.2797  0.0593 -0.0555
  133MPD2    C4 2029   3.077   0.722   8.755  0.0220 -0.2528  0.0823
  133MPD2    C5 2030   3.062   0.601   8.695  0.1570 -0.3932 -0.0305
  133MPD2     H 2031   2.767   0.827   8.753 -0.3833 -0.9133  1.1295
  133MPD2    H1 2032   3.175   0.761   8.781 -1.8534  3.3675  1.7776
  133MPD2    H2 2033   2.940   0.466   8.589 -0.7062 -0.1529 -1.0751
  133MPD2    H3 2034   3.145   0.539   8.662 -1.4602 -1.3474 -2.3642
  133MPD2     N 2035   2.989   0.930   8.834 -0.7844  0.3616  0.8915
  133MPD2    H5 2036   3.086   0.951   8.857  0.0491  0.0493 -2.4517
  133MPD2    N1 2037   2.706   0.594   8.587  0.7857  0.2828  0.1608
  133MPD2    H7 2038   2.717   0.507   8.536  1.4239  0.3423  0.2034
  134TCq2    C1 2039   2.583   0.649   8.607 -0.2439 -0.0360  0.3725
  134TCq2    O2 2040   2.551   0.741   8.684  0.7583  0.1460 -0.4415
  134TCq2    C2 2041   2.470   0.574   8.581 -0.2627  0.1197 -0.3005
  134TCq2    C3 2042   2.474   0.469   8.489 -0.0152  0.5497 -0.8574
  134TCq2    C4 2043   2.374   0.398   8.456 -0.2170 -0.2418  0.4556
  134TCq2    C5 2044   2.252   0.415   8.508  0.7263 -0.1470  0.0112
  134TCq2    C6 2045   2.251   0.510   8.605 -0.6884 -0.0304 -0.3016
  134TCq2    C7 2046   2.356   0.593   8.642 -0.9664  0.3504 -0.0005
  134TCq2    C8 2047   2.124   0.521   8.676  0.2832  0.1070 -0.1458
  134TCq2    O4 2048   2.042   0.428   8.665  0.3108 -0.3366 -0.0833
  134TCq2    C9 2049   2.386   0.307   8.351 -0.0722 -0.0175  0.7544
  134TCq2    O5 2050   2.272   0.266   8.304  0.3359 -0.1862 -0.1572
  134TCq2    O6 2051   2.498   0.300   8.293  0.4781 -0.0057 -0.0799
  134TCq2    H2 2052   2.558   0.460   8.421 -0.3939  0.7548 -1.3536
  134TCq2    H3 2053   2.170   0.346   8.492  1.4966 -1.0990  0.1494
  134TCq2    H4 2054   2.351   0.664   8.724 -1.0777  0.7393 -0.3412
  135MPD2     C 2055   0.887   3.588   9.157  0.2888  0.0119 -0.4827
  135MPD2    C1 2056   0.923   3.473   9.227 -0.1765  0.8019 -0.4632
  135MPD2    C2 2057   1.051   3.429   9.214  0.2878  0.3927 -0.6830
  135MPD2    C3 2058   1.146   3.501   9.148  0.3485  0.3860  0.4727
  135MPD2    C4 2059   1.105   3.615   9.079  0.2980  0.0895  0.2609
  135MPD2    C5 2060   0.982   3.666   9.100 -0.3492 -0.0910  0.4749
  135MPD2     H 2061   1.072   3.347   9.282  2.5636  1.2366 -0.3428
  135MPD2    H1 2062   1.180   3.678   9.034  1.0321 -1.7195 -1.0338
  135MPD2    H2 2063   0.785   3.625   9.153 -0.1624 -1.1681 -0.1073
  135MPD2    H3 2064   0.959   3.761   9.054  0.8369  0.4811  1.0405
  135MPD2     N 2065   1.283   3.461   9.137  0.4362 -0.7758  0.4913
  135MPD2    H5 2066   1.348   3.521   9.088  0.1575 -0.7319  0.1741
  135MPD2    N1 2067   0.834   3.414   9.315  0.3597  0.7976  0.3963
  135MPD2    H7 2068   0.868   3.345   9.381 -0.6459 -0.3093 -0.2361
  136TCq2    C1 2069   0.703   3.445   9.328  0.6375 -0.2671 -0.6488
  136TCq2    O2 2070   0.625   3.508   9.260  0.6782  0.3961  0.6383
  136TCq2    C2 2071   0.639   3.361   9.428  0.5186  0.9696 -0.0001
  136TCq2    C3 2072   0.703   3.328   9.550  0.2664  0.2942 -1.0349
  136TCq2    C4 2073   0.627   3.287   9.656  0.4063  0.9905 -0.7884
  136TCq2    C5 2074   0.499   3.249   9.638 -0.4102 -0.3050 -0.3887
  136TCq2    C6 2075   0.446   3.259   9.515  0.0438 -0.2542  0.6124
  136TCq2    C7 2076   0.508   3.328   9.414 -0.5681  0.2313 -0.4967
  136TCq2    C8 2077   0.309   3.228   9.490 -0.0299  0.1510  0.6113
  136TCq2    O4 2078   0.266   3.252   9.381 -0.1220  0.0083  0.0305
  136TCq2    C9 2079   0.698   3.253   9.778  0.3133 -0.3112 -0.1254
  136TCq2    O5 2080   0.826   3.238   9.772  0.3900  0.3750  0.6944
  136TCq2    O6 2081   0.629   3.209   9.870 -0.4802  0.9252  1.0138
  136TCq2    H2 2082   0.810   3.337   9.564 -0.5336  3.8964  2.5969
  136TCq2    H3 2083   0.446   3.206   9.723 -1.7743  0.2447 -0.9721
  136TCq2    H4 2084   0.457   3.341   9.319 -2.7542  0.9342  0.7908
  137MPD2     C 2085   0.158   2.750   9.210 -0.0523  0.0923  0.3801
  137MPD2    C1 2086   0.281   2.767   9.154 -0.3206 -0.6399  0.2620
  137MPD2    C2 2087   0.386   2.805   9.235  0.1045  0.3032 -0.5544
  137MPD2    C3 2088   0.366   2.837   9.370 -0.0848  0.3015 -0.1420
  137MPD2    C4 2089   0.243   2.824   9.428  0.3032 -0.2415  0.1653
  137MPD2    C5 2090   0.144   2.778   9.346  1.1863  0.4855  0.1450
  137MPD2     H 2091   0.485   2.805   9.191 -0.6431 -0.4163 -2.2382
  137MPD2    H1 2092   0.215   2.870   9.522 -0.2422  1.3367 -0.7637
  137MPD2    H2 2093   0.079   2.709   9.148  0.5448 -2.3287  1.1944
  137MPD2    H3 2094   0.045   2.774   9.391  0.8638  0.3912 -0.5715
  137MPD2     N 2095   0.477   2.885   9.444 -0.1710  0.1069  0.0607
  137MPD2    H5 2096   0.564   2.893   9.392 -0.6474  2.5128 -0.3589
  137MPD2    N1 2097   0.291   2.712   9.023 -0.0121 -0.4058  0.1790
  137MPD2    H7 2098   0.205   2.676   8.984  0.1611 -0.2924 -0.3130
  138TCq2    C1 2099   0.402   2.717   8.946 -0.3905  0.0205  0.2469
  138TCq2    O2 2100   0.502   2.787   8.960  0.5630 -0.3987 -0.2406
  138TCq2    C2 2101   0.391   2.647   8.818  0.0014  0.1905  0.0007
  138TCq2    C3 2102   0.490   2.672   8.723  0.1901 -0.0436  0.0744
  138TCq2    C4 2103   0.508   2.586   8.618 -0.7115 -0.1840  0.0479
  138TCq2    C5 2104   0.426   2.473   8.594 -0.4197  0.0692  0.2328
  138TCq2    C6 2105   0.329   2.454   8.687  0.0260  0.3741 -0.0494
  138TCq2    C7 2106   0.314   2.536   8.800 -0.1077  0.2546  0.3214
  138TCq2    C8 2107   0.235   2.345   8.660  0.4374  0.6365  1.0893
  138TCq2    O4 2108   0.225   2.308   8.542  0.1144 -0.3462  0.4379
  138TCq2    C9 2109   0.595   2.623   8.511 -0.2233  0.4961  0.5478
  138TCq2    O5 2110   0.591   2.545   8.411  0.3877  0.2679  0.7061
  138TCq2    O6 2111   0.619   2.748   8.508  0.3525  0.3087  0.0597
  138TCq2    H2 2112   0.544   2.766   8.723  1.0157 -0.5234 -0.4360
  138TCq2    H3 2113   0.440   2.402   8.514 -0.5264 -0.1140  0.3770
  138TCq2    H4 2114   0.264   2.489   8.884  0.3417 -0.7455  0.0282
  139TMC2    C1 2115   1.021   1.221  13.008  0.0149  0.2244 -0.1083
  139TMC2    C2 2116   1.130   1.308  12.995 -0.4065 -0.5190  0.4033
  139TMC2    C3 2117   1.104   1.442  13.020  0.0580  0.5015  0.2666
  139TMC2    C4 2118   0.901   1.259  13.049 -0.5138  0.0040 -1.1372
  139TMC2    C5 2119   0.875   1.394  13.057 -0.6247 -0.0923  0.4314
  139TMC2    C6 2120   0.977   1.486  13.053  0.1440 -0.2890  0.2243
  139TMC2     C 2121   1.064   1.081  13.005  0.3908  0.3870 -0.9618
  139TMC2     O 2122   1.188   1.061  13.006  0.0845  0.1877  0.6248
  139TMC2     H 2123   1.229   1.274  12.969 -0.4985  0.0680 -0.7027
  139TMC2    H1 2124   0.833   1.186  13.092  0.1363  1.4059  2.2900
  139TMC2    H2 2125   0.964   1.593  13.067  2.2154  0.1824 -1.4402
  139TMC2    C7 2126   0.741   1.432  13.102 -0.6534 -0.7741 -0.4614
  139TMC2    C8 2127   1.208   1.543  13.006  0.6573  0.4119 -0.5658
  139TMC2    O1 2128   0.711   1.545  13.129  0.5245  0.0560 -0.1015
  139TMC2    O2 2129   1.198   1.640  12.929 -0.3239 -0.1387  0.1033
  139TMC2    O5 2130   1.328   1.496  13.043  0.1436  0.1636  0.1536
  139TMC2    H5 2131   1.307   1.420  13.101 -1.7309 -1.5690 -2.7698
  140MPD2     C 2132   0.844   0.786  12.998 -0.2440  0.5285 -0.2473
  140MPD2    C1 2133   0.967   0.851  12.995  0.0981 -0.5146  0.1546
  140MPD2    C2 2134   1.089   0.778  13.011  0.0990 -0.4273  0.1827
  140MPD2    C3 2135   1.073   0.642  13.018  0.3373  0.4378  0.5595
  140MPD2    C4 2136   0.954   0.574  13.008 -0.2484 -0.6240  0.0725
  140MPD2    C5 2137   0.840   0.646  13.004 -0.2527  0.4958  0.0105
  140MPD2     H 2138   1.184   0.830  13.009 -1.4423  2.2639 -3.3644
  140MPD2    H1 2139   0.940   0.468  12.994 -0.7686 -0.7251  1.3182
  140MPD2    H2 2140   0.750   0.839  13.010  0.6170  2.3297 -1.4876
  140MPD2    H3 2141   0.739   0.606  13.003 -0.4900  1.0719  0.3904
  140MPD2     N 2142   1.190   0.575  13.031 -0.4335  0.1874  0.6042
  140MPD2    H5 2143   1.276   0.630  13.034  1.1462 -2.1777 -1.5381
  140MPD2    N1 2144   0.963   0.994  12.987 -0.6021  0.0869 -0.1523
  140MPD2    H7 2145   0.871   1.037  12.982 -0.0133  1.5152  1.2289
  141TCq2    C1 2146   1.706   1.520  13.810  0.8451  0.0574  0.9567
  141TCq2    O2 2147   1.626   1.537  13.720  0.3366 -0.0918 -0.0142
  141TCq2    C2 2148   1.788   1.636  13.857 -0.0424  0.1090  0.0155
  141TCq2    C3 2149   1.743   1.762  13.813  0.3616  0.0570 -0.0529
  141TCq2    C4 2150   1.804   1.873  13.868 -0.2759  0.0449  0.2611
  141TCq2    C5 2151   1.905   1.860  13.953 -0.3877 -0.5561 -0.7125
  141TCq2    C6 2152   1.943   1.737  14.001  0.4503  0.5710  0.9759
  141TCq2    C7 2153   1.885   1.622  13.959 -0.3241  0.4978 -0.3122
  141TCq2    C8 2154   2.027   1.733  14.116  0.1854  0.4986  0.0203
  141TCq2    O4 2155   2.053   1.621  14.162 -0.8869 -0.4538 -0.1888
  141TCq2    C9 2156   1.750   2.001  13.849  0.5223 -0.2943 -0.1742
  141TCq2    O5 2157   1.659   2.018  13.766  0.2517  0.2444  0.6242
  141TCq2    O6 2158   1.776   2.081  13.947  0.1595 -0.3219  0.5053
  141TCq2    H2 2159   1.666   1.775  13.738  2.1483  1.6251 -1.6273
  141TCq2    H3 2160   1.951   1.957  13.968  0.3785 -0.8236 -1.3761
  141TCq2    H4 2161   1.930   1.525  13.975 -1.5317 -0.3418 -1.9137
  142MPD2     C 2162   4.441   4.587   9.943 -0.1429  0.0971 -0.5124
  142MPD2    C1 2163   4.382   4.707   9.959  0.0447 -0.6556 -0.0524
  142MPD2    C2 2164   4.462   0.102   9.930 -0.1184 -0.4691 -0.2105
  142MPD2    C3 2165   4.589   0.092   9.872  0.0988  0.3166 -0.2121
  142MPD2    C4 2166   4.641   4.688   9.853 -0.4249 -0.0128 -0.6860
  142MPD2    C5 2167   4.571   4.576   9.895 -0.2818  0.3895 -0.1442
  142MPD2     H 2168   4.410   0.197   9.937 -2.4209 -2.0396  4.0028
  142MPD2    H1 2169   0.021   4.668   9.816 -0.1564 -1.7541  0.9788
  142MPD2    H2 2170   4.386   4.495   9.961 -1.5685  0.9768 -0.3490
  142MPD2    H3 2171   4.626   4.484   9.878 -0.9918 -0.0029 -0.3059
  142MPD2     N 2172   4.663   0.203   9.821 -0.2124 -0.5422  0.5981
  142MPD2    H5 2173   0.026   0.181   9.767  1.3878 -0.2929  2.9441
  142MPD2    N1 2174   4.247   4.703  10.006 -0.4189  0.1839 -0.0360
  142MPD2    H7 2175   4.211   4.616  10.045 -0.6753  0.9550  1.4329
  143TCq2    C1 2176   4.658   0.326   9.878  0.2742 -0.4817  0.4828
  143TCq2    O2 2177   4.618   0.345   9.991 -0.5134  0.1186 -0.3245
  143TCq2    C2 2178   0.035   0.414   9.818 -0.0472  1.1203 -0.1997
  143TCq2    C3 2179   0.114   0.495   9.900  0.1144  0.2956  0.1180
  143TCq2    C4 2180   0.191   0.598   9.844  0.4081 -0.3709 -0.0047
  143TCq2    C5 2181   0.184   0.626   9.711 -0.1778  0.9787  0.0587
  143TCq2    C6 2182   0.096   0.554   9.634 -0.2727 -0.1220 -0.1869
  143TCq2    C7 2183   0.032   0.440   9.680 -0.4826 -0.4799 -0.3621
  143TCq2    C8 2184   0.079   0.612   9.496 -0.8447 -0.4256  0.2020
  143TCq2    O4 2185   0.160   0.694   9.463 -0.1163 -0.0036  0.7811
  143TCq2    C9 2186   0.274   0.675   9.928 -0.7964  0.4457  0.4454
  143TCq2    O5 2187   0.345   0.766   9.871 -0.5950 -0.2400 -0.1511
  143TCq2    O6 2188   0.288   0.635  10.046  0.6345 -0.2212 -0.0363
  143TCq2    H2 2189   0.115   0.481  10.008  1.8842 -2.6151 -0.2675
  143TCq2    H3 2190   0.238   0.711   9.673 -1.2306  2.8799  2.8264
  143TCq2    H4 2191   4.684   0.377   9.624 -1.9039  2.0040 -1.3961
  144MPD2     C 2192   1.558   4.007   1.046 -0.3696  0.8254 -0.4846
  144MPD2    C1 2193   1.609   3.961   0.923  0.5862  0.2682  0.2323
  144MPD2    C2 2194   1.737   3.990   0.889  0.4090 -0.6050  0.6380
  144MPD2    C3 2195   1.821   4.049   0.986  0.0719  0.3985 -0.2175
  144MPD2    C4 2196   1.772   4.087   1.101  0.1266 -0.2084  0.0316
  144MPD2    C5 2197   1.647   4.056   1.139  0.9093  0.1734  1.2959
  144MPD2     H 2198   1.766   3.945   0.795  0.5355 -1.2388  0.9768
  144MPD2    H1 2199   1.836   4.131   1.176 -1.9486  0.7779  1.1940
  144MPD2    H2 2200   1.458   3.980   1.078  0.0464  0.9554  0.9320
  144MPD2    H3 2201   1.607   4.093   1.233  0.8772 -2.4393  2.3142
  144MPD2     N 2202   1.962   4.076   0.977 -0.6043 -0.4407  0.3209
  144MPD2    H5 2203   2.005   4.138   1.044  1.0267 -0.9003 -0.2787
  144MPD2    N1 2204   1.530   3.895   0.825  0.0685 -0.3942  0.2102
  144MPD2    H7 2205   1.582   3.863   0.744  1.0062  2.3621 -0.2739
  145TCq2    C1 2206   2.041   4.045   0.868  0.9554  0.1816  0.1076
  145TCq2    O2 2207   2.000   3.980   0.771 -0.2229  0.2557 -0.4921
  145TCq2    C2 2208   2.167   4.108   0.866 -0.3771  0.2373 -0.0641
  145TCq2    C3 2209   2.232   4.105   0.739 -0.2419 -0.4693  0.5404
  145TCq2    C4 2210   2.358   4.154   0.731 -0.4955  0.4248 -0.2169
  145TCq2    C5 2211   2.429   4.195   0.842 -0.9971 -0.5686 -0.8546
  145TCq2    C6 2212   2.358   4.196   0.966 -0.3339 -0.2275 -0.0434
  145TCq2    C7 2213   2.226   4.154   0.979 -0.3292  0.1332  0.7412
  145TCq2    C8 2214   2.420   4.269   1.069  0.5221 -0.1725 -0.0261
  145TCq2    O4 2215   2.537   4.292   1.050  0.0528  0.1515  0.0237
  145TCq2    C9 2216   2.422   4.154   0.604  0.2750 -0.5498  0.5981
  145TCq2    O5 2217   2.548   4.170   0.604  0.2212  0.5250 -0.6908
  145TCq2    O6 2218   2.351   4.123   0.506  0.3887  0.6393 -0.4593
  145TCq2    H2 2219   2.186   4.052   0.656  1.9795  1.0027 -1.6111
  145TCq2    H3 2220   2.536   4.212   0.837 -1.1795  0.4539 -1.3070
  145TCq2    H4 2221   2.173   4.142   1.073  0.4296 -0.1699  1.1315
  146TMC2    C1 2222   2.814   3.491  12.517  0.0285  0.1263 -0.5135
  146TMC2    C2 2223   2.725   3.521  12.412 -0.2900 -0.5785 -1.1296
  146TMC2    C3 2224   2.689   3.407  12.335 -0.1762  0.0410  0.1394
  146TMC2    C4 2225   2.869   3.367  12.533  0.3735  0.5036 -0.3091
  146TMC2    C5 2226   2.831   3.263  12.454  0.9264  0.3498  0.3958
  146TMC2    C6 2227   2.744   3.279  12.351  0.7594 -0.1894  0.0918
  146TMC2     C 2228   2.845   3.592  12.614  0.1248  0.3729  0.6821
  146TMC2     O 2229   2.838   3.711  12.587 -0.0462  0.3751 -0.0181
  146TMC2     H 2230   2.690   3.623  12.403  0.0152 -0.3495  0.2560
  146TMC2    H1 2231   2.960   3.363  12.591 -0.2030 -0.2104  0.5509
  146TMC2    H2 2232   2.736   3.203  12.274  0.6824  2.0259 -2.0928
  146TMC2    C7 2233   2.910   3.142  12.448  0.6620  0.1101  0.3745
  146TMC2    C8 2234   2.614   3.429  12.213  0.3242  0.4907  0.0328
  146TMC2    O1 2235   2.899   3.071  12.349  0.3529  0.1473  0.4893
  146TMC2    O2 2236   2.561   3.344  12.146 -0.1454  0.1024 -0.7211
  146TMC2    O5 2237   2.652   3.548  12.159 -0.6370  0.7108  0.1160
  146TMC2    H5 2238   2.692   3.607  12.227  3.0655 -1.4025 -0.1954
  147MPD2     C 2239   3.139   2.749  12.686 -0.4754  0.6123  0.1200
  147MPD2    C1 2240   3.158   2.864  12.760 -0.1457  0.5850 -0.5815
  147MPD2    C2 2241   3.105   2.987  12.715  0.4285  0.3626  0.0681
  147MPD2    C3 2242   3.026   2.989  12.605  0.2611 -0.2882  0.2434
  147MPD2    C4 2243   3.020   2.876  12.527  0.2952 -0.3616  0.0608
  147MPD2    C5 2244   3.082   2.756  12.564  0.4765 -0.6292  0.1493
  147MPD2     H 2245   3.123   3.078  12.772  0.2407  1.8575 -2.2583
  147MPD2    H1 2246   2.966   2.869  12.433 -1.6553 -0.8616  1.2150
  147MPD2    H2 2247   3.194   2.661  12.719 -1.6474  0.7829  2.5048
  147MPD2    H3 2248   3.071   2.668  12.502 -0.6027  0.3147 -1.0009
  147MPD2     N 2249   2.966   3.111  12.572  0.1738 -0.5423 -0.0519
  147MPD2    H5 2250   2.972   3.177  12.649 -0.6708 -0.3384 -0.1654
  147MPD2    N1 2251   3.239   2.848  12.880 -0.0700  0.2117  0.0281
  147MPD2    H7 2252   3.264   2.754  12.910  1.7407  0.6310 -0.1974
  148MPD2     C 2253   4.204   1.054  10.874  0.0204  0.4078 -0.0649
  148MPD2    C1 2254   4.205   1.123  10.750 -0.7166  0.4945 -0.1146
  148MPD2    C2 2255   4.159   1.065  10.632  0.5822 -0.4635  0.0793
  148MPD2    C3 2256   4.098   0.941  10.639  0.1935 -0.2116  0.7729
  148MPD2    C4 2257   4.099   0.876  10.759 -0.0759  0.0792  0.4573
  148MPD2    C5 2258   4.147   0.933  10.877 -0.4706  0.5610 -0.1275
  148MPD2     H 2259   4.168   1.107  10.533 -1.1154  0.0462  0.1392
  148MPD2    H1 2260   4.064   0.774  10.769  2.3937 -0.5954  2.3501
  148MPD2    H2 2261   4.232   1.103  10.967  0.2177  2.6961 -1.3298
  148MPD2    H3 2262   4.148   0.872  10.967 -0.4856 -0.9631 -1.1616
  148MPD2     N 2263   4.037   0.865  10.531  0.2743  0.8584  0.0889
  148MPD2    H5 2264   4.007   0.772  10.556  1.0188  0.7653  0.6022
  148MPD2    N1 2265   4.262   1.252  10.745  0.6008 -0.2916 -0.1932
  148MPD2    H7 2266   4.279   1.292  10.653  0.0024  1.0662  0.2805
  149TCq2    C1 2267   4.266   1.339  10.848  0.5678 -0.2381 -0.5750
  149TCq2    O2 2268   4.228   1.336  10.964  0.4567 -0.4698 -0.0280
  149TCq2    C2 2269   4.305   1.464  10.800 -0.1111 -0.0959  0.2743
  149TCq2    C3 2270   4.216   1.571  10.803  0.3875  0.3747  0.6367
  149TCq2    C4 2271   4.212   1.667  10.707 -0.1423 -0.0266 -0.2061
  149TCq2    C5 2272   4.285   1.652  10.591  0.6153  0.2141  0.4346
  149TCq2    C6 2273   4.372   1.541  10.589 -0.4449 -0.3297 -0.8501
  149TCq2    C7 2274   4.390   1.458  10.699 -0.3154  0.3553  0.1196
  149TCq2    C8 2275   4.386   1.475  10.460  0.4152  0.4268 -0.3243
  149TCq2    O4 2276   4.374   1.351  10.464 -0.1069  0.9745  0.4913
  149TCq2    C9 2277   4.085   1.739  10.698  0.1297 -0.6445  0.1754
  149TCq2    O5 2278   3.988   1.687  10.747 -0.2937  0.2765  0.5259
  149TCq2    O6 2279   4.093   1.845  10.638  0.2288  0.0981  0.5704
  149TCq2    H2 2280   4.142   1.570  10.883  0.7918  0.8885  1.0166
  149TCq2    H3 2281   4.266   1.720  10.509  0.0363 -1.3486 -0.7256
  149TCq2    H4 2282   4.481   1.401  10.708 -0.2269  0.8513  2.5051
  150MPD2     C 2283   0.537   1.335  12.250  0.5655 -0.2166 -0.3542
  150MPD2    C1 2284   0.531   1.430  12.149 -0.0189  0.1557 -0.4580
  150MPD2    C2 2285   0.634   1.526  12.154 -0.0147  0.0869 -0.6640
  150MPD2    C3 2286   0.733   1.522  12.253 -0.6399 -0.4617 -0.6111
  150MPD2    C4 2287   0.731   1.423  12.350  0.0043  0.1855  0.5526
  150MPD2    C5 2288   0.634   1.333  12.345 -1.0373 -0.0260  0.0364
  150MPD2     H 2289   0.638   1.598  12.073  0.9447  0.3549 -0.3830
  150MPD2    H1 2290   0.798   1.420  12.435 -0.8667 -1.1823  1.2006
  150MPD2    H2 2291   0.463   1.256  12.261  0.0856  0.5233  1.8704
  150MPD2    H3 2292   0.637   1.261  12.427 -0.7118 -1.1406 -0.9481
  150MPD2     N 2293   0.830   1.625  12.270 -0.2130  0.1289  0.6277
  150MPD2    H5 2294   0.815   1.708  12.213 -0.0691 -0.6459 -0.5542
  150MPD2    N1 2295   0.440   1.402  12.039 -0.2023  0.7311 -0.1753
  150MPD2    H7 2296   0.374   1.329  12.062 -0.2205  0.4713 -1.0407
  151TCq2    C1 2297   0.950   1.615  12.336  0.0017  0.1722  0.5932
  151TCq2    O2 2298   0.995   1.522  12.406  0.3394 -0.6543 -0.0804
  151TCq2    C2 2299   1.038   1.718  12.283 -0.4799  0.1113  0.0871
  151TCq2    C3 2300   0.995   1.823  12.209  0.5410  0.0711 -0.4272
  151TCq2    C4 2301   1.084   1.889  12.127  0.5072 -1.1564  0.2001
  151TCq2    C5 2302   1.214   1.850  12.115 -0.0466  0.3498  0.0469
  151TCq2    C6 2303   1.256   1.751  12.200 -0.7654  0.3723 -0.0226
  151TCq2    C7 2304   1.170   1.688  12.286 -0.3615  0.1859 -0.7643
  151TCq2    C8 2305   1.394   1.762  12.226 -0.1509  0.7928 -0.6875
  151TCq2    O4 2306   1.461   1.860  12.187  0.2454  0.1222  0.1262
  151TCq2    C9 2307   1.038   2.006  12.054  0.0140  0.2520  0.2651
  151TCq2    O5 2308   1.106   2.032  11.950  0.0800 -0.1600  0.3305
  151TCq2    O6 2309   0.922   2.053  12.074  0.5105 -0.0670  0.3411
  151TCq2    H2 2310   0.896   1.867  12.218  0.3595 -0.1067 -1.5864
  151TCq2    H3 2311   1.281   1.889  12.038 -0.4091  2.3822  0.7500
  151TCq2    H4 2312   1.202   1.600  12.341 -0.2262 -0.3130 -1.6587
  152MPD2     C 2313   0.311   1.614  13.024 -0.3306 -0.0995  0.6611
  152MPD2    C1 2314   0.349   1.574  12.902  0.6631  0.6815  0.6864
  152MPD2    C2 2315   0.251   1.536  12.811  0.0770 -0.0675 -0.0783
  152MPD2    C3 2316   0.117   1.541  12.842 -0.1266  0.1586 -0.5816
  152MPD2    C4 2317   0.072   1.589  12.965  0.3378 -0.2781  0.2343
  152MPD2    C5 2318   0.176   1.621  13.053 -0.7055 -0.2202 -0.5517
  152MPD2     H 2319   0.269   1.512  12.707 -2.3845 -0.6505 -0.3726
  152MPD2    H1 2320   4.690   1.590  13.001 -0.7797 -1.6392 -2.8959
  152MPD2    H2 2321   0.386   1.620  13.103  1.8601  0.2329 -1.4602
  152MPD2    H3 2322   0.149   1.648  13.154 -2.9519 -1.3898 -0.8386
  152MPD2     N 2323   0.022   1.482  12.755 -0.2749 -0.5428 -0.4310
  152MPD2    H5 2324   0.069   1.423  12.687  1.1754  1.4771 -1.1859
  152MPD2    N1 2325   0.490   1.564  12.873  0.4404 -0.2648 -0.0965
  152MPD2    H7 2326   0.563   1.574  12.942 -0.6543 -0.2451  1.0644
  153TCq2    C1 2327   0.539   1.520  12.753  0.0389  0.5674 -0.2941
  153TCq2    O2 2328   0.484   1.462  12.656 -0.0569  0.2638 -0.0537
  153TCq2    C2 2329   0.683   1.512  12.749 -0.8203 -0.2447  0.3432
  153TCq2    C3 2330   0.735   1.395  12.711  0.2821 -0.4022  0.4653
  153TCq2    C4 2331   0.872   1.397  12.701 -0.7405  0.1400  0.7979
  153TCq2    C5 2332   0.944   1.509  12.726 -0.4115 -0.6591 -0.4029
  153TCq2    C6 2333   0.885   1.629  12.775 -0.2420  0.2263 -0.4987
  153TCq2    C7 2334   0.746   1.630  12.787 -0.1579 -0.1724 -0.7151
  153TCq2    C8 2335   0.937   1.748  12.725  0.5273  0.0604 -0.6222
  153TCq2    O4 2336   0.850   1.821  12.679  0.1667  0.1650 -0.3407
  153TCq2    C9 2337   0.945   1.285  12.661 -0.1478  0.6861 -0.3002
  153TCq2    O5 2338   1.061   1.304  12.613 -0.3861 -0.2640  0.2758
  153TCq2    O6 2339   0.889   1.175  12.686  0.6517  0.4828 -0.0682
  153TCq2    H2 2340   0.674   1.310  12.684  0.3020  0.7556 -3.2414
  153TCq2    H3 2341   1.051   1.497  12.724 -0.3123 -0.0917  1.6430
  153TCq2    H4 2342   0.682   1.713  12.816  1.2394  1.3224 -1.9115
  154MPD2     C 2343   1.932   1.344   0.466 -0.4300 -0.6745  0.4905
  154MPD2    C1 2344   1.954   1.215   0.419  0.2955 -0.1876 -0.0760
  154MPD2    C2 2345   1.875   1.119   0.475  1.0202  0.4270 -0.8008
  154MPD2    C3 2346   1.763   1.152   0.552 -0.9765  0.1211  0.1792
  154MPD2    C4 2347   1.745   1.282   0.593 -0.1412 -0.0577  0.6914
  154MPD2    C5 2348   1.838   1.381   0.558  0.0664  0.4066 -0.0352
  154MPD2     H 2349   1.886   1.019   0.435  0.6652 -0.3560  1.0409
  154MPD2    H1 2350   1.667   1.309   0.664  1.2344 -0.6246  2.4289
  154MPD2    H2 2351   2.005   1.420   0.438  0.0542 -1.4988 -0.4414
  154MPD2    H3 2352   1.836   1.475   0.613 -2.3526  1.6310 -2.2228
  154MPD2     N 2353   1.670   1.049   0.568  0.1785 -0.8546 -0.3253
  154MPD2    H5 2354   1.698   0.953   0.551  1.3423 -0.6762  0.6220
  154MPD2    N1 2355   2.046   1.200   0.314  0.7189  0.0497  0.4270
  154MPD2    H7 2356   2.105   1.280   0.295 -0.0164  0.7473  1.1167
  155TCq2    C1 2357   2.061   1.086   0.242  0.2850  0.2392  0.0217
  155TCq2    O2 2358   1.992   0.988   0.243 -0.4190 -0.5804 -0.3946
  155TCq2    C2 2359   2.167   1.085   0.148  0.4915  0.1896  0.7382
  155TCq2    C3 2360   2.239   1.197   0.117  0.2528  0.9134  0.3888
  155TCq2    C4 2361   2.352   1.184   0.042  0.7386 -0.5859  0.3956
  155TCq2    C5 2362   2.411   1.067   0.012  0.5478  0.0806 -1.1680
  155TCq2    C6 2363   2.339   0.955   0.052  0.2062  0.2023  0.2049
  155TCq2    C7 2364   2.209   0.966   0.111  0.2509  0.8649 -0.2849
  155TCq2    C8 2365   2.405   0.829   0.033  0.0852 -0.3799 -0.1673
  155TCq2    O4 2366   2.499   0.825  17.640  0.1777  0.1956  0.1381
  155TCq2    C9 2367   2.427   1.301   0.013 -0.2887 -0.5636 -0.3964
  155TCq2    O5 2368   2.399   1.411   0.065 -0.4565  0.5148  0.2295
  155TCq2    O6 2369   2.522   1.285  17.617 -0.4298 -0.1085 -0.2783
  155TCq2    H2 2370   2.209   1.296   0.147 -0.7483  0.1130  2.0609
  155TCq2    H3 2371   2.504   1.056  17.642  1.5979  0.1266  0.6331
  155TCq2    H4 2372   2.148   0.881   0.138 -0.0823  1.4285  0.7191
  156MPD2     C 2373   4.595   3.223  11.515  0.0453  0.3818  0.3726
  156MPD2    C1 2374   4.716   3.216  11.450  0.1711  0.0039 -0.4444
  156MPD2    C2 2375   0.112   3.234  11.525  0.5840  0.0124  0.1012
  156MPD2    C3 2376   0.114   3.222  11.660 -0.3790  0.0679  0.5919
  156MPD2    C4 2377   4.714   3.223  11.725 -0.4947  0.8354 -0.5199
  156MPD2    C5 2378   4.595   3.230  11.655  0.0404 -0.1549 -0.2883
  156MPD2     H 2379   0.205   3.244  11.470  1.7528 -1.3517  1.8382
  156MPD2    H1 2380   4.719   3.212  11.832  0.8506  3.6255 -0.2989
  156MPD2    H2 2381   4.506   3.222  11.453  1.5224  0.1258 -1.7448
  156MPD2    H3 2382   4.504   3.211  11.712 -0.2934 -0.9836 -1.0856
  156MPD2     N 2383   0.234   3.240  11.733 -0.3341 -0.4419 -0.0737
  156MPD2    H5 2384   0.315   3.251  11.673  1.4061  0.0580  2.3305
  156MPD2    N1 2385   4.708   3.215  11.305  0.9026  0.9714  0.3112
  156MPD2    H7 2386   4.615   3.229  11.267  0.0504 -1.4774  1.4981
  157TCq2    C1 2387   0.087   3.219  11.213 -0.4070  0.2153  0.3633
  157TCq2    O2 2388   0.208   3.221  11.234  0.0386  0.3081 -0.0013
  157TCq2    C2 2389   0.045   3.237  11.074 -0.1283 -0.5282  0.1859
  157TCq2    C3 2390   4.636   3.219  11.040  0.3989  1.0146 -0.5792
  157TCq2    C4 2391   4.591   3.282  10.926 -0.3660 -0.6072 -0.3508
  157TCq2    C5 2392   4.680   3.349  10.839 -0.4674  0.3249  1.0331
  157TCq2    C6 2393   0.088   3.363  10.882 -0.2497 -0.1268  0.1190
  157TCq2    C7 2394   0.128   3.323  11.007  0.1227  0.1388  0.3901
  157TCq2    C8 2395   0.166   3.482  10.841 -0.2887  0.3127 -0.0288
  157TCq2    O4 2396   0.288   3.492  10.863 -0.0120 -1.0129  0.5350
  157TCq2    C9 2397   4.449   3.255  10.884 -0.3788 -0.6160 -0.1882
  157TCq2    O5 2398   4.382   3.187  10.972  0.0188  0.2025  0.3327
  157TCq2    O6 2399   4.424   3.280  10.765 -0.0412  0.1838 -0.5821
  157TCq2    H2 2400   4.567   3.166  11.104 -0.4332  1.1824 -1.3405
  157TCq2    H3 2401   4.646   3.379  10.741  1.3044 -1.5406 -0.1512
  157TCq2    H4 2402   0.232   3.338  11.035 -0.3993 -1.6768  3.3091
  158TMC2    C1 2403   1.210   2.348  13.883 -0.0374  0.1764 -0.5353
  158TMC2    C2 2404   1.287   2.444  13.835  0.7909  0.3959 -0.5838
  158TMC2    C3 2405   1.219   2.537  13.753  0.5979 -0.0820 -0.3736
  158TMC2    C4 2406   1.079   2.341  13.862 -0.1094  0.3776  0.1834
  158TMC2    C5 2407   1.016   2.438  13.792  0.0261 -0.0109 -0.2931
  158TMC2    C6 2408   1.081   2.543  13.737  0.1394  1.1045  0.0242
  158TMC2     C 2409   1.290   2.237  13.936 -0.4757  0.9991  0.2156
  158TMC2     O 2410   1.410   2.249  13.940 -0.6170  0.3414  0.0218
  158TMC2     H 2411   1.393   2.456  13.853  0.5581  0.6699  0.5652
  158TMC2    H1 2412   1.023   2.269  13.920 -2.2115  1.4671 -0.4966
  158TMC2    H2 2413   1.028   2.618  13.679  0.9797  1.7812  0.1258
  158TMC2    C7 2414   0.869   2.440  13.769 -0.1628  0.0929 -0.5690
  158TMC2    C8 2415   1.304   2.606  13.658  0.0441  0.2496  0.2098
  158TMC2    O1 2416   0.826   2.552  13.749 -0.4016  1.0691 -0.0116
  158TMC2    O2 2417   1.378   2.695  13.698 -0.5003 -0.3003 -0.6492
  158TMC2    O5 2418   1.236   2.586  13.541  0.0618 -0.2901 -0.4860
  158TMC2    H5 2419   1.183   2.504  13.537 -0.9023  0.1827  2.7316
  159MPD2     C 2420   1.362   1.733  14.030 -0.2328  0.1166 -0.4807
  159MPD2    C1 2421   1.228   1.767  14.024  0.5784 -1.2721  0.3385
  159MPD2    C2 2422   1.179   1.892  13.998 -1.1148  0.1254  0.5731
  159MPD2    C3 2423   1.269   1.991  13.976 -0.5393  1.1623  0.0911
  159MPD2    C4 2424   1.404   1.962  13.971  0.3153 -0.0457 -0.2608
  159MPD2    C5 2425   1.451   1.838  14.007 -0.3378 -0.1759  0.0080
  159MPD2     H 2426   1.076   1.927  14.008 -0.7890  0.6722  2.0208
  159MPD2    H1 2427   1.484   2.033  13.955  1.6859 -1.3736  0.7679
  159MPD2    H2 2428   1.407   1.636  14.044  2.1662  1.1629 -0.8741
  159MPD2    H3 2429   1.557   1.819  14.021 -0.6852 -0.3435  2.4378
  159MPD2     N 2430   1.214   2.126  13.954 -0.3727  0.1416 -0.7707
  159MPD2    H5 2431   1.113   2.130  13.967 -0.2716  0.4361 -0.0802
  159MPD2    N1 2432   1.146   1.659  14.063  0.0552 -0.3468  0.1471
  159MPD2    H7 2433   1.205   1.580  14.088 -1.1106 -1.2073  0.2052
  160TMC2    C1 2434   4.679   4.587   1.440  0.3656  0.7210  0.1579
  160TMC2    C2 2435   4.719   4.459   1.447  0.6841  0.0991  0.7081
  160TMC2    C3 2436   0.096   4.410   1.358 -0.3926  0.2419  0.2045
  160TMC2    C4 2437   0.011   4.681   1.346 -0.8470  0.1616 -0.1130
  160TMC2    C5 2438   0.105   4.628   1.255 -0.3817 -0.3088 -0.0399
  160TMC2    C6 2439   0.144   4.494   1.258 -0.4675  0.6606  0.5080
  160TMC2     C 2440   4.609   4.642   1.556 -0.2174  0.1912 -0.3223
  160TMC2     O 2441   4.603   4.580   1.661 -0.8990  0.2152 -0.3511
  160TMC2     H 2442   4.680   4.394   1.525  2.4489 -0.7354  0.8961
  160TMC2    H1 2443   0.001   0.068   1.353 -1.7834  0.0321  0.5856
  160TMC2    H2 2444   0.216   4.449   1.191 -0.3017 -0.7595  1.6506
  160TMC2    C7 2445   0.184   0.010   1.186  0.0417  0.9900  0.4263
  160TMC2    C8 2446   0.123   4.271   1.338  0.5829 -0.4132  0.1160
  160TMC2    O1 2447   0.135   0.121   1.170  0.8834 -0.5124 -1.0464
  160TMC2    O2 2448   0.161   4.200   1.428  0.9785 -0.2378  0.0157
  160TMC2    O5 2449   0.033   4.242   1.250  0.3504 -0.2412  0.6830
  160TMC2    H5 2450   4.696   4.317   1.224  0.2118 -0.4717  0.3147
  161MPD2     C 2451   4.417   0.060   1.727  0.4937 -0.3306 -0.0789
  161MPD2    C1 2452   4.447   0.101   1.593  0.0393  0.2056 -0.1270
  161MPD2    C2 2453   4.390   0.211   1.547 -0.5749  0.6351 -0.2163
  161MPD2    C3 2454   4.303   0.284   1.625  0.4050  0.1516  0.7851
  161MPD2    C4 2455   4.272   0.243   1.751  0.0620  1.0040  0.4112
  161MPD2    C5 2456   4.333   0.135   1.802 -0.0421 -0.7195  0.1293
  161MPD2     H 2457   4.412   0.243   1.445 -1.6206  0.4303 -0.4969
  161MPD2    H1 2458   4.205   0.292   1.821 -0.3309 -0.4247  1.0383
  161MPD2    H2 2459   4.456   4.691   1.775  0.5558 -0.1216  0.2559
  161MPD2    H3 2460   4.318   0.109   1.906  1.0295 -0.8313  0.2540
  161MPD2     N 2461   4.249   0.404   1.583 -0.2252 -0.0230  0.5117
  161MPD2    H5 2462   4.168   0.445   1.628  0.1605 -0.1222  1.2824
  161MPD2    N1 2463   4.534   0.020   1.513  0.1290 -0.2578 -0.1354
  161MPD2    H7 2464   4.532   0.050   1.416  1.4934  1.8501  0.4701
  162TMC2    C1 2465   2.416   2.534   0.415 -0.3777 -0.0034  0.6761
  162TMC2    C2 2466   2.438   2.666   0.400  0.6108 -0.0820  0.7275
  162TMC2    C3 2467   2.335   2.747   0.437  0.1640 -0.3259 -0.0915
  162TMC2    C4 2468   2.311   2.485   0.476 -0.7960 -0.2149 -0.1809
  162TMC2    C5 2469   2.210   2.570   0.521 -0.8275 -0.5540  0.6740
  162TMC2    C6 2470   2.219   2.705   0.500 -0.0205 -0.9980 -0.0066
  162TMC2     C 2471   2.489   2.446   0.326 -0.6431 -0.3725  0.2027
  162TMC2     O 2472   2.581   2.497   0.265 -0.1046 -0.7981  0.0368
  162TMC2     H 2473   2.524   2.705   0.346 -0.9472  2.7064  0.2662
  162TMC2    H1 2474   2.296   2.377   0.482 -1.0673 -0.1807 -0.2445
  162TMC2    H2 2475   2.133   2.767   0.521 -2.2729 -3.9191 -0.7348
  162TMC2    C7 2476   2.104   2.495   0.582  0.1140 -0.0068 -0.0265
  162TMC2    C8 2477   2.323   2.882   0.386  0.4589  0.5068  0.0226
  162TMC2    O1 2478   1.986   2.522   0.551 -0.0808 -0.3989 -0.4019
  162TMC2    O2 2479   2.216   2.918   0.340 -0.4067  0.4664  0.5941
  162TMC2    O5 2480   2.439   2.946   0.412 -0.0027  0.1957  0.1662
  162TMC2    H5 2481   2.508   2.897   0.462  2.0864  3.0041  0.0084
  163MPD2     C 2482   2.596   1.964   0.145 -0.0052  0.6545  0.2953
  163MPD2    C1 2483   2.673   2.075   0.172 -0.6464 -0.0086  0.0455
  163MPD2    C2 2484   2.625   2.196   0.223 -0.6007  0.1086 -0.3163
  163MPD2    C3 2485   2.485   2.212   0.231 -0.4558  0.3823 -0.4037
  163MPD2    C4 2486   2.404   2.100   0.212  0.1177  0.1291  0.5074
  163MPD2    C5 2487   2.461   1.984   0.169  0.0480  0.6937 -0.1960
  163MPD2     H 2488   2.686   2.285   0.232 -0.5105  0.1540 -1.3550
  163MPD2    H1 2489   2.296   2.110   0.218  0.2354  0.7884  1.4958
  163MPD2    H2 2490   2.632   1.868   0.110 -1.2224  0.1200  0.5243
  163MPD2    H3 2491   2.387   1.906   0.154  0.3069  0.1070  1.5971
  163MPD2     N 2492   2.426   2.322   0.295 -0.6298  0.5425  0.0296
  163MPD2    H5 2493   2.335   2.309   0.339  0.1277 -0.0663  1.4110
  163MPD2    N1 2494   2.809   2.049   0.165 -0.0134  0.7138  0.1671
  163MPD2    H7 2495   2.829   1.951   0.146 -1.6179  0.9697 -2.8559
  164TCq2    C1 2496   4.405   1.112  11.225 -0.1071 -0.0733  0.3751
  164TCq2    O2 2497   4.313   1.120  11.305 -0.2696 -0.5882  0.5700
  164TCq2    C2 2498   4.472   1.235  11.186 -0.5811  0.5599  0.6820
  164TCq2    C3 2499   4.576   1.232  11.099  0.6851  0.1046 -0.0038
  164TCq2    C4 2500   4.619   1.352  11.047  0.4859  0.3384 -0.4068
  164TCq2    C5 2501   4.559   1.469  11.081  0.1301 -0.3420 -0.9784
  164TCq2    C6 2502   4.452   1.468  11.156  0.4277 -0.3878  0.2054
  164TCq2    C7 2503   4.402   1.352  11.209  0.7092 -0.2501  0.4546
  164TCq2    C8 2504   4.367   1.588  11.160 -0.0465  0.1386  0.2348
  164TCq2    O4 2505   4.248   1.571  11.194 -0.7351 -0.6851 -0.0466
  164TCq2    C9 2506   0.013   1.356  10.964  0.0542  0.1642 -0.2629
  164TCq2    O5 2507   0.040   1.240  10.915  0.1807  0.0251 -0.3182
  164TCq2    O6 2508   0.080   1.460  10.955  0.2807 -0.2996  0.4769
  164TCq2    H2 2509   4.641   1.147  11.088  1.9860  0.9860  0.9208
  164TCq2    H3 2510   4.604   1.555  11.033 -1.3281  0.0059 -1.7161
  164TCq2    H4 2511   4.305   1.361  11.257  0.4613 -0.3957 -0.0159
  165MPD2     C 2512   4.540   2.742   1.941 -0.0684 -0.1537  0.1051
  165MPD2    C1 2513   4.672   2.752   1.933 -0.1062  0.0746 -0.1823
  165MPD2    C2 2514   0.026   2.832   2.022 -0.3875 -0.1046 -0.4983
  165MPD2    C3 2515   4.677   2.909   2.112  0.8034 -0.2526  0.3218
  165MPD2    C4 2516   4.539   2.905   2.113  0.1235  0.1353 -0.2644
  165MPD2    C5 2517   4.473   2.823   2.023 -0.8420  0.9082 -0.0121
  165MPD2     H 2518   0.132   2.847   2.010 -0.1739 -1.7858 -0.6647
  165MPD2    H1 2519   4.480   2.961   2.184  2.2333  0.9899  0.8026
  165MPD2    H2 2520   4.478   2.685   1.873 -0.0682  0.2356 -0.2248
  165MPD2    H3 2521   4.365   2.827   2.037 -0.3516  0.9466  3.7031
  165MPD2     N 2522   0.012   3.008   2.194 -0.0500  0.7076  0.4350
  165MPD2    H5 2523   4.670   3.073   2.242  2.8453  2.0713  2.3395
  165MPD2    N1 2524   0.002   2.691   1.817 -0.6498 -0.0587  0.4638
  165MPD2    H7 2525   4.644   2.658   1.762  0.1503 -1.8857  0.4317
  166TCq2    C1 2526   0.142   3.040   2.215 -0.4041  1.3758  0.1747
  166TCq2    O2 2527   0.242   2.989   2.166 -0.0907 -0.0407 -0.3732
  166TCq2    C2 2528   0.161   3.156   2.302  0.4136 -0.1187  0.0251
  166TCq2    C3 2529   0.057   3.226   2.354  0.3682 -0.2602 -0.1513
  166TCq2    C4 2530   0.087   3.336   2.431 -0.6446 -0.8038  0.1834
  166TCq2    C5 2531   0.214   3.391   2.443  0.3697 -0.2328 -0.5431
  166TCq2    C6 2532   0.311   3.327   2.381 -0.5410 -0.2614 -0.2302
  166TCq2    C7 2533   0.284   3.208   2.312  0.0535 -0.4826 -0.7328
  166TCq2    C8 2534   0.424   3.406   2.338 -0.5147  0.3882 -0.6820
  166TCq2    O4 2535   0.508   3.346   2.273 -0.0138 -0.2278  0.4901
  166TCq2    C9 2536   4.704   3.391   2.510  0.1046  0.4783  0.7216
  166TCq2    O5 2537   0.013   3.489   2.588 -0.5565 -0.0509  0.1107
  166TCq2    O6 2538   4.590   3.346   2.495 -0.4905  0.3308  0.2721
  166TCq2    H2 2539   4.678   3.184   2.359 -0.0154  0.9339  2.3103
  166TCq2    H3 2540   0.224   3.466   2.521 -1.3135 -1.8976  1.2770
  166TCq2    H4 2541   0.374   3.165   2.269 -0.7629 -1.5524 -1.3618
  167TMC2    C1 2542   3.181   1.933  12.650  0.8508  0.2875  0.1071
  167TMC2    C2 2543   3.081   1.962  12.735  0.5017  0.1781  0.2131
  167TMC2    C3 2544   3.057   1.876  12.835  0.4713  0.6023 -0.0712
  167TMC2    C4 2545   3.268   1.825  12.678  0.0623  0.0283 -0.7939
  167TMC2    C5 2546   3.235   1.737  12.775 -0.6899 -0.0565  0.0305
  167TMC2    C6 2547   3.134   1.758  12.856 -0.2832  0.2737 -0.1555
  167TMC2     C 2548   3.214   2.042  12.557 -0.2470 -0.6346 -0.6926
  167TMC2     O 2549   3.124   2.124  12.531 -0.0779  0.2342  0.4758
  167TMC2     H 2550   3.019   2.049  12.713  2.7322  2.1468  1.7274
  167TMC2    H1 2551   3.352   1.802  12.614  0.8385 -1.0215  0.6104
  167TMC2    H2 2552   3.090   1.684  12.922  0.3688 -0.1037 -0.1463
  167TMC2    C7 2553   3.307   1.612  12.799  0.1120  0.4024 -0.0890
  167TMC2    C8 2554   2.938   1.879  12.915  0.0764 -0.2707  0.3854
  167TMC2    O1 2555   3.261   1.540  12.883 -0.4382  0.6017  0.0160
  167TMC2    O2 2556   2.858   1.788  12.913  0.1784 -0.5992  0.1205
  167TMC2    O5 2557   2.908   2.009  12.920 -0.1637  0.2734 -0.6135
  167TMC2    H5 2558   2.987   2.064  12.939  0.3983 -1.1947  1.3274
  168MPD2     C 2559   3.289   2.174  12.302 -0.0759  0.2917  1.2108
  168MPD2    C1 2560   3.337   2.052  12.347 -0.0407  0.4534  0.0320
  168MPD2    C2 2561   3.433   1.987  12.273 -0.2204  0.2673 -0.5859
  168MPD2    C3 2562   3.482   2.046  12.160  0.1169  0.0887 -0.1187
  168MPD2    C4 2563   3.443   2.175  12.118  0.5770  0.2945 -0.6403
  168MPD2    C5 2564   3.341   2.239  12.193 -0.1073  0.5405 -0.3840
  168MPD2     H 2565   3.469   1.891  12.307  0.2655  0.7263  0.1882
  168MPD2    H1 2566   3.499   2.218  12.036  0.4279  1.2312 -0.2511
  168MPD2    H2 2567   3.201   2.228  12.336  0.5718  1.0507  1.7053
  168MPD2    H3 2568   3.306   2.337  12.162  0.9356  1.2006  0.5576
  168MPD2     N 2569   3.588   1.981  12.086 -0.2619 -0.2787  0.4635
  168MPD2    H5 2570   3.653   2.035  12.030 -0.8869  0.5125  0.4925
  168MPD2    N1 2571   3.304   1.987  12.467  0.4191  0.5034  0.1932
  168MPD2    H7 2572   3.350   1.901  12.495  0.5267  0.8531  1.1082
  169MPD1     C 2573   1.618   4.158   8.376  0.1693 -0.1005  0.4440
  169MPD1    C1 2574   1.560   4.197   8.496 -0.1912  0.2273  1.1139
  169MPD1    C2 2575   1.621   4.293   8.571 -0.4356 -0.1814  0.2417
  169MPD1    C3 2576   1.738   4.351   8.529  0.5255 -0.5351 -0.6035
  169MPD1    C4 2577   1.796   4.311   8.408 -0.4291 -0.1808 -0.6055
  169MPD1    C5 2578   1.732   4.211   8.335 -0.2499  0.6043 -0.3572
  169MPD1     H 2579   1.566   4.326   8.659 -0.2846  0.3468  0.1405
  169MPD1    H1 2580   1.887   4.355   8.371 -0.3279  3.3785  3.9111
  169MPD1    H2 2581   1.574   4.084   8.310  0.5918 -0.1785  0.2477
  169MPD1    H3 2582   1.778   4.185   8.240  2.8609  0.3394  1.2115
  169MPD1     N 2583   1.794   4.453   8.607 -0.4069 -0.5429 -0.1779
  169MPD1    H5 2584   1.742   4.479   8.691  0.8169 -0.9822  0.7152
  169MPD1    N1 2585   1.440   4.138   8.533  0.1308 -0.1445 -0.2844
  169MPD1    H6 2586   1.420   4.138   8.633  1.3422  2.2676 -0.0444
  169MPD1    H7 2587   1.430   4.040   8.505 -0.1761 -0.5454  1.2176
  170MPD1     C 2588   0.036   3.771  12.862  0.3520 -0.3638  0.1820
  170MPD1    C1 2589   0.044   3.758  12.999  0.7433  0.1865 -0.1357
  170MPD1    C2 2590   4.696   3.856  13.067  0.9209  0.2392  0.2749
  170MPD1    C3 2591   4.647   3.973  13.015  0.1780  0.2324 -0.3069
  170MPD1    C4 2592   4.644   3.989  12.879 -0.6294 -0.3413  0.1533
  170MPD1    C5 2593   4.704   3.883  12.807  0.2628  0.2517  0.2558
  170MPD1     H 2594   4.695   3.831  13.172 -1.4659  1.7908  0.6358
  170MPD1    H1 2595   4.607   4.073  12.820 -0.9499 -1.0387 -0.6380
  170MPD1    H2 2596   0.093   3.711  12.793 -0.0071  0.0928 -0.5196
  170MPD1    H3 2597   4.714   3.900  12.700  4.4784  0.8046  0.7410
  170MPD1     N 2598   4.604   4.065  13.106  0.1467  0.3568  0.1024
  170MPD1    H5 2599   4.601   4.040  13.205 -0.9074 -0.1563 -0.0565
  170MPD1    N1 2600   0.082   3.636  13.058  0.3283  0.3123  0.5573
  170MPD1    H6 2601   0.096   3.648  13.158 -0.3159  1.0517  0.5517
  170MPD1    H7 2602   0.169   3.600  13.018 -0.4834 -0.9905 -0.0345
  171MPD1     C 2603   2.691   4.307  15.078 -0.1640 -0.2648 -0.1358
  171MPD1    C1 2604   2.823   4.297  15.046  0.1004  0.4554  0.1965
  171MPD1    C2 2605   2.912   4.342  15.147 -0.3207 -0.3838  0.3201
  171MPD1    C3 2606   2.873   4.371  15.274  0.9801  0.8725 -0.1170
  171MPD1    C4 2607   2.741   4.352  15.302 -0.2502 -0.6388  0.0368
  171MPD1    C5 2608   2.655   4.337  15.205  0.6190 -0.2908  0.5635
  171MPD1     H 2609   3.019   4.335  15.125 -0.8793 -2.7820 -1.6314
  171MPD1    H1 2610   2.703   4.378  15.400 -0.4274 -2.2556  0.3975
  171MPD1    H2 2611   2.613   4.273  15.010  0.9938  1.4601 -2.3182
  171MPD1    H3 2612   2.551   4.340  15.237  0.1610  1.2858 -1.0996
  171MPD1     N 2613   2.968   4.408  15.373  0.0830 -0.4379 -0.2756
  171MPD1    H5 2614   2.932   4.452  15.457 -1.5659 -1.7420 -0.2821
  171MPD1    N1 2615   2.852   4.264  14.909 -0.3413  0.4182 -0.1459
  171MPD1    H6 2616   2.803   4.178  14.885  0.8243 -0.5975  1.0770
  171MPD1    H7 2617   2.949   4.232  14.909 -0.6456 -0.5130  0.3146
  172MPD1     C 2618   1.515   3.253   0.675 -1.1154  0.1272  0.1866
  172MPD1    C1 2619   1.525   3.372   0.742 -0.9075  0.1796  0.2501
  172MPD1    C2 2620   1.603   3.472   0.694 -0.1761 -0.1524  1.2830
  172MPD1    C3 2621   1.690   3.458   0.588 -0.0944 -0.1151 -0.1668
  172MPD1    C4 2622   1.677   3.334   0.528 -0.6637  0.1209  0.0044
  172MPD1    C5 2623   1.582   3.245   0.565  0.4270  0.1330  0.0034
  172MPD1     H 2624   1.605   3.570   0.740  2.1713  0.8862 -1.0753
  172MPD1    H1 2625   1.743   3.317   0.443  0.1266  1.0635  0.4280
  172MPD1    H2 2626   1.447   3.174   0.704 -0.2338 -1.3939 -1.9410
  172MPD1    H3 2627   1.575   3.155   0.505 -1.4441 -0.1090  0.5549
  172MPD1     N 2628   1.785   3.546   0.542 -0.1217 -0.1983 -0.1166
  172MPD1    H5 2629   1.852   3.510   0.475  1.0235  0.0300  0.9095
  172MPD1    N1 2630   1.439   3.391   0.845  0.7664  0.5032 -0.6612
  172MPD1    H6 2631   1.427   3.304   0.896  1.1003  1.5182  1.1631
  172MPD1    H7 2632   1.473   3.451   0.920 -0.9749 -0.4467  0.9020
  173MPD1     C 2633   3.204   3.995  13.639 -0.1020 -0.1003 -0.9057
  173MPD1    C1 2634   3.284   4.108  13.658 -0.1908 -0.2693  0.1500
  173MPD1    C2 2635   3.309   4.162  13.783 -0.0321  0.4397 -0.4386
  173MPD1    C3 2636   3.266   4.097  13.892 -0.0400  0.0026 -0.4822
  173MPD1    C4 2637   3.183   3.981  13.878  0.1535  0.5161 -0.7205
  173MPD1    C5 2638   3.155   3.937  13.752 -0.4057 -0.6717  0.4146
  173MPD1     H 2639   3.369   4.250  13.805 -1.2404  1.4489 -1.2015
  173MPD1    H1 2640   3.134   3.931  13.961  0.4268 -0.3746 -1.1000
  173MPD1    H2 2641   3.196   3.947  13.543 -0.8816  0.0756 -0.9285
  173MPD1    H3 2642   3.087   3.853  13.748 -0.0243 -0.9803  0.4275
  173MPD1     N 2643   3.316   4.138  14.024 -0.6872 -0.3051  0.3085
  173MPD1    H5 2644   3.380   4.217  14.027 -0.4971 -0.5401  2.1218
  173MPD1    N1 2645   3.364   4.151  13.548 -0.0928 -0.1434  0.3867
  173MPD1    H6 2646   3.382   4.251  13.539  0.4231 -0.2013  0.7750
  173MPD1    H7 2647   3.318   4.122  13.462  2.0754  0.8997 -1.1166
  174MPD1     C 2648   3.843   0.077  14.077  0.4923  0.0245  0.0954
  174MPD1    C1 2649   3.785   0.085  14.202  0.5168  0.0712 -0.0000
  174MPD1    C2 2650   3.713   4.700  14.245 -0.6256  0.3812  0.1760
  174MPD1    C3 2651   3.681   4.592  14.164  0.3508 -0.5415  0.2538
  174MPD1    C4 2652   3.725   4.602  14.034  0.6547 -0.3844  0.4978
  174MPD1    C5 2653   3.809   4.697  13.994 -0.2287 -0.1090 -0.5122
  174MPD1     H 2654   3.672   4.687  14.345  0.5064 -1.3022  0.4076
  174MPD1    H1 2655   3.715   4.517  13.968 -0.9695  0.2170 -0.0417
  174MPD1    H2 2656   3.905   0.151  14.027  1.3297 -1.4295 -1.0322
  174MPD1    H3 2657   3.851   4.694  13.894 -2.0702 -0.8114 -1.2546
  174MPD1     N 2658   3.612   4.476  14.206 -0.3870 -0.1439  0.3142
  174MPD1    H5 2659   3.600   4.404  14.135  0.7945 -1.3132  1.2867
  174MPD1    N1 2660   3.825   0.191  14.294 -0.0993 -0.0925 -1.0045
  174MPD1    H6 2661   3.766   0.206  14.376  1.4050  0.1057  0.0498
  174MPD1    H7 2662   3.871   0.273  14.254  0.4665  0.5815  0.9897
  175MPD1     C 2663   2.869   4.422  16.059  0.2736 -0.1394  0.6760
  175MPD1    C1 2664   2.761   4.501  16.020 -0.4225 -0.1020 -0.5216
  175MPD1    C2 2665   2.675   4.539  16.126 -0.7949 -0.4227  0.7838
  175MPD1    C3 2666   2.694   4.500  16.261 -0.5316 -0.4461  0.6933
  175MPD1    C4 2667   2.800   4.420  16.291  0.1423 -0.0162  0.4392
  175MPD1    C5 2668   2.876   4.371  16.184  0.0385 -0.2802 -0.0427
  175MPD1     H 2669   2.597   4.610  16.104 -1.6587 -0.9225  2.2006
  175MPD1    H1 2670   2.813   4.387  16.393  0.0879  2.8748  1.3749
  175MPD1    H2 2671   2.951   4.394  15.994  0.0051 -1.4711  0.9117
  175MPD1    H3 2672   2.957   4.305  16.213  1.3663  0.8240 -1.2821
  175MPD1     N 2673   2.618   4.541  16.374  0.5005 -0.0528 -0.2964
  175MPD1    H5 2674   2.650   4.521  16.468  3.0954  0.6960 -1.0325
  175MPD1    N1 2675   2.785   4.586  15.906 -0.5149 -0.0231  0.0701
  175MPD1    H6 2676   2.697   4.613  15.864 -0.1157 -0.0996 -0.8176
  175MPD1    H7 2677   2.838   4.538  15.833  2.4793  1.0909  1.5091
  176MPD1     C 2678   3.635   1.586  16.125 -0.0985 -0.0277 -0.1200
  176MPD1    C1 2679   3.533   1.662  16.084  0.7271  0.0063 -0.5763
  176MPD1    C2 2680   3.471   1.727  16.181 -0.3562 -0.0025 -0.2385
  176MPD1    C3 2681   3.498   1.712  16.314 -0.5048 -0.2991 -0.0433
  176MPD1    C4 2682   3.600   1.630  16.351 -0.5628  0.1853 -0.0491
  176MPD1    C5 2683   3.680   1.576  16.256 -0.2506 -0.5090 -0.8465
  176MPD1     H 2684   3.402   1.807  16.157  0.6745  0.6601 -0.9751
  176MPD1    H1 2685   3.631   1.622  16.455 -2.4249  0.8063  0.5350
  176MPD1    H2 2686   3.691   1.535  16.047 -0.2929  0.4509 -0.5733
  176MPD1    H3 2687   3.773   1.524  16.277 -0.6264 -0.1026  1.8031
  176MPD1     N 2688   3.411   1.781  16.408  0.1396  0.0577 -0.5228
  176MPD1    H5 2689   3.344   1.854  16.386  0.2513  0.7013  1.2112
  176MPD1    N1 2690   3.527   1.712  15.951  0.1887 -0.6326  0.3024
  176MPD1    H6 2691   3.566   1.643  15.888 -0.6678 -2.7650  2.0962
  176MPD1    H7 2692   3.431   1.734  15.925  0.6792 -0.4948 -1.3618
  177MPD1     C 2693   2.145   2.480   8.441 -0.1757  0.1577  0.2995
  177MPD1    C1 2694   2.150   2.431   8.567 -0.6109  0.2783 -0.3368
  177MPD1    C2 2695   2.065   2.497   8.660  0.3863 -0.7903 -1.3553
  177MPD1    C3 2696   1.982   2.602   8.630 -0.4013  0.1380 -0.2415
  177MPD1    C4 2697   1.982   2.635   8.495 -0.1920 -0.1907  0.6036
  177MPD1    C5 2698   2.059   2.575   8.400  0.0018  0.1119 -0.6695
  177MPD1     H 2699   2.057   2.446   8.755 -0.7633  1.1748 -0.3999
  177MPD1    H1 2700   1.920   2.717   8.461  2.1120  1.1182 -0.3850
  177MPD1    H2 2701   2.205   2.440   8.360 -2.3656 -1.6104 -0.4643
  177MPD1    H3 2702   2.069   2.612   8.299  0.9981 -1.0345 -0.9939
  177MPD1     N 2703   1.899   2.663   8.722  0.1711  0.0393 -0.8184
  177MPD1    H5 2704   1.900   2.628   8.817  0.5721  0.3902 -0.6929
  177MPD1    N1 2705   2.223   2.313   8.606  0.3287 -0.1147 -0.1225
  177MPD1    H6 2706   2.300   2.300   8.541 -0.0620  0.5415 -0.7192
  177MPD1    H7 2707   2.255   2.299   8.701 -4.1395 -1.7825  1.1005
  178MPD1     C 2708   4.387   2.633   0.343 -0.0342  0.0436  0.3685
  178MPD1    C1 2709   4.512   2.684   0.296 -1.0880 -0.0679  0.2470
  178MPD1    C2 2710   4.515   2.744   0.168  0.1206 -0.3984 -0.1649
  178MPD1    C3 2711   4.397   2.777   0.110 -0.0791 -0.1299  0.3216
  178MPD1    C4 2712   4.281   2.721   0.156  0.8423  0.1501  0.5848
  178MPD1    C5 2713   4.280   2.650   0.271 -0.5878 -0.4734  0.4974
  178MPD1     H 2714   4.611   2.777   0.131  1.0894 -0.2553  2.4681
  178MPD1    H1 2715   4.188   2.728   0.101  1.0041  0.4475  0.3482
  178MPD1    H2 2716   4.381   2.575   0.434  1.6061 -1.5927 -0.5745
  178MPD1    H3 2717   4.184   2.609   0.300 -1.0982  2.7431  3.3454
  178MPD1     N 2718   4.378   2.858  17.675  0.1942  0.4399  0.2801
  178MPD1    H5 2719   4.288   2.866  17.630  0.3497 -0.4167 -0.1718
  178MPD1    N1 2720   4.631   2.639   0.359 -0.0407 -0.0845 -0.3524
  178MPD1    H6 2721   4.614   2.626   0.458  0.8347 -1.3137 -0.3633
  178MPD1    H7 2722   4.720   2.679   0.330  0.0621 -0.5285 -0.6507
  179MPD1     C 2723   4.178   1.549  16.486  0.1177  0.1113  0.4949
  179MPD1    C1 2724   4.096   1.461  16.552  0.1400  0.7250  0.0791
  179MPD1    C2 2725   4.014   1.382  16.472 -0.6194  0.0218 -0.2449
  179MPD1    C3 2726   4.021   1.387  16.334 -0.3453  0.1363  0.1137
  179MPD1    C4 2727   4.092   1.485  16.275 -0.5871  0.2252 -0.1496
  179MPD1    C5 2728   4.169   1.565  16.353 -0.2081  0.3104  0.6335
  179MPD1     H 2729   3.935   1.327  16.522  0.8265 -1.0776  0.8124
  179MPD1    H1 2730   4.086   1.502  16.168 -0.9508  1.5599  0.0770
  179MPD1    H2 2731   4.245   1.620  16.536 -0.0882 -0.1965  1.2059
  179MPD1    H3 2732   4.215   1.651  16.305 -1.4246  0.7577  0.2552
  179MPD1     N 2733   3.940   1.310  16.248 -0.2376  0.1354  0.4680
  179MPD1    H5 2734   3.925   1.336  16.151  2.4592 -0.2035 -0.0265
  179MPD1    N1 2735   4.081   1.463  16.693 -0.7516 -0.2750 -0.2881
  179MPD1    H6 2736   4.165   1.480  16.747  0.5471  0.1684 -2.4743
  179MPD1    H7 2737   4.041   1.376  16.729 -1.8599  0.3437 -0.0055
  180MPD1     C 2738   4.464   3.079  15.310  0.5348  0.4203  0.4124
  180MPD1    C1 2739   4.499   3.138  15.195 -0.8923  0.5252  0.1979
  180MPD1    C2 2740   4.424   3.117  15.080  0.0935  0.1225  0.2110
  180MPD1    C3 2741   4.313   3.036  15.071 -0.2668 -0.7584 -0.5213
  180MPD1    C4 2742   4.279   2.974  15.187  0.1604 -0.7734 -0.0378
  180MPD1    C5 2743   4.348   2.998  15.303 -0.2517 -0.1360  0.1420
  180MPD1     H 2744   4.457   3.168  14.991 -1.4295  0.5224 -0.1313
  180MPD1    H1 2745   4.194   2.907  15.190 -2.1106  2.0796 -0.6384
  180MPD1    H2 2746   4.517   3.101  15.402 -2.5591  0.8947  2.0878
  180MPD1    H3 2747   4.314   2.958  15.398 -3.0378  0.2149 -0.7068
  180MPD1     N 2748   4.249   3.023  14.955  0.3338  0.7018 -0.1149
  180MPD1    H5 2749   4.275   3.089  14.883  0.3408  0.8800  0.0497
  180MPD1    N1 2750   4.621   3.207  15.189 -0.7490  0.2716  0.1137
  180MPD1    H6 2751   4.641   3.245  15.282  1.1185  0.0274 -0.1988
  180MPD1    H7 2752   4.620   3.286  15.125  0.8305 -0.6668 -1.0690
  181MPD1     C 2753   0.772   4.525   9.582 -0.1047  0.0450  0.0941
  181MPD1    C1 2754   0.795   4.424   9.673 -0.4536  0.6076 -0.2197
  181MPD1    C2 2755   0.927   4.416   9.715 -0.7321 -0.2579 -0.0545
  181MPD1    C3 2756   1.026   4.499   9.671  0.5730  0.9809 -0.3966
  181MPD1    C4 2757   0.997   4.599   9.579 -0.4531  0.5705  0.6675
  181MPD1    C5 2758   0.865   4.613   9.543  0.3074  0.0100  0.0390
  181MPD1     H 2759   0.960   4.333   9.777  0.0637  0.9543  1.1627
  181MPD1    H1 2760   1.067   4.678   9.552  3.1139 -1.5918  3.5445
  181MPD1    H2 2761   0.673   4.529   9.537 -0.3493  2.1565  0.8480
  181MPD1    H3 2762   0.831   4.697   9.483  0.0666 -0.7954 -0.9455
  181MPD1     N 2763   1.159   4.495   9.711  0.1312 -0.3090 -0.3314
  181MPD1    H5 2764   1.223   4.565   9.676 -1.7542  1.1632 -0.7901
  181MPD1    N1 2765   0.702   4.320   9.701  0.0631  0.4149  1.0478
  181MPD1    H6 2766   0.605   4.348   9.688  0.6195  1.4450 -0.8536
  181MPD1    H7 2767   0.719   4.274   9.790  2.9018  0.1624  0.3992
  182MPD1     C 2768   1.925   3.427   1.876  0.4094  0.4555 -0.2385
  182MPD1    C1 2769   1.936   3.383   1.746  0.3290 -0.7590 -0.2091
  182MPD1    C2 2770   1.828   3.310   1.700  0.4361 -0.2274 -0.2316
  182MPD1    C3 2771   1.717   3.294   1.771 -0.1621 -0.2340  0.0514
  182MPD1    C4 2772   1.712   3.348   1.897  0.3524 -0.3239 -0.7853
  182MPD1    C5 2773   1.819   3.411   1.956 -0.5055  0.9897  1.0949
  182MPD1     H 2774   1.829   3.270   1.599 -2.2427 -0.5396 -0.1287
  182MPD1    H1 2775   1.616   3.345   1.948  0.5274 -0.2026 -0.4457
  182MPD1    H2 2776   2.005   3.482   1.925 -1.2569  2.8622 -0.1999
  182MPD1    H3 2777   1.805   3.468   2.047  1.8385  3.1786  0.0930
  182MPD1     N 2778   1.594   3.249   1.716 -0.1956 -0.2404  0.4519
  182MPD1    H5 2779   1.521   3.274   1.781 -0.4415  0.2974 -0.0262
  182MPD1    N1 2780   2.059   3.379   1.679 -0.2379 -0.6815  0.2065
  182MPD1    H6 2781   2.054   3.372   1.578 -2.2545  1.7848  0.1510
  182MPD1    H7 2782   2.123   3.455   1.699 -0.8845  0.0652 -0.5780
  183MPD1     C 2783   3.128   4.018   9.387 -0.0923 -0.2048  0.4406
  183MPD1    C1 2784   3.015   4.091   9.344  0.3871  0.0366 -0.3404
  183MPD1    C2 2785   2.889   4.038   9.385  0.5357 -0.0309  0.2724
  183MPD1    C3 2786   2.869   3.922   9.463  0.3538  0.4340  0.7150
  183MPD1    C4 2787   2.988   3.853   9.499 -0.4316  1.3184 -0.4004
  183MPD1    C5 2788   3.107   3.896   9.454 -0.2729  0.0026 -0.1078
  183MPD1     H 2789   2.801   4.085   9.345  1.1984  1.1877  0.2385
  183MPD1    H1 2790   2.983   3.768   9.566 -0.3234  1.2625 -0.4646
  183MPD1    H2 2791   3.230   4.053   9.384 -0.0377 -0.4580 -0.7869
  183MPD1    H3 2792   3.195   3.836   9.476 -0.4622 -0.0489  0.5041
  183MPD1     N 2793   2.740   3.889   9.520 -0.6148 -0.8325 -0.2665
  183MPD1    H5 2794   2.662   3.952   9.507  0.9465  0.8794 -1.4863
  183MPD1    N1 2795   3.034   4.192   9.247 -0.8211 -0.4428  0.3785
  183MPD1    H6 2796   3.120   4.239   9.271  0.0575 -1.3258 -0.9990
  183MPD1    H7 2797   2.966   4.267   9.238  1.8977  1.6783 -2.2089
  184MPD1     C 2798   1.473   0.664  10.047 -0.2314  0.5062 -0.5289
  184MPD1    C1 2799   1.581   0.677   9.965  0.6088  0.9379  0.2376
  184MPD1    C2 2800   1.611   0.806   9.917 -0.1502  0.5885  0.7402
  184MPD1    C3 2801   1.549   0.923   9.969 -0.3378 -0.7843 -0.7545
  184MPD1    C4 2802   1.443   0.909  10.061 -0.0092 -0.4029  0.4387
  184MPD1    C5 2803   1.404   0.777  10.096  0.4913  0.2300  0.5218
  184MPD1     H 2804   1.688   0.820   9.842 -0.6045 -1.8913 -0.1993
  184MPD1    H1 2805   1.389   0.997  10.097  0.7186  0.8151 -1.4386
  184MPD1    H2 2806   1.432   0.570  10.084  0.7945  1.1946  2.4132
  184MPD1    H3 2807   1.316   0.759  10.157  0.1893  2.5335  0.7832
  184MPD1     N 2808   1.586   1.053   9.947  0.7477 -0.3759 -0.5150
  184MPD1    H5 2809   1.544   1.124  10.007 -2.8236 -1.8456 -1.2756
  184MPD1    N1 2810   1.620   0.560   9.897 -0.3934  0.5303 -0.2040
  184MPD1    H6 2811   1.716   0.569   9.862  0.2617 -2.1498  0.9859
  184MPD1    H7 2812   1.624   0.480   9.959  0.8587  0.0586 -0.8877
  185MPD1     C 2813   1.757   1.976   9.429  0.6622 -0.5314  0.2551
  185MPD1    C1 2814   1.777   1.852   9.367  0.0556  0.1285 -0.2223
  185MPD1    C2 2815   1.803   1.742   9.445 -0.3652 -0.2981  0.4362
  185MPD1    C3 2816   1.814   1.753   9.582  0.1223  0.5356  0.0492
  185MPD1    C4 2817   1.801   1.874   9.642 -0.4305  0.1152 -0.3233
  185MPD1    C5 2818   1.780   1.984   9.564  0.8285 -0.2349 -0.6339
  185MPD1     H 2819   1.805   1.640   9.407  0.6980 -0.2287  0.3262
  185MPD1    H1 2820   1.818   1.891   9.748 -0.2571  0.5690 -0.4217
  185MPD1    H2 2821   1.742   2.068   9.373  0.6517 -1.0667 -0.6283
  185MPD1    H3 2822   1.778   2.084   9.607  0.6096 -1.7602  2.8346
  185MPD1     N 2823   1.811   1.642   9.674 -0.4034 -0.6445 -0.4130
  185MPD1    H5 2824   1.806   1.670   9.772  1.8676 -0.2961 -0.3908
  185MPD1    N1 2825   1.741   1.840   9.233  0.4038  0.0838 -0.5382
  185MPD1    H6 2826   1.792   1.764   9.189  1.5142  0.6541 -0.2245
  185MPD1    H7 2827   1.762   1.922   9.175 -1.9718 -0.3532 -2.0256
  186MPD1     C 2828   0.048   1.524  15.770 -0.2654 -0.1281  0.9418
  186MPD1    C1 2829   0.065   1.658  15.805  0.3822  0.5903  0.4479
  186MPD1    C2 2830   0.005   1.694  15.923  0.1788  0.0619 -0.2852
  186MPD1    C3 2831   4.678   1.605  16.022 -0.0731  0.1375 -0.4080
  186MPD1    C4 2832   4.667   1.477  15.979 -0.0395 -0.3736 -0.0150
  186MPD1    C5 2833   4.712   1.437  15.859  0.5210  0.4209  0.1465
  186MPD1     H 2834   0.002   1.799  15.949 -2.6391 -0.3899  1.2478
  186MPD1    H1 2835   4.631   1.402  16.049 -4.2271  0.4177 -1.3774
  186MPD1    H2 2836   0.086   1.490  15.675  0.5490  0.1406  1.1697
  186MPD1    H3 2837   4.692   1.340  15.815  0.4592  1.0507 -1.2431
  186MPD1     N 2838   4.641   1.643  16.150  0.1598  0.0327 -0.3250
  186MPD1    H5 2839   4.580   1.580  16.201 -0.5474  0.2150 -0.9564
  186MPD1    N1 2840   0.100   1.751  15.706  0.3138 -0.1540 -0.1852
  186MPD1    H6 2841   0.141   1.834  15.747  1.9488 -0.9553 -0.1966
  186MPD1    H7 2842   0.165   1.708  15.640  0.6530 -0.8603  0.6125
  187MPD1     C 2843   2.872   2.584   0.149 -0.1171  0.1766  0.0033
  187MPD1    C1 2844   2.869   2.721   0.180  0.0075 -0.0387  0.0396
  187MPD1    C2 2845   2.935   2.816   0.098  0.2346 -0.0017  0.2444
  187MPD1    C3 2846   2.994   2.766  17.667  0.2038  0.1991  0.1115
  187MPD1    C4 2847   3.006   2.633  17.649 -0.2845 -0.6529 -0.3271
  187MPD1    C5 2848   2.940   2.543   0.038  0.0150  0.6159 -0.3942
  187MPD1     H 2849   2.951   2.922   0.113 -0.4895 -0.1978  2.3932
  187MPD1    H1 2850   3.064   2.594  17.566 -2.4111 -0.1443 -2.0381
  187MPD1    H2 2851   2.823   2.504   0.204 -0.2971  0.7116  0.6221
  187MPD1    H3 2852   2.950   2.439   0.011  0.2267  1.3216 -3.0123
  187MPD1     N 2853   3.039   2.851  17.562 -0.0288  0.0689  0.0600
  187MPD1    H5 2854   3.082   2.808  17.482 -0.0762 -0.5709  0.3822
  187MPD1    N1 2855   2.781   2.773   0.274 -0.0521 -0.1571  0.4823
  187MPD1    H6 2856   2.786   2.873   0.294  0.4435 -0.1275  0.2209
  187MPD1    H7 2857   2.765   2.711   0.353  0.1747 -0.6698  0.1224
  188MPD1     C 2858   3.571   3.065  10.058 -0.5007  0.2166  1.1784
  188MPD1    C1 2859   3.491   3.003   9.974  0.5927 -0.3090 -0.5087
  188MPD1    C2 2860   3.470   2.864   9.979 -0.6274  0.0535  0.0556
  188MPD1    C3 2861   3.542   2.786  10.072 -0.1565  0.9064 -0.1705
  188MPD1    C4 2862   3.635   2.850  10.148  0.3045  0.5442 -0.5029
  188MPD1    C5 2863   3.645   2.985  10.143 -0.0570  0.5818  0.5927
  188MPD1     H 2864   3.390   2.819   9.922 -1.6091  2.3874 -0.3904
  188MPD1    H1 2865   3.684   2.791  10.225 -0.8825 -2.2996 -1.9412
  188MPD1    H2 2866   3.595   3.170  10.058  0.3280  0.0290  1.2017
  188MPD1    H3 2867   3.709   3.036  10.214  0.2523  0.2364  0.5610
  188MPD1     N 2868   3.546   2.644  10.076  0.7885  0.7842  0.0980
  188MPD1    H5 2869   3.616   2.591  10.127 -0.9857 -2.6255 -0.9966
  188MPD1    N1 2870   3.417   3.084   9.885  0.0333  0.2012 -0.8195
  188MPD1    H6 2871   3.473   3.165   9.860 -3.3677  2.3858 -1.3824
  188MPD1    H7 2872   3.396   3.023   9.806  1.0413 -0.7983 -0.3074
  189MPD1     C 2873   0.059   3.353   0.535 -0.4361  0.2388  0.1661
  189MPD1    C1 2874   4.646   3.313   0.544 -0.1568 -0.4866  0.1186
  189MPD1    C2 2875   4.558   3.396   0.475  0.3981 -0.7649  0.5923
  189MPD1    C3 2876   4.600   3.491   0.384 -0.1401 -0.1014  0.5019
  189MPD1    C4 2877   0.015   3.529   0.377 -0.6644 -0.1954  0.2587
  189MPD1    C5 2878   0.101   3.462   0.459  0.1833 -0.3735 -0.7406
  189MPD1     H 2879   4.451   3.380   0.480  0.1347  0.9475  0.3393
  189MPD1    H1 2880   0.048   3.610   0.314  2.8282 -1.6216  0.2805
  189MPD1    H2 2881   0.137   3.303   0.592  0.5355  1.7282  0.1634
  189MPD1    H3 2882   0.206   3.488   0.466 -0.2855  1.6678 -1.0950
  189MPD1     N 2883   4.496   3.554   0.304 -0.5680 -0.0052 -0.8159
  189MPD1    H5 2884   4.399   3.533   0.325  0.2870 -1.1674  1.9211
  189MPD1    N1 2885   4.604   3.217   0.633 -0.1782  0.3206  0.4836
  189MPD1    H6 2886   4.511   3.185   0.606 -0.0433 -0.3831  0.8475
  189MPD1    H7 2887   4.672   3.141   0.628 -0.2118  0.1944  2.1374
  190MPD1     C 2888   3.977   2.596  16.445 -0.8951 -0.3967  0.0180
  190MPD1    C1 2889   4.019   2.723  16.404 -0.3694 -0.1232  0.5482
  190MPD1    C2 2890   4.059   2.723  16.267  0.2563 -0.1017  0.3404
  190MPD1    C3 2891   4.098   2.610  16.200  0.1319 -0.2667  0.0477
  190MPD1    C4 2892   4.075   2.489  16.250  0.0131  0.0302  0.2718
  190MPD1    C5 2893   4.011   2.487  16.370  0.0339 -0.5144 -0.0273
  190MPD1     H 2894   4.055   2.805  16.196  2.5093  1.7335  2.3305
  190MPD1    H1 2895   4.112   2.392  16.218  1.4990  0.8864 -0.5978
  190MPD1    H2 2896   3.915   2.573  16.531  0.9014 -0.5695  1.2509
  190MPD1    H3 2897   3.977   2.386  16.391  2.2067 -1.1080  0.5688
  190MPD1     N 2898   4.134   2.618  16.060  0.2714 -0.3952 -0.1139
  190MPD1    H5 2899   4.132   2.711  16.020  1.2145 -0.7162 -0.9122
  190MPD1    N1 2900   3.985   2.839  16.477  0.5199  0.2939  1.2862
  190MPD1    H6 2901   4.009   2.830  16.576  0.5273  0.0294  1.2602
  190MPD1    H7 2902   4.022   2.923  16.433 -0.0108  1.4023  2.9900
  191MPD1     C 2903   3.087   4.406  12.612 -0.1109  0.6319  0.6796
  191MPD1    C1 2904   3.067   4.533  12.573  0.1286  0.0794 -0.0618
  191MPD1    C2 2905   3.169   4.596  12.498  0.5358  0.7288 -0.3478
  191MPD1    C3 2906   3.269   4.522  12.444 -0.5372 -0.6134  0.2420
  191MPD1    C4 2907   3.287   4.388  12.488  0.5451 -0.0779  0.4535
  191MPD1    C5 2908   3.203   4.339  12.581 -0.5942 -0.0527 -0.2069
  191MPD1     H 2909   3.152   4.698  12.465 -0.6628  1.3678  2.2887
  191MPD1    H1 2910   3.375   4.325  12.472  0.7893 -0.1128  1.9897
  191MPD1    H2 2911   3.012   4.359  12.674  1.0137  1.6174  2.7854
  191MPD1    H3 2912   3.223   4.247  12.635 -0.9419  0.2019  0.3552
  191MPD1     N 2913   3.354   4.587  12.356 -0.3801 -0.7238  0.0929
  191MPD1    H5 2914   3.326   4.678  12.319  0.3403  0.2100  1.8760
  191MPD1    N1 2915   2.953   4.607  12.618  0.1514  0.0232  0.2780
  191MPD1    H6 2916   2.873   4.549  12.645 -2.8013  2.8346 -2.4315
  191MPD1    H7 2917   2.921   4.672  12.546  1.5239  0.1618 -0.2055
  192MPD1     C 2918   3.150   0.442  11.760  0.1542  0.5517 -0.3247
  192MPD1    C1 2919   3.259   0.390  11.703 -0.2291 -0.4352 -0.2241
  192MPD1    C2 2920   3.319   0.279  11.768  0.2268 -0.3788  0.3957
  192MPD1    C3 2921   3.287   0.247  11.898  0.4175  0.1057  0.0056
  192MPD1    C4 2922   3.176   0.308  11.951 -0.4148  0.0243 -0.4570
  192MPD1    C5 2923   3.111   0.407  11.883  0.8540 -0.1820 -0.5389
  192MPD1     H 2924   3.401   0.237  11.712 -1.3249 -0.2944 -1.9111
  192MPD1    H1 2925   3.133   0.292  12.049  0.1841 -0.1189 -0.2178
  192MPD1    H2 2926   3.084   0.509  11.706 -0.7118 -0.5070 -0.5556
  192MPD1    H3 2927   3.027   0.455  11.932  2.5392  2.9823 -0.7636
  192MPD1     N 2928   3.366   0.158  11.972  0.2077  0.0846  0.7039
  192MPD1    H5 2929   3.328   0.135  12.063  2.2741  0.5474  1.7013
  192MPD1    N1 2930   3.283   0.427  11.566  0.3386  0.0476  0.2945
  192MPD1    H6 2931   3.372   0.396  11.527  0.3282 -2.0924  1.9727
  192MPD1    H7 2932   3.264   0.525  11.546 -0.4959  0.3708  2.6228
  193MPD1     C 2933   2.789   4.537  16.874  0.1370  0.4083 -0.0818
  193MPD1    C1 2934   2.908   4.520  16.807 -0.3251 -0.2296 -0.1652
  193MPD1    C2 2935   3.019   4.565  16.870  0.6122  0.2991 -0.0789
  193MPD1    C3 2936   3.016   4.600  17.006 -0.8773 -0.3488 -0.2484
  193MPD1    C4 2937   2.902   4.603  17.077 -0.2930  0.1095  1.3016
  193MPD1    C5 2938   2.790   4.575  17.005 -0.6009  0.4166 -0.2118
  193MPD1     H 2939   3.108   4.574  16.808  1.8059 -3.6192  1.0625
  193MPD1    H1 2940   2.908   4.625  17.183 -1.2947 -0.1007  1.4027
  193MPD1    H2 2941   2.694   4.505  16.833 -0.6927  0.5302  1.7583
  193MPD1    H3 2942   2.695   4.593  17.054 -0.1171  0.7075  0.6151
  193MPD1     N 2943   3.125   4.652  17.074  0.3664 -0.2917 -0.0805
  193MPD1    H5 2944   3.105   4.685  17.169 -1.0761 -0.7157 -0.2285
  193MPD1    N1 2945   2.901   4.520  16.668 -0.3357  0.3689  0.5434
  193MPD1    H6 2946   2.818   4.466  16.645 -1.2650  1.9057  0.3252
  193MPD1    H7 2947   2.985   4.475  16.633 -0.8006 -0.0479 -0.0296
  194MPD1     C 2948   1.218   2.227  17.052 -1.0017  0.4793  0.4893
  194MPD1    C1 2949   1.319   2.162  16.983 -0.4154 -0.1667 -0.0550
  194MPD1    C2 2950   1.349   2.035  17.022 -0.1894  0.2706  0.3237
  194MPD1    C3 2951   1.292   1.979  17.134  0.4706 -0.6647  0.4051
  194MPD1    C4 2952   1.206   2.052  17.208 -0.0530 -1.1207  0.1816
  194MPD1    C5 2953   1.165   2.175  17.165 -0.2772  0.2407  0.0011
  194MPD1     H 2954   1.420   1.982  16.959 -1.5530 -1.4056  0.1841
  194MPD1    H1 2955   1.163   2.016  17.301  1.4019  0.4093  1.4496
  194MPD1    H2 2956   1.188   2.322  17.010  0.8517  1.2966  0.9887
  194MPD1    H3 2957   1.101   2.245  17.217 -0.8204 -0.0356 -0.3059
  194MPD1     N 2958   1.311   1.844  17.173 -0.2548  0.0842 -0.2466
  194MPD1    H5 2959   1.258   1.813  17.254 -0.5706  0.5971 -0.2633
  194MPD1    N1 2960   1.362   2.199  16.853  0.4658  0.0544 -0.5074
  194MPD1    H6 2961   1.455   2.166  16.832  1.2503 -0.0094  3.1300
  194MPD1    H7 2962   1.371   2.301  16.855 -0.4945  0.0792  2.4199
  195MPD1     C 2963   2.730   3.172  17.457 -0.3824 -0.1574  0.2086
  195MPD1    C1 2964   2.748   3.093  17.351 -0.6941 -0.2141  0.1185
  195MPD1    C2 2965   2.724   2.955  17.375  0.9685 -0.0730  0.4026
  195MPD1    C3 2966   2.701   2.896  17.497 -0.6249  0.1133  0.3668
  195MPD1    C4 2967   2.671   2.982  17.599  0.4649  0.0785 -0.0764
  195MPD1    C5 2968   2.685   3.117  17.575 -0.2744  0.1825 -0.0785
  195MPD1     H 2969   2.736   2.888  17.291 -1.6802  0.5424 -0.4459
  195MPD1    H1 2970   2.634   2.950   0.013  0.1935 -1.6733 -0.7736
  195MPD1    H2 2971   2.750   3.278  17.445 -0.3221  0.1354  2.7937
  195MPD1    H3 2972   2.649   3.180  17.656 -1.7567 -1.3164  0.4250
  195MPD1     N 2973   2.668   2.758  17.523  0.4084 -0.5683  0.0305
  195MPD1    H5 2974   2.618   2.735  17.608 -0.4014  2.3990  0.3689
  195MPD1    N1 2975   2.768   3.147  17.223 -0.1741  0.1107 -0.1658
  195MPD1    H6 2976   2.839   3.098  17.169  0.9104  0.7868  0.6432
  195MPD1    H7 2977   2.819   3.235  17.234 -1.6862  0.4555  3.9913
  196MPD1     C 2978   2.990   2.483   1.015 -0.0158  0.2580 -0.5834
  196MPD1    C1 2979   2.957   2.549   0.896  0.1882 -0.4320  0.1155
  196MPD1    C2 2980   2.851   2.640   0.892  0.1809  0.4814 -0.2829
  196MPD1    C3 2981   2.776   2.662   1.009  0.6940  0.3026 -0.0310
  196MPD1    C4 2982   2.802   2.596   1.126  0.2102  1.1012  0.0267
  196MPD1    C5 2983   2.919   2.510   1.126  0.4222 -0.1078  0.5924
  196MPD1     H 2984   2.841   2.697   0.801  0.6711 -0.9275 -1.2191
  196MPD1    H1 2985   2.743   2.613   1.216 -0.1668 -2.8056  0.5345
  196MPD1    H2 2986   3.087   2.436   1.027  1.0291  2.5890 -0.0653
  196MPD1    H3 2987   2.948   2.466   1.220 -1.2553  0.8062  1.5371
  196MPD1     N 2988   2.674   2.765   1.011 -0.0389 -0.4960  0.1742
  196MPD1    H5 2989   2.619   2.775   1.096 -0.1055  0.2324  0.0424
  196MPD1    N1 2990   3.035   2.527   0.780 -0.8215 -0.5428 -0.8531
  196MPD1    H6 2991   2.985   2.513   0.692 -0.4323 -1.4242 -0.9357
  196MPD1    H7 2992   3.090   2.443   0.792 -1.1449 -0.7743 -0.9859
  197MPD1     C 2993   1.965   0.192   0.078 -0.3647 -0.3494 -0.2658
  197MPD1    C1 2994   2.009   0.147  17.634 -0.2369  0.3549 -0.5434
  197MPD1    C2 2995   2.025   0.237  17.530  0.3892 -0.7114 -1.3496
  197MPD1    C3 2996   2.011   0.372  17.554 -0.5694  0.0600  0.1483
  197MPD1    C4 2997   1.965   0.417  17.671  0.0240 -0.0429  0.4278
  197MPD1    C5 2998   1.935   0.329   0.094  0.7340  1.1372  0.1988
  197MPD1     H 2999   2.061   0.194  17.437  0.6035 -0.4568 -1.3812
  197MPD1    H1 3000   1.940   0.522  17.678 -0.6570 -0.0879 -1.4843
  197MPD1    H2 3001   1.938   0.123   0.157  1.9166  1.0569  1.7301
  197MPD1    H3 3002   1.895   0.362   0.189 -0.3120  1.6404 -0.4211
  197MPD1     N 3003   2.029   0.467  17.449 -0.7716 -0.3453  0.1734
  197MPD1    H5 3004   2.033   0.564  17.481 -0.1463  0.4027 -2.1842
  197MPD1    N1 3005   2.007   0.008  17.604 -0.8807 -0.5646  0.6752
  197MPD1    H6 3006   2.042   4.674  17.683  1.5596  0.6635  0.4217
  197MPD1    H7 3007   2.057   4.706  17.517  1.8449  1.3240  1.7635
  198MPD1     C 3008   3.527   4.206  15.456  0.2637 -0.5177  0.7355
  198MPD1    C1 3009   3.552   4.281  15.568 -0.4138 -0.2125  0.1328
  198MPD1    C2 3010   3.673   4.337  15.600 -0.4450 -0.8038 -0.2097
  198MPD1    C3 3011   3.780   4.323  15.515 -0.3025 -0.1957  0.0242
  198MPD1    C4 3012   3.760   4.250  15.400  0.2056  0.7249  1.2953
  198MPD1    C5 3013   3.631   4.197  15.371  0.2299  0.2497 -0.4651
  198MPD1     H 3014   3.680   4.396  15.691 -0.4751 -0.3364 -0.5083
  198MPD1    H1 3015   3.838   4.227  15.328 -2.1631 -2.0216 -0.4195
  198MPD1    H2 3016   3.438   4.151  15.428 -0.9972  1.2859  1.2469
  198MPD1    H3 3017   3.615   4.145  15.278 -1.4490  2.0735 -1.1901
  198MPD1     N 3018   3.903   4.379  15.548 -0.5335 -0.2952  0.2459
  198MPD1    H5 3019   3.904   4.440  15.628  0.0058  0.4827 -0.3574
  198MPD1    N1 3020   3.444   4.284  15.662  0.1270 -0.0457 -0.4329
  198MPD1    H6 3021   3.353   4.269  15.618  0.4873  1.5843 -1.7371
  198MPD1    H7 3022   3.443   4.344  15.744  0.5364  0.1499 -0.5690
  199MPD1     C 3023   1.488   3.881   9.655 -0.0834  0.5878 -0.3301
  199MPD1    C1 3024   1.356   3.870   9.627 -0.1624  0.6457 -0.0402
  199MPD1    C2 3025   1.278   3.986   9.597 -0.1985  0.1691 -0.4230
  199MPD1    C3 3026   1.347   4.102   9.556 -0.4335 -0.2741 -0.0750
  199MPD1    C4 3027   1.482   4.108   9.572 -0.4228  0.8110 -0.0145
  199MPD1    C5 3028   1.549   3.997   9.625  0.0831 -1.0954 -0.2088
  199MPD1     H 3029   1.173   3.975   9.575 -0.4761  0.7189  0.5924
  199MPD1    H1 3030   1.540   4.198   9.559  1.1650 -0.7848 -3.8616
  199MPD1    H2 3031   1.554   3.803   9.692 -0.6011  0.5374  0.4924
  199MPD1    H3 3032   1.656   3.999   9.647 -0.4588 -0.1187  2.3660
  199MPD1     N 3033   1.290   4.214   9.490 -0.2776  0.1207 -0.3794
  199MPD1    H5 3034   1.351   4.291   9.464 -0.0695 -0.5062 -1.7806
  199MPD1    N1 3035   1.291   3.750   9.659 -0.3575  0.6864  0.1697
  199MPD1    H6 3036   1.349   3.670   9.634  0.2348  1.7539 -1.9239
  199MPD1    H7 3037   1.206   3.743   9.604 -0.2573 -0.2754  0.1353
  200MPD1     C 3038   1.310   0.066  14.750 -0.4895 -0.1724  0.2227
  200MPD1    C1 3039   1.345   0.177  14.676 -0.1242 -0.1875 -0.0556
  200MPD1    C2 3040   1.251   0.225  14.589 -0.6188  0.2051 -0.3928
  200MPD1    C3 3041   1.132   0.162  14.561  0.2321  0.5017 -0.4334
  200MPD1    C4 3042   1.118   0.032  14.616 -0.8870  0.3990 -0.0293
  200MPD1    C5 3043   1.199   4.708  14.721  0.0520  0.3926 -0.8151
  200MPD1     H 3044   1.275   0.317  14.538 -1.6571  1.3262  1.1481
  200MPD1    H1 3045   1.035   4.688  14.588 -0.7605 -0.6423  1.9845
  200MPD1    H2 3046   1.366   0.040  14.839 -2.2665 -1.9292  0.8191
  200MPD1    H3 3047   1.187   4.613  14.770  2.7720  0.5036  0.0547
  200MPD1     N 3048   1.041   0.223  14.466  0.2843 -0.0269 -0.4047
  200MPD1    H5 3049   1.072   0.313  14.433  1.4768 -1.1043 -2.1777
  200MPD1    N1 3050   1.443   0.269  14.720 -0.1747 -0.4548 -0.2697
  200MPD1    H6 3051   1.525   0.225  14.760  2.5947  3.3350 -1.7490
  200MPD1    H7 3052   1.486   0.321  14.643  0.3060  1.9062  1.6021
  201MPD1     C 3053   2.758   4.266  12.273 -0.3116  0.1534  0.2673
  201MPD1    C1 3054   2.625   4.219  12.279 -0.2619 -0.5073  0.1717
  201MPD1    C2 3055   2.571   4.163  12.393  0.0388 -0.1309 -0.4173
  201MPD1    C3 3056   2.643   4.176  12.508  0.4841 -0.0381  0.0885
  201MPD1    C4 3057   2.767   4.238  12.506  0.3755  0.4947  0.0682
  201MPD1    C5 3058   2.828   4.277  12.387  0.4073 -0.1324 -0.1976
  201MPD1     H 3059   2.475   4.112  12.389  0.9363 -2.0225  2.9300
  201MPD1    H1 3060   2.823   4.252  12.598  0.2533 -1.0969  0.3988
  201MPD1    H2 3061   2.808   4.301  12.183  0.0573 -1.4837 -0.1619
  201MPD1    H3 3062   2.930   4.312  12.375  1.1171 -1.9710  0.4738
  201MPD1     N 3063   2.603   4.112  12.625  0.7738 -0.1636  0.0522
  201MPD1    H5 3064   2.506   4.084  12.623  1.1336 -1.4237  0.4077
  201MPD1    N1 3065   2.554   4.201  12.160  0.3039 -0.0279 -0.2980
  201MPD1    H6 3066   2.456   4.226  12.170  0.4102 -1.5235  4.4475
  201MPD1    H7 3067   2.582   4.267  12.088 -1.1438 -0.6191 -1.3877
  202MPD1     C 3068   2.553   2.561   9.147 -0.5143  0.4078  0.8059
  202MPD1    C1 3069   2.509   2.678   9.197  0.7916  0.5275  0.2835
  202MPD1    C2 3070   2.537   2.704   9.334  0.4582  0.1313 -0.5366
  202MPD1    C3 3071   2.581   2.600   9.414 -0.1215  0.0767  0.3017
  202MPD1    C4 3072   2.610   2.475   9.361  0.5093 -0.4213 -0.2248
  202MPD1    C5 3073   2.594   2.459   9.223 -0.5104 -0.3642 -0.2164
  202MPD1     H 3074   2.514   2.803   9.372 -0.3415 -0.2343 -0.0614
  202MPD1    H1 3075   2.646   2.399   9.429  1.6689 -0.4527 -0.8939
  202MPD1    H2 3076   2.549   2.544   9.040 -0.1936 -0.2690  0.9047
  202MPD1    H3 3077   2.618   2.365   9.174 -0.1411 -0.6771  0.5621
  202MPD1     N 3078   2.586   2.599   9.560  0.6327 -0.0344  0.8767
  202MPD1    H5 3079   2.624   2.511   9.595 -0.4799 -0.7130  0.3873
  202MPD1    N1 3080   2.501   2.782   9.103  0.4827 -0.2062  0.2227
  202MPD1    H6 3081   2.443   2.855   9.144  2.0063  1.5256 -0.6495
  202MPD1    H7 3082   2.460   2.756   9.014 -0.6688  0.4437  0.5646
  203MPD1     C 3083   0.671   0.336  12.959 -0.4086  0.1548  0.0918
  203MPD1    C1 3084   0.642   0.222  13.031  0.2105 -0.2575 -0.2964
  203MPD1    C2 3085   0.720   0.108  13.001 -0.0965  0.3997 -0.5872
  203MPD1    C3 3086   0.827   0.115  12.914  0.0856  0.1781 -0.6720
  203MPD1    C4 3087   0.870   0.237  12.868  0.0742 -0.6621  0.2440
  203MPD1    C5 3088   0.782   0.341  12.878  0.1236 -0.0906  0.2106
  203MPD1     H 3089   0.681   0.018  13.047  1.3955  1.0865  2.0290
  203MPD1    H1 3090   0.957   0.265  12.809 -1.3758  1.5567 -0.8394
  203MPD1    H2 3091   0.617   0.430  12.961  0.1476  0.5187 -2.1904
  203MPD1    H3 3092   0.806   0.432  12.824  0.1623 -0.1864  0.0671
  203MPD1     N 3093   0.895   4.716  12.886 -0.2406 -0.7326  0.0946
  203MPD1    H5 3094   0.852   4.633  12.926  0.8922 -0.4704  1.8153
  203MPD1    N1 3095   0.551   0.223  13.137 -0.4237 -0.0153  0.2116
  203MPD1    H6 3096   0.540   0.129  13.172  0.8015  0.2364  1.2617
  203MPD1    H7 3097   0.459   0.256  13.108 -0.9106 -0.0203  1.7416
  204MPD1     C 3098   4.286   0.182   0.108  0.9689  0.0046 -0.6210
  204MPD1    C1 3099   4.388   0.104   0.159 -0.3948 -0.5369  0.1631
  204MPD1    C2 3100   4.505   0.089   0.079 -0.5127 -0.1056  0.1124
  204MPD1    C3 3101   4.513   0.135  17.636 -0.2113  0.5040 -0.0849
  204MPD1    C4 3102   4.405   0.196  17.581  0.2693  0.8574 -0.1758
  204MPD1    C5 3103   4.293   0.228  17.659 -0.4634  0.6272  0.0188
  204MPD1     H 3104   4.593   0.041   0.120  0.5333 -0.0428 -2.0364
  204MPD1    H1 3105   4.399   0.227  17.477  1.3459  1.0334 -0.1825
  204MPD1    H2 3106   4.202   0.201   0.174  0.9352 -0.8193 -0.4247
  204MPD1    H3 3107   4.204   0.273  17.615 -0.8781 -0.6697 -0.4674
  204MPD1     N 3108   4.634   0.103  17.567 -0.5270 -0.0137  0.0578
  204MPD1    H5 3109   4.688   0.027  17.609  1.2019  2.2398  1.9749
  204MPD1    N1 3110   4.373   0.052   0.295 -0.1431 -0.2611  0.2581
  204MPD1    H6 3111   4.276   0.036   0.320 -0.5052 -0.0799 -1.0202
  204MPD1    H7 3112   4.428   4.687   0.306 -0.2931 -0.3520  0.3000
  205MPD1     C 3113   1.057   3.433  17.106  0.2124  0.1943 -0.2198
  205MPD1    C1 3114   0.982   3.553  17.071  0.5543 -0.3524  0.4263
  205MPD1    C2 3115   0.904   3.622  17.163 -0.5059  0.0315 -0.3126
  205MPD1    C3 3116   0.914   3.578  17.295 -0.2497  0.3589  0.3427
  205MPD1    C4 3117   0.986   3.463  17.331  0.2427  0.7228 -0.0836
  205MPD1    C5 3118   1.059   3.389  17.238  0.0090 -0.9266 -0.2886
  205MPD1     H 3119   0.861   3.715  17.127 -1.3403 -0.9511 -1.8465
  205MPD1    H1 3120   0.982   3.434  17.435  0.2082 -0.2668 -0.3627
  205MPD1    H2 3121   1.114   3.375  17.035 -1.0146  0.9357 -1.8071
  205MPD1    H3 3122   1.116   3.298  17.255  1.7935 -0.0168 -1.4243
  205MPD1     N 3123   0.831   3.638  17.402 -0.2025  0.2587  0.1525
  205MPD1    H5 3124   0.821   3.577  17.482 -1.3554  0.0079 -0.1776
  205MPD1    N1 3125   1.007   3.617  16.946  0.2575 -0.3784 -0.2031
  205MPD1    H6 3126   0.936   3.682  16.911  2.5513  2.0837 -0.2910
  205MPD1    H7 3127   1.048   3.559  16.874 -0.1589  0.0760 -0.8005
  206MPD1     C 3128   1.248   2.409  14.861 -0.2479  0.1699  0.0352
  206MPD1    C1 3129   1.158   2.512  14.857 -1.2065 -0.5145 -0.4620
  206MPD1    C2 3130   1.070   2.527  14.962 -0.0750 -0.4175  0.7042
  206MPD1    C3 3131   1.082   2.449  15.072  0.2745  0.4588  0.6752
  206MPD1    C4 3132   1.156   2.338  15.074 -0.9047  0.1092 -0.2630
  206MPD1    C5 3133   1.244   2.327  14.971 -0.2977  0.0426  0.7785
  206MPD1     H 3134   1.004   2.613  14.959  0.8585  0.2322 -2.2139
  206MPD1    H1 3135   1.169   2.272  15.160 -1.3519  0.9383  0.4363
  206MPD1    H2 3136   1.334   2.400  14.796 -0.0800 -2.2912  0.6034
  206MPD1    H3 3137   1.320   2.251  14.986  0.9374  1.2410  0.5917
  206MPD1     N 3138   1.000   2.457  15.185 -0.0849  0.1898  0.5329
  206MPD1    H5 3139   1.011   2.384  15.254 -2.1555  1.5946  2.3358
  206MPD1    N1 3140   1.178   2.614  14.770 -0.5010  0.3994 -0.5640
  206MPD1    H6 3141   1.093   2.667  14.757 -0.7682  0.4436  1.3854
  206MPD1    H7 3142   1.205   2.589  14.675  0.6920 -2.7497  0.5739
  207MPD1     C 3143   3.401   0.221   9.610  0.2032 -0.1720  1.1034
  207MPD1    C1 3144   3.372   0.113   9.689  0.8642 -1.0898  0.0880
  207MPD1    C2 3145   3.457   0.085   9.798  0.3513  0.5409 -0.1632
  207MPD1    C3 3146   3.566   0.166   9.824 -0.3423 -0.4386  0.0754
  207MPD1    C4 3147   3.591   0.273   9.740  0.4717 -0.9335  0.7218
  207MPD1    C5 3148   3.505   0.305   9.638  0.0086  0.0374  0.3570
  207MPD1     H 3149   3.429   0.005   9.865  0.7818  2.6647  2.5955
  207MPD1    H1 3150   3.683   0.328   9.757 -0.9077  1.4237  0.6528
  207MPD1    H2 3151   3.355   0.241   9.513  1.6009  0.1231  0.4959
  207MPD1    H3 3152   3.521   0.391   9.573 -3.3669  0.2800 -0.1416
  207MPD1     N 3153   3.663   0.139   9.916 -0.2451  0.2360  0.4205
  207MPD1    H5 3154   3.736   0.210   9.913 -0.9408  1.0245  1.9767
  207MPD1    N1 3155   3.276   0.016   9.656  0.5701  0.4448  0.7163
  207MPD1    H6 3156   3.244   4.667   9.723  0.1668 -1.0086 -0.9833
  207MPD1    H7 3157   3.191   0.047   9.609  0.2551  1.5062  1.9964
  208MPD1     C 3158   1.621   3.330   0.088 -0.0828  0.8706  0.7919
  208MPD1    C1 3159   1.494   3.389   0.094  0.0385 -0.1273  0.6088
  208MPD1    C2 3160   1.389   3.312   0.149  0.9794  0.1235  0.1895
  208MPD1    C3 3161   1.418   3.191   0.208  0.4862  0.8534 -0.0646
  208MPD1    C4 3162   1.548   3.146   0.216 -1.1853  0.5349 -0.0230
  208MPD1    C5 3163   1.645   3.210   0.140 -0.5791 -0.4539  0.0397
  208MPD1     H 3164   1.285   3.339   0.139  0.3016 -3.0371 -1.2137
  208MPD1    H1 3165   1.568   3.055   0.270  3.0593  0.6795 -1.3866
  208MPD1    H2 3166   1.697   3.389   0.037  0.8030 -0.6703  0.3237
  208MPD1    H3 3167   1.739   3.157   0.132 -0.5987 -0.9290  2.8578
  208MPD1     N 3168   1.309   3.132   0.275 -0.8655  0.4421  0.4534
  208MPD1    H5 3169   1.218   3.177   0.276 -1.1179 -0.0412 -0.5166
  208MPD1    N1 3170   1.471   3.504   0.016 -0.7281  0.2187  0.1144
  208MPD1    H6 3171   1.547   3.569   0.034  0.6209 -0.9174 -1.4303
  208MPD1    H7 3172   1.383   3.546   0.044 -0.1448  1.6952 -0.2332
  209MPD1     C 3173   3.560   3.949  11.684 -0.2183  1.0309  0.4520
  209MPD1    C1 3174   3.518   4.079  11.683  0.3690 -0.2857  0.8507
  209MPD1    C2 3175   3.563   4.165  11.585 -0.5056  0.7952 -0.2822
  209MPD1    C3 3176   3.664   4.132  11.491 -0.1773 -0.1766  0.0085
  209MPD1    C4 3177   3.716   4.004  11.504 -0.0621 -0.0824 -0.1857
  209MPD1    C5 3178   3.669   3.920  11.604 -0.0762 -0.3846  0.3432
  209MPD1     H 3179   3.526   4.267  11.580  2.8072  1.9199 -1.4914
  209MPD1    H1 3180   3.786   3.970  11.428  1.1994 -0.8507  1.2978
  209MPD1    H2 3181   3.519   3.872  11.750  1.5979 -1.0466 -0.8237
  209MPD1    H3 3182   3.703   3.817  11.607  1.0030 -0.0885 -2.2469
  209MPD1     N 3183   3.703   4.238  11.407  0.4015 -0.6312 -0.0418
  209MPD1    H5 3184   3.665   4.331  11.424  2.1105 -0.2002  1.4437
  209MPD1    N1 3185   3.411   4.126  11.760  0.3814 -0.4035  0.2391
  209MPD1    H6 3186   3.414   4.076  11.848 -2.3045  0.2121  0.6753
  209MPD1    H7 3187   3.414   4.226  11.775 -0.1485 -0.6793  2.1181
  210MPD1     C 3188   3.614   0.466  11.382  0.3529  0.9167 -0.2220
  210MPD1    C1 3189   3.628   0.363  11.473 -0.4015 -1.1567  0.8637
  210MPD1    C2 3190   3.698   0.248  11.438 -0.7310  0.2757 -0.0062
  210MPD1    C3 3191   3.692   0.218  11.299 -0.9145  0.8173 -0.0151
  210MPD1    C4 3192   3.657   0.316  11.209  0.4379 -0.0324  0.2168
  210MPD1    C5 3193   3.621   0.444  11.248 -0.0617  0.0723 -0.0755
  210MPD1     H 3194   3.727   0.172  11.509 -1.3497 -0.5210 -0.6090
  210MPD1    H1 3195   3.665   0.291  11.104  2.6560 -1.3721  0.6995
  210MPD1    H2 3196   3.582   0.558  11.430 -1.6547 -0.1694  0.5528
  210MPD1    H3 3197   3.617   0.530  11.182  1.9460  1.1288  1.1932
  210MPD1     N 3198   3.748   0.096  11.242  0.5170 -0.4053  0.6023
  210MPD1    H5 3199   3.715   0.080  11.147 -0.6338 -2.0843  1.2761
  210MPD1    N1 3200   3.596   0.387  11.608  0.8134  0.0504 -0.1358
  210MPD1    H6 3201   3.608   0.305  11.668 -0.8055 -0.7831 -0.9509
  210MPD1    H7 3202   3.641   0.470  11.645  0.1213  0.6519 -0.6477
  211MPD1     C 3203   2.006   3.828  16.873  0.0046 -0.4545 -0.5283
  211MPD1    C1 3204   1.885   3.777  16.919  0.3860 -0.3929 -0.8229
  211MPD1    C2 3205   1.769   3.841  16.884 -0.4852  0.0014 -0.3851
  211MPD1    C3 3206   1.767   3.956  16.801 -0.5266 -0.1563 -0.5097
  211MPD1    C4 3207   1.888   3.998  16.749  0.5053 -0.3257 -0.1306
  211MPD1    C5 3208   2.002   3.944  16.797 -0.2089 -0.0333 -0.6532
  211MPD1     H 3209   1.676   3.808  16.928 -1.0311  0.7727 -0.9567
  211MPD1    H1 3210   1.893   4.088  16.688  1.7776 -1.1844 -1.2936
  211MPD1    H2 3211   2.106   3.797  16.901 -0.2271 -0.6522  0.0884
  211MPD1    H3 3212   2.099   3.988  16.773  0.8537 -0.2759  3.2297
  211MPD1     N 3213   1.639   4.019  16.774 -0.0481 -0.6930  0.0710
  211MPD1    H5 3214   1.554   3.983  16.816  0.6188 -0.9237  1.2327
  211MPD1    N1 3215   1.890   3.670  17.013  0.3215  0.2705  0.4888
  211MPD1    H6 3216   1.971   3.610  17.002 -0.1191 -0.2708  0.1672
  211MPD1    H7 3217   1.803   3.616  17.016 -0.2687  1.2087  0.2828
  212MPD1     C 3218   4.672   2.744  16.604  0.0062 -0.2245 -0.5534
  212MPD1    C1 3219   0.072   2.679  16.596 -0.9246 -0.2704  0.4214
  212MPD1    C2 3220   0.093   2.570  16.686  0.9248  0.0598  0.7850
  212MPD1    C3 3221   4.708   2.516  16.761 -0.4930  0.0610  0.7653
  212MPD1    C4 3222   4.593   2.581  16.758 -0.0123  0.1834  0.4702
  212MPD1    C5 3223   4.567   2.690  16.677  0.0740  0.0187 -0.7215
  212MPD1     H 3224   0.186   2.516  16.692  1.4061  0.4990 -2.3661
  212MPD1    H1 3225   4.511   2.545  16.819  0.2097 -0.4434  0.3946
  212MPD1    H2 3226   4.640   2.827  16.542 -1.9775  0.7396  1.7777
  212MPD1    H3 3227   4.465   2.729  16.674 -0.0827 -0.4728 -1.7374
  212MPD1     N 3228   0.007   2.414  16.861  0.2438  0.1850 -0.5548
  212MPD1    H5 3229   4.643   2.385  16.910 -1.1135 -0.7278 -3.4299
  212MPD1    N1 3230   0.174   2.746  16.527 -0.0799  0.1930  0.0447
  212MPD1    H6 3231   0.136   2.792  16.444  0.8098 -0.9887 -1.0241
  212MPD1    H7 3232   0.239   2.676  16.491  1.7713  1.3254  1.2132
  213MPD1     C 3233   4.364   3.497  15.289  0.2590 -0.3046 -0.3642
  213MPD1    C1 3234   4.295   3.602  15.236 -0.1094 -0.4590 -0.4985
  213MPD1    C2 3235   4.161   3.590  15.264 -0.0257  0.0086  0.2724
  213MPD1    C3 3236   4.115   3.515  15.371 -0.4960  0.7500 -0.6827
  213MPD1    C4 3237   4.196   3.428  15.439 -0.3056  0.2440  0.0070
  213MPD1    C5 3238   4.326   3.421  15.393 -1.0850  0.3164 -0.3588
  213MPD1     H 3239   4.091   3.652  15.208 -0.3768 -1.0894 -0.4958
  213MPD1    H1 3240   4.166   3.369  15.526 -0.3433  0.2008 -0.0354
  213MPD1    H2 3241   4.469   3.496  15.261  0.0666 -2.1975 -1.0493
  213MPD1    H3 3242   4.393   3.354  15.445 -1.6071  1.8691  2.2977
  213MPD1     N 3243   3.974   3.524  15.395 -0.0818  0.5941 -0.4488
  213MPD1    H5 3244   3.926   3.583  15.327 -1.2436  0.0695 -0.0847
  213MPD1    N1 3245   4.338   3.655  15.113  0.1468 -0.0607  0.0755
  213MPD1    H6 3246   4.438   3.678  15.116 -0.2640  1.7233 -0.0518
  213MPD1    H7 3247   4.293   3.745  15.098  2.7306  1.0964 -0.7893
  214MPD1     C 3248   2.985   3.239  15.752  0.2228  0.6368  0.2407
  214MPD1    C1 3249   3.104   3.271  15.818  0.4533 -0.1024  0.0972
  214MPD1    C2 3250   3.211   3.282  15.735  0.3944  0.1468 -0.0876
  214MPD1    C3 3251   3.200   3.293  15.591  0.1037  0.7828 -0.0978
  214MPD1    C4 3252   3.078   3.269  15.534 -0.3433  0.6380 -0.3299
  214MPD1    C5 3253   2.974   3.237  15.614  0.2825 -0.0461 -0.4111
  214MPD1     H 3254   3.307   3.286  15.784 -0.0400 -0.1203  0.7867
  214MPD1    H1 3255   3.067   3.268  15.426  1.5117 -0.0259 -0.5057
  214MPD1    H2 3256   2.901   3.194  15.805 -0.1719 -0.8110 -1.6166
  214MPD1    H3 3257   2.884   3.205  15.562  0.5485  0.8680 -1.4467
  214MPD1     N 3258   3.305   3.334  15.504  0.1713 -0.0764  0.5232
  214MPD1    H5 3259   3.283   3.333  15.405  1.0773  1.0004  0.3080
  214MPD1    N1 3260   3.120   3.258  15.955  0.2077  0.2589  0.3065
  214MPD1    H6 3261   3.194   3.318  15.991 -0.8310  1.6663  0.1208
  214MPD1    H7 3262   3.030   3.272  16.000  0.9301  2.8589  0.9839
  215MPD1     C 3263   4.133   4.425   9.822 -0.5833 -0.1875 -0.1886
  215MPD1    C1 3264   4.006   4.482   9.816  0.2203 -0.2222  0.1106
  215MPD1    C2 3265   3.899   4.444   9.897  0.0016 -0.7698  0.0980
  215MPD1    C3 3266   3.926   4.343   9.981 -0.0028 -0.0058 -0.0227
  215MPD1    C4 3267   4.050   4.282   9.996  0.3891  0.2649 -0.0393
  215MPD1    C5 3268   4.156   4.325   9.915  0.2850 -0.8450 -0.1368
  215MPD1     H 3269   3.797   4.480   9.890 -0.3346 -1.5680  0.8610
  215MPD1    H1 3270   4.074   4.201  10.064  0.4224  1.4570  1.3589
  215MPD1    H2 3271   4.205   4.447   9.745 -0.8668 -0.1540 -0.4441
  215MPD1    H3 3272   4.253   4.280   9.932  0.4029 -0.6223 -0.2305
  215MPD1     N 3273   3.820   4.320  10.077 -0.1469  0.6237  0.1881
  215MPD1    H5 3274   3.745   4.387  10.069 -3.1684 -2.7727  0.2751
  215MPD1    N1 3275   3.991   4.572   9.706 -0.2751  0.6905  0.0780
  215MPD1    H6 3276   3.907   4.630   9.707 -1.9916 -1.8098  2.3343
  215MPD1    H7 3277   4.077   4.621   9.683 -0.2557  2.5241  4.0831
  216MPD1     C 3278   4.677   1.181  17.069  0.5966 -0.0347  0.8575
  216MPD1    C1 3279   4.600   1.116  17.160  0.5597 -0.2657 -0.1150
  216MPD1    C2 3280   4.662   1.042  17.256  0.3212 -0.8084  1.1863
  216MPD1    C3 3281   0.082   1.035  17.267  0.7333  0.0533 -0.2922
  216MPD1    C4 3282   0.165   1.103  17.181 -0.1044  0.1882 -0.4764
  216MPD1    C5 3283   0.098   1.170  17.079  0.9194  0.3986 -0.6395
  216MPD1     H 3284   4.602   0.995  17.333  0.4226 -1.3826  0.9169
  216MPD1    H1 3285   0.273   1.113  17.179 -0.1614  1.0039  1.0395
  216MPD1    H2 3286   4.642   1.234  16.981 -0.4196 -0.6301  0.9093
  216MPD1    H3 3287   0.159   1.219  17.004  1.7179  2.0356  1.0813
  216MPD1     N 3288   0.138   0.957  17.370 -0.4496  0.4618 -0.0340
  216MPD1    H5 3289   0.077   0.915  17.439 -0.4991  0.0479 -0.3330
  216MPD1    N1 3290   4.459   1.146  17.172  0.6134  0.0257  0.4351
  216MPD1    H6 3291   4.414   1.066  17.216 -1.2890  1.5325  1.2243
  216MPD1    H7 3292   4.412   1.153  17.082  1.0542 -1.6488  0.0768
  217MPD1     C 3293   2.018   3.982   9.035  1.0385 -0.0170  0.1969
  217MPD1    C1 3294   2.067   3.861   8.992 -0.4642  0.0275  0.2709
  217MPD1    C2 3295   1.978   3.753   8.988  0.1199  0.3093 -0.0709
  217MPD1    C3 3296   1.847   3.762   9.023  0.0668 -0.0498 -0.3132
  217MPD1    C4 3297   1.800   3.885   9.058  0.6281  0.2347  0.3968
  217MPD1    C5 3298   1.880   3.994   9.065  0.5566  0.1591  0.4285
  217MPD1     H 3299   2.023   3.659   8.960 -0.9115  0.3002 -1.6919
  217MPD1    H1 3300   1.697   3.891   9.089  0.7050  1.3986  0.4289
  217MPD1    H2 3301   2.077   4.073   9.042  0.5133  0.2816  0.6855
  217MPD1    H3 3302   1.846   4.092   9.097 -1.8367 -0.4276 -0.2879
  217MPD1     N 3303   1.748   3.654   9.045  0.2990 -0.0581 -0.3485
  217MPD1    H5 3304   1.657   3.689   9.074 -0.2792  0.4802 -2.7855
  217MPD1    N1 3305   2.201   3.843   8.959  0.5399 -0.4770 -0.4010
  217MPD1    H6 3306   2.234   3.764   8.905  1.0337 -0.2962 -0.3626
  217MPD1    H7 3307   2.256   3.928   8.950  0.3814 -0.4733 -1.3478
  218MPD1     C 3308   4.235   3.993  11.298 -0.4433  0.0786 -0.7747
  218MPD1    C1 3309   4.133   3.917  11.252 -0.0192 -0.0575 -0.3308
  218MPD1    C2 3310   4.045   3.866  11.339  0.0342  0.0380  0.7675
  218MPD1    C3 3311   4.063   3.885  11.476 -0.0781  0.0722  0.4161
  218MPD1    C4 3312   4.164   3.958  11.527 -0.0553  1.4548  0.0287
  218MPD1    C5 3313   4.246   4.012  11.433  0.1184 -0.0937  0.8288
  218MPD1     H 3314   3.965   3.804  11.302  0.0841 -0.2417  1.1327
  218MPD1    H1 3315   4.185   3.968  11.633  0.5723  2.1641 -0.1599
  218MPD1    H2 3316   4.302   4.039  11.225  1.8941 -0.1087  1.2567
  218MPD1    H3 3317   4.333   4.069  11.464  0.2948  0.6448 -1.0438
  218MPD1     N 3318   3.978   3.797  11.558  0.1500 -0.2327  0.6892
  218MPD1    H5 3319   3.908   3.743  11.508  0.7183 -0.7645  0.4693
  218MPD1    N1 3320   4.123   3.885  11.117 -0.2610 -0.1095 -0.4887
  218MPD1    H6 3321   4.097   3.789  11.098  1.4447 -0.4548 -1.1040
  218MPD1    H7 3322   4.208   3.913  11.069  1.0645  1.0325  2.4774
  219MPD1     C 3323   3.646   3.018  11.376 -0.0630  0.0473  0.0641
  219MPD1    C1 3324   3.646   3.013  11.516 -0.3780 -1.0888  0.0433
  219MPD1    C2 3325   3.673   3.130  11.580 -0.3508  0.2645 -0.6454
  219MPD1    C3 3326   3.714   3.246  11.520  0.6160 -0.2594 -0.2068
  219MPD1    C4 3327   3.724   3.236  11.386  0.4902  0.3898  0.0969
  219MPD1    C5 3328   3.696   3.130  11.314 -0.8815  0.6636  0.8968
  219MPD1     H 3329   3.667   3.133  11.688  0.4600  0.4905 -0.6080
  219MPD1    H1 3330   3.759   3.324  11.333  0.7576 -1.0985 -2.1850
  219MPD1    H2 3331   3.622   2.925  11.327 -1.0565 -0.2599  1.1264
  219MPD1    H3 3332   3.718   3.142  11.209  2.0400  0.0400  1.4610
  219MPD1     N 3333   3.731   3.369  11.581 -0.0080  0.2620 -0.7773
  219MPD1    H5 3334   3.758   3.444  11.518  0.7206 -0.9429 -1.8730
  219MPD1    N1 3335   3.613   2.903  11.590 -0.0987 -0.0608  0.4724
  219MPD1    H6 3336   3.686   2.902  11.661  1.1429 -0.5743 -0.8007
  219MPD1    H7 3337   3.629   2.820  11.533  0.4123  0.7745 -0.6119
  220MPD1     C 3338   2.532   0.310   9.245 -0.8841  0.7773  0.4007
  220MPD1    C1 3339   2.579   0.322   9.372 -0.3900  0.3499  0.1640
  220MPD1    C2 3340   2.643   0.207   9.416 -0.2598 -0.0930  0.2130
  220MPD1    C3 3341   2.644   0.090   9.352 -0.2194 -0.6747 -0.1885
  220MPD1    C4 3342   2.582   0.079   9.232  0.3054 -0.5648 -0.0189
  220MPD1    C5 3343   2.524   0.192   9.183 -0.1863 -0.2647  0.3130
  220MPD1     H 3344   2.702   0.206   9.507 -1.4801 -0.7548  0.9947
  220MPD1    H1 3345   2.583   4.715   9.164  0.7150  0.1323 -0.8682
  220MPD1    H2 3346   2.479   0.394   9.201 -0.0927  0.4370 -1.2067
  220MPD1    H3 3347   2.485   0.192   9.082 -1.5348 -0.3233  0.8336
  220MPD1     N 3348   2.707   4.699   9.410  0.6749  0.3311 -0.9246
  220MPD1    H5 3349   2.758   0.004   9.494 -1.1060 -0.0589  0.2719
  220MPD1    N1 3350   2.589   0.444   9.440  0.0437  0.2829  0.4827
  220MPD1    H6 3351   2.594   0.420   9.538 -0.8758  0.2847  0.5334
  220MPD1    H7 3352   2.516   0.510   9.414 -0.6751 -0.8922 -0.5257
  221MPD1     C 3353   0.052   3.994  16.094 -0.6406 -0.6344 -0.4212
  221MPD1    C1 3354   0.158   4.047  16.021  0.5068  0.3853 -0.0450
  221MPD1    C2 3355   0.286   4.031  16.070 -0.2143 -0.2070 -0.6617
  221MPD1    C3 3356   0.320   3.954  16.183 -0.3588  0.6242  0.3677
  221MPD1    C4 3357   0.215   3.896  16.252  0.2921 -0.4345 -0.3524
  221MPD1    C5 3358   0.075   3.924  16.211 -0.7907  0.0404  0.1105
  221MPD1     H 3359   0.365   4.087  16.020  0.3960 -1.6631 -1.3366
  221MPD1    H1 3360   0.230   3.828  16.336 -1.6211  0.5443  0.7796
  221MPD1    H2 3361   4.671   4.003  16.057 -1.3666  1.3039  2.0194
  221MPD1    H3 3362   4.715   3.892  16.276 -0.5649 -2.4801 -0.8531
  221MPD1     N 3363   0.450   3.926  16.223  0.3127 -0.1737 -0.0380
  221MPD1    H5 3364   0.464   3.846  16.284 -2.8179 -0.2208  0.6036
  221MPD1    N1 3365   0.126   4.131  15.914  0.3962 -0.0169 -0.0518
  221MPD1    H6 3366   0.032   4.109  15.880  0.6415  1.4944 -1.7199
  221MPD1    H7 3367   0.196   4.122  15.842 -0.3107 -1.0072 -0.6160
  222MPD1     C 3368   1.407   2.431  16.632  0.3874  0.2816 -0.6953
  222MPD1    C1 3369   1.409   2.505  16.746  0.1550  0.1130  0.4532
  222MPD1    C2 3370   1.296   2.536  16.810  0.5254 -0.0043  0.2144
  222MPD1    C3 3371   1.170   2.490  16.773 -0.0461 -0.1292  0.7061
  222MPD1    C4 3372   1.166   2.417  16.659  0.3186 -0.4237 -0.0320
  222MPD1    C5 3373   1.291   2.385  16.593  0.1860 -0.5568  0.5819
  222MPD1     H 3374   1.303   2.596  16.900  2.3681  2.3293 -1.4936
  222MPD1    H1 3375   1.072   2.385  16.616  0.4543  2.1115 -2.2198
  222MPD1    H2 3376   1.490   2.396  16.571  1.0777 -2.0912  1.6065
  222MPD1    H3 3377   1.289   2.329  16.501 -1.5565  2.2097 -1.0705
  222MPD1     N 3378   1.044   2.532  16.820 -0.0546  0.1182 -0.1351
  222MPD1    H5 3379   0.959   2.512  16.768 -0.4713  0.0499  0.5757
  222MPD1    N1 3380   1.523   2.568  16.788  0.7994  0.8019 -0.2427
  222MPD1    H6 3381   1.603   2.506  16.782 -0.2905 -0.8241  2.0327
  222MPD1    H7 3382   1.496   2.595  16.882 -2.7050 -1.1391 -0.6616
  223MPD1     C 3383   0.340   3.175  16.553 -0.6384 -0.1127  0.7294
  223MPD1    C1 3384   0.319   3.184  16.690 -0.5396  0.4244 -0.1058
  223MPD1    C2 3385   0.408   3.129  16.775  0.5339 -0.0794  0.5525
  223MPD1    C3 3386   0.503   3.037  16.724  0.1726  0.0488  0.1020
  223MPD1    C4 3387   0.512   3.022  16.588  0.0269  0.5225  0.2454
  223MPD1    C5 3388   0.428   3.085  16.504 -0.6117 -0.0468  0.6932
  223MPD1     H 3389   0.393   3.162  16.877  1.1854 -1.5775  1.1442
  223MPD1    H1 3390   0.584   2.957  16.539  0.4405  0.7931  0.4925
  223MPD1    H2 3391   0.282   3.230  16.481  2.3361  1.3620 -0.5178
  223MPD1    H3 3392   0.455   3.079  16.399  2.4669 -0.8254  1.5163
  223MPD1     N 3393   0.571   2.963  16.819  0.0465 -0.1802 -0.2673
  223MPD1    H5 3394   0.560   2.986  16.917  0.2225  2.2515 -0.8345
  223MPD1    N1 3395   0.233   3.279  16.741  0.0791 -0.1034  0.3758
  223MPD1    H6 3396   0.186   3.238  16.821  0.3255 -0.8831  0.1179
  223MPD1    H7 3397   0.166   3.319  16.676  1.7111  1.2352 -0.4855
  224MPD1     C 3398   2.632   4.012   9.160  0.3141 -0.4796 -0.3147
  224MPD1    C1 3399   2.655   3.881   9.192  0.5001  0.5863  0.1264
  224MPD1    C2 3400   2.561   3.815   9.273  0.1759 -1.1089 -0.4511
  224MPD1    C3 3401   2.442   3.878   9.319 -0.3044  0.0706 -0.1332
  224MPD1    C4 3402   2.417   4.009   9.275  0.1270  0.2841  0.2378
  224MPD1    C5 3403   2.511   4.076   9.195  0.3983  0.3531 -0.1814
  224MPD1     H 3404   2.584   3.710   9.287 -0.9644 -1.2839  0.1172
  224MPD1    H1 3405   2.319   4.044   9.305 -1.0913 -2.4792 -0.4899
  224MPD1    H2 3406   2.707   4.065   9.101 -1.3904  1.0050 -1.1382
  224MPD1    H3 3407   2.480   4.163   9.140  0.9039  1.3803  1.1583
  224MPD1     N 3408   2.347   3.807   9.390  0.0459  0.0644 -0.3127
  224MPD1    H5 3409   2.262   3.858   9.410  0.0311 -0.6342  1.3959
  224MPD1    N1 3410   2.752   3.803   9.129 -0.0732  0.5633 -0.0548
  224MPD1    H6 3411   2.832   3.862   9.109  0.2856  0.1573  0.1763
  224MPD1    H7 3412   2.790   3.729   9.189  0.2711 -0.0597 -1.0507
  225MPD1     C 3413   3.331   1.062  12.623 -0.4115 -0.0737  0.5064
  225MPD1    C1 3414   3.381   0.975  12.530  0.0011  0.2860  0.1459
  225MPD1    C2 3415   3.291   0.901  12.450  0.5136  0.2863  0.4164
  225MPD1    C3 3416   3.155   0.921  12.454  0.6166  0.4081 -0.1767
  225MPD1    C4 3417   3.115   1.011  12.548  0.3249 -0.0311 -0.5407
  225MPD1    C5 3418   3.195   1.079  12.636  0.2320  0.2429  0.3756
  225MPD1     H 3419   3.319   0.813  12.394 -1.6383 -0.2024  0.1205
  225MPD1    H1 3420   3.007   1.025  12.557  0.5434  1.2392  0.0243
  225MPD1    H2 3421   3.388   1.123  12.693  1.5007 -0.3367 -0.8184
  225MPD1    H3 3422   3.160   1.142  12.717  1.5784 -0.9681  1.8999
  225MPD1     N 3423   3.064   0.854  12.375 -0.1735 -0.5116 -0.2664
  225MPD1    H5 3424   2.975   0.901  12.366 -0.3282 -0.8783 -0.6711
  225MPD1    N1 3425   3.520   0.954  12.528 -0.0032 -0.5242  0.0671
  225MPD1    H6 3426   3.569   1.041  12.548  0.3800 -0.9087  0.8117
  225MPD1    H7 3427   3.554   0.910  12.442  0.4929 -1.7455  0.8905
  226MPD1     C 3428   2.061   3.283   9.400 -0.2438 -0.4703 -0.2319
  226MPD1    C1 3429   2.105   3.395   9.313  0.4485  0.0139  0.3414
  226MPD1    C2 3430   2.024   3.506   9.307 -0.2842 -0.1256  0.3990
  226MPD1    C3 3431   1.910   3.511   9.385  0.3301  0.8580  0.6417
  226MPD1    C4 3432   1.859   3.402   9.457  0.3244 -0.3942 -0.0114
  226MPD1    C5 3433   1.942   3.289   9.463  0.7378 -0.5036  0.2774
  226MPD1     H 3434   2.046   3.591   9.244 -0.1293  0.5612  1.3749
  226MPD1    H1 3435   1.759   3.402   9.499 -0.2251  2.3524 -1.3698
  226MPD1    H2 3436   2.112   3.187   9.402 -0.9214 -0.8450 -1.0435
  226MPD1    H3 3437   1.906   3.194   9.499 -1.5459  0.8670  1.5948
  226MPD1     N 3438   1.834   3.632   9.369  0.2170  0.1375  0.0307
  226MPD1    H5 3439   1.882   3.706   9.319  0.7969  0.0903  0.5186
  226MPD1    N1 3440   2.205   3.375   9.215  0.0807 -0.5006 -0.0935
  226MPD1    H6 3441   2.279   3.320   9.259  1.6713  1.5305 -0.2897
  226MPD1    H7 3442   2.244   3.466   9.193 -0.8541 -0.5461 -1.9291
  227MPD1     C 3443   0.981   4.184   9.000  0.8444  0.2555  0.0297
  227MPD1    C1 3444   1.098   4.245   8.966 -0.8353 -0.5012 -0.0045
  227MPD1    C2 3445   1.218   4.189   9.013 -0.1940 -0.0368  0.0830
  227MPD1    C3 3446   1.209   4.082   9.105  1.0615 -0.0500 -0.5223
  227MPD1    C4 3447   1.094   4.018   9.120 -0.0088  0.5832 -0.0097
  227MPD1    C5 3448   0.982   4.067   9.068 -0.5894  0.3280 -0.0325
  227MPD1     H 3449   1.314   4.231   8.986 -0.9652  0.3702 -2.0779
  227MPD1    H1 3450   1.084   3.926   9.177 -0.4199 -0.3678 -1.6025
  227MPD1    H2 3451   0.890   4.228   8.961  1.2745  1.9164  0.9153
  227MPD1    H3 3452   0.888   4.014   9.080 -0.2782 -0.2206 -0.0237
  227MPD1     N 3453   1.331   4.048   9.174 -0.1471 -0.2665  0.7309
  227MPD1    H5 3454   1.409   4.109   9.153  0.1471 -0.5053  1.1184
  227MPD1    N1 3455   1.100   4.341   8.867  0.0606  0.3789  0.4616
  227MPD1    H6 3456   1.187   4.393   8.859 -0.4407  0.9053 -1.5523
  227MPD1    H7 3457   1.018   4.401   8.861 -2.2957 -3.0919 -2.0071
  228MPD1     C 3458   4.111   3.260  12.890 -0.7954 -0.0584 -0.4209
  228MPD1    C1 3459   3.995   3.254  12.814 -0.2296 -0.1551 -0.6013
  228MPD1    C2 3460   3.891   3.188  12.866 -0.0053 -0.0407 -0.5100
  228MPD1    C3 3461   3.895   3.126  12.993 -0.0449 -0.1026 -0.2467
  228MPD1    C4 3462   4.013   3.121  13.059 -0.4213  1.1375  0.2510
  228MPD1    C5 3463   4.120   3.191  13.005  0.7520  0.6139  0.6504
  228MPD1     H 3464   3.798   3.176  12.811 -0.5962  2.1169 -0.0184
  228MPD1    H1 3465   4.034   3.060  13.146 -1.6248  0.6669  0.2154
  228MPD1    H2 3466   4.203   3.303  12.851 -1.2431  0.0823 -1.3085
  228MPD1    H3 3467   4.208   3.202  13.067  1.8377  1.9344 -1.1070
  228MPD1     N 3468   3.776   3.059  13.027 -0.5731 -0.9054  0.0399
  228MPD1    H5 3469   3.707   3.045  12.954 -0.6277 -1.6856  0.2396
  228MPD1    N1 3470   3.990   3.343  12.706  0.4218  0.1868 -0.4811
  228MPD1    H6 3471   3.920   3.319  12.636  1.9996 -1.5528 -1.4646
  228MPD1    H7 3472   4.079   3.353  12.658  0.7170 -0.0106  0.0209
  229MPD1     C 3473   3.520   1.981  14.284  0.1811 -0.7829  0.3850
  229MPD1    C1 3474   3.570   1.864  14.238  0.4464  0.5819  0.0022
  229MPD1    C2 3475   3.700   1.830  14.276 -0.0232 -1.3198 -0.1284
  229MPD1    C3 3476   3.777   1.916  14.362  0.7338  0.4940  0.6009
  229MPD1    C4 3477   3.716   2.032  14.408  0.2946  0.3611  0.0453
  229MPD1    C5 3478   3.591   2.065  14.370 -0.2422 -0.1829 -0.5570
  229MPD1     H 3479   3.753   1.745  14.236  0.6174 -2.0072  2.1837
  229MPD1    H1 3480   3.775   2.095  14.474 -0.4101 -1.5085  2.4584
  229MPD1    H2 3481   3.432   2.028  14.241 -1.1480 -1.8507  1.9472
  229MPD1    H3 3482   3.554   2.161  14.403  1.3891  0.9866 -2.1100
  229MPD1     N 3483   3.908   1.884  14.406  0.1853 -0.5580  0.4665
  229MPD1    H5 3484   3.953   1.952  14.467 -1.4790  1.7849 -0.9394
  229MPD1    N1 3485   3.506   1.795  14.137  0.2737 -0.5269  0.4558
  229MPD1    H6 3486   3.537   1.698  14.137  2.1107  0.0542  0.8657
  229MPD1    H7 3487   3.405   1.796  14.135  0.3196 -1.2190 -2.1505
  230MPD1     C 3488   4.299   1.849  15.301  0.0190  0.2657 -0.4348
  230MPD1    C1 3489   4.354   1.738  15.255 -0.1224  0.2569  0.4557
  230MPD1    C2 3490   4.344   1.718  15.118  1.2748  0.2110 -0.4062
  230MPD1    C3 3491   4.291   1.804  15.028  0.1122 -0.2139 -0.4292
  230MPD1    C4 3492   4.243   1.920  15.082  0.0529 -0.6396 -0.3559
  230MPD1    C5 3493   4.242   1.941  15.216  0.2888 -0.1813  0.3220
  230MPD1     H 3494   4.379   1.621  15.084 -0.0970 -0.3702 -0.1564
  230MPD1    H1 3495   4.202   1.998  15.018 -0.0914 -1.6547 -1.5110
  230MPD1    H2 3496   4.291   1.874  15.406 -0.1737 -0.0941 -0.3622
  230MPD1    H3 3497   4.204   2.034  15.257  1.2699  0.1506  0.4744
  230MPD1     N 3498   4.283   1.773  14.889 -0.7009 -0.1879 -0.8527
  230MPD1    H5 3499   4.303   1.675  14.868 -0.6495  0.1648 -2.4328
  230MPD1    N1 3500   4.388   1.637  15.349 -0.0729 -0.5387  0.1320
  230MPD1    H6 3501   4.401   1.677  15.441 -0.7723  1.6929 -0.7308
  230MPD1    H7 3502   4.467   1.581  15.316  0.4691  0.3239 -0.0157
  231MPD1     C 3503   2.078   3.376  14.994 -0.0911 -0.3921 -0.2148
  231MPD1    C1 3504   2.161   3.309  15.077 -0.7812 -0.0527  0.1818
  231MPD1    C2 3505   2.296   3.317  15.053 -0.3509 -0.2029  0.5630
  231MPD1    C3 3506   2.351   3.392  14.949  0.1036 -0.4150 -0.1970
  231MPD1    C4 3507   2.262   3.445  14.858  0.3041  1.0378 -0.4110
  231MPD1    C5 3508   2.125   3.432  14.884 -0.6450  0.4114  0.3024
  231MPD1     H 3509   2.360   3.284  15.134  1.2404  1.0351 -0.1916
  231MPD1    H1 3510   2.294   3.501  14.771  2.2925 -0.0933 -0.3991
  231MPD1    H2 3511   1.971   3.370  15.009 -0.0441  0.0577  0.3313
  231MPD1    H3 3512   2.063   3.472  14.805 -0.8056 -0.5566 -0.0693
  231MPD1     N 3513   2.494   3.384  14.929  0.1563 -0.0738  0.3865
  231MPD1    H5 3514   2.546   3.322  14.992  0.8183  0.2682  0.1775
  231MPD1    N1 3515   2.112   3.228  15.187 -0.0584 -0.0913 -0.1957
  231MPD1    H6 3516   2.011   3.217  15.178 -0.4334  2.0701  1.3349
  231MPD1    H7 3517   2.160   3.139  15.184  2.3659  1.2688 -1.3685
  232MPD1     C 3518   0.075   0.742   0.921  0.3531 -0.6448  0.3833
  232MPD1    C1 3519   0.002   0.686   1.018  0.1924 -0.2601 -0.0653
  232MPD1    C2 3520   4.584   0.691   1.006  0.3945  0.2504 -0.2395
  232MPD1    C3 3521   4.521   0.731   0.891 -0.1153 -0.3062 -0.1929
  232MPD1    C4 3522   4.605   0.766   0.788  0.8034 -0.9238 -0.0878
  232MPD1    C5 3523   0.015   0.782   0.803 -0.4162  0.6839  0.1842
  232MPD1     H 3524   4.528   0.651   1.089 -1.3997 -0.4023 -1.7738
  232MPD1    H1 3525   4.568   0.804   0.694 -0.2273  2.4065  1.6392
  232MPD1    H2 3526   0.182   0.753   0.929  0.4616 -0.7866 -0.8558
  232MPD1    H3 3527   0.077   0.823   0.724 -1.5979 -1.0687 -1.6330
  232MPD1     N 3528   4.377   0.724   0.889 -0.4919  0.4497 -0.2647
  232MPD1    H5 3529   4.331   0.685   0.971 -1.2512 -2.9899 -2.3429
  232MPD1    N1 3530   0.069   0.654   1.138  0.3009 -0.4303  0.1900
  232MPD1    H6 3531   0.164   0.617   1.133 -0.7535 -2.6194 -3.7295
  232MPD1    H7 3532   0.027   0.586   1.200  0.7216  0.0329  0.9776
  233MPD1     C 3533   0.028   3.806   2.135 -0.5466 -0.1509 -0.5281
  233MPD1    C1 3534   4.699   3.686   2.166  0.7776 -0.0150 -0.0476
  233MPD1    C2 3535   0.042   3.582   2.104 -0.2235  0.0114  0.0506
  233MPD1    C3 3536   0.157   3.598   2.020  0.5884 -0.3625  0.0586
  233MPD1    C4 3537   0.212   3.724   2.008 -0.0734  0.2485 -0.5970
  233MPD1    C5 3538   0.139   3.825   2.061 -0.0185  0.5823  0.5398
  233MPD1     H 3539   0.010   3.481   2.122 -2.0923  1.0080  2.3094
  233MPD1    H1 3540   0.304   3.741   1.954 -1.1883 -0.2964 -2.6449
  233MPD1    H2 3541   4.707   3.896   2.180  0.0929  0.1963 -0.6263
  233MPD1    H3 3542   0.173   3.928   2.061 -0.3454  0.6887  0.9971
  233MPD1     N 3543   0.232   3.488   1.967  0.5275  0.1023  0.6722
  233MPD1    H5 3544   0.324   3.506   1.929 -1.3291  2.5503 -2.5851
  233MPD1    N1 3545   4.614   3.668   2.274  0.6762 -0.1962 -0.1432
  233MPD1    H6 3546   4.555   3.750   2.289 -0.6004 -1.2047  0.2429
  233MPD1    H7 3547   4.558   3.584   2.268 -0.2801  0.2679  2.3020
  234MPD1     C 3548   2.484   1.971   9.412 -0.0062  0.1629 -0.9630
  234MPD1    C1 3549   2.453   2.067   9.325  0.3636 -0.3354 -0.2994
  234MPD1    C2 3550   2.398   2.186   9.367  0.7060  0.1450  0.7355
  234MPD1    C3 3551   2.360   2.206   9.503  0.4970  0.1006  1.0178
  234MPD1    C4 3552   2.373   2.102   9.587  0.3847 -0.6010 -0.0247
  234MPD1    C5 3553   2.443   1.991   9.542  0.4193  0.1670 -0.3151
  234MPD1     H 3554   2.384   2.277   9.310  0.5357  0.8436  1.9017
  234MPD1    H1 3555   2.344   2.114   9.690  0.8454 -0.1129  0.0472
  234MPD1    H2 3556   2.546   1.887   9.383 -0.6922 -0.9617  0.8418
  234MPD1    H3 3557   2.455   1.915   9.619  0.7186  0.2118 -0.3171
  234MPD1     N 3558   2.313   2.333   9.549  0.0455 -0.3236  0.0886
  234MPD1    H5 3559   2.298   2.404   9.479  1.9555  0.8678  0.8919
  234MPD1    N1 3560   2.498   2.064   9.193  0.4281 -0.1734 -0.5080
  234MPD1    H6 3561   2.425   2.099   9.132  0.7015  0.2889 -0.5676
  234MPD1    H7 3562   2.505   1.970   9.153  0.0349 -0.9889  1.3401
  235MPD1     C 3563   4.697   1.806  10.529  0.5152  0.4659  0.2997
  235MPD1    C1 3564   0.007   1.829  10.396 -0.0908  0.6141 -0.1405
  235MPD1    C2 3565   0.040   1.718  10.317  0.1719 -0.1216  0.2318
  235MPD1    C3 3566   0.047   1.592  10.368 -0.7591 -0.6066  0.1864
  235MPD1    C4 3567   0.017   1.570  10.501 -0.6531  0.2778  0.2488
  235MPD1    C5 3568   4.693   1.677  10.572 -1.0699  0.0751 -0.3345
  235MPD1     H 3569   0.067   1.735  10.213  0.5695  1.7717  0.6488
  235MPD1    H1 3570   0.025   1.474  10.550  0.4315 -0.2465 -0.9388
  235MPD1    H2 3571   4.672   1.886  10.597 -1.5230 -0.0603  0.1810
  235MPD1    H3 3572   4.668   1.670  10.677  1.1787  2.7416  0.3751
  235MPD1     N 3573   0.072   1.489  10.270  0.1942 -0.4135  0.1631
  235MPD1    H5 3574   0.089   1.517  10.174  0.0439 -0.0268  0.2504
  235MPD1    N1 3575   4.706   1.958  10.346  0.8208  0.2547  0.0833
  235MPD1    H6 3576   0.026   2.026  10.410 -1.8995 -0.1657  2.2158
  235MPD1    H7 3577   0.048   1.969  10.265 -1.6490 -1.1873 -2.0093
  236MPD1     C 3578   3.774   1.295   9.632 -0.4086 -1.3548  0.1031
  236MPD1    C1 3579   3.727   1.169   9.627 -0.7360 -0.7169 -0.3331
  236MPD1    C2 3580   3.736   1.087   9.741  0.0225  0.3172  0.8042
  236MPD1    C3 3581   3.815   1.127   9.857 -0.1293 -0.0113  0.4721
  236MPD1    C4 3582   3.870   1.257   9.851  0.1400 -0.2967 -0.2141
  236MPD1    C5 3583   3.852   1.332   9.740  0.1289  0.3810  0.0019
  236MPD1     H 3584   3.696   0.987   9.727  0.9496 -0.2034  1.8632
  236MPD1    H1 3585   3.936   1.285   9.932  0.7596 -3.6031  0.4337
  236MPD1    H2 3586   3.749   1.369   9.557  0.2354  1.6094  2.8087
  236MPD1    H3 3587   3.902   1.428   9.733  0.0690  0.3961 -0.2122
  236MPD1     N 3588   3.828   1.045   9.972 -0.2782  0.5207  0.0663
  236MPD1    H5 3589   3.873   1.089  10.052  2.8011 -2.1737 -0.1904
  236MPD1    N1 3590   3.656   1.122   9.515  0.0458 -0.1477  0.0821
  236MPD1    H6 3591   3.665   1.022   9.499  0.8338  0.3358 -2.3925
  236MPD1    H7 3592   3.708   1.156   9.434  1.1390 -1.7960  0.0943
  237MPD1     C 3593   3.310   0.075  15.237 -0.0951  0.4446  0.3668
  237MPD1    C1 3594   3.251   4.719  15.144  0.9900 -0.3524  0.2297
  237MPD1    C2 3595   3.108   4.702  15.156  0.3631  0.3595  0.2118
  237MPD1    C3 3596   3.047   0.035  15.273 -0.0812  0.5227 -0.3058
  237MPD1    C4 3597   3.121   0.106  15.369 -0.0954  0.6024  0.0084
  237MPD1    C5 3598   3.252   0.123  15.347  0.0442 -0.7856  0.0538
  237MPD1     H 3599   3.054   4.655  15.075 -0.3936 -0.7808  1.3771
  237MPD1    H1 3600   3.071   0.146  15.457 -0.8878 -1.2373  0.3997
  237MPD1    H2 3601   3.418   0.085  15.233 -0.0962  1.1296  2.0781
  237MPD1    H3 3602   3.310   0.176  15.422  0.8100 -0.0212 -1.0757
  237MPD1     N 3603   2.910   0.018  15.297 -0.1530 -0.6329  0.1506
  237MPD1    H5 3604   2.870   0.056  15.382  0.0663 -0.3928  0.1500
  237MPD1    N1 3605   3.314   4.691  15.024 -0.6225  0.7715  0.0348
  237MPD1    H6 3606   3.275   4.608  14.981 -0.0836  1.1885 -1.2800
  237MPD1    H7 3607   3.416   4.682  15.027 -0.7567 -0.6919  0.3656
  238MPD1     C 3608   4.616   4.121  15.030 -0.1186  0.4336 -0.8360
  238MPD1    C1 3609   4.485   4.126  15.070 -0.2868 -0.4904  0.0255
  238MPD1    C2 3610   4.402   4.031  15.010  0.0727 -0.6264 -0.2637
  238MPD1    C3 3611   4.442   3.932  14.927 -0.8229  0.2912  0.4645
  238MPD1    C4 3612   4.578   3.921  14.895 -0.5647  0.2128  0.4359
  238MPD1    C5 3613   4.657   4.015  14.951  0.1544  0.0187  0.1287
  238MPD1     H 3614   4.297   4.053  15.026  0.0508 -0.0789 -1.1254
  238MPD1    H1 3615   4.627   3.839  14.843  0.0912  0.5415  0.5291
  238MPD1    H2 3616   4.691   4.191  15.063  0.6320 -0.5116 -0.5334
  238MPD1    H3 3617   0.044   4.004  14.938  0.2767 -0.8036  1.8059
  238MPD1     N 3618   4.359   3.841  14.853 -0.1514 -1.2487  0.2852
  238MPD1    H5 3619   4.402   3.775  14.789  0.6714 -0.4366  0.0059
  238MPD1    N1 3620   4.436   4.242  15.132 -0.0736  0.3130 -0.0048
  238MPD1    H6 3621   4.500   4.287  15.197 -2.8022 -0.4851  3.2127
  238MPD1    H7 3622   4.352   4.216  15.183 -1.3751 -1.4575 -3.0092
  239MPD1     C 3623   0.165   4.311  14.727  0.0812  0.1716 -1.0797
  239MPD1    C1 3624   0.233   4.240  14.629 -0.6539  0.0584 -0.4450
  239MPD1    C2 3625   0.208   4.268  14.497  0.5495  0.1492  0.0314
  239MPD1    C3 3626   0.115   4.368  14.461  0.1021 -0.0472  0.9811
  239MPD1    C4 3627   0.056   4.440  14.562  0.3820  0.3408  0.0291
  239MPD1    C5 3628   0.080   4.413  14.689  0.0053 -1.1074 -0.5940
  239MPD1     H 3629   0.252   4.202  14.423  1.1064  0.8111 -0.2203
  239MPD1    H1 3630   4.715   4.527  14.542 -0.9732 -0.7271 -0.4533
  239MPD1    H2 3631   0.178   4.300  14.834 -0.1082  2.3141 -0.8352
  239MPD1    H3 3632   0.026   4.466  14.767  1.8446  0.0369 -0.1190
  239MPD1     N 3633   0.072   4.392  14.330  0.2493  0.0634  0.4673
  239MPD1    H5 3634   0.002   4.465  14.319 -0.6960 -1.0126 -0.5559
  239MPD1    N1 3635   0.327   4.140  14.662 -0.5321  0.1013 -0.2227
  239MPD1    H6 3636   0.280   4.087  14.734  0.5719 -2.9910 -1.7420
  239MPD1    H7 3637   0.331   4.064  14.594 -1.5001 -0.1674  0.0281
  240MPD1     C 3638   3.924   4.263  13.468 -0.4813  0.7377 -0.2606
  240MPD1    C1 3639   3.805   4.214  13.521 -0.3430  0.5699 -0.6214
  240MPD1    C2 3640   3.815   4.148  13.640  0.5376 -0.6722 -0.0349
  240MPD1    C3 3641   3.934   4.121  13.701  0.1292 -0.6631 -0.1866
  240MPD1    C4 3642   4.055   4.171  13.646  0.6967  0.2114 -0.6533
  240MPD1    C5 3643   4.048   4.230  13.523 -0.1697  0.2519 -0.0276
  240MPD1     H 3644   3.724   4.112  13.688 -0.8589  2.8893  0.0050
  240MPD1    H1 3645   4.151   4.164  13.697  0.1081  1.3909  0.5988
  240MPD1    H2 3646   3.920   4.326  13.380  0.1105  0.3981 -0.5355
  240MPD1    H3 3647   4.136   4.284  13.490 -0.5137 -0.4265 -2.0431
  240MPD1     N 3648   3.935   4.061  13.835 -0.2558  0.7462 -0.0978
  240MPD1    H5 3649   3.849   4.029  13.877  0.1507 -0.1298  0.0766
  240MPD1    N1 3650   3.673   4.247  13.473  0.5251  0.1233 -0.3832
  240MPD1    H6 3651   3.594   4.195  13.512  2.8588 -2.8636  0.3868
  240MPD1    H7 3652   3.666   4.249  13.371 -0.5399  1.6479 -0.2792
  241MPD1     C 3653   4.587   4.124  14.542  0.8325  0.3394  0.2878
  241MPD1    C1 3654   4.472   4.146  14.613  0.2516 -0.3668  0.3306
  241MPD1    C2 3655   4.358   4.103  14.556 -0.0286 -0.7219  0.2972
  241MPD1    C3 3656   4.358   4.049  14.430  0.3825  0.8335  0.1710
  241MPD1    C4 3657   4.470   4.018  14.363 -0.5437  0.9051  0.7849
  241MPD1    C5 3658   4.584   4.064  14.420 -0.2318  0.8715  0.1643
  241MPD1     H 3659   4.267   4.118  14.613  0.0262 -1.9092  0.7042
  241MPD1    H1 3660   4.476   3.976  14.263  0.8611 -0.7822  1.5758
  241MPD1    H2 3661   4.682   4.160  14.579  0.5335 -0.4168  1.8171
  241MPD1    H3 3662   4.674   4.047  14.361  0.0756 -0.1670  0.9472
  241MPD1     N 3663   4.251   4.023  14.345 -0.0469  0.5221  0.0136
  241MPD1    H5 3664   4.265   4.009  14.245  1.0300  0.3060  0.1914
  241MPD1    N1 3665   4.473   4.208  14.735  0.3069 -0.4583  0.4182
  241MPD1    H6 3666   4.536   4.161  14.799  3.1718  3.0551  0.1308
  241MPD1    H7 3667   4.375   4.212  14.762  0.2876 -1.0632  0.4360
  242MPD1     C 3668   3.337   2.672  15.811 -0.1545  0.3468  0.0733
  242MPD1    C1 3669   3.282   2.566  15.730  0.2365 -0.1283  0.8995
  242MPD1    C2 3670   3.354   2.530  15.619 -0.8744 -0.2088 -0.3714
  242MPD1    C3 3671   3.461   2.604  15.579  0.1401  0.2956  0.5692
  242MPD1    C4 3672   3.509   2.708  15.648 -0.4056 -0.6518 -0.5988
  242MPD1    C5 3673   3.433   2.747  15.758  1.1144 -0.4860  0.4254
  242MPD1     H 3674   3.329   2.451  15.549 -1.2999  1.3742 -2.0036
  242MPD1    H1 3675   3.595   2.770  15.627 -1.1734  0.5170 -0.3675
  242MPD1    H2 3676   3.297   2.719  15.899  1.3489  3.0482 -0.6957
  242MPD1    H3 3677   3.471   2.831  15.815  0.9342  0.8163 -1.3605
  242MPD1     N 3678   3.529   2.571  15.458  0.0046 -0.7484 -0.6765
  242MPD1    H5 3679   3.623   2.609  15.455  0.0669 -0.8570  0.0152
  242MPD1    N1 3680   3.190   2.484  15.791 -0.4344 -0.6202  0.1164
  242MPD1    H6 3681   3.139   2.532  15.865  2.6489 -0.8443  2.4054
  242MPD1    H7 3682   3.125   2.449  15.721 -0.4898 -0.1406 -0.0738
  243MPD1     C 3683   0.360   4.585   0.736  0.0869  0.1174  0.0624
  243MPD1    C1 3684   0.392   4.566   0.605  0.4562 -0.0689 -0.4458
  243MPD1    C2 3685   0.333   4.643   0.506  0.7538 -0.2728  0.6904
  243MPD1    C3 3686   0.236   0.020   0.536 -0.2997 -0.0565 -0.4647
  243MPD1    C4 3687   0.213   0.050   0.673  0.2456 -0.5499 -0.1153
  243MPD1    C5 3688   0.277   4.690   0.766 -0.5436  0.2166 -0.1640
  243MPD1     H 3689   0.353   4.626   0.401  1.3413  1.6381  0.4993
  243MPD1    H1 3690   0.155   0.133   0.711 -1.2103 -1.4984 -0.2594
  243MPD1    H2 3691   0.397   4.518   0.812 -0.2335 -0.3601 -0.2081
  243MPD1    H3 3692   0.248   4.699   0.870 -1.0637 -1.1404 -0.1947
  243MPD1     N 3693   0.189   0.105   0.437 -0.4421 -1.3366 -0.3262
  243MPD1    H5 3694   0.239   0.102   0.349 -3.1472 -1.3153 -1.8463
  243MPD1    N1 3695   0.465   4.449   0.567 -0.6335  0.1550 -0.8350
  243MPD1    H6 3696   0.536   4.426   0.635 -0.4564 -2.4762 -1.8938
  243MPD1    H7 3697   0.510   4.484   0.483 -1.1819  0.4960 -0.9894
  244MPD1     C 3698   3.973   0.494   0.386 -0.6184  0.5154 -0.3763
  244MPD1    C1 3699   4.047   0.437   0.483  0.6656  0.1793  0.2212
  244MPD1    C2 3700   4.179   0.400   0.458 -0.2769  0.0452 -0.8498
  244MPD1    C3 3701   4.245   0.440   0.345  0.3718 -0.4369  0.4130
  244MPD1    C4 3702   4.175   0.516   0.257 -0.5279  0.5746 -0.4233
  244MPD1    C5 3703   4.039   0.547   0.277 -0.1091  0.0967 -0.0145
  244MPD1     H 3704   4.233   0.342   0.531 -1.4188 -2.2414 -1.8322
  244MPD1    H1 3705   4.219   0.562   0.169  0.6117  0.5799  0.1432
  244MPD1    H2 3706   3.869   0.522   0.399 -0.8556  0.3533 -1.8271
  244MPD1    H3 3707   3.976   0.593   0.202 -0.1847  2.0767  1.2876
  244MPD1     N 3708   4.388   0.406   0.332 -0.8815 -0.2489  0.1929
  244MPD1    H5 3709   4.430   0.343   0.399 -0.9058 -0.2089  0.2452
  244MPD1    N1 3710   3.967   0.382   0.592  0.2802 -0.2581  0.3785
  244MPD1    H6 3711   3.879   0.426   0.618 -0.8852 -1.6047 -1.3639
  244MPD1    H7 3712   4.019   0.384   0.680 -0.7090  3.6895  0.8814
  245MPD1     C 3713   2.013   1.407  13.134  0.2741  0.5119  0.0587
  245MPD1    C1 3714   2.085   1.335  13.224 -0.6787  0.0161  0.3256
  245MPD1    C2 3715   2.164   1.399  13.315  0.1788  0.4826 -0.1827
  245MPD1    C3 3716   2.186   1.537  13.312 -0.8733  0.5214 -0.9948
  245MPD1    C4 3717   2.126   1.610  13.212 -0.3486 -0.3488 -0.2668
  245MPD1    C5 3718   2.033   1.546  13.134 -0.7588  0.3061  0.5921
  245MPD1     H 3719   2.217   1.335  13.385 -1.5397 -1.5946 -0.7645
  245MPD1    H1 3720   2.147   1.716  13.205 -1.0025 -0.4023 -2.9533
  245MPD1    H2 3721   1.956   1.360  13.055 -2.6111  0.8231  1.9653
  245MPD1    H3 3722   1.981   1.605  13.059  1.6793 -1.1977 -2.3196
  245MPD1     N 3723   2.290   1.612  13.379 -0.1603 -0.1248 -0.1603
  245MPD1    H5 3724   2.301   1.709  13.349  1.6481 -0.8173 -1.6994
  245MPD1    N1 3725   2.067   1.203  13.243 -0.7988  0.8809 -0.1221
  245MPD1    H6 3726   2.118   1.158  13.319  1.8588  0.9634 -1.8358
  245MPD1    H7 3727   1.971   1.170  13.241 -0.1979 -0.7735 -0.8411
  246MPD1     C 3728   1.810   0.732   9.023  0.3630  0.1971  0.1571
  246MPD1    C1 3729   1.905   0.829   9.000 -0.5773 -0.0354 -0.0124
  246MPD1    C2 3730   2.010   0.789   8.912 -0.0035 -0.3055  0.0544
  246MPD1    C3 3731   2.013   0.663   8.846  0.5622 -0.3274  0.2795
  246MPD1    C4 3732   1.910   0.572   8.883 -0.4868  0.2544 -0.3040
  246MPD1    C5 3733   1.819   0.609   8.979  0.4184 -0.1857 -0.0642
  246MPD1     H 3734   2.099   0.850   8.902  0.1390 -0.6701 -0.8576
  246MPD1    H1 3735   1.889   0.479   8.833 -0.8693 -0.8809  1.9529
  246MPD1    H2 3736   1.716   0.758   9.072  0.0479  1.1864 -0.9705
  246MPD1    H3 3737   1.738   0.538   8.995  0.0321  0.4327  0.6744
  246MPD1     N 3738   2.119   0.637   8.756 -0.3560 -0.0209 -0.5057
  246MPD1    H5 3739   2.196   0.702   8.753 -1.7785  1.5530 -2.8343
  246MPD1    N1 3740   1.890   0.960   9.038 -0.5328 -0.1092  0.4847
  246MPD1    H6 3741   1.830   0.970   9.119 -1.2374 -2.1211  0.1949
  246MPD1    H7 3742   1.973   1.019   9.047 -2.2333  2.1396  1.3766
  247MPD1     C 3743   1.681   0.634  17.122 -0.0462 -0.4008  0.2148
  247MPD1    C1 3744   1.702   0.748  17.053 -0.1045 -0.3301  0.1786
  247MPD1    C2 3745   1.757   0.735  16.922 -0.2653 -0.5178 -0.1985
  247MPD1    C3 3746   1.811   0.618  16.874 -0.8893 -0.5035 -0.0840
  247MPD1    C4 3747   1.801   0.511  16.959 -0.7023 -0.0234 -0.2420
  247MPD1    C5 3748   1.735   0.514  17.080 -0.1952 -0.1068 -0.1165
  247MPD1     H 3749   1.752   0.825  16.862 -2.6069 -0.9944 -0.7149
  247MPD1    H1 3750   1.826   0.411  16.927 -0.5412 -0.9342  2.7546
  247MPD1    H2 3751   1.629   0.629  17.217  1.6652  0.3300  1.1895
  247MPD1    H3 3752   1.715   0.423  17.136 -0.6164  0.9588  1.4479
  247MPD1     N 3753   1.866   0.605  16.748  0.1319 -0.1488  0.3761
  247MPD1    H5 3754   1.889   0.507  16.730 -1.1421  0.0392 -2.2930
  247MPD1    N1 3755   1.643   0.871  17.098  0.8159 -0.5833 -1.1859
  247MPD1    H6 3756   1.665   0.957  17.048 -0.2571 -0.0880 -0.8113
  247MPD1    H7 3757   1.665   0.890  17.196 -0.2347  1.2245 -1.3011
  248MPD1     C 3758   2.491   0.350   0.169  0.1863 -0.2136  0.6495
  248MPD1    C1 3759   2.355   0.375   0.170  0.3706 -0.4043  0.8171
  248MPD1    C2 3760   2.307   0.499   0.151 -0.7907 -0.4043  0.2899
  248MPD1    C3 3761   2.393   0.600   0.107  1.4291  0.0335 -0.0467
  248MPD1    C4 3762   2.528   0.571   0.093  0.0551 -0.6016 -0.2177
  248MPD1    C5 3763   2.575   0.452   0.129  0.0500 -0.0439  0.1316
  248MPD1     H 3764   2.203   0.527   0.158 -0.6511 -0.0032  0.7531
  248MPD1    H1 3765   2.599   0.650   0.070 -0.4514  0.1147  0.6756
  248MPD1    H2 3766   2.535   0.255   0.198  0.3072 -0.5537 -0.6464
  248MPD1    H3 3767   2.680   0.430   0.117 -0.0167  0.0410 -0.6599
  248MPD1     N 3768   2.337   0.728   0.087 -0.3187  0.1844  0.7238
  248MPD1    H5 3769   2.242   0.748   0.116 -0.6365 -0.0038 -0.1989
  248MPD1    N1 3770   2.272   0.269   0.217  0.0369  0.2194  0.6838
  248MPD1    H6 3771   2.311   0.175   0.214  1.2825  0.7394  0.8206
  248MPD1    H7 3772   2.180   0.263   0.174 -0.0002  1.3935  0.6206
  249MPD1     C 3773   0.187   3.122  10.037  0.5426  0.0948  0.0805
  249MPD1    C1 3774   0.286   3.199   9.991 -0.2354  0.5447 -0.5035
  249MPD1    C2 3775   0.262   3.314   9.927  0.3893  0.4725 -0.1904
  249MPD1    C3 3776   0.126   3.348   9.915 -0.0117 -0.1958  0.1399
  249MPD1    C4 3777   0.025   3.270   9.965  0.0840 -0.8196  0.0386
  249MPD1    C5 3778   0.058   3.156  10.027 -0.2369  0.3542  0.5545
  249MPD1     H 3779   0.335   3.386   9.891 -0.4164  1.5078  0.2760
  249MPD1    H1 3780   4.639   3.289   9.952  0.1587  1.0821  2.2042
  249MPD1    H2 3781   0.214   3.036  10.098  1.2860  0.1651 -0.1510
  249MPD1    H3 3782   4.694   3.101  10.069  0.2930  0.0715  1.2392
  249MPD1     N 3783   0.101   3.467   9.846  0.0865  0.2898 -0.0412
  249MPD1    H5 3784   0.181   3.512   9.801 -0.2508  0.0896 -0.8416
  249MPD1    N1 3785   0.419   3.176  10.038  0.6262 -0.0725 -0.0311
  249MPD1    H6 3786   0.490   3.211   9.974  0.1314  0.7019 -0.1675
  249MPD1    H7 3787   0.432   3.078  10.061  0.2047  0.2674  1.6609
  250MPD2     C 3788   0.923   0.045  12.263 -0.6256 -0.1395 -0.0895
  250MPD2    C1 3789   0.807   0.083  12.330  0.7198  0.5362  0.1373
  250MPD2    C2 3790   0.694   0.007  12.324 -0.6312 -0.1639 -0.4141
  250MPD2    C3 3791   0.698   4.605  12.270  0.1771 -0.0307 -0.1057
  250MPD2    C4 3792   0.820   4.562  12.212  0.6911 -0.0720 -0.4804
  250MPD2    C5 3793   0.930   4.644  12.202 -0.0849 -0.0407  0.3569
  250MPD2     H 3794   0.614   0.037  12.390 -1.3083 -1.2631 -0.7237
  250MPD2    H1 3795   0.825   4.461  12.172 -1.0261 -0.1353 -0.5440
  250MPD2    H2 3796   1.008   0.112  12.258 -0.4224 -0.2835  1.4267
  250MPD2    H3 3797   1.017   4.619  12.142  0.1291  3.3213 -0.7548
  250MPD2     N 3798   0.583   4.515  12.262  0.5251 -0.7771 -0.4621
  250MPD2    H5 3799   0.596   4.423  12.221 -0.9151 -0.8718 -0.7083
  250MPD2    N1 3800   0.825   0.208  12.400 -0.8534 -0.6624 -0.3373
  250MPD2    H7 3801   0.915   0.251  12.383 -0.5653 -1.8010 -1.7396
  251TMC3    C1 3802   0.765   0.399  12.527 -0.3174  0.0150 -0.4465
  251TMC3    C2 3803   0.669   0.472  12.578 -0.0351  0.0036 -0.0800
  251TMC3    C3 3804   0.701   0.597  12.633  0.1504 -0.0998 -0.1351
  251TMC3    C4 3805   0.895   0.435  12.539  0.0696 -0.0037 -0.4532
  251TMC3    C5 3806   0.925   0.554  12.594  0.3471  0.0911  0.3253
  251TMC3    C6 3807   0.830   0.637  12.642 -0.1905  0.2158 -0.0291
  251TMC3     C 3808   0.731   0.269  12.476  0.1638  0.2283  0.6134
  251TMC3     O 3809   0.615   0.234  12.490  0.5797  0.0433  0.1594
  251TMC3     H 3810   0.565   0.450  12.559 -0.5707  0.5765  2.1800
  251TMC3    H1 3811   0.978   0.375  12.502 -0.6306 -0.2762 -1.5802
  251TMC3    H2 3812   0.852   0.718  12.711  0.7583 -1.7854  2.0194
  251TMC3    C7 3813   1.065   0.586  12.623  0.3628 -0.8444  0.4172
  251TMC3    C8 3814   0.593   0.678  12.691 -0.2225  0.8563 -0.2116
  251TMC3    O1 3815   1.135   0.492  12.657 -0.4936 -0.2428  0.5619
  251TMC3    O2 3816   0.482   0.622  12.700  0.5102  0.2379  0.4747
  252TMC3    C1 3817   1.969   4.609   8.678  0.6888 -0.1389  0.1412
  252TMC3    C2 3818   2.102   4.657   8.671  0.4951 -0.0284  0.0236
  252TMC3    C3 3819   2.128   0.049   8.751 -0.3595  1.2761  0.8694
  252TMC3    C4 3820   1.873   4.678   8.742 -0.7508  0.5022  0.3252
  252TMC3    C5 3821   1.909   0.064   8.814  0.4648 -0.0173 -0.6945
  252TMC3    C6 3822   2.034   0.113   8.822 -0.8288 -0.0552  0.0293
  252TMC3     C 3823   1.926   4.502   8.591  0.5145 -0.4228  0.0503
  252TMC3     O 3824   2.019   4.465   8.524 -0.1791 -0.3533  0.2970
  252TMC3     H 3825   2.186   4.607   8.624  0.2158  0.3986 -0.9271
  252TMC3    H1 3826   1.766   4.659   8.739 -0.4581 -1.1451  0.3098
  252TMC3    H2 3827   2.054   0.198   8.886 -0.7087 -0.6279  0.7541
  252TMC3    C7 3828   1.809   0.142   8.887 -0.4705 -0.5908  0.7528
  252TMC3    C8 3829   2.267   0.070   8.774  0.9709  0.4940 -0.0009
  252TMC3    O1 3830   1.842   0.252   8.922  0.5326 -0.7432 -0.4313
  252TMC3    O2 3831   2.347   4.704   8.737  0.5993 -0.1254 -0.2376
  253MPD2     C 3832   2.313   0.232  15.592 -0.0891 -0.2850  0.0791
  253MPD2    C1 3833   2.184   0.197  15.568  0.4185 -0.6800 -0.4578
  253MPD2    C2 3834   2.120   0.120  15.660  0.0718 -0.2785  0.1002
  253MPD2    C3 3835   2.175   0.085  15.783  0.0099 -0.2831 -0.7616
  253MPD2    C4 3836   2.308   0.117  15.798  0.2258  0.5655  0.3297
  253MPD2    C5 3837   2.382   0.185  15.704  0.2389 -0.3748  0.1981
  253MPD2     H 3838   2.016   0.102  15.636 -0.2339 -0.5869  1.6415
  253MPD2    H1 3839   2.356   0.102  15.893  1.3639 -3.6919 -0.8984
  253MPD2    H2 3840   2.362   0.308  15.532  1.4382 -1.5657 -0.2817
  253MPD2    H3 3841   2.479   0.229  15.724  0.4051 -1.3029  1.4088
  253MPD2     N 3842   2.104   0.024  15.893  0.1486 -0.1643  0.4509
  253MPD2    H5 3843   2.148   0.016  15.984 -1.6118  0.7405  1.3762
  253MPD2    N1 3844   2.110   0.238  15.460  0.1238 -0.2730 -0.1082
  253MPD2    H7 3845   2.017   0.200  15.448 -0.2830  1.6178 -2.9513
  254TMC3    C1 3846   1.923   4.686  16.025  0.1386 -0.0565  0.0014
  254TMC3    C2 3847   1.795   0.007  16.044  0.2083  0.0758 -0.4740
  254TMC3    C3 3848   1.735   4.671  16.150  0.2333  0.3449 -1.0232
  254TMC3    C4 3849   1.986   4.592  16.104  0.3188  0.4473  0.1844
  254TMC3    C5 3850   1.918   4.535  16.208  0.7479  0.3377 -0.5858
  254TMC3    C6 3851   1.783   4.569  16.222 -0.0411 -0.7888  0.0912
  254TMC3     C 3852   1.972   4.711  15.896  0.0056  0.2661 -0.0888
  254TMC3     O 3853   1.886   0.009  15.813  0.5299  0.2024 -0.4418
  254TMC3     H 3854   1.732   0.071  15.983 -1.2649  0.7999  1.8111
  254TMC3    H1 3855   2.091   4.569  16.094 -0.0388 -2.5467  3.1060
  254TMC3    H2 3856   1.737   4.542  16.317  2.7343  0.5893  1.8170
  254TMC3    C7 3857   1.975   4.467  16.324 -0.0820 -0.0286 -0.1838
  254TMC3    C8 3858   1.630   0.019  16.225  0.0189 -0.5329  0.2290
  254TMC3    O1 3859   1.915   4.461  16.434 -0.0054  0.2274 -0.4479
  254TMC3    O2 3860   1.604   4.707  16.339  0.1709 -0.1788 -0.2979
  255MPD2     C 3861   0.314   2.749  10.332 -0.1204 -0.6008  0.2621
  255MPD2    C1 3862   0.262   2.754  10.202 -0.0031 -0.6556 -0.5596
  255MPD2    C2 3863   0.336   2.800  10.100  0.2433  0.2371 -0.6394
  255MPD2    C3 3864   0.469   2.816  10.111  0.2525  0.2825  0.2814
  255MPD2    C4 3865   0.522   2.807  10.243  0.5095 -0.9148 -0.4771
  255MPD2    C5 3866   0.447   2.772  10.339 -0.4895  0.8053  0.0094
  255MPD2     H 3867   0.292   2.802  10.001 -1.0290  1.3464 -0.0577
  255MPD2    H1 3868   0.625   2.818  10.272  0.8727 -0.3107 -2.0126
  255MPD2    H2 3869   0.260   2.710  10.418 -0.0155 -2.7049 -0.6329
  255MPD2    H3 3870   0.496   2.781  10.436 -0.6568 -0.1114  0.1785
  255MPD2     N 3871   0.544   2.840   9.996  0.7548  0.2780 -0.0021
  255MPD2    H5 3872   0.500   2.833   9.905 -2.9318  1.7609  1.6174
  255MPD2    N1 3873   0.132   2.704  10.183  0.0792 -0.9747  0.0259
  255MPD2    H7 3874   0.079   2.671  10.263 -2.7591  0.2613 -1.3756
  256TMC3    C1 3875   4.635   2.699  10.090  0.5436  0.7075 -0.4248
  256TMC3    C2 3876   4.568   2.803  10.041 -1.0659 -0.4291 -0.2478
  256TMC3    C3 3877   4.475   2.786   9.945 -0.1769  0.1239 -0.1613
  256TMC3    C4 3878   4.595   2.569  10.057  0.3559  0.6334  0.2868
  256TMC3    C5 3879   4.485   2.555   9.976  0.5465 -0.2105 -0.3998
  256TMC3    C6 3880   4.437   2.664   9.908  0.0188  0.3590 -0.6747
  256TMC3     C 3881   0.053   2.725  10.070  0.4280  0.2816  0.5909
  256TMC3     O 3882   0.081   2.776   9.963 -0.4806 -0.0579 -0.1236
  256TMC3     H 3883   4.584   2.906  10.071 -1.2863 -0.1294 -1.1507
  256TMC3    H1 3884   4.659   2.486  10.086 -0.8018 -0.0506  0.9165
  256TMC3    H2 3885   4.361   2.655   9.831  0.9288 -1.8529 -1.3196
  256TMC3    C7 3886   4.466   2.425   9.911 -0.4466  0.0034  0.9517
  256TMC3    C8 3887   4.477   2.882   9.839 -0.6080  0.4874 -0.0784
  256TMC3    O1 3888   4.428   2.427   9.796 -0.4193  0.0479 -0.8384
  256TMC3    O2 3889   4.369   2.898   9.775 -0.0190 -0.0544 -0.4697
  257MPD2     C 3890   4.542   0.322  13.003  0.2757 -0.2345 -0.3537
  257MPD2    C1 3891   4.528   0.216  12.918  0.2956  0.7612  0.4492
  257MPD2    C2 3892   4.514   0.090  12.973  0.6073 -0.6940 -0.8266
  257MPD2    C3 3893   4.520   0.076  13.112 -0.2214  0.4439  0.4068
  257MPD2    C4 3894   4.518   0.183  13.190  0.5425 -0.2581  0.3246
  257MPD2    C5 3895   4.526   0.307  13.138  0.3472 -0.1282 -0.4581
  257MPD2     H 3896   4.511   4.718  12.916  2.7307 -0.9423 -0.5323
  257MPD2    H1 3897   4.503   0.177  13.297  1.7812 -1.2757  0.4344
  257MPD2    H2 3898   4.553   0.424  12.966  0.3311  0.5601  1.8321
  257MPD2    H3 3899   4.518   0.391  13.205  1.9788 -1.0084  0.8593
  257MPD2     N 3900   4.527   4.663  13.159  0.9322 -0.1336 -0.2595
  257MPD2    H5 3901   4.536   4.591  13.088  1.7401 -0.6976  0.4136
  257MPD2    N1 3902   4.530   0.239  12.778  0.2704  0.0541 -0.7240
  257MPD2    H7 3903   4.524   0.338  12.753  1.3376  0.5413  0.9219
  258TMC3    C1 3904   4.516   4.478  13.297  0.2095 -0.1976  0.2757
  258TMC3    C2 3905   4.551   4.402  13.193 -0.0564 -0.2155 -0.1266
  258TMC3    C3 3906   4.541   4.269  13.204  0.5630  0.0590 -0.1309
  258TMC3    C4 3907   4.458   4.421  13.407 -0.3370 -0.3055 -0.1036
  258TMC3    C5 3908   4.448   4.282  13.421  0.4508 -0.1477 -0.2825
  258TMC3    C6 3909   4.493   4.207  13.318  0.3402  0.0721 -0.3822
  258TMC3     C 3910   4.503   4.623  13.283 -0.8984  0.1030 -0.4667
  258TMC3     O 3911   4.474   4.690  13.382 -0.7331  0.3214 -0.1712
  258TMC3     H 3912   4.593   4.441  13.101  2.9267  1.1554  1.8217
  258TMC3    H1 3913   4.430   4.484  13.490  2.4178 -0.1903  0.7407
  258TMC3    H2 3914   4.460   4.104  13.327  1.9370 -0.3884  0.2751
  258TMC3    C7 3915   4.424   4.245  13.556 -0.3927  0.4566  0.5392
  258TMC3    C8 3916   4.554   4.187  13.083  0.1500 -0.1970  0.3787
  258TMC3    O1 3917   4.341   4.310  13.615 -0.6564  0.2756  0.4816
  258TMC3    O2 3918   4.545   4.233  12.968 -0.2543 -0.2158 -0.0693
  259MPD2     C 3919   2.579   1.272   0.723 -0.5041  0.2521 -0.3473
  259MPD2    C1 3920   2.580   1.142   0.753 -0.6915  0.7687 -0.0943
  259MPD2    C2 3921   2.669   1.063   0.687  0.4467  0.3154  0.1814
  259MPD2    C3 3922   2.759   1.119   0.599 -0.9147  0.5063  0.6769
  259MPD2    C4 3923   2.764   1.256   0.571  0.2805 -0.0112  0.8601
  259MPD2    C5 3924   2.667   1.328   0.637 -0.0480 -0.1638  0.1198
  259MPD2     H 3925   2.671   0.956   0.704 -1.9833  0.2870  0.3378
  259MPD2    H1 3926   2.832   1.311   0.507  1.0356 -1.2695  0.5822
  259MPD2    H2 3927   2.507   1.338   0.770  0.9056  2.2750 -1.0130
  259MPD2    H3 3928   2.664   1.436   0.628 -0.6465 -0.0661  1.4116
  259MPD2     N 3929   2.856   1.031   0.546 -0.4232 -0.2694 -0.4428
  259MPD2    H5 3930   2.890   0.960   0.610  0.5562 -2.0676 -2.9673
  259MPD2    N1 3931   2.490   1.097   0.846 -0.5934  0.0004  0.1610
  259MPD2    H7 3932   2.439   1.167   0.900 -0.4254 -0.5082  0.9889
  260TMC3    C1 3933   3.034   0.971   0.410 -0.0262  0.1432  0.2859
  260TMC3    C2 3934   3.137   1.005   0.335 -0.3575  0.8368 -0.1648
  260TMC3    C3 3935   3.224   0.915   0.290  0.3870  0.2991  0.0781
  260TMC3    C4 3936   3.008   0.837   0.441  0.4452  0.3944  0.0612
  260TMC3    C5 3937   3.100   0.744   0.399  0.2296  0.2003 -0.0783
  260TMC3    C6 3938   3.208   0.783   0.320  0.2297 -0.3434 -0.0116
  260TMC3     C 3939   2.936   1.067   0.437  0.4350 -0.7209 -0.3279
  260TMC3     O 3940   2.926   1.160   0.356 -0.0281  0.1046 -0.1978
  260TMC3     H 3941   3.155   1.108   0.309  0.9818  1.0954  1.8089
  260TMC3    H1 3942   2.912   0.810   0.483  0.0708 -0.2536 -1.2015
  260TMC3    H2 3943   3.277   0.714   0.271 -0.3793 -2.7095  2.4514
  260TMC3    C7 3944   3.091   0.600   0.427  0.2167  0.3555 -0.1149
  260TMC3    C8 3945   3.355   0.966   0.255 -0.2822 -0.1101 -0.5576
  260TMC3    O1 3946   3.200   0.546   0.442  0.0677  0.5564 -0.0580
  260TMC3    O2 3947   3.357   1.074   0.195 -0.3466 -0.1464  0.2268
  261MPD2     C 3948   0.089   4.324  11.749  0.6272 -0.1427  0.4468
  261MPD2    C1 3949   0.149   4.427  11.822 -0.2542  0.4239 -0.5067
  261MPD2    C2 3950   0.192   4.535  11.745  0.1109  0.0982 -0.2973
  261MPD2    C3 3951   0.206   4.538  11.607  0.6707  0.7486 -0.2899
  261MPD2    C4 3952   0.173   4.422  11.540 -0.0689 -0.4609 -0.7035
  261MPD2    C5 3953   0.100   4.318  11.615 -0.4800  0.3700  0.5850
  261MPD2     H 3954   0.223   4.620  11.805 -0.1021 -1.5431  2.1807
  261MPD2    H1 3955   0.187   4.428  11.433 -1.9165  0.6674 -0.8951
  261MPD2    H2 3956   0.049   4.236  11.799  0.8871 -1.1636 -1.1427
  261MPD2    H3 3957   0.070   4.230  11.559 -0.6100  0.2787  0.8009
  261MPD2     N 3958   0.249   4.651  11.533 -0.2196 -0.0939  0.1756
  261MPD2    H5 3959   0.248   4.639  11.433 -0.8292  2.9552 -0.2023
  261MPD2    N1 3960   0.152   4.431  11.964 -0.3567 -0.0128  0.1024
  261MPD2    H7 3961   0.211   4.501  12.006  0.8977  0.3800 -2.3130
  262TMC3    C1 3962   0.279   0.165  11.496 -1.4196 -0.4371 -0.0732
  262TMC3    C2 3963   0.221   0.288  11.521 -0.1005  0.3223  0.2571
  262TMC3    C3 3964   0.268   0.398  11.456 -0.1986  0.4768 -0.4620
  262TMC3    C4 3965   0.382   0.159  11.410  0.1216  0.2136  0.1448
  262TMC3    C5 3966   0.424   0.265  11.337 -0.8430 -0.3310 -0.2594
  262TMC3    C6 3967   0.373   0.387  11.364 -0.2083  0.0694 -0.5715
  262TMC3     C 3968   0.259   0.058  11.585 -0.2759 -0.5732 -0.8083
  262TMC3     O 3969   0.246   0.095  11.700 -0.2504  0.0515  0.3460
  262TMC3     H 3970   0.136   0.295  11.588  0.8226  4.8847  0.9406
  262TMC3    H1 3971   0.434   0.064  11.399 -2.2826 -0.9832 -0.7263
  262TMC3    H2 3972   0.418   0.470  11.310  0.9730  1.1941  2.1645
  262TMC3    C7 3973   0.561   0.268  11.307  0.5355 -0.6727  0.3332
  262TMC3    C8 3974   0.236   0.538  11.495  0.0903 -0.8666 -0.3111
  262TMC3    O1 3975   0.628   0.210  11.386  0.2403 -0.5684  0.6367
  262TMC3    O2 3976   0.286   0.632  11.429  0.1424  0.4313  0.1951
  263MPD2     C 3977   1.059   3.866  11.256  0.2739 -0.5289  0.3366
  263MPD2    C1 3978   1.125   3.953  11.343 -0.3170 -0.4278  0.1348
  263MPD2    C2 3979   1.183   4.065  11.283 -0.1477  0.2080 -0.3926
  263MPD2    C3 3980   1.176   4.086  11.151 -0.4905 -0.3818 -0.3658
  263MPD2    C4 3981   1.124   3.992  11.065 -0.4891 -0.0221  0.1351
  263MPD2    C5 3982   1.066   3.884  11.119  0.6162  0.4725  0.2221
  263MPD2     H 3983   1.220   4.143  11.349 -0.5888 -1.1150  1.4242
  263MPD2    H1 3984   1.126   4.020  10.960  2.9976 -0.2528  0.1507
  263MPD2    H2 3985   1.010   3.779  11.298 -1.3261 -0.1314 -0.6976
  263MPD2    H3 3986   1.007   3.809  11.068  1.3106  0.7742 -1.0217
  263MPD2     N 3987   1.229   4.205  11.091 -0.3877  0.6791 -0.1588
  263MPD2    H5 3988   1.242   4.212  10.990 -0.5765 -2.8480 -0.4277
  263MPD2    N1 3989   1.117   3.933  11.481 -0.0341  0.2564  0.4626
  263MPD2    H7 3990   1.063   3.851  11.510 -1.2898 -0.2190 -3.1834
  264TMC3    C1 3991   1.309   4.428  11.054 -0.2889  0.1770  0.4765
  264TMC3    C2 3992   1.275   4.563  11.085 -0.3652  1.0143 -0.5435
  264TMC3    C3 3993   1.317   4.652  10.992 -0.5381  0.0856 -0.3542
  264TMC3    C4 3994   1.390   4.387  10.951 -0.5301  0.3095 -0.1113
  264TMC3    C5 3995   1.439   4.485  10.870 -0.6009  0.2219 -0.5147
  264TMC3    C6 3996   1.391   4.616  10.879 -0.2280 -0.0604 -0.0057
  264TMC3     C 3997   1.254   4.328  11.148  0.3933  0.1936  0.2995
  264TMC3     O 3998   1.217   4.377  11.254 -0.3476 -0.3849  0.3935
  264TMC3     H 3999   1.224   4.595  11.175 -2.0914  1.0328 -1.5316
  264TMC3    H1 4000   1.426   4.285  10.949  1.4479  0.9697  1.5932
  264TMC3    H2 4001   1.415   4.695  10.808 -0.0934 -0.7777 -0.7540
  264TMC3    C7 4002   1.553   4.448  10.786 -0.1493  0.0393 -0.9026
  264TMC3    C8 4003   1.370   0.057  11.038 -0.2335  0.2122 -0.0517
  264TMC3    O1 4004   1.588   4.330  10.784 -0.0122  0.2380 -0.0924
  264TMC3    O2 4005   1.473   0.082  10.983  0.2994  0.2722  0.0357
  265MPD2     C 4006   3.795   4.667  15.345 -0.4405  0.0260 -0.2229
  265MPD2    C1 4007   3.687   4.605  15.281  0.0865  0.2370  0.2002
  265MPD2    C2 4008   3.723   4.534  15.171  0.1286 -0.3914  0.4167
  265MPD2    C3 4009   3.853   4.530  15.115 -0.0191 -0.2914 -0.2563
  265MPD2    C4 4010   3.950   4.610  15.171  0.4579  0.8937  0.2357
  265MPD2    C5 4011   3.918   4.673  15.289 -0.2973  0.3484  0.3548
  265MPD2     H 4012   3.640   4.477  15.130 -1.6022  1.8874  0.7405
  265MPD2    H1 4013   4.044   4.628  15.120  0.2282 -0.0638 -0.5466
  265MPD2    H2 4014   3.781   0.004  15.436 -2.3286  2.4769 -2.0498
  265MPD2    H3 4015   3.996   0.017  15.327 -1.2155  2.0753 -0.6684
  265MPD2     N 4016   3.887   4.475  14.987 -0.0781 -0.4861  0.3183
  265MPD2    H5 4017   3.983   4.479  14.956  0.5285 -0.1286  2.3025
  265MPD2    N1 4018   3.555   4.586  15.342  0.0032 -0.0624  0.2551
  265MPD2    H7 4019   3.483   4.542  15.285  1.9880 -0.7065 -1.7486
  266TMC3    C1 4020   3.390   4.588  15.505 -0.4223  0.2228  0.4664
  266TMC3    C2 4021   3.346   4.618  15.633 -0.1022 -0.0653 -0.0213
  266TMC3    C3 4022   3.224   4.586  15.672  0.6536 -0.0697 -0.2738
  266TMC3    C4 4023   3.314   4.512  15.421 -0.4595  0.1795 -0.5220
  266TMC3    C5 4024   3.189   4.486  15.461  0.0211 -0.3822 -0.2440
  266TMC3    C6 4025   3.140   4.521  15.589 -0.3548  0.3632  0.5077
  266TMC3     C 4026   3.523   4.629  15.467  0.5610  0.5247 -0.3434
  266TMC3     O 4027   3.586   4.694  15.554 -0.1710  0.1242 -0.5961
  266TMC3     H 4028   3.412   4.660  15.708  0.5596 -0.0485 -0.6106
  266TMC3    H1 4029   3.335   4.506  15.315 -1.0732 -0.1736 -0.6227
  266TMC3    H2 4030   3.039   4.501  15.624  0.7026 -2.2740  2.0686
  266TMC3    C7 4031   3.110   4.417  15.355 -0.1433  0.5420 -0.0168
  266TMC3    C8 4032   3.181   4.592  15.816  0.0680 -0.6776 -0.2437
  266TMC3    O1 4033   3.178   4.342  15.285  0.8428  0.4273  0.0316
  266TMC3    O2 4034   3.148   4.488  15.866 -0.0522  0.0668  0.6553
  267MPD2     C 4035   0.867   0.252  17.676  0.0736  0.6320 -0.0512
  267MPD2    C1 4036   0.885   0.391   0.019 -0.1471 -0.1784 -0.7070
  267MPD2    C2 4037   0.775   0.472   0.024  0.5218 -0.3102 -0.4402
  267MPD2    C3 4038   0.647   0.419  17.673  0.5143 -0.2118 -0.4332
  267MPD2    C4 4039   0.632   0.284  17.668 -0.1584 -0.2633 -0.6857
  267MPD2    C5 4040   0.742   0.199  17.671 -1.0605 -0.4399  0.4134
  267MPD2     H 4041   0.774   0.580   0.037  0.8265 -0.4103  0.3970
  267MPD2    H1 4042   0.533   0.240  17.656 -0.1307 -0.3904 -0.4417
  267MPD2    H2 4043   0.953   0.186  17.676 -0.1912  0.2932  1.3292
  267MPD2    H3 4044   0.731   0.091  17.664  0.8128 -0.6702  0.9391
  267MPD2     N 4045   0.536   0.502  17.658 -0.1248 -0.1403 -0.3934
  267MPD2    H5 4046   0.444   0.461  17.658  0.9288 -2.4937 -1.0130
  267MPD2    N1 4047   1.019   0.435   0.040  0.7220  0.2236  0.4060
  267MPD2    H7 4048   1.090   0.364   0.026 -1.8465 -1.8557 -2.0104
  268TMC3    C1 4049   1.191   0.587   0.119 -0.4979 -0.1320 -0.6263
  268TMC3    C2 4050   1.230   0.715   0.138 -0.1459 -0.2229 -0.4054
  268TMC3    C3 4051   1.340   0.730   0.221 -0.4990 -0.1272 -0.1740
  268TMC3    C4 4052   1.244   0.487   0.199 -0.0599  0.2072 -0.3675
  268TMC3    C5 4053   1.340   0.519   0.301 -0.1488  0.4098  0.4879
  268TMC3    C6 4054   1.387   0.647   0.314 -0.2620 -0.2080 -0.5157
  268TMC3     C 4055   1.054   0.565   0.078  0.0178  0.5031 -0.5063
  268TMC3     O 4056   0.983   0.662   0.099  0.5580 -0.2462 -0.1292
  268TMC3     H 4057   1.178   0.786   0.075  0.6348 -1.1391 -2.0843
  268TMC3    H1 4058   1.212   0.384   0.194 -1.5091  0.6922 -0.9682
  268TMC3    H2 4059   1.473   0.677   0.373 -0.1216 -1.3980 -0.1138
  268TMC3    C7 4060   1.360   0.426   0.408 -0.4686 -0.3696  0.2156
  268TMC3    C8 4061   1.386   0.870   0.238  0.8242 -0.7376 -0.6252
  268TMC3    O1 4062   1.267   0.343   0.419  0.8906  0.0833 -0.2729
  268TMC3    O2 4063   1.457   0.899   0.334  0.4633  0.0339 -0.5062
  269MPD2     C 4064   1.272   0.436  15.320  0.8244  0.4713  0.1484
  269MPD2    C1 4065   1.140   0.429  15.353 -0.7215 -0.0209 -0.0532
  269MPD2    C2 4066   1.067   0.546  15.350 -0.3162  0.4260 -0.3393
  269MPD2    C3 4067   1.125   0.672  15.325 -0.7069 -0.4306 -0.0693
  269MPD2    C4 4068   1.264   0.670  15.305  0.2269 -0.2601  0.5950
  269MPD2    C5 4069   1.332   0.558  15.297 -0.6641  0.4591 -0.0744
  269MPD2     H 4070   0.959   0.547  15.361 -0.3129 -0.2109 -0.2015
  269MPD2    H1 4071   1.322   0.759  15.283 -3.5927  2.5398  1.8429
  269MPD2    H2 4072   1.329   0.344  15.323  1.1923  0.7071  0.3643
  269MPD2    H3 4073   1.434   0.558  15.262 -1.1857 -1.8594 -1.6415
  269MPD2     N 4074   1.041   0.791  15.330 -0.2875 -0.0733 -0.7163
  269MPD2    H5 4075   0.944   0.771  15.352 -0.3872 -0.4165 -1.4581
  269MPD2    N1 4076   1.090   0.296  15.374  0.4043  0.3306 -0.2816
  269MPD2    H7 4077   1.156   0.218  15.372  0.4668  0.2886  2.2739
  270TMC3    C1 4078   0.939   0.122  15.421 -0.1976 -0.5147 -0.0678
  270TMC3    C2 4079   0.811   0.080  15.388 -0.2872  0.6887 -0.3757
  270TMC3    C3 4080   0.794   4.663  15.381  0.4816 -0.2896 -0.0042
  270TMC3    C4 4081   1.041   0.028  15.439 -0.0123 -0.0315  0.4043
  270TMC3    C5 4082   1.009   4.616  15.434  0.5355  0.8475 -0.1750
  270TMC3    C6 4083   0.888   4.571  15.395  0.6605  0.8251 -0.1266
  270TMC3     C 4084   0.961   0.264  15.395  0.4539 -0.9485  0.1202
  270TMC3     O 4085   0.859   0.336  15.381  0.0485  0.2975 -0.4618
  270TMC3     H 4086   0.736   0.152  15.355 -0.1975  1.8465  1.9302
  270TMC3    H1 4087   1.144   0.047  15.467  0.5687 -1.6267 -0.6045
  270TMC3    H2 4088   0.868   4.464  15.394 -1.5029  1.2347 -0.5694
  270TMC3    C7 4089   1.129   4.531  15.441  0.1934  0.9614 -0.2759
  270TMC3    C8 4090   0.684   4.624  15.294 -0.5003 -0.2449 -0.2303
  270TMC3    O1 4091   1.218   4.571  15.518  0.0435  0.0223 -0.5272
  270TMC3    O2 4092   0.583   4.692  15.297  0.0042  0.2593 -0.3394
  271MPD2     C 4093   0.220   0.040  13.813 -0.0210  0.1342 -0.4838
  271MPD2    C1 4094   0.169   0.009  13.942  0.2608  0.3726  0.3759
  271MPD2    C2 4095   0.038   0.037  13.968  0.3018  0.2906  0.0514
  271MPD2    C3 4096   4.670   0.089  13.865  0.5052  1.2598  0.1012
  271MPD2    C4 4097   0.011   0.129  13.746  0.7744 -0.2425 -0.2495
  271MPD2    C5 4098   0.140   0.106  13.718 -0.0416 -0.6089  0.1210
  271MPD2     H 4099   4.712   4.714  14.056 -1.4540 -2.3741 -2.1653
  271MPD2    H1 4100   4.671   0.167  13.665 -0.1555 -0.1669  0.4829
  271MPD2    H2 4101   0.324   0.026  13.784  0.2123  0.6510  0.0940
  271MPD2    H3 4102   0.185   0.143  13.626 -2.8106 -0.7600 -1.2877
  271MPD2     N 4103   4.534   0.121  13.889 -0.2326  0.0254  0.2955
  271MPD2    H5 4104   4.484   0.161  13.810 -1.5249 -3.1106 -0.4812
  271MPD2    N1 4105   0.248   4.668  14.039  0.1209 -0.6683  0.1457
  271MPD2    H7 4106   0.218   4.670  14.135  2.0561  1.0348  0.7202
  272TMC3    C1 4107   0.437   4.542  14.113  0.1409  1.1740  0.5160
  272TMC3    C2 4108   0.543   4.459  14.080  0.3712 -0.1977  0.4389
  272TMC3    C3 4109   0.600   4.388  14.181  0.2967  0.0592 -0.2146
  272TMC3    C4 4110   0.398   4.568  14.243 -0.7363  0.4578  0.4583
  272TMC3    C5 4111   0.453   4.487  14.340 -0.4602  0.4360  0.3547
  272TMC3    C6 4112   0.560   4.400  14.315 -0.0956 -0.4988 -0.0114
  272TMC3     C 4113   0.363   4.595  14.005  0.0514 -1.4600 -0.9135
  272TMC3     O 4114   0.389   4.555  13.893 -0.1439  0.5263  0.2124
  272TMC3     H 4115   0.584   4.452  13.981  0.6958  1.1812  0.4775
  272TMC3    H1 4116   0.327   4.648  14.260 -0.8623  0.4380  0.0199
  272TMC3    H2 4117   0.628   4.373  14.395 -0.2458  1.5242  0.7946
  272TMC3    C7 4118   0.459   4.542  14.470  0.4597  0.2485 -0.5294
  272TMC3    C8 4119   0.718   4.311  14.149 -0.2075 -0.3230  0.3657
  272TMC3    O1 4120   0.569   4.537  14.524 -0.2955  0.1563 -0.4941
  272TMC3    O2 4121   0.771   4.328  14.040  0.2053 -0.4784  0.0533
  273MPD2     C 4122   1.778   2.422  12.087  0.0853 -0.4123 -0.2067
  273MPD2    C1 4123   1.812   2.551  12.058  0.4804 -0.1024 -0.6363
  273MPD2    C2 4124   1.724   2.629  11.990  0.3716  0.3526 -0.2367
  273MPD2    C3 4125   1.602   2.581  11.948 -0.3335 -0.2740 -0.2541
  273MPD2    C4 4126   1.568   2.446  11.975 -0.2982  0.3517  0.1107
  273MPD2    C5 4127   1.662   2.368  12.038  0.3157  0.2108 -0.1926
  273MPD2     H 4128   1.736   2.736  11.983  0.3568  0.3750  0.0909
  273MPD2    H1 4129   1.483   2.402  11.925 -0.8997  0.4976  1.0082
  273MPD2    H2 4130   1.849   2.350  12.127  0.1017 -0.2420  0.0643
  273MPD2    H3 4131   1.651   2.266  12.071 -0.7612  0.3208 -0.2117
  273MPD2     N 4132   1.509   2.658  11.874  0.3170 -0.1778  0.3531
  273MPD2    H5 4133   1.421   2.610  11.860  1.2927 -1.0953 -2.6466
  273MPD2    N1 4134   1.933   2.603  12.112  0.2204 -0.1575 -0.6982
  273MPD2    H7 4135   1.992   2.541  12.167  1.3173  2.3159  0.8716
  274TMC3    C1 4136   1.379   2.833  11.816  0.3027  0.5312  0.1033
  274TMC3    C2 4137   1.284   2.746  11.765  0.0067  0.0388 -0.3646
  274TMC3    C3 4138   1.150   2.775  11.784 -0.1506 -0.3777  0.1476
  274TMC3    C4 4139   1.348   2.948  11.881 -0.4370 -0.2987 -0.1969
  274TMC3    C5 4140   1.216   2.982  11.881 -0.1360  1.0157  0.3155
  274TMC3    C6 4141   1.120   2.889  11.848  0.5437 -0.3533  0.5218
  274TMC3     C 4142   1.514   2.790  11.834  0.1204 -0.2610 -0.0709
  274TMC3     O 4143   1.607   2.868  11.845 -0.0408 -0.1530  0.4039
  274TMC3     H 4144   1.325   2.658  11.715  0.9233 -1.4860  3.0856
  274TMC3    H1 4145   1.422   3.015  11.922 -0.9491  0.1093  0.0733
  274TMC3    H2 4146   1.021   2.933  11.841  1.0556  0.6637 -0.2950
  274TMC3    C7 4147   1.182   3.108  11.938  0.1525 -0.2240  0.0551
  274TMC3    C8 4148   1.063   2.741  11.672 -0.1363  0.0313 -0.3398
  274TMC3    O1 4149   1.270   3.188  11.945  0.6280  0.0230 -0.5803
  274TMC3    O2 4150   0.965   2.815  11.645 -0.5684 -0.2745  0.8327
  275MPD2     C 4151   2.104   0.868  14.237  0.6008 -0.6864  0.5523
  275MPD2    C1 4152   2.006   0.911  14.316 -0.2122 -0.1221 -0.6345
  275MPD2    C2 4153   1.875   0.861  14.316 -0.2577  0.1045  0.6304
  275MPD2    C3 4154   1.839   0.762  14.226 -0.3561 -0.1494 -0.4688
  275MPD2    C4 4155   1.939   0.718  14.143  0.0784  0.2591  0.6557
  275MPD2    C5 4156   2.069   0.764  14.148 -0.1994  0.8946  0.2560
  275MPD2     H 4157   1.798   0.902  14.381 -2.1123 -2.5819  0.1758
  275MPD2    H1 4158   1.916   0.640  14.072 -0.8060 -0.2562  1.5165
  275MPD2    H2 4159   2.204   0.909  14.231  0.4918 -0.6965 -1.4585
  275MPD2    H3 4160   2.140   0.724  14.076 -0.6618  1.6167 -0.5950
  275MPD2     N 4161   1.709   0.713  14.204  0.1457  0.0788  0.4260
  275MPD2    H5 4162   1.693   0.652  14.124 -1.0034  1.6106 -0.4951
  275MPD2    N1 4163   2.021   1.010  14.418  0.2763  0.2274  0.1113
  275MPD2    H7 4164   1.940   1.031  14.476 -0.7447 -2.0339 -0.4907
  276TMC3    C1 4165   2.102   1.141  14.583 -0.8736 -0.3826 -0.0363
  276TMC3    C2 4166   1.978   1.178  14.615  0.0996 -0.1903  0.0296
  276TMC3    C3 4167   1.953   1.198  14.751 -0.7793 -0.5404 -0.3216
  276TMC3    C4 4168   2.221   1.144  14.664  0.6534 -0.3531 -0.7678
  276TMC3    C5 4169   2.181   1.180  14.791  0.5048 -0.2708 -0.5267
  276TMC3    C6 4170   2.052   1.205  14.845 -0.0305 -0.1251  0.1476
  276TMC3     C 4171   2.132   1.068  14.463 -0.2130  0.5407 -0.0653
  276TMC3     O 4172   2.249   1.069  14.413 -0.5730  0.1443  0.7350
  276TMC3     H 4173   1.896   1.185  14.545 -0.9327 -1.3854  1.0925
  276TMC3    H1 4174   2.315   1.110  14.623 -0.2245 -2.2925 -1.1990
  276TMC3    H2 4175   2.028   1.230  14.947 -0.1464  0.3228  0.0124
  276TMC3    C7 4176   2.282   1.164  14.900 -0.1876  0.1410  0.1552
  276TMC3    C8 4177   1.832   1.151  14.798  0.4097  0.0137  0.0255
  276TMC3    O1 4178   2.237   1.166  15.014 -0.1055  0.4415 -0.1778
  276TMC3    O2 4179   1.732   1.199  14.742  0.1469  0.3979 -0.1802
  277MPD2     C 4180   3.454   4.645  13.229  0.4496 -0.0136 -0.0475
  277MPD2    C1 4181   3.322   4.612  13.200  0.1113  0.2152 -0.3189
  277MPD2    C2 4182   3.249   4.548  13.297 -0.5563 -0.3137  0.1736
  277MPD2    C3 4183   3.292   4.537  13.422 -0.3038  0.6264  0.5690
  277MPD2    C4 4184   3.413   4.581  13.453 -0.4002 -0.3505 -0.7797
  277MPD2    C5 4185   3.494   4.638  13.361  0.9809  0.3253  0.6265
  277MPD2     H 4186   3.150   4.513  13.272  0.1281 -2.0318 -0.1111
  277MPD2    H1 4187   3.454   4.563  13.552 -1.1681  1.7109 -0.0883
  277MPD2    H2 4188   3.519   4.697  13.159 -0.1269 -1.1048 -1.3821
  277MPD2    H3 4189   3.591   4.675  13.390  3.0480 -1.3137 -4.1917
  277MPD2     N 4190   3.211   4.469  13.516  0.3830  0.1938 -0.2427
  277MPD2    H5 4191   3.127   4.435  13.469  0.1873 -0.1495  0.3592
  277MPD2    N1 4192   3.277   4.648  13.074 -0.3104 -0.5751  0.3724
  277MPD2    H7 4193   3.353   4.693  13.023  0.3684 -0.8497  1.1411
  278TMC3    C1 4194   3.113   4.418  13.732  0.0011 -0.2931 -0.7939
  278TMC3    C2 4195   3.042   4.314  13.677  0.3275  0.3188 -0.5335
  278TMC3    C3 4196   2.922   4.276  13.741 -0.0723  0.1807  0.1595
  278TMC3    C4 4197   3.080   4.479  13.851  0.7684 -0.2715 -0.4764
  278TMC3    C5 4198   2.965   4.441  13.906  0.5735  0.0916  0.3030
  278TMC3    C6 4199   2.889   4.335  13.864  0.6150 -0.2357 -1.5340
  278TMC3     C 4200   3.213   4.490  13.655  1.0982 -0.3759  0.5242
  278TMC3     O 4201   3.296   4.539  13.731 -0.3691  0.0151 -0.6796
  278TMC3     H 4202   3.067   4.268  13.582 -1.2417  0.4095 -0.9877
  278TMC3    H1 4203   3.132   4.564  13.895 -1.6746 -0.5748  2.9202
  278TMC3    H2 4204   2.826   4.282  13.934 -0.1710 -0.4833 -2.4264
  278TMC3    C7 4205   2.920   4.508  14.025 -0.2091 -0.1079 -0.4350
  278TMC3    C8 4206   2.826   4.183  13.693  0.0927  0.1895  0.0686
  278TMC3    O1 4207   2.999   4.564  14.102  0.1001  0.3611 -0.3299
  278TMC3    O2 4208   2.717   4.171  13.752  0.2050  0.2697 -0.2023
  279MPD2     C 4209   2.360   3.324   0.318  0.2036 -0.7652 -0.3563
  279MPD2    C1 4210   2.330   3.444   0.252 -0.8873  0.7437  0.0595
  279MPD2    C2 4211   2.430   3.502   0.179 -0.3399  0.3606  0.0032
  279MPD2    C3 4212   2.554   3.444   0.171 -0.0792  0.0690 -0.1950
  279MPD2    C4 4213   2.579   3.326   0.221 -0.7782  0.1152  0.3222
  279MPD2    C5 4214   2.482   3.268   0.301 -0.2461 -0.2202  0.3501
  279MPD2     H 4215   2.418   3.597   0.129 -3.7108 -0.5402 -0.8586
  279MPD2    H1 4216   2.678   3.283   0.226  0.5321  3.0070 -1.5235
  279MPD2    H2 4217   2.281   3.272   0.370 -1.1100  0.7931 -0.7806
  279MPD2    H3 4218   2.520   3.184   0.357  0.0780 -1.7616 -2.2084
  279MPD2     N 4219   2.651   3.521   0.100 -0.5769  0.3664 -0.1402
  279MPD2    H5 4220   2.615   3.611   0.071 -0.7185  0.0592 -0.9248
  279MPD2    N1 4221   2.200   3.505   0.287  0.0135  0.4735  0.1285
  279MPD2    H7 4222   2.138   3.459   0.353  0.9728 -0.2096  0.5573
  280TMC3    C1 4223   2.044   3.701   0.298  0.1723 -0.6530  0.0391
  280TMC3    C2 4224   1.986   3.662   0.415 -0.2295  0.0869 -0.3831
  280TMC3    C3 4225   1.885   3.736   0.475 -0.6911 -0.7575 -0.3063
  280TMC3    C4 4226   2.013   3.822   0.244  0.2262 -0.5311  0.0158
  280TMC3    C5 4227   1.923   3.899   0.305  0.0994  0.0616 -0.4201
  280TMC3    C6 4228   1.853   3.858   0.419  0.3830 -0.4507 -0.3512
  280TMC3     C 4229   2.157   3.626   0.228 -0.5615 -0.5288 -0.0330
  280TMC3     O 4230   2.200   3.675   0.125  0.3427  0.0391  0.5125
  280TMC3     H 4231   2.034   3.579   0.465 -1.6192 -0.2441  0.4011
  280TMC3    H1 4232   2.051   3.851   0.147 -0.1265 -0.4479 -0.0965
  280TMC3    H2 4233   1.774   3.923   0.455  0.6023  0.3106 -1.2670
  280TMC3    C7 4234   1.905   4.030   0.248 -0.0934  0.2232 -0.2943
  280TMC3    C8 4235   1.794   3.682   0.566  0.1735  0.0070  0.0610
  280TMC3    O1 4236   2.009   4.070   0.201 -0.0943 -0.2018  0.0929
  280TMC3    O2 4237   1.718   3.756   0.627 -0.2218  0.5139  0.5308
  281TMC3    C1 4238   1.336   0.399  12.986  0.5219  0.2670 -0.0605
  281TMC3    C2 4239   1.420   0.491  12.932 -0.4314  0.5766 -0.4340
  281TMC3    C3 4240   1.513   0.444  12.845  0.4254 -0.3407 -0.7530
  281TMC3    C4 4241   1.332   0.268  12.940 -0.6208  0.1383  0.3041
  281TMC3    C5 4242   1.436   0.228  12.856  0.7992 -0.4276 -0.0157
  281TMC3    C6 4243   1.527   0.310  12.802 -0.2288 -0.2560 -0.5882
  281TMC3     C 4244   1.211   0.439  13.040 -0.4844 -0.1553  0.3481
  281TMC3     O 4245   1.122   0.357  13.049  0.0998  0.0661 -0.6951
  281TMC3     H 4246   1.427   0.591  12.972 -0.0911  1.0853 -1.7757
  281TMC3    H1 4247   1.246   0.205  12.957  0.1297 -1.4251 -1.6528
  281TMC3    H2 4248   1.614   0.284  12.743 -0.5785 -0.3871 -1.0435
  281TMC3    C7 4249   1.449   0.091  12.807  0.4049 -0.8007 -0.2285
  281TMC3    C8 4250   1.606   0.548  12.793  0.8363  0.3202  0.0091
  281TMC3    O1 4251   1.509   0.087  12.699 -0.2648  0.3725 -0.0042
  281TMC3    O2 4252   1.721   0.509  12.773  0.3794 -0.4324  1.1416
  282MPD2     C 4253   3.066   1.757  15.066  0.2484  0.1902  0.6667
  282MPD2    C1 4254   2.953   1.834  15.078 -0.1262  0.3757  0.5787
  282MPD2    C2 4255   2.886   1.875  14.964  0.8350  0.1382  0.0740
  282MPD2    C3 4256   2.933   1.842  14.836 -0.4514 -0.0836  0.3353
  282MPD2    C4 4257   3.053   1.773  14.823  0.4286  0.3486 -0.0712
  282MPD2    C5 4258   3.113   1.722  14.938 -0.1487  0.2757 -0.0080
  282MPD2     H 4259   2.796   1.935  14.964 -0.7400 -2.2354 -0.9043
  282MPD2    H1 4260   3.101   1.748  14.729  1.6554 -2.5492  1.3367
  282MPD2    H2 4261   3.120   1.734  15.157  0.7403  3.6579  1.2495
  282MPD2    H3 4262   3.200   1.657  14.931 -0.0437  0.5111 -0.9242
  282MPD2     N 4263   2.857   1.884  14.727  0.3051  0.2679 -0.8723
  282MPD2    H5 4264   2.764   1.922  14.742 -0.9876 -3.0537 -0.5156
  282MPD2    N1 4265   2.921   1.890  15.200  0.7867  0.0055 -0.0721
  282MPD2    H7 4266   2.861   1.972  15.211  0.1151 -0.5520  0.4191
  283TMC3    C1 4267   2.870   1.893  15.430  0.1360 -0.2085  0.4528
  283TMC3    C2 4268   2.901   2.020  15.464 -0.5333 -0.9557  0.4236
  283TMC3    C3 4269   2.869   2.059  15.595  0.2350  0.5477  0.4875
  283TMC3    C4 4270   2.821   1.804  15.523  0.3714 -0.5063  0.0233
  283TMC3    C5 4271   2.798   1.845  15.651 -0.4205 -0.0589  0.0828
  283TMC3    C6 4272   2.823   1.970  15.689 -0.4526  0.3769 -0.2266
  283TMC3     C 4273   2.954   1.839  15.321  0.7260  0.1136  0.1968
  283TMC3     O 4274   3.005   1.732  15.344  0.0417  0.2807 -0.3386
  283TMC3     H 4275   2.924   2.094  15.388  0.4736 -0.5951  1.0825
  283TMC3    H1 4276   2.819   1.701  15.491 -0.6057  0.4349 -2.9127
  283TMC3    H2 4277   2.781   2.012  15.780 -1.4589 -1.8719  0.3455
  283TMC3    C7 4278   2.775   1.743  15.753 -0.5347  0.1650 -0.0019
  283TMC3    C8 4279   2.862   2.198  15.628 -0.1850  0.1542 -0.0048
  283TMC3    O1 4280   2.727   1.767  15.858 -0.1889 -0.5906 -0.4912
  283TMC3    O2 4281   2.799   2.224  15.731  0.3647 -0.0080  0.0041
  284MPD2     C 4282   1.470   0.812  12.129 -0.5045 -0.5110  0.1395
  284MPD2    C1 4283   1.567   0.775  12.040  0.2438 -0.2097  0.1285
  284MPD2    C2 4284   1.549   0.662  11.961 -0.2801 -0.2189 -0.5157
  284MPD2    C3 4285   1.433   0.592  11.970 -0.2519  0.0946  0.7893
  284MPD2    C4 4286   1.335   0.642  12.056  0.4520  0.3939  0.8847
  284MPD2    C5 4287   1.357   0.749  12.131 -0.1148 -0.0593 -1.2427
  284MPD2     H 4288   1.625   0.630  11.890 -0.5516  0.5186 -1.1326
  284MPD2    H1 4289   1.246   0.585  12.080  0.6651 -0.7463 -0.9588
  284MPD2    H2 4290   1.472   0.894  12.200  3.0723 -0.8787  0.4778
  284MPD2    H3 4291   1.276   0.784  12.194 -0.8661 -1.6564 -1.3129
  284MPD2     N 4292   1.419   0.462  11.909 -0.5047  0.5691  0.5115
  284MPD2    H5 4293   1.336   0.414  11.942  0.7199 -0.8230  1.5937
  284MPD2    N1 4294   1.685   0.855  12.022 -0.1635 -0.7479  0.8107
  284MPD2    H7 4295   1.739   0.829  11.940  0.2973 -2.2392  1.5830
  285TMC3    C1 4296   1.833   1.045  12.032  0.2749 -0.2157 -0.0571
  285TMC3    C2 4297   1.915   0.983  11.942  0.5379 -0.1519  0.1869
  285TMC3    C3 4298   2.006   1.058  11.886  0.4066 -0.6874  0.3543
  285TMC3    C4 4299   1.839   1.180  12.061 -0.4694 -0.0839  0.5189
  285TMC3    C5 4300   1.933   1.253  11.992  0.7625  0.4236  0.7890
  285TMC3    C6 4301   2.021   1.192  11.906 -0.2237 -0.9976  0.4704
  285TMC3     C 4302   1.714   0.983  12.077  0.6627  0.2105 -0.0896
  285TMC3     O 4303   1.645   1.045  12.159  0.3100 -0.3484 -0.0414
  285TMC3     H 4304   1.907   0.877  11.920  0.6711 -0.2187  0.4529
  285TMC3    H1 4305   1.766   1.233  12.121 -0.7260 -1.4668  1.4259
  285TMC3    H2 4306   2.086   1.255  11.848  0.2943 -1.4584  0.5471
  285TMC3    C7 4307   1.906   1.398  11.955  0.0924  0.0313 -0.2745
  285TMC3    C8 4308   2.055   0.996  11.759  0.2195 -0.3266  0.7396
  285TMC3    O1 4309   1.999   1.459  11.910  0.1010 -0.4694 -0.2130
  285TMC3    O2 4310   2.013   0.884  11.730  0.0063 -0.1315  0.2722
  286MPD2     C 4311   1.335   3.615   1.742 -0.9995 -0.3164  0.5036
  286MPD2    C1 4312   1.262   3.567   1.637  0.4205 -0.2315 -0.4294
  286MPD2    C2 4313   1.335   3.524   1.525  0.0123  1.2913 -0.2697
  286MPD2    C3 4314   1.470   3.511   1.528  0.5519 -0.3676 -0.1727
  286MPD2    C4 4315   1.544   3.557   1.633 -0.0056  0.2152  0.4205
  286MPD2    C5 4316   1.472   3.610   1.737 -0.0175 -0.2655  0.3986
  286MPD2     H 4317   1.279   3.482   1.443  1.1387  0.1683 -0.4688
  286MPD2    H1 4318   1.652   3.556   1.640 -0.0120 -0.3090  0.4508
  286MPD2    H2 4319   1.299   3.665   1.831  0.0825 -0.2046  0.8818
  286MPD2    H3 4320   1.527   3.653   1.820  0.3568  0.3678 -0.1704
  286MPD2     N 4321   1.549   3.446   1.432 -0.8060 -0.8392 -0.4437
  286MPD2    H5 4322   1.651   3.455   1.433 -0.7815 -1.0178 -1.2471
  286MPD2    N1 4323   1.123   3.590   1.622  0.4663 -0.1567 -0.0919
  286MPD2    H7 4324   1.080   3.542   1.544  2.6021 -0.1905 -1.2526
  287TMC3    C1 4325   1.617   3.312   1.260 -0.8522 -0.2417  0.1502
  287TMC3    C2 4326   1.608   3.259   1.135 -0.1732 -0.1046  0.9905
  287TMC3    C3 4327   1.716   3.216   1.067  0.5926 -0.3563  0.0479
  287TMC3    C4 4328   1.743   3.321   1.315 -0.3596  0.2332 -0.1890
  287TMC3    C5 4329   1.847   3.279   1.240  0.1102  0.0157  0.2549
  287TMC3    C6 4330   1.842   3.226   1.117 -0.1907  0.5417 -0.1213
  287TMC3     C 4331   1.503   3.377   1.322 -0.1307 -0.1232 -0.5673
  287TMC3     O 4332   1.389   3.361   1.282 -0.1513  0.5200 -0.4476
  287TMC3     H 4333   1.509   3.276   1.093 -0.6486 -2.6232  1.0909
  287TMC3    H1 4334   1.763   3.354   1.416  1.7888  2.2441 -1.2756
  287TMC3    H2 4335   1.931   3.195   1.064  0.2418  2.5392 -0.5957
  287TMC3    C7 4336   1.977   3.333   1.288 -0.3133  0.5304  0.1196
  287TMC3    C8 4337   1.687   3.123   0.963  0.8567  0.7414 -0.6853
  287TMC3    O1 4338   1.980   3.350   1.412  0.0444 -0.6041  0.2035
  287TMC3    O2 4339   1.577   3.066   0.972  0.7288 -0.7439  0.0394
  288TMC3    C1 4340   3.480   4.330  14.351  0.4679  0.0048  0.1731
  288TMC3    C2 4341   3.471   4.274  14.472  0.3615 -0.6628 -0.2276
  288TMC3    C3 4342   3.395   4.160  14.489  0.3957  0.5008 -0.1510
  288TMC3    C4 4343   3.402   4.290  14.244  1.1742 -1.1396  0.3527
  288TMC3    C5 4344   3.340   4.172  14.261  0.2075 -0.2976  0.6748
  288TMC3    C6 4345   3.329   4.106  14.382 -0.0760  0.0191 -0.2470
  288TMC3     C 4346   3.577   4.438  14.341  0.8567 -0.4452  0.0868
  288TMC3     O 4347   3.636   4.472  14.445 -0.4422 -0.5306 -1.0911
  288TMC3     H 4348   3.541   4.305  14.549 -1.5219  2.9079  0.0185
  288TMC3    H1 4349   3.416   4.332  14.145  0.0552 -0.1379  0.6310
  288TMC3    H2 4350   3.287   4.006  14.390 -0.2992 -0.1265 -3.2991
  288TMC3    C7 4351   3.285   4.089  14.149 -0.1447 -0.1045  0.4158
  288TMC3    C8 4352   3.405   4.091  14.617  0.2298  0.4502 -0.0606
  288TMC3    O1 4353   3.211   3.995  14.173 -0.1959  0.1788  0.2718
  288TMC3    O2 4354   3.488   4.132  14.693 -0.5344 -0.0046 -0.0848
  289MPD2     C 4355   3.711   3.439  14.421  0.0792  0.7281  0.1735
  289MPD2    C1 4356   3.686   3.534  14.319  0.3797  0.2294  0.2643
  289MPD2    C2 4357   3.573   3.515  14.242 -0.3719  0.2682 -0.2283
  289MPD2    C3 4358   3.482   3.420  14.282 -0.4112  0.1691  0.6818
  289MPD2    C4 4359   3.497   3.340  14.390 -0.3574  0.5056 -0.0068
  289MPD2    C5 4360   3.619   3.348  14.457 -0.0548  0.0099  0.0754
  289MPD2     H 4361   3.563   3.567  14.148 -4.4081 -1.0142 -0.4925
  289MPD2    H1 4362   3.413   3.284  14.428  1.8037 -2.1764  0.8611
  289MPD2    H2 4363   3.811   3.445  14.462 -0.4525  2.1165  1.3190
  289MPD2    H3 4364   3.634   3.284  14.543  0.8358 -0.4790 -0.4494
  289MPD2     N 4365   3.351   3.415  14.223  0.2252 -0.0822  0.4360
  289MPD2    H5 4366   3.280   3.353  14.259  0.0630 -0.7801 -1.0812
  289MPD2    N1 4367   3.789   3.623  14.284  0.3984  0.8065 -0.2600
  289MPD2    H7 4368   3.878   3.614  14.331  1.1173  0.8664 -1.6137
  290TMC3    C1 4369   3.168   3.484  14.113  0.0932 -0.0153 -0.0415
  290TMC3    C2 4370   3.086   3.593  14.103 -0.5853 -0.1204 -0.2394
  290TMC3    C3 4371   2.946   3.573  14.100  0.4855 -0.4018  1.2758
  290TMC3    C4 4372   3.115   3.354  14.108 -0.2744  0.2058  1.0793
  290TMC3    C5 4373   2.978   3.345  14.112  0.6430 -0.6064  0.2505
  290TMC3    C6 4374   2.891   3.445  14.100 -0.0202  0.4268 -0.0643
  290TMC3     C 4375   3.308   3.509  14.139 -0.0180  0.6407  0.1418
  290TMC3     O 4376   3.356   3.617  14.113  0.1721  0.0944  0.3953
  290TMC3     H 4377   3.121   3.696  14.105  0.2953 -0.4175 -0.2138
  290TMC3    H1 4378   3.175   3.265  14.124 -1.8043 -0.9636  0.2325
  290TMC3    H2 4379   2.784   3.436  14.112  0.0089 -1.6586 -1.3886
  290TMC3    C7 4380   2.922   3.219  14.063  0.7591 -0.2100 -0.2466
  290TMC3    C8 4381   2.855   3.680  14.091  0.2933  0.0924  0.1618
  290TMC3    O1 4382   2.818   3.228  13.998  0.2183 -0.1682 -0.0145
  290TMC3    O2 4383   2.754   3.680  14.028  0.1232  0.2239 -0.0018
  291MPD2     C 4384   1.937   2.570   0.162  0.0719 -0.3193 -0.2873
  291MPD2    C1 4385   1.967   2.453   0.099  0.2049  0.0826 -0.8720
  291MPD2    C2 4386   2.096   2.422   0.050 -0.9619 -0.4449 -0.5891
  291MPD2    C3 4387   2.196   2.520   0.062 -0.1552  0.2793  0.2640
  291MPD2    C4 4388   2.163   2.641   0.113  0.2730  0.2895 -0.2215
  291MPD2    C5 4389   2.038   2.663   0.165  0.4585 -0.3540 -0.2247
  291MPD2     H 4390   2.112   2.320   0.016 -0.1158 -0.7818  0.8072
  291MPD2    H1 4391   2.235   2.723   0.115 -1.1153  1.4663  1.8914
  291MPD2    H2 4392   1.842   2.586   0.212 -0.7834 -1.3779 -1.5710
  291MPD2    H3 4393   2.021   2.756   0.217 -0.2920 -0.4450 -0.3069
  291MPD2     N 4394   2.328   2.500   0.015  0.2392 -0.5108 -0.3902
  291MPD2    H5 4395   2.394   2.571   0.044 -0.4003 -0.4091  0.7993
  291MPD2    N1 4396   1.860   2.362   0.075  0.4192  0.6233  0.0610
  291MPD2    H7 4397   1.886   2.268   0.047  1.1916  0.4899  1.2458
  292TMC3    C1 4398   1.656   2.250   0.119 -0.4642  0.3446 -0.3488
  292TMC3    C2 4399   1.523   2.265   0.143 -0.5666  0.9660 -0.5499
  292TMC3    C3 4400   1.448   2.151   0.155 -0.9785  0.0840  0.0333
  292TMC3    C4 4401   1.721   2.131   0.121  0.2486 -0.4706  0.2268
  292TMC3    C5 4402   1.644   2.021   0.139  0.2914  0.6836  1.3563
  292TMC3    C6 4403   1.514   2.027   0.167 -0.7574  0.3256  0.5134
  292TMC3     C 4404   1.725   2.377   0.104  0.5077 -0.2960 -0.1516
  292TMC3     O 4405   1.673   2.478   0.149 -0.2898  0.1234 -0.1008
  292TMC3     H 4406   1.477   2.363   0.134 -2.9737 -0.0986  0.0665
  292TMC3    H1 4407   1.827   2.124   0.098  0.1009 -1.1360 -0.2440
  292TMC3    H2 4408   1.450   1.940   0.174 -0.8042  0.3258  0.0926
  292TMC3    C7 4409   1.699   1.893   0.103 -0.0598  0.7612  0.0215
  292TMC3    C8 4410   1.303   2.165   0.170 -0.5646 -0.2143  0.0231
  292TMC3    O1 4411   1.803   1.891   0.033  0.2974 -0.4261 -0.4213
  292TMC3    O2 4412   1.253   2.272   0.127 -0.7113  0.0297 -0.0329
  293MPD2     C 4413   4.683   4.695  12.133  0.2724  0.3425 -0.3061
  293MPD2    C1 4414   4.617   4.622  12.228  0.8852  0.0284 -0.2916
  293MPD2    C2 4415   4.658   4.637  12.359 -0.4581  0.1057  0.0151
  293MPD2    C3 4416   0.038   0.003  12.396 -0.8018 -0.1159  0.2664
  293MPD2    C4 4417   0.103   0.075  12.298 -0.6631 -0.2010  0.0282
  293MPD2    C5 4418   0.065   0.064  12.168 -0.0412  0.2797  0.3685
  293MPD2     H 4419   4.615   4.577  12.438 -1.7939  0.2311 -0.6139
  293MPD2    H1 4420   0.196   0.126  12.318  0.0022 -1.2707 -0.3328
  293MPD2    H2 4421   4.652   4.682  12.030  2.9157 -0.0419 -1.0559
  293MPD2    H3 4422   0.121   0.107  12.086  0.7681  1.6901  1.6693
  293MPD2     N 4423   0.070   0.012  12.536 -0.0369  0.2019  0.1879
  293MPD2    H5 4424   0.028   4.670  12.605  0.4626 -1.5253 -1.0870
  293MPD2    N1 4425   4.499   4.554  12.191  0.4058 -0.4405 -0.1438
  293MPD2    H7 4426   4.486   4.533  12.093 -1.3347  0.4723 -0.1008
  294TMC3    C1 4427   4.299   4.426  12.216  0.0654 -1.1230  0.4136
  294TMC3    C2 4428   4.237   4.349  12.315  0.7324 -0.2033  0.2102
  294TMC3    C3 4429   4.153   4.249  12.267  0.2311  0.9938 -0.8153
  294TMC3    C4 4430   4.274   4.412  12.085  0.4617 -0.3699  0.7024
  294TMC3    C5 4431   4.174   4.327  12.047 -0.3994  0.5924 -0.1589
  294TMC3    C6 4432   4.116   4.239  12.137 -0.5388  0.0776  0.3197
  294TMC3     C 4433   4.403   4.506  12.278  0.1769 -0.9051  0.0910
  294TMC3     O 4434   4.394   4.523  12.401  0.0443 -0.4208  0.1814
  294TMC3     H 4435   4.269   4.352  12.419 -2.3768  0.1316  1.1289
  294TMC3    H1 4436   4.322   4.462  12.001 -0.4545 -0.0362  0.3770
  294TMC3    H2 4437   4.043   4.162  12.113  0.0869 -0.5005  0.2782
  294TMC3    C7 4438   4.123   4.319  11.911 -0.2712  0.0797  0.2473
  294TMC3    C8 4439   4.103   4.161  12.369 -0.2377 -0.0675  0.6983
  294TMC3    O1 4440   4.028   4.246  11.888  0.2348 -0.1968 -0.0570
  294TMC3    O2 4441   4.078   4.214  12.477  0.0443 -0.1733  0.3172
  295MPD2     C 4442   0.151   2.980   0.652 -0.5471 -0.1149 -0.1796
  295MPD2    C1 4443   0.061   2.965   0.552  0.3790  0.3701 -0.1097
  295MPD2    C2 4444   4.659   2.904   0.575 -0.0167  0.1463  0.2336
  295MPD2    C3 4445   4.627   2.860   0.701 -0.3269 -0.3720  0.4752
  295MPD2    C4 4446   4.719   2.858   0.803  0.2237  0.4261 -0.5296
  295MPD2    C5 4447   0.121   2.926   0.779  0.3474  0.3572  0.0927
  295MPD2     H 4448   4.601   2.885   0.486 -0.7266  0.2726  0.6701
  295MPD2    H1 4449   4.701   2.814   0.900  1.0286  2.3824  0.5220
  295MPD2    H2 4450   0.247   3.030   0.641 -0.4828 -0.5569 -1.5209
  295MPD2    H3 4451   0.192   2.928   0.861  0.9945 -0.6306 -0.4476
  295MPD2     N 4452   4.511   2.795   0.729  0.2972 -0.7508  0.0756
  295MPD2    H5 4453   4.508   2.748   0.819  1.7146 -0.9782 -0.0047
  295MPD2    N1 4454   0.098   3.002   0.422 -0.3217 -0.1283  0.7375
  295MPD2    H7 4455   0.024   3.015   0.352 -0.1774  0.1924  0.6439
  296TMC3    C1 4456   4.297   2.709   0.701  0.2961 -0.1201 -0.4269
  296TMC3    C2 4457   4.328   2.595   0.757 -0.0143  0.0939  0.0443
  296TMC3    C3 4458   4.237   2.500   0.782  0.3635 -0.1824  0.2760
  296TMC3    C4 4459   4.170   2.735   0.651 -0.4841 -0.5490 -0.0681
  296TMC3    C5 4460   4.082   2.629   0.665  0.3296  0.3962 -0.1834
  296TMC3    C6 4461   4.106   2.511   0.738 -0.8553 -0.8376 -0.0181
  296TMC3     C 4462   4.401   2.796   0.647 -0.6214  0.1710 -0.7616
  296TMC3     O 4463   4.366   2.879   0.564  0.1721  0.2380 -0.1904
  296TMC3     H 4464   4.431   2.564   0.771 -0.1877 -1.7823 -2.9007
  296TMC3    H1 4465   4.148   2.814   0.580  0.3334  0.9125  1.3076
  296TMC3    H2 4466   4.051   2.418   0.732  0.9774 -1.9325  0.2362
  296TMC3    C7 4467   3.941   2.654   0.633  0.4866 -0.6284 -0.1442
  296TMC3    C8 4468   4.277   2.396   0.880 -0.2351  0.5661 -0.1961
  296TMC3    O1 4469   3.910   2.737   0.551  0.2860  0.0384 -0.3629
  296TMC3    O2 4470   4.220   2.285   0.875 -0.1015 -0.5766 -0.1912
  297MPD2     C 4471   2.720   0.262  16.930 -0.4758 -0.1113  0.3386
  297MPD2    C1 4472   2.675   0.256  16.801 -0.5864 -0.5367  0.1875
  297MPD2    C2 4473   2.675   0.372  16.729 -0.4825  0.0780 -0.0683
  297MPD2    C3 4474   2.731   0.487  16.776  0.4587  0.0793 -0.3250
  297MPD2    C4 4475   2.779   0.490  16.908  0.7194  0.4676  0.7663
  297MPD2    C5 4476   2.760   0.372  16.986 -0.3335  0.3314 -0.6215
  297MPD2     H 4477   2.622   0.369  16.634  2.1868  0.8330 -1.5641
  297MPD2    H1 4478   2.831   0.574  16.954  0.1913  2.3041 -1.9773
  297MPD2    H2 4479   2.701   0.176  16.993  0.3264  0.7938  1.8151
  297MPD2    H3 4480   2.763   0.368  17.095 -1.3930  2.4369 -0.5107
  297MPD2     N 4481   2.723   0.600  16.696  0.5518  0.5182  0.2253
  297MPD2    H5 4482   2.690   0.590  16.600 -2.7881  2.5049  1.1745
  297MPD2    N1 4483   2.612   0.146  16.738 -0.2126 -0.5105 -0.4273
  297MPD2    H7 4484   2.593   0.163  16.639  2.0977 -1.1494 -0.9810
  298TMC3    C1 4485   2.473   4.681  16.705  0.4883  0.1048 -0.0120
  298TMC3    C2 4486   2.527   4.655  16.587  0.1396  0.2358 -0.1499
  298TMC3    C3 4487   2.447   4.649  16.482 -0.0296  0.0199 -0.3050
  298TMC3    C4 4488   2.337   4.695  16.722 -0.0422  0.3006  0.0880
  298TMC3    C5 4489   2.259   4.699  16.614  0.7207  0.2709 -0.5421
  298TMC3    C6 4490   2.317   4.676  16.489 -0.1671 -0.7804 -0.3944
  298TMC3     C 4491   2.546   0.042  16.804 -0.3580 -0.1812 -0.7011
  298TMC3     O 4492   2.528   0.021  16.920  0.0530 -0.0524 -0.0996
  298TMC3     H 4493   2.634   4.667  16.576 -0.0093  1.5945 -0.1820
  298TMC3    H1 4494   2.291   4.708  16.819  0.1482  1.6366 -0.0022
  298TMC3    H2 4495   2.268   4.676  16.392 -1.0789 -1.2357  0.0611
  298TMC3    C7 4496   2.128   0.033  16.613  0.2575 -0.2652  0.7541
  298TMC3    C8 4497   2.498   4.603  16.354 -0.9184 -0.6439 -0.1649
  298TMC3    O1 4498   2.082   0.068  16.725 -0.1888 -0.5134  0.0480
  298TMC3    O2 4499   2.439   4.623  16.247 -0.6369  0.5885  0.3797
  299MPD2     C 4500   3.320   0.409   9.933 -0.0962  0.0212  0.1676
  299MPD2    C1 4501   3.274   0.357  10.048  0.7354 -0.2028 -0.7191
  299MPD2    C2 4502   3.139   0.377  10.085  1.0121  0.1915 -0.0496
  299MPD2    C3 4503   3.055   0.454  10.002 -0.3124 -0.0297  0.0380
  299MPD2    C4 4504   3.108   0.503   9.885 -0.0999  0.1622  0.5357
  299MPD2    C5 4505   3.232   0.468   9.848  0.3097 -0.1482 -0.9785
  299MPD2     H 4506   3.097   0.329  10.173 -2.2339 -0.1976 -1.8380
  299MPD2    H1 4507   3.054   0.567   9.817  1.7408  1.7136  0.5214
  299MPD2    H2 4508   3.422   0.407   9.896  1.3480 -0.6023  4.1613
  299MPD2    H3 4509   3.281   0.502   9.758  2.4266  0.2785  0.3255
  299MPD2     N 4510   2.917   0.471  10.026 -1.0214  0.0240 -0.0894
  299MPD2    H5 4511   2.859   0.532   9.970  1.5018 -0.1364 -2.8588
  299MPD2    N1 4512   3.363   0.284  10.124  0.3268 -0.0020 -0.2912
  299MPD2    H7 4513   3.456   0.276  10.084  1.8485 -0.7486  3.4194
  300TMC3    C1 4514   2.721   0.473  10.151 -0.3226 -0.0896  0.1579
  300TMC3    C2 4515   2.736   0.610  10.185  0.6780 -0.4111 -0.2154
  300TMC3    C3 4516   2.646   0.661  10.276  0.8844  0.0484  0.0197
  300TMC3    C4 4517   2.640   0.388  10.208 -0.2679 -0.5904  0.0806
  300TMC3    C5 4518   2.554   0.445  10.295  0.1644  0.5806 -0.2893
  300TMC3    C6 4519   2.552   0.579  10.326 -0.2452  0.3393  0.2106
  300TMC3     C 4520   2.851   0.401  10.124 -0.0381  0.1811 -0.9044
  300TMC3     O 4521   2.869   0.297  10.181 -0.1943  0.3788  0.1363
  300TMC3     H 4522   2.808   0.674  10.138  0.8544 -0.4346  0.0215
  300TMC3    H1 4523   2.650   0.282  10.190 -2.3570 -1.0394  1.4916
  300TMC3    H2 4524   2.478   0.628  10.388  1.1870  0.3436  1.8923
  300TMC3    C7 4525   2.438   0.373  10.333  0.2953 -0.3371 -0.7177
  300TMC3    C8 4526   2.664   0.788  10.342 -0.1536  0.2865  0.2583
  300TMC3    O1 4527   2.402   0.279  10.255 -0.5655  0.1143  0.4774
  300TMC3    O2 4528   2.615   0.803  10.454  0.6044 -1.0480 -0.4256
  301MPD2     C 4529   3.429   0.617   1.785  0.6337  0.0540 -0.1052
  301MPD2    C1 4530   3.460   0.715   1.695  0.0588 -0.6390 -0.0381
  301MPD2    C2 4531   3.585   0.726   1.648 -0.4089  0.3706 -0.0296
  301MPD2    C3 4532   3.687   0.647   1.693 -0.3231 -0.0650  0.3901
  301MPD2    C4 4533   3.659   0.559   1.799  0.1326 -0.2573  0.1305
  301MPD2    C5 4534   3.528   0.542   1.837 -0.0618  0.3729 -0.2513
  301MPD2     H 4535   3.599   0.792   1.563  0.0476  2.6490  1.8123
  301MPD2    H1 4536   3.734   0.488   1.832  1.0661  1.5853  1.9515
  301MPD2    H2 4537   3.327   0.608   1.820 -0.2719 -1.5763 -3.1787
  301MPD2    H3 4538   3.498   0.460   1.902 -0.7399  1.5436  0.9104
  301MPD2     N 4539   3.817   0.642   1.642  0.0102  0.0612  0.2034
  301MPD2    H5 4540   3.881   0.578   1.687 -1.3681 -0.7674  0.9917
  301MPD2    N1 4541   3.352   0.794   1.644  0.2333  0.2195 -0.8568
  301MPD2    H7 4542   3.258   0.758   1.659 -1.0408  2.4929 -3.2902
  302TMC3    C1 4543   4.008   0.718   1.515  0.0536 -0.1635  0.0034
  302TMC3    C2 4544   4.074   0.599   1.516 -0.5583  0.2137 -0.2467
  302TMC3    C3 4545   4.186   0.582   1.447 -0.1859 -0.0359  0.3068
  302TMC3    C4 4546   4.053   0.827   1.442  0.0565 -0.0929 -0.2053
  302TMC3    C5 4547   4.172   0.817   1.381  0.9073  0.7935 -0.3361
  302TMC3    C6 4548   4.241   0.696   1.383  0.6815 -0.3316 -0.2123
  302TMC3     C 4549   3.862   0.733   1.544  0.6396 -0.3705  0.3399
  302TMC3     O 4550   3.800   0.817   1.483 -0.2191  0.0016  0.4297
  302TMC3     H 4551   4.015   0.513   1.548  0.5797  0.5278  2.7102
  302TMC3    H1 4552   4.012   0.925   1.461  1.0920  0.3857 -0.4625
  302TMC3    H2 4553   4.327   0.681   1.319  0.3177 -3.0842 -0.0517
  302TMC3    C7 4554   4.180   0.881   1.251  0.5151 -0.4839 -0.4777
  302TMC3    C8 4555   4.271   0.464   1.460  0.1302  0.0012 -0.3503
  302TMC3    O1 4556   4.281   0.869   1.180  0.0848  0.2192 -0.5094
  302TMC3    O2 4557   4.355   0.445   1.374  0.0057  0.6020 -0.2898
  303MPD2     C 4558   0.739   3.598   9.941  0.0860 -0.1909 -0.0727
  303MPD2    C1 4559   0.609   3.620   9.950  0.0802  0.2459  0.0741
  303MPD2    C2 4560   0.535   3.655   9.843  0.0870 -0.5913 -0.2787
  303MPD2    C3 4561   0.593   3.649   9.718  0.2751 -0.2352  0.3713
  303MPD2    C4 4562   0.729   3.642   9.698  0.0063  0.0085 -0.3207
  303MPD2    C5 4563   0.797   3.615   9.813  0.4230  0.0314 -0.2339
  303MPD2     H 4564   0.429   3.666   9.861  0.4915  1.0366  1.1385
  303MPD2    H1 4565   0.785   3.662   9.608  0.5934  2.1526  0.5163
  303MPD2    H2 4566   0.797   3.563  10.026 -0.1214  0.9036  0.5277
  303MPD2    H3 4567   0.906   3.607   9.812  0.3711 -0.4738 -1.7717
  303MPD2     N 4568   0.512   3.680   9.610  0.3868 -0.6735  0.4466
  303MPD2    H5 4569   0.565   3.711   9.530 -3.6534 -0.1983 -2.0106
  303MPD2    N1 4570   0.545   3.606  10.074 -0.5648  0.3940  0.0917
  303MPD2    H7 4571   0.458   3.658  10.081 -0.9104 -0.2977  1.0044
  304TMC3    C1 4572   0.471   3.488  10.261  0.6556 -0.2890  0.2435
  304TMC3    C2 4573   0.416   3.600  10.317 -0.3592  0.4474 -0.3619
  304TMC3    C3 4574   0.317   3.583  10.416  0.0150 -0.1725 -0.1032
  304TMC3    C4 4575   0.454   3.364  10.316 -0.1129 -0.2184 -0.0820
  304TMC3    C5 4576   0.370   3.353  10.428 -0.0793 -0.5017 -0.2549
  304TMC3    C6 4577   0.300   3.459  10.476  0.5333  0.5400  0.3528
  304TMC3     C 4578   0.584   3.510  10.170  1.2574  0.2138  0.6607
  304TMC3     O 4579   0.669   3.421  10.163  0.1263 -0.4883 -0.5566
  304TMC3     H 4580   0.427   3.695  10.266  0.8104 -0.4014 -1.6856
  304TMC3    H1 4581   0.501   3.277  10.272  1.2833  0.7366 -0.4549
  304TMC3    H2 4582   0.237   3.444  10.563  1.8685  0.0534  1.2183
  304TMC3    C7 4583   0.303   3.232  10.422  0.1181 -0.4310  0.5330
  304TMC3    C8 4584   0.178   3.612  10.377  0.1842  0.2468 -0.1433
  304TMC3    O1 4585   0.365   3.128  10.402 -0.5435  0.6479  0.2196
  304TMC3    O2 4586   0.105   3.520  10.403 -0.2003 -0.2815  0.0459
  305MPD2     C 4587   2.968   1.316  14.158  0.1735 -0.1042 -0.3215
  305MPD2    C1 4588   3.093   1.370  14.128  0.4784 -0.9205 -0.4448
  305MPD2    C2 4589   3.135   1.362  13.999  0.4114  0.1285  0.0850
  305MPD2    C3 4590   3.064   1.296  13.898 -0.4394  0.5944 -0.1722
  305MPD2    C4 4591   2.943   1.242  13.927  0.2715 -0.3424  0.2616
  305MPD2    C5 4592   2.895   1.253  14.059  0.5090 -0.6162  0.1825
  305MPD2     H 4593   3.229   1.412  13.980  0.4379 -0.0135 -0.1585
  305MPD2    H1 4594   2.881   1.214  13.842  0.7118  1.0760 -0.5417
  305MPD2    H2 4595   2.917   1.328  14.253  1.9117  2.7702  0.2300
  305MPD2    H3 4596   2.788   1.237  14.073  0.5216  2.1913  3.5217
  305MPD2     N 4597   3.102   1.304  13.761  0.3525  0.6686 -0.0577
  305MPD2    H5 4598   3.041   1.257  13.695 -1.7883  0.1403  2.2758
  305MPD2    N1 4599   3.157   1.433  14.234 -0.1520 -0.1437 -0.9259
  305MPD2    H7 4600   3.107   1.425  14.322  1.0653  0.9980 -0.1413
  306TMC3    C1 4601   3.309   1.554  14.361  0.0017 -0.3009  0.0409
  306TMC3    C2 4602   3.445   1.524  14.386  0.0219 -0.1930  0.1631
  306TMC3    C3 4603   3.520   1.615  14.457 -0.3527  0.1044 -0.2858
  306TMC3    C4 4604   3.257   1.671  14.398 -0.5890 -0.0040 -0.2000
  306TMC3    C5 4605   3.336   1.753  14.477  0.5156 -0.1931 -0.3014
  306TMC3    C6 4606   3.467   1.726  14.508  0.0451  0.4663  0.3696
  306TMC3     C 4607   3.275   1.500  14.233 -0.1830 -0.5408  0.3017
  306TMC3     O 4608   3.343   1.539  14.139 -0.1949 -0.1749  0.4023
  306TMC3     H 4609   3.499   1.451  14.326 -1.8299 -0.4436 -1.2133
  306TMC3    H1 4610   3.155   1.690  14.365 -1.1032  1.4187  2.2327
  306TMC3    H2 4611   3.519   1.795  14.573  0.0275  1.0051 -0.1954
  306TMC3    C7 4612   3.270   1.875  14.526 -0.4452 -0.5134  0.2403
  306TMC3    C8 4613   3.639   1.554  14.520  0.5177 -0.1342  0.4025
  306TMC3    O1 4614   3.171   1.910  14.463 -0.1239  0.3032  0.1638
  306TMC3    O2 4615   3.663   1.441  14.478  0.5083 -0.0468 -0.0968
  307MPD2     C 4616   0.531   3.253   0.752  0.1146 -0.2103 -1.0509
  307MPD2    C1 4617   0.513   3.388   0.741 -0.2961 -0.0410 -0.4280
  307MPD2    C2 4618   0.392   3.455   0.791 -0.4330 -0.0017  0.1546
  307MPD2    C3 4619   0.284   3.378   0.833 -0.3825  0.1763  0.3861
  307MPD2    C4 4620   0.301   3.244   0.831 -0.2220 -0.0723  0.0869
  307MPD2    C5 4621   0.424   3.183   0.800 -0.7153 -0.2513  0.3912
  307MPD2     H 4622   0.386   3.563   0.786  1.9454  0.2533  2.5320
  307MPD2    H1 4623   0.223   3.176   0.863  1.9332 -3.2614 -1.3467
  307MPD2    H2 4624   0.611   3.192   0.710 -0.8379 -2.1185 -0.1242
  307MPD2    H3 4625   0.432   3.077   0.779  0.1454  0.0729 -0.9044
  307MPD2     N 4626   0.163   3.438   0.872 -0.0876  0.1283  0.2949
  307MPD2    H5 4627   0.159   3.540   0.870 -1.0432  0.0865  0.1070
  307MPD2    N1 4628   0.607   3.469   0.670  0.6414  0.1786 -0.3694
  307MPD2    H7 4629   0.573   3.564   0.659  2.9154  0.8205 -1.6891
  308TMC3    C1 4630   4.494   3.587   0.811 -0.4508  0.6026 -0.0253
  308TMC3    C2 4631   4.535   3.717   0.842  0.2378  1.0136  0.1365
  308TMC3    C3 4632   4.643   3.731   0.924 -0.2547 -0.7162 -0.1180
  308TMC3    C4 4633   4.554   3.472   0.857 -0.5599  0.4315 -0.4526
  308TMC3    C5 4634   4.663   3.487   0.932  0.5998  0.9391 -0.3492
  308TMC3    C6 4635   4.705   3.615   0.964  0.5371  0.5210  0.8569
  308TMC3     C 4636   4.382   3.567   0.725 -0.0150  1.0037  0.5646
  308TMC3     O 4637   4.323   3.457   0.716 -0.0025  0.0571 -0.4510
  308TMC3     H 4638   4.488   3.809   0.809  2.1598  1.2448 -1.9013
  308TMC3    H1 4639   4.525   3.379   0.809 -0.4546  1.0477 -1.7021
  308TMC3    H2 4640   0.066   3.620   1.036  0.6342  1.6270  0.6693
  308TMC3    C7 4641   0.043   3.382   0.916  0.4684  0.5354 -0.6784
  308TMC3    C8 4642   4.711   3.860   0.963 -0.4336  0.2348 -0.6056
  308TMC3    O1 4643   0.003   3.268   0.911  0.0701 -0.2656  0.5897
  308TMC3    O2 4644   0.067   3.855   1.062  0.5078  0.2439  0.4825
  309MPD2     C 4645   0.014   4.531  17.104  0.2164  0.1138 -0.5103
  309MPD2    C1 4646   0.026   4.652  17.047  0.1636  0.1571 -0.0272
  309MPD2    C2 4647   4.652   0.025  17.063  0.3784 -0.4766  0.0506
  309MPD2    C3 4648   4.535   4.712  17.132  0.4888 -0.0841 -0.1267
  309MPD2    C4 4649   4.525   4.582  17.190 -0.0706  0.5956 -0.1744
  309MPD2    C5 4650   4.626   4.497  17.183 -0.1208 -0.0367  1.0345
  309MPD2     H 4651   4.682   0.121  17.022 -1.1822  0.5242  1.2776
  309MPD2    H1 4652   4.442   4.563  17.257 -0.3397 -0.5758 -0.8329
  309MPD2    H2 4653   0.091   4.455  17.094 -0.1217 -0.1586 -1.0038
  309MPD2    H3 4654   4.616   4.397  17.224 -0.8779 -1.0377 -1.5904
  309MPD2     N 4655   4.423   0.081  17.141  0.4829  0.3401  0.3319
  309MPD2    H5 4656   4.344   0.030  17.177 -0.6204 -0.7968 -3.6704
  309MPD2    N1 4657   0.136   4.687  16.964 -0.1315 -0.1814 -0.2380
  309MPD2    H7 4658   0.119   0.052  16.911 -1.1228 -0.0166  0.3322
  310TMC3    C1 4659   0.346   4.710  16.862 -0.6916  0.1557 -0.1467
  310TMC3    C2 4660   0.305   0.101  16.798  0.4852  0.4351  0.1559
  310TMC3    C3 4661   0.352   0.143  16.679  0.2359  0.6461  0.1366
  310TMC3    C4 4662   0.459   4.646  16.810  0.5086 -0.3855  0.5245
  310TMC3    C5 4663   0.514   4.698  16.697  0.5134 -0.7810 -0.0523
  310TMC3    C6 4664   0.450   0.075  16.622  1.0608  0.3151  0.1280
  310TMC3     C 4665   0.259   4.635  16.954  0.4522  0.6330 -0.0977
  310TMC3     O 4666   0.307   4.540  17.017  0.3881  0.2756  0.2666
  310TMC3     H 4667   0.208   0.139  16.827 -1.0320 -1.7279 -2.1749
  310TMC3    H1 4668   0.491   4.545  16.834  0.9381  0.7044  4.5638
  310TMC3    H2 4669   0.489   0.098  16.524  0.2559 -2.2352 -0.7985
  310TMC3    C7 4670   0.642   4.651  16.665 -0.4398 -0.4962 -0.3643
  310TMC3    C8 4671   0.296   0.254  16.607  0.1878 -0.3154 -0.5435
  310TMC3    O1 4672   0.682   4.566  16.741 -0.2821  0.0847  0.2992
  310TMC3    O2 4673   0.339   0.279  16.493  0.0790  0.3245  0.3324
  311MPD2     C 4674   2.508   1.457  12.791  0.4178 -1.1669 -0.2502
  311MPD2    C1 4675   2.498   1.550  12.689  0.5374  0.3000  0.2412
  311MPD2    C2 4676   2.377   1.607  12.665 -0.0655  0.3055 -0.3857
  311MPD2    C3 4677   2.259   1.572  12.719  0.1770 -0.2957 -0.5966
  311MPD2    C4 4678   2.262   1.459  12.806 -0.8753 -0.2359 -0.0809
  311MPD2    C5 4679   2.387   1.417  12.849 -0.2744 -0.1983  0.2459
  311MPD2     H 4680   2.373   1.679  12.585 -2.1847  0.2196 -0.3618
  311MPD2    H1 4681   2.178   1.413  12.857 -1.2680  2.4147  1.6759
  311MPD2    H2 4682   2.606   1.434  12.832  1.3255  0.1201 -1.7016
  311MPD2    H3 4683   2.391   1.351  12.935  1.6374 -0.1757  0.1856
  311MPD2     N 4684   2.146   1.653  12.690 -0.3199 -0.0512  0.2438
  311MPD2    H5 4685   2.158   1.733  12.629 -0.2205 -0.8883 -0.8421
  311MPD2    N1 4686   2.614   1.590  12.616  0.9059  0.0297  0.2404
  311MPD2    H7 4687   2.600   1.655  12.538  3.1249 -0.0369 -0.1986
  312TMC3    C1 4688   1.931   1.725  12.709  0.1687  0.3667  0.6440
  312TMC3    C2 4689   1.804   1.693  12.662 -0.5817 -0.1416  0.2685
  312TMC3    C3 4690   1.724   1.803  12.624  0.2074 -0.0131  0.0084
  312TMC3    C4 4691   1.976   1.855  12.712  0.1070  0.5375 -0.5072
  312TMC3    C5 4692   1.892   1.953  12.677 -0.7537 -0.1549  0.6245
  312TMC3    C6 4693   1.771   1.931  12.622 -0.2319  0.0751  0.0072
  312TMC3     C 4694   2.020   1.608  12.725 -0.2240  0.2407 -0.1605
  312TMC3     O 4695   1.975   1.510  12.787 -0.2349 -0.2502  0.5233
  312TMC3     H 4696   1.759   1.595  12.660 -0.8269 -0.0562  1.6453
  312TMC3    H1 4697   2.077   1.880  12.741  0.0563 -0.4961  0.5513
  312TMC3    H2 4698   1.708   2.015  12.598  0.5089  0.0867 -1.9732
  312TMC3    C7 4699   1.919   2.098  12.700 -0.3753  0.0887 -0.4593
  312TMC3    C8 4700   1.576   1.779  12.623  0.5687  0.0410 -1.1540
  312TMC3    O1 4701   1.881   2.172  12.606 -1.1137  0.3983  0.0890
  312TMC3    O2 4702   1.533   1.677  12.678  0.0254 -0.0074 -0.5711
  313MPD2     C 4703   2.275   0.810  10.235 -0.1549 -0.1026  0.1650
  313MPD2    C1 4704   2.351   0.838  10.119  0.5415  0.3208  0.3278
  313MPD2    C2 4705   2.385   0.735  10.036 -0.4502 -0.1721 -0.5582
  313MPD2    C3 4706   2.344   0.602  10.064 -0.4955  0.2942 -0.1655
  313MPD2    C4 4707   2.259   0.582  10.169 -0.3483 -1.0160  0.3943
  313MPD2    C5 4708   2.219   0.684  10.256  0.3685 -0.1230  0.3065
  313MPD2     H 4709   2.442   0.769   9.950 -0.5841  3.3844  0.7826
  313MPD2    H1 4710   2.220   0.482  10.185 -0.5198 -1.2639 -1.5481
  313MPD2    H2 4711   2.249   0.889  10.305  1.2646  0.2965  0.2463
  313MPD2    H3 4712   2.139   0.661  10.325  1.9232 -4.5310  0.6274
  313MPD2     N 4713   2.387   0.500   9.979  0.5314  0.0126 -0.0335
  313MPD2    H5 4714   2.360   0.406  10.006  0.7144  0.1958  0.7971
  313MPD2    N1 4715   2.399   0.973  10.092 -0.6772 -0.0762  0.6295
  313MPD2    H7 4716   2.449   0.986  10.005 -2.2154 -1.6269 -0.5029
  314TMC3    C1 4717   2.464   1.198  10.142 -0.0385 -0.1714  0.1858
  314TMC3    C2 4718   2.514   1.277  10.248  1.0039  0.1632  0.2079
  314TMC3    C3 4719   2.568   1.400  10.208  0.2003  0.2322 -0.5684
  314TMC3    C4 4720   2.454   1.239  10.008  0.0817  0.4030 -0.4786
  314TMC3    C5 4721   2.521   1.356   9.973  0.0159  0.1247  1.0440
  314TMC3    C6 4722   2.571   1.434  10.077  0.0071 -0.1109 -0.2380
  314TMC3     C 4723   2.399   1.082  10.184  0.1182  0.2453 -0.1167
  314TMC3     O 4724   2.371   1.079  10.302 -0.4042 -0.4103  0.5686
  314TMC3     H 4725   2.524   1.235  10.347  0.1693  1.4547  0.8423
  314TMC3    H1 4726   2.407   1.170   9.939 -1.6617  1.1619 -0.0356
  314TMC3    H2 4727   2.636   1.516  10.048  2.1175 -0.7764  2.5919
  314TMC3    C7 4728   2.520   1.408   9.837 -0.3619 -0.3454  0.4789
  314TMC3    C8 4729   2.573   1.501  10.310  0.8113  0.1640  0.0930
  314TMC3    O1 4730   2.555   1.525   9.826  0.4216 -0.0134 -0.4821
  314TMC3    O2 4731   2.556   1.460  10.426  0.2683  0.8100  0.4281
  315MPD2     C 4732   0.864   4.059   0.565 -0.5338  0.5581  0.1884
  315MPD2    C1 4733   0.985   4.041   0.503 -0.0263  0.1570 -1.2307
  315MPD2    C2 4734   1.024   4.130   0.402  0.1589  0.5291 -0.0333
  315MPD2    C3 4735   0.958   4.244   0.374 -0.1947 -0.4114  0.1489
  315MPD2    C4 4736   0.845   4.270   0.443  0.3889 -0.1715 -0.6602
  315MPD2    C5 4737   0.798   4.174   0.534  0.0282 -0.9299  0.6439
  315MPD2     H 4738   1.115   4.109   0.347 -0.1681  0.8955 -0.7035
  315MPD2    H1 4739   0.796   4.366   0.433  1.5050  0.3001 -1.5789
  315MPD2    H2 4740   0.822   3.995   0.641 -1.4432 -1.9723 -2.4471
  315MPD2    H3 4741   0.714   4.199   0.598 -1.4841 -2.6651 -0.6541
  315MPD2     N 4742   1.020   4.325   0.273 -0.0565  0.1999 -0.0399
  315MPD2    H5 4743   1.114   4.304   0.243  1.2138  1.6934  2.9076
  315MPD2    N1 4744   1.057   3.918   0.522  0.9762 -0.4880  1.0232
  315MPD2    H7 4745   1.133   3.899   0.458 -1.2798 -1.3868 -1.3793
  316TMC3    C1 4746   1.058   4.507   0.126 -0.0244  0.4722  0.9079
  316TMC3    C2 4747   1.194   4.477   0.125 -0.1084  0.2028 -0.9287
  316TMC3    C3 4748   1.265   4.518   0.016 -0.2499 -0.0328 -0.3203
  316TMC3    C4 4749   0.994   4.576   0.028  0.1658  0.4773 -0.0778
  316TMC3    C5 4750   1.074   4.608  17.599  0.1542 -0.3284  0.0020
  316TMC3    C6 4751   1.206   4.565  17.584  0.6924  0.0435  0.2563
  316TMC3     C 4752   0.968   4.444   0.219 -0.0602  0.0313  0.2308
  316TMC3     O 4753   0.855   4.493   0.241  0.1134 -0.1684  0.3255
  316TMC3     H 4754   1.246   4.448   0.216  1.6730 -2.4236 -2.7578
  316TMC3    H1 4755   0.900   4.626   0.046  1.4788  3.1097 -0.4717
  316TMC3    H2 4756   1.258   4.561  17.489 -1.9484 -0.9410 -1.1253
  316TMC3    C7 4757   0.998   4.694  17.500 -0.3191 -0.8023 -0.2759
  316TMC3    C8 4758   1.411   4.505   0.017 -0.6604 -0.1997 -0.4071
  316TMC3    O1 4759   0.876   4.684  17.517 -0.1833  0.2502 -0.7257
  316TMC3    O2 4760   1.456   4.581  17.615 -0.3207 -0.3240 -0.1324
  317MPD2     C 4761   2.910   3.747  12.870  0.6713 -0.3725 -0.7531
  317MPD2    C1 4762   2.934   3.611  12.851 -0.6608  0.3603 -0.5677
  317MPD2    C2 4763   2.982   3.540  12.950  0.1505  0.5700  0.6510
  317MPD2    C3 4764   3.031   3.589  13.073  0.2995 -1.1140 -0.7947
  317MPD2    C4 4765   3.002   3.720  13.099  0.0273 -0.4600  0.6264
  317MPD2    C5 4766   2.935   3.790  12.994 -0.0358  0.2249  0.7589
  317MPD2     H 4767   3.021   3.445  12.917 -0.8713 -0.2018  1.6504
  317MPD2    H1 4768   3.031   3.773  13.189  2.2830  0.1071 -0.4165
  317MPD2    H2 4769   2.852   3.811  12.803 -1.2235  0.6179  1.8388
  317MPD2    H3 4770   2.914   3.895  13.011  1.2413  0.3382  1.5949
  317MPD2     N 4771   3.101   3.501  13.163 -0.4172 -0.1354 -0.7110
  317MPD2    H5 4772   3.118   3.406  13.130  2.7093  0.1215  0.1574
  317MPD2    N1 4773   2.899   3.538  12.734 -0.8770 -0.1336  0.7863
  317MPD2    H7 4774   2.930   3.442  12.744  1.2186  0.6150  1.5762
  318TMC3    C1 4775   3.225   3.425  13.351 -0.2250 -0.0488  0.0025
  318TMC3    C2 4776   3.164   3.306  13.334  0.0559  0.1588  0.0178
  318TMC3    C3 4777   3.233   3.205  13.381  0.7134  0.3416 -0.3964
  318TMC3    C4 4778   3.358   3.458  13.394 -0.0331  0.3761 -0.2628
  318TMC3    C5 4779   3.417   3.344  13.449  0.5734  0.3247  0.2369
  318TMC3    C6 4780   3.361   3.222  13.442  0.3856 -0.1823 -0.2893
  318TMC3     C 4781   3.168   3.534  13.277 -0.1543  0.2739  0.6979
  318TMC3     O 4782   3.210   3.644  13.322 -0.9108  0.4661  0.2557
  318TMC3     H 4783   3.063   3.288  13.297 -0.2166 -1.9977  1.7655
  318TMC3    H1 4784   3.395   3.560  13.401 -0.0120  0.4123 -0.9163
  318TMC3    H2 4785   3.427   3.141  13.472 -1.8428 -1.9596 -0.2026
  318TMC3    C7 4786   3.557   3.347  13.458 -0.0932 -0.7841  0.7501
  318TMC3    C8 4787   3.185   3.069  13.365 -0.0418  0.8397  0.2139
  318TMC3    O1 4788   3.602   3.446  13.402  0.0333 -0.3687  0.2830
  318TMC3    O2 4789   3.229   2.986  13.439 -0.7437  0.1816 -0.1988
  319MPD2     C 4790   4.466   0.029  16.012 -0.0387 -0.6852 -0.0972
  319MPD2    C1 4791   4.383   4.719  16.118  0.1431  0.1905 -0.2763
  319MPD2    C2 4792   4.248   0.032  16.111  0.6665 -0.3054 -0.3905
  319MPD2    C3 4793   4.201   0.086  15.990  0.7422 -0.5249  0.0377
  319MPD2    C4 4794   4.285   0.105  15.891  0.9949  0.3423 -0.4619
  319MPD2    C5 4795   4.417   0.080  15.897 -0.6792  0.1777 -0.6766
  319MPD2     H 4796   4.176   0.005  16.188  1.4803 -1.5300 -0.0642
  319MPD2    H1 4797   4.241   0.154  15.804 -0.5166  3.2900  1.9760
  319MPD2    H2 4798   4.574   0.020  16.020 -0.3053 -3.7589  0.3261
  319MPD2    H3 4799   4.488   0.095  15.817 -0.1356  0.4068 -0.1434
  319MPD2     N 4800   4.063   0.116  15.971  0.2996  0.0660  0.1009
  319MPD2    H5 4801   4.030   0.131  15.876 -1.2517 -1.8093  0.3613
  319MPD2    N1 4802   4.433   4.656  16.244  0.2430 -0.6879  0.0647
  319MPD2    H7 4803   4.364   4.632  16.315 -0.5015 -1.1752 -0.8252
  320TMC3    C1 4804   3.839   0.150  16.016 -0.2607  0.4157  0.7812
  320TMC3    C2 4805   3.824   0.218  15.900 -0.0365 -0.6683  0.0248
  320TMC3    C3 4806   3.713   0.192  15.823 -0.3279  0.7486  1.0653
  320TMC3    C4 4807   3.744   0.060  16.058 -0.3266  0.0417 -0.1704
  320TMC3    C5 4808   3.625   0.051  15.990 -0.1432 -0.5948 -0.1052
  320TMC3    C6 4809   3.608   0.121  15.873  0.7096 -0.5291  0.2511
  320TMC3     C 4810   3.969   0.120  16.073  0.3484 -0.0276 -0.0974
  320TMC3     O 4811   3.970   0.076  16.187  0.4336 -0.4543  0.1438
  320TMC3     H 4812   3.888   0.302  15.874 -1.0722 -0.0863 -0.6477
  320TMC3    H1 4813   3.759   4.695  16.124  1.0848  0.2085 -0.2852
  320TMC3    H2 4814   3.527   0.090  15.808  0.8780  1.9229 -1.1103
  320TMC3    C7 4815   3.584   4.626  15.975  0.6818 -0.7642  0.2821
  320TMC3    C8 4816   3.664   0.299  15.730  0.3301 -0.1670 -0.0106
  320TMC3    O1 4817   3.594   4.587  15.861 -0.4185 -0.1108 -0.7018
  320TMC3    O2 4818   3.702   0.413  15.744 -0.3338 -0.2750  0.0132
  321TMC3    C1 4819   4.589   4.575  16.402  0.1039  0.6531  0.4913
  321TMC3    C2 4820   4.475   4.534  16.469 -0.3251 -0.1626  0.1360
  321TMC3    C3 4821   4.476   4.532  16.606  0.5849 -0.6319 -0.5006
  321TMC3    C4 4822   4.712   4.592  16.467  0.1559  0.5727 -0.4411
  321TMC3    C5 4823   4.714   4.585  16.604  0.4068  1.0183  0.6129
  321TMC3    C6 4824   4.593   4.571  16.668 -0.0297  0.5330  0.3051
  321TMC3     C 4825   4.567   4.633  16.272  0.9571 -0.3586 -0.3862
  321TMC3     O 4826   4.673   4.655  16.214  0.2531  0.1933  0.3206
  321TMC3     H 4827   4.403   4.490  16.402  1.3793 -1.1035 -1.0796
  321TMC3    H1 4828   0.084   4.625  16.420 -1.0881  1.1429 -2.4434
  321TMC3    H2 4829   4.594   4.584  16.776 -0.3701 -1.5556  0.5491
  321TMC3    C7 4830   0.096   4.498  16.656  0.2214  0.0212  0.6688
  321TMC3    C8 4831   4.410   4.423  16.682  0.6242 -0.7819  0.6372
  321TMC3    O1 4832   0.212   4.503  16.611  0.1411 -0.0353 -0.3269
  321TMC3    O2 4833   4.479   4.378  16.775  0.1824  0.2246  0.3363
  322MPD2     C 4834   3.286   1.000  13.586  0.3103  0.2272 -0.0070
  322MPD2    C1 4835   3.293   0.952  13.716 -0.6510 -0.0729 -0.2241
  322MPD2    C2 4836   3.229   0.827  13.736  0.7154  0.3076 -1.2793
  322MPD2    C3 4837   3.177   0.752  13.629  0.0820 -1.3194  0.5733
  322MPD2    C4 4838   3.156   0.811  13.510 -0.3680 -0.2480  0.4518
  322MPD2    C5 4839   3.216   0.932  13.485  0.2059  0.6986  0.0241
  322MPD2     H 4840   3.225   0.770  13.827 -4.4784  2.8350  0.0462
  322MPD2    H1 4841   3.099   0.770  13.428  0.3427 -1.0182  0.3315
  322MPD2    H2 4842   3.327   1.097  13.560  1.0418  0.1549  0.8622
  322MPD2    H3 4843   3.210   0.983  13.389  0.2365 -0.9148 -0.8290
  322MPD2     N 4844   3.148   0.612  13.650 -0.2773 -0.3033 -0.1907
  322MPD2    H5 4845   3.174   0.582  13.743  1.2256 -1.5287 -1.0047
  322MPD2    N1 4846   3.359   1.029  13.810  0.1701  0.6515 -0.9684
  322MPD2    H7 4847   3.422   1.101  13.776 -1.6995  1.7634 -2.0769
  323TMC3    C1 4848   3.427   1.083  14.033 -0.1228 -0.0128  0.0893
  323TMC3    C2 4849   3.478   1.199  13.986 -0.6190  0.2619 -0.0545
  323TMC3    C3 4850   3.547   1.279  14.069 -0.4553  0.0128 -0.7683
  323TMC3    C4 4851   3.432   1.043  14.160  0.3670  0.3931  0.9015
  323TMC3    C5 4852   3.504   1.126  14.246 -0.2308 -0.1932 -0.4144
  323TMC3    C6 4853   3.570   1.235  14.198 -0.3550 -0.3496 -0.3860
  323TMC3     C 4854   3.358   0.997  13.945 -0.0155  0.9465  0.5382
  323TMC3     O 4855   3.304   0.899  13.996  0.4009  0.3547  0.3039
  323TMC3     H 4856   3.484   1.220  13.880  0.4169 -0.4867 -0.1469
  323TMC3    H1 4857   3.379   0.959  14.202 -0.5837 -0.9241 -2.9355
  323TMC3    H2 4858   3.639   1.278  14.269 -0.4968 -1.3356  0.3413
  323TMC3    C7 4859   3.566   1.047  14.353  0.3753  0.4330  0.5282
  323TMC3    C8 4860   3.632   1.390  14.027 -0.2818  0.1423 -0.1282
  323TMC3    O1 4861   3.569   0.926  14.345  0.2765 -0.0355  0.0192
  323TMC3    O2 4862   3.735   1.416  14.090 -0.1572  0.5063  0.5668
  324MPD2     C 4863   4.419   2.124  13.931 -0.5604 -0.3043  0.1240
  324MPD2    C1 4864   4.441   2.223  14.024  0.0030  0.0051 -0.1259
  324MPD2    C2 4865   4.331   2.283  14.084 -0.3845 -0.1423 -0.0352
  324MPD2    C3 4866   4.203   2.249  14.052 -0.8343 -0.3958  0.7573
  324MPD2    C4 4867   4.186   2.153  13.954 -0.5641 -0.3440 -0.1740
  324MPD2    C5 4868   4.293   2.094  13.898 -0.7522 -0.1523 -0.4308
  324MPD2     H 4869   4.346   2.347  14.170 -1.8858 -0.9451  0.8168
  324MPD2    H1 4870   4.089   2.116  13.921 -1.7384 -0.0126  2.9186
  324MPD2    H2 4871   4.493   2.065  13.880  1.0679  0.9253  1.0541
  324MPD2    H3 4872   4.272   2.015  13.827 -0.5102 -0.7978  0.2111
  324MPD2     N 4873   4.083   2.287  14.118 -0.1186  0.4594  0.2169
  324MPD2    H5 4874   3.998   2.238  14.093 -0.7384  2.0050 -0.7093
  324MPD2    N1 4875   4.565   2.263  14.071 -0.2023  0.0273 -0.4113
  324MPD2    H7 4876   4.566   2.334  14.143  0.4915  0.2658 -0.6580
  325TMC3    C1 4877   3.944   2.410  14.250 -0.1281  0.5665 -0.0889
  325TMC3    C2 4878   3.854   2.309  14.232  0.2136  0.2655 -0.5027
  325TMC3    C3 4879   3.721   2.348  14.213 -0.3636  0.2819  0.4067
  325TMC3    C4 4880   3.907   2.542  14.275 -1.4652 -0.7962 -0.0952
  325TMC3    C5 4881   3.783   2.579  14.233  0.0043 -0.1187  0.4933
  325TMC3    C6 4882   3.687   2.481  14.219 -0.2645  0.1930  0.4705
  325TMC3     C 4883   4.075   2.387  14.207 -0.2158 -0.0993  0.4605
  325TMC3     O 4884   4.161   2.467  14.243 -0.0791  0.0838 -0.2610
  325TMC3     H 4885   3.886   2.205  14.238 -0.9305 -0.1176 -1.2102
  325TMC3    H1 4886   3.983   2.615  14.302 -0.7069 -1.8131  0.5302
  325TMC3    H2 4887   3.589   2.502  14.177 -1.4487 -0.5430  2.8832
  325TMC3    C7 4888   3.747   2.720  14.224 -0.0634 -0.0562 -0.6624
  325TMC3    C8 4889   3.668   2.289  14.099 -0.4356  0.3637  0.1464
  325TMC3    O1 4890   3.666   2.756  14.139 -0.2783  0.6802 -0.0876
  325TMC3    O2 4891   3.751   2.255  14.013  0.0635 -0.0463  0.5296
  326MPD2     C 4892   0.877   3.308  11.464 -0.8108  0.3032  0.8868
  326MPD2    C1 4893   0.894   3.319  11.327  0.3983 -0.3536  0.6117
  326MPD2    C2 4894   0.978   3.403  11.268 -0.1524 -0.5051 -0.1385
  326MPD2    C3 4895   1.066   3.477  11.348 -0.0990 -0.3319 -1.1129
  326MPD2    C4 4896   1.060   3.461  11.484 -0.0447  0.1033  0.2182
  326MPD2    C5 4897   0.959   3.385  11.542  0.5491 -0.0566  0.3943
  326MPD2     H 4898   0.991   3.401  11.161 -0.0719  0.3720 -0.1478
  326MPD2    H1 4899   1.126   3.515  11.550 -0.4270  1.3541 -0.4033
  326MPD2    H2 4900   0.810   3.240  11.515 -0.0103 -1.9188 -1.0545
  326MPD2    H3 4901   0.954   3.379  11.650  2.8745 -0.1431  0.4831
  326MPD2     N 4902   1.180   3.544  11.293 -0.5055 -0.0463 -0.5417
  326MPD2    H5 4903   1.247   3.577  11.362 -1.3800 -1.2618  0.8894
  326MPD2    N1 4904   0.828   3.238  11.236 -0.4022  0.8929  0.0484
  326MPD2    H7 4905   0.857   3.243  11.139  1.1149  2.0010  0.5562
  327TMC3    C1 4906   0.716   3.061  11.133  0.1197 -0.1542 -0.1036
  327TMC3    C2 4907   0.750   3.131  11.020 -0.7773 -0.5914  0.5617
  327TMC3    C3 4908   0.791   3.063  10.911  0.6049 -0.5811  0.4313
  327TMC3    C4 4909   0.709   2.926  11.145  0.3876 -0.5490 -0.3144
  327TMC3    C5 4910   0.757   2.859  11.035 -0.0841  0.4471  0.2790
  327TMC3    C6 4911   0.800   2.927  10.920  0.0126  0.8280 -0.3207
  327TMC3     C 4912   0.753   3.126  11.258 -0.1083  0.1904 -0.1761
  327TMC3     O 4913   0.732   3.067  11.363 -0.0971 -0.1727 -0.0664
  327TMC3     H 4914   0.752   3.239  11.016  2.1937 -0.7160 -1.1694
  327TMC3    H1 4915   0.659   2.873  11.225 -1.2995  1.1492 -0.2509
  327TMC3    H2 4916   0.848   2.867  10.843  1.2102  0.0575  1.0304
  327TMC3    C7 4917   0.827   2.742  11.067 -0.2114 -0.0447  0.1224
  327TMC3    C8 4918   0.871   3.135  10.815  0.2709  0.5666  0.2963
  327TMC3    O1 4919   0.847   2.664  10.975  0.2062  0.3234  0.1267
  327TMC3    O2 4920   0.912   3.246  10.842  0.8806  0.7301 -0.7689
  328MPD2     C 4921   3.548   2.380  16.505 -0.6974 -0.0483 -0.1745
  328MPD2    C1 4922   3.428   2.369  16.573  0.3374  0.3890  0.0206
  328MPD2    C2 4923   3.359   2.482  16.606  0.1318  0.1842 -0.4748
  328MPD2    C3 4924   3.407   2.605  16.581  0.7272  0.1162 -0.2798
  328MPD2    C4 4925   3.528   2.619  16.518  0.2239 -0.0490  0.0950
  328MPD2    C5 4926   3.586   2.506  16.468  0.1696  0.4888 -0.0877
  328MPD2     H 4927   3.259   2.474  16.648  0.1121  0.4016 -0.4808
  328MPD2    H1 4928   3.566   2.713  16.477  0.1861  0.1818  0.5926
  328MPD2    H2 4929   3.605   2.292  16.478 -0.4388  0.9246 -2.8325
  328MPD2    H3 4930   3.675   2.518  16.407  1.7270  2.3884  2.5914
  328MPD2     N 4931   3.327   2.712  16.604  0.1467 -0.2721  0.1103
  328MPD2    H5 4932   3.379   2.797  16.585  0.1514 -0.0733  1.0179
  328MPD2    N1 4933   3.388   2.240  16.597 -0.6603 -0.7359  0.1713
  328MPD2    H7 4934   3.461   2.171  16.579 -0.6474 -0.4086 -1.0590
  329TMC3    C1 4935   3.267   2.061  16.662  0.2345 -1.5730 -0.0561
  329TMC3    C2 4936   3.211   2.022  16.780 -0.1345  0.2572  0.2372
  329TMC3    C3 4937   3.215   1.892  16.809 -0.1848  0.1658  0.1863
  329TMC3    C4 4938   3.325   1.969  16.574 -1.6583 -0.8623 -0.2763
  329TMC3    C5 4939   3.317   1.834  16.607 -0.4056 -0.1237  0.1552
  329TMC3    C6 4940   3.276   1.794  16.732 -0.1776  0.4086 -0.1092
  329TMC3     C 4941   3.261   2.198  16.635  0.5221 -0.3673 -0.4355
  329TMC3     O 4942   3.171   2.264  16.677 -0.4497  0.1502 -0.2986
  329TMC3     H 4943   3.193   2.104  16.848  0.7974  1.5148 -1.0400
  329TMC3    H1 4944   3.384   2.001  16.488  0.8962 -4.0100  0.3358
  329TMC3    H2 4945   3.281   1.690  16.762 -2.0641  0.2849 -0.2195
  329TMC3    C7 4946   3.408   1.745  16.540 -0.7306  0.9658 -0.1738
  329TMC3    C8 4947   3.154   1.847  16.936 -0.1560  0.2906 -0.1906
  329TMC3    O1 4948   3.454   1.647  16.598  0.0000  0.2071  0.3158
  329TMC3    O2 4949   3.197   1.745  16.981 -0.0644  0.1613  0.5666
  330TMC3    C1 4950   1.582   2.964   8.900  0.0254  0.1991 -0.4959
  330TMC3    C2 4951   1.562   2.883   9.006 -0.0544 -0.3587 -0.8527
  330TMC3    C3 4952   1.623   2.759   9.003 -0.1875 -0.7159 -0.2607
  330TMC3    C4 4953   1.657   2.920   8.789 -0.6190 -0.3154  0.1005
  330TMC3    C5 4954   1.720   2.799   8.799 -0.3392  0.2080  0.0409
  330TMC3    C6 4955   1.701   2.712   8.904  0.2407 -0.1469 -0.1604
  330TMC3     C 4956   1.496   3.083   8.883 -0.1705  0.4441 -0.0655
  330TMC3     O 4957   1.386   3.078   8.932 -0.2712 -0.1508 -0.2489
  330TMC3     H 4958   1.498   2.916   9.087  0.5592  0.4011 -0.6767
  330TMC3    H1 4959   1.686   2.990   8.712 -1.1134 -0.2483 -0.0244
  330TMC3    H2 4960   1.722   2.606   8.900 -2.2150 -0.6982  1.5948
  330TMC3    C7 4961   1.817   2.772   8.696  0.2765  0.1775 -0.2439
  330TMC3    C8 4962   1.641   2.697   9.139 -0.9283  0.3856  0.0291
  330TMC3    O1 4963   1.837   2.862   8.615  0.3536 -0.7327 -0.3447
  330TMC3    O2 4964   1.570   2.746   9.223  0.3847  0.2330 -0.6477
  331MPD2     C 4965   3.832   1.746  12.640  0.3645  0.3784 -0.2302
  331MPD2    C1 4966   3.951   1.789  12.586  0.1377  0.3469 -0.8143
  331MPD2    C2 4967   4.049   1.692  12.571 -0.4965  0.2333 -0.4639
  331MPD2    C3 4968   4.030   1.567  12.628 -0.1137  1.2782  0.3836
  331MPD2    C4 4969   3.911   1.527  12.692  0.1495  0.8586 -0.3423
  331MPD2    C5 4970   3.817   1.623  12.704  0.6505 -0.1913 -0.6980
  331MPD2     H 4971   4.144   1.728  12.534  0.1171 -1.9258 -0.9871
  331MPD2    H1 4972   3.904   1.432  12.744 -0.4968  1.5468  0.8284
  331MPD2    H2 4973   3.749   1.814  12.654 -0.6061 -1.2120  1.7996
  331MPD2    H3 4974   3.727   1.607  12.763  0.7064 -0.6006 -0.7197
  331MPD2     N 4975   4.127   1.467  12.612 -0.2831  0.5371 -0.3202
  331MPD2    H5 4976   4.109   1.378  12.657  0.4213 -0.6047 -2.3479
  331MPD2    N1 4977   3.980   1.910  12.528 -0.5469  0.6763 -0.5225
  331MPD2    H7 4978   4.070   1.920  12.481  1.7975 -2.7527  3.1904
  332TMC3    C1 4979   4.328   1.376  12.551 -0.0683  0.4938 -0.0256
  332TMC3    C2 4980   4.394   1.345  12.438 -0.4124 -0.2853  0.3896
  332TMC3    C3 4981   4.528   1.344  12.433  0.3293  0.5900  0.2147
  332TMC3    C4 4982   4.403   1.403  12.657  0.4302  0.4247  0.0355
  332TMC3    C5 4983   4.540   1.405  12.657 -0.1705 -0.0178  0.1738
  332TMC3    C6 4984   4.605   1.369  12.544  0.6071  0.3978  0.0550
  332TMC3     C 4985   4.232   1.477  12.523 -0.2603  0.2194 -0.6121
  332TMC3     O 4986   4.248   1.550  12.425 -1.1831  0.3791 -0.0308
  332TMC3     H 4987   4.338   1.334  12.346  0.8854  0.6280 -0.5161
  332TMC3    H1 4988   4.355   1.418  12.753 -1.4086  1.0294 -0.9717
  332TMC3    H2 4989   4.713   1.370  12.548  0.6271  0.9026 -0.6931
  332TMC3    C7 4990   4.607   1.471  12.769  0.3490  0.1443  0.0996
  332TMC3    C8 4991   4.606   1.361  12.306  0.1768  0.3999 -0.5785
  332TMC3    O1 4992   4.531   1.542  12.836  0.3186 -0.6076  0.1434
  332TMC3    O2 4993   0.003   1.401  12.319 -0.1651  0.5748  0.0830
  333MPD2     C 4994   0.103   1.350  11.354 -0.1190 -0.7059  0.8933
  333MPD2    C1 4995   0.158   1.246  11.281 -0.4613  0.2737 -0.0063
  333MPD2    C2 4996   0.112   1.117  11.299  0.4132  0.1164 -0.3549
  333MPD2    C3 4997   0.006   1.099  11.391 -0.4259 -0.4092  0.3817
  333MPD2    C4 4998   4.663   1.203  11.457 -0.0808 -0.2163 -0.0957
  333MPD2    C5 4999   4.715   1.324  11.426 -0.7819 -0.1473 -0.2849
  333MPD2     H 5000   0.146   1.029  11.247 -1.4865 -1.5315  1.2095
  333MPD2    H1 5001   4.580   1.194  11.526  1.0428 -0.6527  1.2060
  333MPD2    H2 5002   0.133   1.448  11.321 -1.5507 -1.0446 -1.4817
  333MPD2    H3 5003   4.671   1.415  11.465 -3.0902 -1.3236 -0.1822
  333MPD2     N 5004   4.686   0.967  11.396 -0.1977  0.3196  0.3266
  333MPD2    H5 5005   0.018   0.898  11.342 -1.7417  1.1174 -2.1594
  333MPD2    N1 5006   0.256   1.283  11.180  0.3959  0.2007 -0.5852
  333MPD2    H7 5007   0.281   1.380  11.165 -0.0167  0.3630 -0.2454
  334TMC3    C1 5008   0.434   1.273  11.026  0.0610 -0.2801 -0.2615
  334TMC3    C2 5009   0.542   1.202  10.976 -0.7135  0.1967 -0.3270
  334TMC3    C3 5010   0.594   1.250  10.864 -0.3745 -0.6201 -0.1320
  334TMC3    C4 5011   0.394   1.398  10.972  0.1077 -0.0748  0.3164
  334TMC3    C5 5012   0.443   1.431  10.848  0.3772  0.1741 -0.5578
  334TMC3    C6 5013   0.541   1.353  10.788 -0.0536 -0.6787 -0.4000
  334TMC3     C 5014   0.344   1.204  11.118  0.0003  0.2788 -0.2530
  334TMC3     O 5015   0.364   1.081  11.137 -0.1117  0.3408 -0.5988
  334TMC3     H 5016   0.576   1.108  11.019 -2.0035  0.5231  1.4212
  334TMC3    H1 5017   0.328   1.470  11.018 -0.0409 -0.8574  1.3227
  334TMC3    H2 5018   0.570   1.376  10.686  0.5258 -2.2409 -0.5785
  334TMC3    C7 5019   0.431   1.569  10.800 -0.3921 -0.0029  0.0700
  334TMC3    C8 5020   0.715   1.178  10.831 -0.1570 -0.1362 -0.0049
  334TMC3    O1 5021   0.519   1.617  10.729 -0.3073 -0.0691  0.5596
  334TMC3    O2 5022   0.745   1.072  10.883 -0.1103 -0.4518  0.4496
  335TMC3    C1 5023   4.464   2.991  17.495  0.4919 -0.5045  0.6123
  335TMC3    C2 5024   4.338   2.992  17.434 -0.2154  0.9405 -0.1710
  335TMC3    C3 5025   4.321   3.057  17.319  0.6818 -0.3747  0.2109
  335TMC3    C4 5026   4.572   3.052  17.438 -0.3214 -0.1020  0.6528
  335TMC3    C5 5027   4.553   3.121  17.327  0.2021  0.1548  0.0137
  335TMC3    C6 5028   4.425   3.128  17.266 -0.0424  0.7551 -0.0876
  335TMC3     C 5029   4.487   2.933  17.621 -0.1847  0.4630  0.2631
  335TMC3     O 5030   4.595   2.962  17.673 -0.0122 -0.4135  0.0325
  335TMC3     H 5031   4.255   2.943  17.484 -0.2142 -0.0368 -1.1243
  335TMC3    H1 5032   4.670   3.049  17.484  0.3176  0.8053 -0.6492
  335TMC3    H2 5033   4.417   3.158  17.162  3.2998  1.5739 -0.1178
  335TMC3    C7 5034   4.655   3.209  17.272 -0.2286 -0.3611  0.4750
  335TMC3    C8 5035   4.194   3.044  17.249  0.5860 -0.1364  0.0144
  335TMC3    O1 5036   0.049   3.195  17.315 -0.2750  0.1651 -0.1457
  335TMC3    O2 5037   4.162   3.131  17.166  0.2871 -0.0833  0.3163
  336MPD2     C 5038   3.706   0.508  16.138 -0.1435 -0.3506 -0.7142
  336MPD2    C1 5039   3.812   0.586  16.172  0.0126 -0.2187  0.1467
  336MPD2    C2 5040   3.906   0.530  16.261 -0.1192  0.1299  0.8645
  336MPD2    C3 5041   3.899   0.394  16.301  0.0504  0.1268  0.0911
  336MPD2    C4 5042   3.790   0.316  16.272  0.1986 -0.6849  0.7424
  336MPD2    C5 5043   3.701   0.374  16.193  0.0775  0.1503 -0.1607
  336MPD2     H 5044   3.981   0.599  16.297 -0.0792 -0.0536  1.1313
  336MPD2    H1 5045   3.787   0.213  16.307  0.8654 -1.0066 -0.1452
  336MPD2    H2 5046   3.620   0.533  16.078 -1.7402 -0.9768  1.3033
  336MPD2    H3 5047   3.619   0.312  16.160 -1.2452  1.6517  0.2913
  336MPD2     N 5048   4.002   0.332  16.374  0.1488  0.3372 -0.0495
  336MPD2    H5 5049   3.993   0.238  16.411 -3.2184  1.0628  0.9451
  336MPD2    N1 5050   3.818   0.723  16.148 -0.6759  0.1567  1.3528
  336MPD2    H7 5051   3.897   0.771  16.190 -0.6125 -0.1830  1.6162
  337TMC3    C1 5052   3.766   0.931  16.047  0.2817  0.4632 -0.0717
  337TMC3    C2 5053   3.729   1.003  15.936  0.2925  0.0515  0.1404
  337TMC3    C3 5054   3.742   1.141  15.930 -0.8286  0.0283  0.2483
  337TMC3    C4 5055   3.830   0.992  16.154 -0.5727  0.8827 -0.4326
  337TMC3    C5 5056   3.822   1.130  16.151 -0.1888 -0.2323  0.1693
  337TMC3    C6 5057   3.788   1.203  16.045 -0.8957 -0.7040  0.8456
  337TMC3     C 5058   3.742   0.788  16.051  1.2900  0.1625 -0.1666
  337TMC3     O 5059   3.692   0.738  15.951 -0.8499 -0.0186 -0.3014
  337TMC3     H 5060   3.668   0.954  15.861 -1.6078 -1.3664  2.6261
  337TMC3    H1 5061   3.872   0.948  16.244  1.8402  0.2828 -1.8452
  337TMC3    H2 5062   3.785   1.311  16.042  0.9490 -0.6279  1.3716
  337TMC3    C7 5063   3.872   1.192  16.276 -0.4090  0.5057  0.1243
  337TMC3    C8 5064   3.707   1.216  15.814 -0.6056  0.4347 -0.1518
  337TMC3    O1 5065   3.888   1.131  16.378  0.2901 -0.5309 -0.1781
  337TMC3    O2 5066   3.702   1.339  15.825 -0.6095  0.1984  0.0220
  338MPD2     C 5067   4.567   4.475   0.641 -0.1347  0.3233 -0.7115
  338MPD2    C1 5068   4.436   4.459   0.651 -0.1161  0.0024 -0.1322
  338MPD2    C2 5069   4.379   4.444   0.779  0.6742  1.0104  0.0289
  338MPD2    C3 5070   4.460   4.456   0.891 -0.1608 -0.7534  0.8772
  338MPD2    C4 5071   4.591   4.482   0.870  0.2803  0.2399 -0.7335
  338MPD2    C5 5072   4.647   4.492   0.748 -0.1371 -0.0066  0.1226
  338MPD2     H 5073   4.277   4.414   0.798  1.3686 -1.9186 -0.8470
  338MPD2    H1 5074   4.658   4.488   0.955  1.5201 -0.8677 -1.6324
  338MPD2    H2 5075   4.606   4.480   0.540  0.5699 -1.5688 -0.5375
  338MPD2    H3 5076   0.035   4.502   0.747 -0.1007 -0.4113  0.2103
  338MPD2     N 5077   4.388   4.447   1.014  0.1144 -0.5944  0.0847
  338MPD2    H5 5078   4.287   4.446   1.011 -0.0326  2.9505  3.7724
  338MPD2    N1 5079   4.344   4.437   0.545  0.1312 -0.8212 -0.2532
  338MPD2    H7 5080   4.253   4.404   0.577  0.2347  0.2373  1.1641
  339TMC3    C1 5081   4.350   4.490   1.241 -0.6641  0.0106 -0.4655
  339TMC3    C2 5082   4.365   4.428   1.362 -0.1486 -0.6140  0.2517
  339TMC3    C3 5083   4.287   4.485   1.462  0.1557 -0.4574  0.3639
  339TMC3    C4 5084   4.277   4.600   1.221  0.3089  0.0493  0.2509
  339TMC3    C5 5085   4.199   4.651   1.321 -0.2432  0.3629 -0.1162
  339TMC3    C6 5086   4.210   4.601   1.447  0.5142  0.3458  0.4180
  339TMC3     C 5087   4.442   4.441   1.137 -0.3784  0.6888  0.6144
  339TMC3     O 5088   4.549   4.391   1.164  0.0807 -0.1192  0.0584
  339TMC3     H 5089   4.424   4.338   1.375  1.1351  0.4576  1.7469
  339TMC3    H1 5090   4.258   4.630   1.118 -2.8431 -1.2745  0.4485
  339TMC3    H2 5091   4.174   4.658   1.531 -3.0236 -3.3899  1.4280
  339TMC3    C7 5092   4.164   0.063   1.295  0.3784  0.2197 -0.2073
  339TMC3    C8 5093   4.281   4.417   1.592  0.8546  0.2180 -0.5220
  339TMC3    O1 5094   4.224   0.119   1.206  0.2712 -0.5273  0.3653
  339TMC3    O2 5095   4.377   4.348   1.621  0.3733 -0.3944 -0.4121
  340MPD2     C 5096   4.415   1.911   9.903  0.0953  0.3231  0.5564
  340MPD2    C1 5097   4.412   1.998   9.797 -0.3907  0.3355 -0.2576
  340MPD2    C2 5098   4.438   2.135   9.823 -0.3060  0.1177  0.2269
  340MPD2    C3 5099   4.458   2.178   9.956  0.2123 -0.0313 -0.3477
  340MPD2    C4 5100   4.471   2.084  10.055  0.2836  0.9536  0.0724
  340MPD2    C5 5101   4.448   1.955  10.023 -0.0352  0.3190 -0.4260
  340MPD2     H 5102   4.459   2.207   9.744  1.8608  0.4328  1.0822
  340MPD2    H1 5103   4.508   2.111  10.154 -1.6002  0.5761  0.8768
  340MPD2    H2 5104   4.399   1.804   9.896 -0.7915  0.5086 -0.2417
  340MPD2    H3 5105   4.471   1.885  10.102  2.0906  1.6582  0.1524
  340MPD2     N 5106   4.484   2.314   9.993  0.2417 -0.2858 -0.3214
  340MPD2    H5 5107   4.512   2.329  10.090 -3.4435  0.1280  0.6665
  340MPD2    N1 5108   4.407   1.944   9.662  0.0907 -0.5070  0.3706
  340MPD2    H7 5109   4.393   1.844   9.655 -1.9301 -0.1544 -0.7288
  341TMC3    C1 5110   4.447   1.948   9.424 -0.1687 -0.4554 -0.0003
  341TMC3    C2 5111   4.379   1.832   9.401 -0.0736 -0.0785 -0.3644
  341TMC3    C3 5112   4.412   1.768   9.283  0.7852 -0.5404 -0.0846
  341TMC3    C4 5113   4.525   2.009   9.328 -0.1570 -0.3634 -0.4508
  341TMC3    C5 5114   4.532   1.952   9.205 -0.3066 -0.1632 -0.2153
  341TMC3    C6 5115   4.480   1.828   9.178  0.1805 -0.2221  0.3949
  341TMC3     C 5116   4.429   2.021   9.547  0.3072 -0.3008 -0.6448
  341TMC3     O 5117   4.463   2.141   9.539  0.2561  0.3291 -0.2889
  341TMC3     H 5118   4.322   1.776   9.474 -1.8648 -0.5927 -2.1537
  341TMC3    H1 5119   4.562   2.111   9.333  0.8767 -0.8920  2.4211
  341TMC3    H2 5120   4.506   1.770   9.090 -1.4330  0.2545 -0.4153
  341TMC3    C7 5121   4.606   2.029   9.103 -0.0665  0.0735  0.6559
  341TMC3    C8 5122   4.341   1.639   9.263  0.7706 -0.1053 -0.1863
  341TMC3    O1 5123   4.660   2.128   9.139  0.0680 -0.0654 -0.2136
  341TMC3    O2 5124   4.324   1.572   9.365  0.2468 -0.0722 -0.0378
  342MPD2     C 5125   2.461   0.654  17.137  0.4236 -0.8818  0.2016
  342MPD2    C1 5126   2.417   0.658  17.263  0.7741  0.2345  0.0977
  342MPD2    C2 5127   2.356   0.774  17.312  0.1501  0.0889 -0.7417
  342MPD2    C3 5128   2.347   0.888  17.233 -0.2696  0.7999 -0.9459
  342MPD2    C4 5129   2.405   0.889  17.104  0.1296 -0.0175 -0.4655
  342MPD2    C5 5130   2.464   0.768  17.066  0.0523  0.2089 -0.3240
  342MPD2     H 5131   2.325   0.783  17.415 -0.2924 -0.2844 -0.8394
  342MPD2    H1 5132   2.407   0.981  17.047 -2.4096  0.6082  0.4696
  342MPD2    H2 5133   2.504   0.565  17.093  1.0524 -1.5562  2.2269
  342MPD2    H3 5134   2.501   0.763  16.964 -1.6860  1.3078 -1.0125
  342MPD2     N 5135   2.288   1.008  17.283 -0.6739  0.5664  0.9115
  342MPD2    H5 5136   2.289   1.094  17.230 -1.5408  0.7422  1.1669
  342MPD2    N1 5137   2.416   0.551  17.350 -0.5930  0.3876 -0.4685
  342MPD2    H7 5138   2.418   0.571  17.449  2.3817  0.4438 -0.5499
  343TMC3    C1 5139   2.428   0.323  17.423 -0.1596  0.3919 -0.1312
  343TMC3    C2 5140   2.536   0.334  17.504  0.7081  0.2142 -0.7909
  343TMC3    C3 5141   2.563   0.224  17.587 -0.8860  0.3161 -0.3812
  343TMC3    C4 5142   2.349   0.214  17.416  0.5290  0.1197  0.4309
  343TMC3    C5 5143   2.382   0.112  17.504 -0.0076  0.4770  0.0466
  343TMC3    C6 5144   2.487   0.116  17.596  0.0937  0.0163 -0.7881
  343TMC3     C 5145   2.420   0.421  17.313  0.6271 -0.4585 -0.0967
  343TMC3     O 5146   2.398   0.376  17.196  0.0217 -0.0385  0.2411
  343TMC3     H 5147   2.594   0.425  17.508 -0.5136  1.0621 -2.4585
  343TMC3    H1 5148   2.262   0.213  17.350  0.4171 -1.0119  0.5878
  343TMC3    H2 5149   2.506   0.043  17.674  0.0992  0.6280 -0.2156
  343TMC3    C7 5150   2.297   4.710  17.495 -0.1358 -0.3356  0.1909
  343TMC3    C8 5151   2.695   0.205  17.637  0.4894 -0.1849  0.1187
  343TMC3    O1 5152   2.209   4.711  17.408 -0.0351 -0.3850  0.0936
  343TMC3    O2 5153   2.709   0.105   0.026  0.5537 -0.5056 -0.0127
  344MPD2     C 5154   4.057   0.318  10.384 -0.0651 -0.7853 -0.3713
  344MPD2    C1 5155   3.954   0.371  10.308  0.4537 -0.4427 -0.9691
  344MPD2    C2 5156   3.986   0.471  10.208  0.4975 -0.5201  0.3789
  344MPD2    C3 5157   4.113   0.524  10.199  0.0205 -0.1647 -0.4900
  344MPD2    C4 5158   4.205   0.468  10.285 -0.6717 -0.2448 -0.5591
  344MPD2    C5 5159   4.178   0.367  10.372 -0.5684 -0.7162 -0.4907
  344MPD2     H 5160   3.902   0.500  10.145 -1.9570 -1.2794  3.2920
  344MPD2    H1 5161   4.307   0.506  10.279 -0.7981  0.3938  1.5979
  344MPD2    H2 5162   4.049   0.233  10.450  1.4245 -0.0316  0.7936
  344MPD2    H3 5163   4.259   0.328  10.432  0.3628 -0.9015 -1.8634
  344MPD2     N 5164   4.150   0.632  10.121 -0.2422  0.0096 -0.7306
  344MPD2    H5 5165   4.242   0.669  10.142 -0.3322 -0.1665 -0.0207
  344MPD2    N1 5166   3.818   0.333  10.328  0.5198  0.6752 -0.2025
  344MPD2    H7 5167   3.746   0.361  10.262 -0.0570  2.2162  1.0872
  345TMC3    C1 5168   4.152   0.794   9.947  1.0829 -0.0105 -0.0328
  345TMC3    C2 5169   4.228   0.883  10.025 -0.3806 -0.4174  0.3252
  345TMC3    C3 5170   4.289   0.987   9.959 -0.2816 -0.6019 -0.9902
  345TMC3    C4 5171   4.107   0.828   9.819 -0.4210  0.0292  0.4414
  345TMC3    C5 5172   4.157   0.942   9.767 -0.2632 -0.3969 -0.6847
  345TMC3    C6 5173   4.251   1.023   9.835  0.4781 -0.0874 -0.1694
  345TMC3     C 5174   4.092   0.673  10.004  0.4842 -0.3950 -0.3212
  345TMC3     O 5175   4.000   0.615   9.943  0.5907  0.0079 -0.2238
  345TMC3     H 5176   4.227   0.867  10.132 -0.9716 -1.1537  0.2053
  345TMC3    H1 5177   4.024   0.782   9.768  0.4631 -1.0640  0.0019
  345TMC3    H2 5178   4.304   1.104   9.785 -0.0826 -0.4767 -1.3936
  345TMC3    C7 5179   4.105   1.003   9.651 -0.8704 -0.1242  0.5663
  345TMC3    C8 5180   4.324   1.093  10.055  0.3994 -0.2015  0.2322
  345TMC3    O1 5181   4.137   1.119   9.637  0.2612  0.1421  0.3387
  345TMC3    O2 5182   4.293   1.088  10.174  0.7093  0.0309 -0.7540
  346MPD2     C 5183   3.292   2.882  14.476  0.6123 -0.8791 -0.1344
  346MPD2    C1 5184   3.409   2.870  14.400  1.1847  0.4358 -0.0087
  346MPD2    C2 5185   3.525   2.925  14.446 -0.5048  0.4163 -0.0350
  346MPD2    C3 5186   3.538   2.969  14.572  0.1563 -0.1109  0.0824
  346MPD2    C4 5187   3.425   2.984  14.649 -0.1007 -0.5677  0.2780
  346MPD2    C5 5188   3.305   2.937  14.607 -0.0211  0.2207 -0.0321
  346MPD2     H 5189   3.608   2.923  14.377 -0.3489 -0.2514  0.1725
  346MPD2    H1 5190   3.437   3.034  14.744 -1.1269  0.1344  0.0413
  346MPD2    H2 5191   3.196   2.850  14.437  0.0389 -1.6964  1.9725
  346MPD2    H3 5192   3.208   2.949  14.655  0.2458 -3.0389  1.3602
  346MPD2     N 5193   3.661   3.005  14.617  0.4402  0.2411 -0.4672
  346MPD2    H5 5194   3.741   2.979  14.561  0.2901 -0.1181 -0.5154
  346MPD2    N1 5195   3.401   2.822  14.269 -0.0075 -0.1936  0.2326
  346MPD2    H7 5196   3.486   2.831  14.214 -1.0311  0.7519 -1.2153
  347TMC3    C1 5197   3.852   3.050  14.730 -0.5662  1.1758  0.4345
  347TMC3    C2 5198   3.910   3.103  14.617 -0.5327 -0.2818 -0.5392
  347TMC3    C3 5199   4.045   3.111  14.608 -0.0239  0.1273 -0.3862
  347TMC3    C4 5200   3.932   2.990  14.819  0.3460 -0.9687  0.0870
  347TMC3    C5 5201   4.068   3.002  14.816 -0.0300  0.0334  0.1269
  347TMC3    C6 5202   4.126   3.062  14.707 -0.3173  0.6078  0.1541
  347TMC3     C 5203   3.705   3.048  14.739 -0.0171  0.0036  0.2814
  347TMC3     O 5204   3.650   3.075  14.845 -0.0458  0.2651  0.8448
  347TMC3     H 5205   3.848   3.146  14.539 -2.8932 -2.8385 -0.0614
  347TMC3    H1 5206   3.889   2.952  14.911  0.9277  0.9344  1.1425
  347TMC3    H2 5207   4.231   3.048  14.686 -0.4055  0.8534 -0.4538
  347TMC3    C7 5208   4.139   2.953  14.931 -0.9670 -0.3033  0.5503
  347TMC3    C8 5209   4.109   3.204  14.513  0.4098 -0.8580 -0.1873
  347TMC3    O1 5210   4.081   2.867  14.996 -0.0513  0.0546 -0.3151
  347TMC3    O2 5211   4.196   3.270  14.564  0.2070 -0.2030  0.0293
  348MPD2     C 5212   2.117   2.081  11.961  0.0363  0.3075  0.5079
  348MPD2    C1 5213   2.225   2.121  11.895 -0.0171  0.5646  0.7819
  348MPD2    C2 5214   2.213   2.229  11.808  0.1912 -0.2162 -0.2699
  348MPD2    C3 5215   2.099   2.308  11.809 -0.2177  0.2606  0.1827
  348MPD2    C4 5216   1.991   2.259  11.880  0.2662  0.3816  0.1083
  348MPD2    C5 5217   2.002   2.144  11.956  0.4770  0.2368 -0.8916
  348MPD2     H 5218   2.304   2.257  11.757  2.0862 -0.1164  3.2093
  348MPD2    H1 5219   1.901   2.319  11.883 -1.8029 -2.7440  0.2254
  348MPD2    H2 5220   2.120   1.988  12.016 -1.0959 -1.5990 -2.6477
  348MPD2    H3 5221   1.921   2.110  12.018  1.2043  0.9456  0.4557
  348MPD2     N 5222   2.088   2.421  11.724 -0.0610  0.1971  0.4728
  348MPD2    H5 5223   2.170   2.446  11.670  0.4760 -0.4703  0.9718
  348MPD2    N1 5224   2.351   2.060  11.909  0.2789 -0.0734 -0.0412
  348MPD2    H7 5225   2.425   2.089  11.846 -0.2401 -2.5920 -1.8198
  349TMC3    C1 5226   2.510   1.909  12.001  0.0550  0.1929  0.4634
  349TMC3    C2 5227   2.554   1.845  12.111 -0.3226 -0.0305 -0.5747
  349TMC3    C3 5228   2.642   1.741  12.093  0.1373 -0.5837  0.1840
  349TMC3    C4 5229   2.560   1.880  11.879  0.1986 -0.0992 -0.0944
  349TMC3    C5 5230   2.646   1.770  11.862 -0.2256 -0.4961  0.4838
  349TMC3    C6 5231   2.689   1.700  11.970  0.9726 -0.4694 -0.4759
  349TMC3     C 5232   2.386   1.985  12.016 -0.7785 -0.5220 -0.5743
  349TMC3     O 5233   2.332   1.970  12.126 -0.1273 -0.1788  0.0801
  349TMC3     H 5234   2.515   1.860  12.211  1.7386 -0.0481  0.2349
  349TMC3    H1 5235   2.523   1.932  11.791 -1.2771 -3.3196 -1.3996
  349TMC3    H2 5236   2.740   1.605  11.954 -1.9044 -1.8063 -1.6147
  349TMC3    C7 5237   2.656   1.703  11.733 -0.4367 -0.1974 -0.1125
  349TMC3    C8 5238   2.674   1.646  12.194  0.3430  0.5227  0.1305
  349TMC3    O1 5239   2.760   1.644  11.695  0.2983 -0.1719 -0.4042
  349TMC3    O2 5240   2.587   1.625  12.276  0.5658 -0.3728 -0.3323
  350MPD2     C 5241   1.728   0.234   9.746 -0.1279 -0.1138 -0.2900
  350MPD2    C1 5242   1.788   0.106   9.712 -0.0433 -0.1710 -0.7416
  350MPD2    C2 5243   1.907   0.099   9.649 -0.0494  0.6227 -0.1179
  350MPD2    C3 5244   1.973   0.209   9.604  0.2222 -0.1477  0.8041
  350MPD2    C4 5245   1.907   0.332   9.624  0.0921  0.0419 -0.9004
  350MPD2    C5 5246   1.789   0.344   9.691  0.2666 -0.1766  0.2729
  350MPD2     H 5247   1.956   0.003   9.641  0.6817  0.9519  0.3267
  350MPD2    H1 5248   1.951   0.419   9.576 -0.7013  0.2598 -1.2302
  350MPD2    H2 5249   1.640   0.246   9.808  0.2440  2.3568 -0.2391
  350MPD2    H3 5250   1.741   0.441   9.696 -0.1067 -0.3053 -0.7891
  350MPD2     N 5251   2.108   0.202   9.562 -0.1792 -0.2409  0.1721
  350MPD2    H5 5252   2.142   0.108   9.577 -0.3982 -0.3584 -0.0463
  350MPD2    N1 5253   1.728   4.696   9.747 -0.0929 -0.5074 -0.1830
  350MPD2    H7 5254   1.768   4.612   9.707  0.9572  0.1431 -0.4904
  351TMC3    C1 5255   1.548   4.555   9.813 -0.0268  0.0077  0.2789
  351TMC3    C2 5256   1.634   4.454   9.831 -0.0502  0.2389  0.1503
  351TMC3    C3 5257   1.581   4.335   9.826  0.5902 -0.0975  0.2602
  351TMC3    C4 5258   1.410   4.551   9.810 -0.2635 -0.5531 -0.5926
  351TMC3    C5 5259   1.359   4.423   9.821  0.4169 -0.0600  0.1159
  351TMC3    C6 5260   1.446   4.311   9.830  0.4503  0.6342 -0.0994
  351TMC3     C 5261   1.609   4.687   9.815 -0.7346 -0.3559  0.2608
  351TMC3     O 5262   1.543   0.062   9.859  0.3040  0.1032 -0.4557
  351TMC3     H 5263   1.740   4.470   9.848  0.3807 -1.9479 -0.4509
  351TMC3    H1 5264   1.363   4.648   9.797 -1.7961 -1.2106  0.0749
  351TMC3    H2 5265   1.410   4.209   9.819  2.3949 -0.1492  0.9122
  351TMC3    C7 5266   1.214   4.400   9.793 -1.1477  0.4616 -0.2104
  351TMC3    C8 5267   1.676   4.229   9.830 -0.5861 -0.1110 -0.2994
  351TMC3    O1 5268   1.177   4.285   9.812 -0.6046  0.6923 -0.1622
  351TMC3    O2 5269   1.756   4.211   9.735 -0.1327  0.1977  0.1014
  352MPD2     C 5270   2.805   1.618   1.139  0.0441  0.2381  0.1965
  352MPD2    C1 5271   2.937   1.594   1.127 -0.2143 -0.0145 -0.4082
  352MPD2    C2 5272   2.987   1.476   1.176  0.2700 -0.0980 -0.2655
  352MPD2    C3 5273   2.913   1.385   1.245 -0.1729  0.1792  0.3928
  352MPD2    C4 5274   2.775   1.418   1.262  0.3273 -0.1983 -0.3466
  352MPD2    C5 5275   2.725   1.533   1.211  0.7017  0.3964  0.0962
  352MPD2     H 5276   3.089   1.443   1.153  0.3598 -0.7108  1.0449
  352MPD2    H1 5277   2.700   1.363   1.317 -0.8638  1.1915 -0.5888
  352MPD2    H2 5278   2.761   1.709   1.100 -0.1368  0.1875  0.2799
  352MPD2    H3 5279   2.621   1.559   1.224  0.6600 -0.1972  0.9498
  352MPD2     N 5280   2.953   1.269   1.305 -0.1045  0.1716 -0.2990
  352MPD2    H5 5281   2.885   1.198   1.331 -0.9073  0.7485 -0.8037
  352MPD2    N1 5282   3.008   1.694   1.049  0.0589  0.1820 -0.3122
  352MPD2    H7 5283   2.952   1.763   1.001 -1.6796 -0.2827  1.0800
  353TMC3    C1 5284   3.097   1.096   1.399  0.7266 -0.9026  0.1525
  353TMC3    C2 5285   3.218   1.061   1.455 -0.5160 -0.0212 -0.4621
  353TMC3    C3 5286   3.238   0.936   1.491 -0.1454  0.3983 -0.8338
  353TMC3    C4 5287   3.005   0.992   1.362  0.6419 -0.1266  0.3435
  353TMC3    C5 5288   3.045   0.868   1.387  0.2667 -0.1317 -0.7481
  353TMC3    C6 5289   3.161   0.831   1.441  0.2457 -0.0534  0.1533
  353TMC3     C 5290   3.085   1.229   1.333 -0.0248 -0.6918  0.1325
  353TMC3     O 5291   3.184   1.302   1.329 -0.0463 -0.1434 -0.0866
  353TMC3     H 5292   3.294   1.134   1.482 -0.4501 -0.3014  0.0946
  353TMC3    H1 5293   2.904   1.005   1.325  0.4281 -1.0876  0.5821
  353TMC3    H2 5294   3.184   0.727   1.460 -0.5943 -0.7190 -2.4543
  353TMC3    C7 5295   2.945   0.765   1.362  0.1141 -0.0208  0.1513
  353TMC3    C8 5296   3.363   0.907   1.569 -0.5895  0.4138 -0.1072
  353TMC3    O1 5297   2.840   0.789   1.424 -0.2761 -0.7724  0.1507
  353TMC3    O2 5298   3.461   0.981   1.540 -0.3492  0.1084  0.5149
  354TMC3    C1 5299   0.673   3.522  13.331 -0.2613 -0.1699  0.0296
  354TMC3    C2 5300   0.583   3.620  13.307  0.1432  0.9974  0.3459
  354TMC3    C3 5301   0.592   3.679  13.186  0.5553  0.0296 -0.1973
  354TMC3    C4 5302   0.786   3.500  13.250 -0.3520  0.0090 -0.0193
  354TMC3    C5 5303   0.774   3.546  13.124 -0.0817  0.8458  0.2234
  354TMC3    C6 5304   0.686   3.642  13.092 -0.6781  0.0569  0.0849
  354TMC3     C 5305   0.684   3.478  13.467  0.0166 -0.2498  0.5055
  354TMC3     O 5306   0.593   3.448  13.536  0.2798  0.1773 -0.3971
  354TMC3     H 5307   0.502   3.640  13.376 -0.7519  0.0567 -0.4296
  354TMC3    H1 5308   0.836   3.406  13.272  1.6227  1.1583  0.4612
  354TMC3    H2 5309   0.673   3.669  12.988  1.4874  3.0264  0.5693
  354TMC3    C7 5310   0.868   3.493  13.034  0.0101  0.2842 -0.0312
  354TMC3    C8 5311   0.549   3.818  13.191 -0.0367  0.5726  0.1527
  354TMC3    O1 5312   0.837   3.510  12.919 -0.0324 -0.2156  0.2646
  354TMC3    O2 5313   0.476   3.853  13.283  0.1977 -1.0699 -0.5783
  355MPD2     C 5314   1.964   3.888  11.629  0.1803  0.2112  0.9951
  355MPD2    C1 5315   1.970   3.979  11.728  0.0966 -0.5515  0.5309
  355MPD2    C2 5316   2.058   4.083  11.717 -0.3980  0.3040  0.0036
  355MPD2    C3 5317   2.156   4.086  11.618 -0.5294 -0.1142 -0.3318
  355MPD2    C4 5318   2.144   4.000  11.515  0.0449 -0.5275  0.0975
  355MPD2    C5 5319   2.050   3.903  11.521  0.5703 -0.0560 -0.4447
  355MPD2     H 5320   2.068   4.147  11.804 -1.7274  0.5974 -0.0519
  355MPD2    H1 5321   2.212   3.997  11.431  2.5988 -2.1129  2.2112
  355MPD2    H2 5322   1.891   3.808  11.621  0.5715 -0.0044 -0.5284
  355MPD2    H3 5323   2.043   3.826  11.446 -0.4981 -0.0982 -0.3030
  355MPD2     N 5324   2.255   4.193  11.612  0.7943 -0.1883  0.3188
  355MPD2    H5 5325   2.317   4.192  11.531  1.0652  1.0702  0.5246
  355MPD2    N1 5326   1.884   3.963  11.844  0.4305 -0.3795 -0.2506
  355MPD2    H7 5327   1.846   3.871  11.861  0.3239 -0.6949 -2.1306
  356TMC3    C1 5328   2.406   4.360  11.695  0.5500 -0.0383  0.7570
  356TMC3    C2 5329   2.423   4.413  11.571 -0.6100 -0.4090  0.5301
  356TMC3    C3 5330   2.507   4.524  11.567 -0.1850  0.2971  0.0483
  356TMC3    C4 5331   2.469   4.407  11.812  0.0279 -0.0047 -0.4575
  356TMC3    C5 5332   2.555   4.509  11.802  1.0358  0.4776  0.1493
  356TMC3    C6 5333   2.577   4.574  11.681 -0.1185 -0.4911  0.5035
  356TMC3     C 5334   2.294   4.262  11.726 -0.0257  0.1578  0.1366
  356TMC3     O 5335   2.246   4.275  11.837 -0.6665  0.6038 -0.5317
  356TMC3     H 5336   2.374   4.373  11.483  0.7313 -2.0681  0.5405
  356TMC3    H1 5337   2.443   4.366  11.909  0.9683  0.0747 -0.1741
  356TMC3    H2 5338   2.665   4.635  11.669  0.2603 -0.8670  1.4285
  356TMC3    C7 5339   2.642   4.522  11.924 -0.4862  0.0889 -0.2976
  356TMC3    C8 5340   2.529   4.574  11.439  0.3240  0.0548  0.9375
  356TMC3    O1 5341   2.629   4.439  12.016 -0.3289  0.7172  0.0860
  356TMC3    O2 5342   2.499   4.507  11.341  0.2772 -0.9224 -0.5051
  357MPD2     C 5343   1.074   3.411   2.035  0.1187 -0.7260  0.2597
  357MPD2    C1 5344   1.037   3.327   1.930  0.0471 -0.1359 -0.2531
  357MPD2    C2 5345   0.904   3.280   1.933 -0.4135  0.0419 -0.1456
  357MPD2    C3 5346   0.816   3.319   2.034  0.4011 -0.1985 -0.3524
  357MPD2    C4 5347   0.852   3.411   2.126 -0.5338  0.1839 -0.0310
  357MPD2    C5 5348   0.979   3.453   2.129 -0.8447 -0.5550 -0.2998
  357MPD2     H 5349   0.869   3.224   1.847  0.9755 -0.0484 -0.6477
  357MPD2    H1 5350   0.775   3.448   2.194 -0.7841  0.8954 -0.7028
  357MPD2    H2 5351   1.173   3.454   2.036 -0.8598  1.4916  0.5272
  357MPD2    H3 5352   1.012   3.513   2.213 -1.9270 -3.4007  2.1390
  357MPD2     N 5353   0.682   3.279   2.039 -0.0330  0.3444  0.2050
  357MPD2    H5 5354   0.614   3.315   2.105 -0.8597 -1.5005  0.3407
  357MPD2    N1 5355   1.135   3.300   1.825 -0.3395  1.0017  0.5628
  357MPD2    H7 5356   1.231   3.320   1.850 -0.2765  1.7103 -0.2574
  358TMC3    C1 5357   1.204   3.179   1.629  0.4387  0.3899 -0.1067
  358TMC3    C2 5358   1.164   3.114   1.523 -0.0075 -0.3290  0.3082
  358TMC3    C3 5359   1.268   3.069   1.436 -0.2777  0.0690  0.5224
  358TMC3    C4 5360   1.333   3.200   1.659  0.1568 -0.3587 -0.3606
  358TMC3    C5 5361   1.435   3.149   1.579 -0.6003 -0.7981  0.2504
  358TMC3    C6 5362   1.401   3.074   1.465  0.4569 -0.6045 -0.3949
  358TMC3     C 5363   1.095   3.234   1.709  0.2032 -0.1085 -0.8181
  358TMC3     O 5364   0.984   3.222   1.662 -0.1847  0.1902 -0.0648
  358TMC3     H 5365   1.062   3.083   1.504 -0.5103  0.7114  1.3410
  358TMC3    H1 5366   1.354   3.240   1.758 -2.1749 -0.3189  0.1297
  358TMC3    H2 5367   1.471   3.036   1.391  0.8614  1.4302 -1.0423
  358TMC3    C7 5368   1.573   3.173   1.604 -0.2957  0.7824 -0.3369
  358TMC3    C8 5369   1.229   3.000   1.313 -0.4114  1.4242 -0.7698
  358TMC3    O1 5370   1.651   3.121   1.521  0.4035  0.0543 -0.0633
  358TMC3    O2 5371   1.301   3.005   1.217  0.1752  0.3579  0.5495
  359MPD2     C 5372   2.082   2.861  12.800 -0.3406  0.0131 -0.5692
  359MPD2    C1 5373   2.003   2.852  12.687 -0.6383 -0.0281 -0.9851
  359MPD2    C2 5374   1.861   2.848  12.702  0.7546 -0.5573  0.7418
  359MPD2    C3 5375   1.805   2.843  12.829 -1.0725 -0.0413  0.1176
  359MPD2    C4 5376   1.892   2.842  12.938  0.5265  0.4831 -0.3830
  359MPD2    C5 5377   2.026   2.856  12.921 -0.3902  0.9174  0.4944
  359MPD2     H 5378   1.801   2.829  12.614  1.4798  3.2520 -0.5672
  359MPD2    H1 5379   1.854   2.828  13.038  0.8243  4.1203  0.2353
  359MPD2    H2 5380   2.190   2.866  12.798 -0.3562  0.0056 -1.8029
  359MPD2    H3 5381   2.083   2.845  13.013 -1.6134 -2.8363  0.8128
  359MPD2     N 5382   1.665   2.811  12.857  0.0936 -0.1558 -0.5081
  359MPD2    H5 5383   1.643   2.764  12.944 -0.7676 -1.6986 -1.5571
  359MPD2    N1 5384   2.046   2.841  12.557  0.2063 -0.6259 -0.5005
  359MPD2    H7 5385   1.975   2.825  12.486 -0.9649 -1.3541  0.8408
  360TMC3    C1 5386   2.197   2.784  12.393  1.3399 -0.6193  0.3083
  360TMC3    C2 5387   2.317   2.730  12.353  0.5644  0.7705 -0.7377
  360TMC3    C3 5388   2.313   2.656  12.232  0.3692 -0.5033 -0.0806
  360TMC3    C4 5389   2.092   2.804  12.306 -0.3750 -0.0874 -0.2249
  360TMC3    C5 5390   2.096   2.736  12.192  0.0425 -0.1851 -0.0241
  360TMC3    C6 5391   2.202   2.655  12.156  0.3979 -0.1660 -0.3786
  360TMC3     C 5392   2.180   2.823  12.529 -0.3127 -0.1212 -0.0765
  360TMC3     O 5393   2.285   2.818  12.589  0.3473  0.1151 -0.2283
  360TMC3     H 5394   2.399   2.715  12.423  1.2244  5.8230 -0.4482
  360TMC3    H1 5395   2.003   2.864  12.317  1.3877  2.2486  1.1139
  360TMC3    H2 5396   2.197   2.609  12.058 -0.0110  0.9255 -0.8711
  360TMC3    C7 5397   1.980   2.727  12.110 -0.7142 -0.3827 -0.8823
  360TMC3    C8 5398   2.402   2.549  12.213  0.4088  0.0908 -0.7544
  360TMC3    O1 5399   1.930   2.835  12.071 -0.4443 -0.4752  0.4226
  360TMC3    O2 5400   2.462   2.516  12.318 -0.3893 -0.3211  0.4456
  361MPD2     C 5401   3.063   1.607  16.349  0.1875 -0.1027  0.2637
  361MPD2    C1 5402   3.050   1.616  16.485 -0.2496 -0.3906 -0.5891
  361MPD2    C2 5403   3.122   1.538  16.574  0.4294  0.3230 -0.2170
  361MPD2    C3 5404   3.197   1.435  16.521  0.1691  0.0831 -0.3300
  361MPD2    C4 5405   3.219   1.431  16.384 -0.2492 -0.7029 -0.4789
  361MPD2    C5 5406   3.150   1.510  16.299  0.2509  0.4305  0.3306
  361MPD2     H 5407   3.116   1.547  16.682  0.8224 -2.1722  0.0164
  361MPD2    H1 5408   3.268   1.350  16.330 -0.9363 -0.7523 -1.0322
  361MPD2    H2 5409   3.009   1.662  16.274 -1.7523  0.6396  2.2159
  361MPD2    H3 5410   3.175   1.520  16.194 -1.9529 -0.4845 -0.2653
  361MPD2     N 5411   3.256   1.336  16.606 -0.2356  0.4808  0.4115
  361MPD2    H5 5412   3.315   1.263  16.567 -1.3371  1.5613 -3.2992
  361MPD2    N1 5413   2.956   1.714  16.523  0.3775 -0.2248 -0.1884
  361MPD2    H7 5414   2.904   1.765  16.452 -0.2638 -1.0625 -0.3094
  362TMC3    C1 5415   2.797   1.826  16.671  0.0091 -0.1701 -0.2892
  362TMC3    C2 5416   2.710   1.789  16.769 -0.0674 -0.3027 -0.0827
  362TMC3    C3 5417   2.583   1.831  16.759  0.1088  0.0564 -0.2624
  362TMC3    C4 5418   2.758   1.913  16.568  0.2650 -0.7175 -0.7428
  362TMC3    C5 5419   2.627   1.950  16.560 -1.0520  0.0111 -0.0151
  362TMC3    C6 5420   2.547   1.923  16.667 -0.4337 -0.3931  0.2242
  362TMC3     C 5421   2.909   1.728  16.653  0.4236  0.2194  0.4406
  362TMC3     O 5422   2.943   1.669  16.757  0.0679 -0.1046 -0.2269
  362TMC3     H 5423   2.737   1.712  16.840 -2.4312 -0.9595  0.1020
  362TMC3    H1 5424   2.822   1.940  16.484 -0.5828  1.1591 -0.7958
  362TMC3    H2 5425   2.440   1.939  16.651 -0.1897  0.5175 -0.5219
  362TMC3    C7 5426   2.582   2.011  16.434  0.2412 -0.0325 -0.2872
  362TMC3    C8 5427   2.492   1.764  16.855 -0.1823  0.2313 -0.3777
  362TMC3    O1 5428   2.668   2.074  16.371 -0.2652  0.3269 -0.2790
  362TMC3    O2 5429   2.506   1.641  16.877  0.1226  0.0411  0.3714
  363TMC3    C1 5430   2.593   3.789   9.673 -0.1854  1.0037  0.2509
  363TMC3    C2 5431   2.572   3.693   9.760 -0.2063 -0.1272  0.0790
  363TMC3    C3 5432   2.471   3.708   9.854 -0.3289 -0.2172 -0.3405
  363TMC3    C4 5433   2.515   3.901   9.660  0.6164  0.2268 -0.8863
  363TMC3    C5 5434   2.410   3.916   9.750 -0.3656 -0.0803  0.1614
  363TMC3    C6 5435   2.388   3.817   9.845  0.4917  0.0761  0.2159
  363TMC3     C 5436   2.714   3.782   9.603  0.3390  0.0391  0.3389
  363TMC3     O 5437   2.798   3.692   9.625  0.1003 -0.6260  0.1394
  363TMC3     H 5438   2.654   3.623   9.769  1.1310  1.5829  1.2128
  363TMC3    H1 5439   2.512   3.953   9.566 -1.5035  2.3535  0.3467
  363TMC3    H2 5440   2.306   3.832   9.914 -0.0790  0.2426 -0.4970
  363TMC3    C7 5441   2.300   4.005   9.724  0.6189  0.5238 -0.5588
  363TMC3    C8 5442   2.442   3.603   9.950 -0.5137  0.7544  0.4842
  363TMC3    O1 5443   2.198   3.991   9.790 -0.3910  1.2715 -0.5382
  363TMC3    O2 5444   2.362   3.628  10.035 -0.2581  0.5487  0.0562
  364MPD2     C 5445   1.044   3.164  10.319 -0.7365 -1.0915 -0.0701
  364MPD2    C1 5446   1.083   3.233  10.430 -0.3008  0.0774  0.2281
  364MPD2    C2 5447   1.038   3.202  10.560  0.3064  0.3151 -0.7247
  364MPD2    C3 5448   0.950   3.097  10.576  0.6935 -0.2821  0.0381
  364MPD2    C4 5449   0.910   3.025  10.467  0.1237 -0.0148 -0.0451
  364MPD2    C5 5450   0.960   3.062  10.340  0.1229  0.3638 -0.6663
  364MPD2     H 5451   1.070   3.265  10.642 -0.4035  1.2705 -1.1932
  364MPD2    H1 5452   0.837   2.945  10.476  2.5132 -2.3426 -1.0951
  364MPD2    H2 5453   1.082   3.185  10.220 -1.2020  1.2734  0.2464
  364MPD2    H3 5454   0.925   3.004  10.256 -0.1223  0.2449 -0.4816
  364MPD2     N 5455   0.876   3.062  10.698  0.1121 -0.0397  0.8113
  364MPD2    H5 5456   0.814   2.982  10.686  0.0890  0.4170 -1.9910
  364MPD2    N1 5457   1.147   3.352  10.396 -0.0351 -0.3428  0.1383
  364MPD2    H7 5458   1.189   3.349  10.304  0.6674  1.7663  0.3925
  365TMC3    C1 5459   1.251   3.563  10.411  0.2750  0.4783 -0.8007
  365TMC3    C2 5460   1.337   3.523  10.310  0.7765  0.1263 -1.6138
  365TMC3    C3 5461   1.408   3.618  10.241  0.2697  0.1065 -0.2028
  365TMC3    C4 5462   1.241   3.686  10.457  0.4362 -0.0084  0.0540
  365TMC3    C5 5463   1.323   3.774  10.395 -0.1162 -0.1089 -0.2157
  365TMC3    C6 5464   1.395   3.745  10.291  0.2082  0.2203  0.7289
  365TMC3     C 5465   1.169   3.463  10.478 -1.1541 -0.5092  0.1418
  365TMC3     O 5466   1.113   3.502  10.576  0.2332  0.0319 -0.2606
  365TMC3     H 5467   1.345   3.420  10.280 -0.1674  0.0348 -1.5699
  365TMC3    H1 5468   1.171   3.712  10.536  0.8600  0.9794  0.1115
  365TMC3    H2 5469   1.441   3.828  10.238  0.4036 -1.1157 -1.2216
  365TMC3    C7 5470   1.323   3.921  10.424 -0.5072  0.1063  0.2947
  365TMC3    C8 5471   1.474   3.585  10.118 -0.2710 -0.2212 -0.2525
  365TMC3    O1 5472   1.395   3.996  10.357 -0.0035 -0.2658  0.2740
  365TMC3    O2 5473   1.476   3.676  10.034  0.4642  0.6062 -0.2106
  366MPD2     C 5474   0.000   4.632  15.062 -0.3579  0.3616 -0.0396
  366MPD2    C1 5475   4.622   4.678  15.140 -0.0627 -0.2919 -0.5499
  366MPD2    C2 5476   4.654   0.036  15.247 -0.2214 -0.4333  0.2167
  366MPD2    C3 5477   0.056   0.099  15.258  0.2301 -0.1891  0.0723
  366MPD2    C4 5478   0.157   0.067  15.163 -0.5551 -0.3923  0.0893
  366MPD2    C5 5479   0.127   4.683  15.072 -0.4222 -0.9064 -0.0507
  366MPD2     H 5480   4.594   0.050  15.336 -0.9097  0.8214 -0.4410
  366MPD2    H1 5481   0.258   0.108  15.166 -0.6686 -0.1150  0.1027
  366MPD2    H2 5482   4.693   4.551  14.996 -1.6562  0.1605  0.7533
  366MPD2    H3 5483   0.208   4.641  15.014  1.1242 -0.2624  1.6542
  366MPD2     N 5484   0.076   0.182  15.372  0.2241  0.1756 -0.5764
  366MPD2    H5 5485   0.006   0.179  15.445 -1.2293 -0.4538 -2.0027
  366MPD2    N1 5486   4.494   4.624  15.121 -0.3839 -0.3756  0.6554
  366MPD2    H7 5487   4.501   4.543  15.061  0.0177 -0.2020  0.4655
  367TMC3    C1 5488   4.345   0.075  15.222 -1.2336  0.5829  0.5377
  367TMC3    C2 5489   4.330   0.087  15.357  0.0592  0.2565 -0.5026
  367TMC3    C3 5490   4.243   0.175  15.411  0.6309 -0.6951  0.5818
  367TMC3    C4 5491   4.249   0.142  15.145  0.1774  0.4183 -0.6632
  367TMC3    C5 5492   4.168   0.232  15.197  0.3606  0.1464 -0.2684
  367TMC3    C6 5493   4.172   0.259  15.329 -0.4402  0.6177 -0.0828
  367TMC3     C 5494   4.371   4.665  15.161 -0.8426 -0.3874 -0.8149
  367TMC3     O 5495   4.280   4.586  15.150 -0.0336  0.4561 -0.0085
  367TMC3     H 5496   4.387   0.020  15.420  0.3294  0.3004 -0.6998
  367TMC3    H1 5497   4.241   0.117  15.039  0.7659 -0.5970 -0.4692
  367TMC3    H2 5498   4.096   0.328  15.364 -1.3061 -0.3802  0.0188
  367TMC3    C7 5499   4.054   0.296  15.132 -0.2370  0.7743 -0.1066
  367TMC3    C8 5500   4.280   0.241  15.533 -0.3108  0.8842 -0.0511
  367TMC3    O1 5501   4.039   0.417  15.142 -0.0781 -0.3623  0.2563
  367TMC3    O2 5502   4.393   0.244  15.582  0.0685  0.0526 -0.2699
  368MPD2     C 5503   4.505   2.719  13.046 -0.0604 -0.1387 -1.0150
  368MPD2    C1 5504   4.530   2.815  12.957 -0.0069  0.0468  0.0934
  368MPD2    C2 5505   4.666   2.852  12.926  0.0065  0.5545  0.0189
  368MPD2    C3 5506   0.050   2.779  12.987  0.0771  0.1940 -0.2480
  368MPD2    C4 5507   0.018   2.675  13.069 -0.2856  0.1984  0.9661
  368MPD2    C5 5508   4.609   2.641  13.092 -0.1328 -0.0291  0.3876
  368MPD2     H 5509   4.668   2.938  12.860 -0.7974 -0.7747 -1.7152
  368MPD2    H1 5510   0.092   2.620  13.125 -0.6216 -1.2570 -0.0327
  368MPD2    H2 5511   4.403   2.693  13.071 -0.0119  0.4686 -0.1998
  368MPD2    H3 5512   4.586   2.564  13.165 -1.2918  1.1375  1.2513
  368MPD2     N 5513   0.182   2.822  12.980  0.1469  0.2628  0.2070
  368MPD2    H5 5514   0.253   2.764  13.025  0.5851 -0.0690 -0.9137
  368MPD2    N1 5515   4.415   2.875  12.902  0.0384 -0.2234 -0.6335
  368MPD2    H7 5516   4.328   2.835  12.938 -0.5981 -0.6545 -2.6639
  369TMC3    C1 5517   4.280   3.007  12.767  1.2274 -0.3210 -0.5088
  369TMC3    C2 5518   4.267   3.069  12.650 -0.0988  0.8021  0.4762
  369TMC3    C3 5519   4.146   3.059  12.581  0.3463  0.3278  0.2792
  369TMC3    C4 5520   4.179   2.934  12.820 -0.5891 -0.4276 -0.2172
  369TMC3    C5 5521   4.065   2.919  12.749 -0.3933 -0.8068  0.2434
  369TMC3    C6 5522   4.055   2.967  12.624  0.6192  0.1761  0.1213
  369TMC3     C 5523   4.414   2.974  12.804  0.8179 -0.3471 -0.0631
  369TMC3     O 5524   4.505   3.025  12.745 -0.0387 -0.2236  0.3206
  369TMC3     H 5525   4.349   3.116  12.597  1.9188 -0.5759  2.3696
  369TMC3    H1 5526   4.182   2.897  12.922 -0.4915  0.7639  0.2138
  369TMC3    H2 5527   3.960   2.963  12.573  0.2221  1.2295  0.7582
  369TMC3    C7 5528   3.976   2.814  12.801  0.1102  0.5576 -0.0234
  369TMC3    C8 5529   4.150   3.065  12.434  0.3902 -0.0432 -0.7782
  369TMC3    O1 5530   4.029   2.738  12.876  0.3403 -0.4980 -0.5644
  369TMC3    O2 5531   4.081   2.986  12.379 -0.2917 -0.3765 -0.0877
  370TMC3    C1 5532   4.483   2.671  16.195 -0.3790  0.5569 -0.3832
  370TMC3    C2 5533   4.458   2.599  16.309 -0.6686 -0.5871  1.1034
  370TMC3    C3 5534   4.456   2.459  16.310 -0.5303 -0.2570  0.5315
  370TMC3    C4 5535   4.520   2.606  16.079  0.1167  0.2940  0.0819
  370TMC3    C5 5536   4.511   2.470  16.082 -0.1301 -0.0085 -0.1858
  370TMC3    C6 5537   4.474   2.393  16.190 -0.4065  0.3825 -0.1304
  370TMC3     C 5538   4.444   2.815  16.190 -0.9905 -0.1541  0.1553
  370TMC3     O 5539   4.362   2.861  16.272 -0.2422  0.2426  0.8042
  370TMC3     H 5540   4.443   2.654  16.401 -1.6315 -0.6938  1.0037
  370TMC3    H1 5541   4.531   2.661  15.986  1.2174 -1.0821 -0.5922
  370TMC3    H2 5542   4.462   2.285  16.187  0.8515  0.1926  1.9532
  370TMC3    C7 5543   4.557   2.390  15.966 -0.4431 -0.3401  0.3500
  370TMC3    C8 5544   4.379   2.391  16.416 -0.5840  0.3600 -0.3229
  370TMC3    O1 5545   4.562   2.451  15.860 -0.0844  0.2811  0.2009
  370TMC3    O2 5546   4.368   2.269  16.408  0.4748 -0.1177 -0.4898
  371TMC3    C1 5547   0.979   1.023  15.309 -0.6811 -0.5508 -0.6628
  371TMC3    C2 5548   0.866   1.000  15.372  0.4395 -0.5962  0.0394
  371TMC3    C3 5549   0.772   1.101  15.388  0.6604  0.2373  0.5772
  371TMC3    C4 5550   1.005   1.151  15.266 -0.3021 -0.0094  0.2167
  371TMC3    C5 5551   0.907   1.252  15.276 -0.1841 -1.1236 -0.1453
  371TMC3    C6 5552   0.789   1.228  15.340  0.1480  0.8953 -0.0045
  371TMC3     C 5553   1.085   0.920  15.302 -0.5209 -0.3697  0.2223
  371TMC3     O 5554   1.197   0.962  15.279 -0.8036 -0.1397  0.0708
  371TMC3     H 5555   0.847   0.905  15.420  0.6883 -0.5657  0.1944
  371TMC3    H1 5556   1.089   1.161  15.198 -1.0542 -0.4079 -0.7769
  371TMC3    H2 5557   0.713   1.306  15.348  1.0285  1.8568 -0.9620
  371TMC3    C7 5558   0.935   1.382  15.217 -0.2300  0.3366  0.6309
  371TMC3    C8 5559   0.642   1.063  15.444 -0.2824  0.8932  0.2409
  371TMC3    O1 5560   0.854   1.445  15.151  0.6546  0.6155  0.4302
  371TMC3    O2 5561   0.621   0.942  15.461  0.3804  0.5617  0.1449
  372MPD2     C 5562   0.576   2.390  13.775  0.4908  0.2377  0.3015
  372MPD2    C1 5563   0.672   2.291  13.758  0.3299  0.3597 -0.2934
  372MPD2    C2 5564   0.626   2.161  13.734  0.4081  0.3462 -0.4216
  372MPD2    C3 5565   0.490   2.133  13.736 -0.4630  0.1675 -0.1843
  372MPD2    C4 5566   0.403   2.243  13.748 -0.3837  0.2622  0.3772
  372MPD2    C5 5567   0.444   2.371  13.749 -0.2157  0.1017 -0.3170
  372MPD2     H 5568   0.696   2.080  13.721 -0.4627 -0.5824  0.6703
  372MPD2    H1 5569   0.296   2.225  13.741 -0.1675 -1.5632  1.7839
  372MPD2    H2 5570   0.602   2.495  13.785 -0.1011  0.3281  0.9015
  372MPD2    H3 5571   0.368   2.448  13.745 -1.6783 -1.2106  2.0051
  372MPD2     N 5572   0.443   1.997  13.724  0.4668  0.7915  0.1499
  372MPD2    H5 5573   0.514   1.926  13.709 -0.9127 -0.6625  0.6073
  372MPD2    N1 5574   0.809   2.318  13.769 -0.5277 -0.2820  0.1176
  372MPD2    H7 5575   0.875   2.241  13.762 -1.1726 -0.7493 -0.7254
  373TMC3    C1 5576   0.272   1.834  13.690  0.2131  0.7279 -0.0565
  373TMC3    C2 5577   0.177   1.770  13.759 -0.5573 -0.2527  0.2920
  373TMC3    C3 5578   0.150   1.637  13.732  0.6832 -0.7965  0.2288
  373TMC3    C4 5579   0.355   1.772  13.602  0.0380  0.8288 -0.2029
  373TMC3    C5 5580   0.310   1.652  13.560 -0.2627 -0.3021 -0.4071
  373TMC3    C6 5581   0.217   1.573  13.629  0.0780  0.5963 -0.2055
  373TMC3     C 5582   0.312   1.962  13.753 -0.2853 -0.5540  0.2499
  373TMC3     O 5583   0.232   2.018  13.828  0.9010  0.9017 -0.2524
  373TMC3     H 5584   0.117   1.819  13.835 -1.3110  3.0319 -2.4289
  373TMC3    H1 5585   0.428   1.823  13.539  0.4899 -0.8445 -1.0197
  373TMC3    H2 5586   0.195   1.470  13.600  1.4411 -0.9460  4.3209
  373TMC3    C7 5587   0.370   1.604  13.438 -0.3180 -0.0096  0.3685
  373TMC3    C8 5588   0.133   1.565  13.855  0.1988  0.0487 -0.3701
  373TMC3    O1 5589   0.465   1.666  13.391 -0.1987 -0.4118 -0.2270
  373TMC3    O2 5590   0.050   1.605  13.932  0.1699 -0.0319 -0.0100
  374TMC3    C1 5591   1.709   1.232   9.859  0.4121 -0.1631  0.5907
  374TMC3    C2 5592   1.746   1.279   9.979 -0.5277  0.0463  0.4133
  374TMC3    C3 5593   1.816   1.398   9.984 -0.1801  0.8616 -0.3722
  374TMC3    C4 5594   1.738   1.294   9.739 -0.1639  0.6177  1.0677
  374TMC3    C5 5595   1.791   1.424   9.750  0.1852  0.4670  0.5559
  374TMC3    C6 5596   1.830   1.476   9.874 -0.2467  0.2897  0.1324
  374TMC3     C 5597   1.665   1.094   9.843 -0.1613 -0.0832  0.5644
  374TMC3     O 5598   1.695   1.037   9.740  0.0303  0.1512  0.1432
  374TMC3     H 5599   1.743   1.229  10.075  1.4055 -0.6916  0.1090
  374TMC3    H1 5600   1.707   1.246   9.647  0.6215  2.8096 -0.3179
  374TMC3    H2 5601   1.902   1.557   9.885  0.9447 -1.1684  3.2905
  374TMC3    C7 5602   1.802   1.514   9.640 -0.0690  0.4437 -0.2105
  374TMC3    C8 5603   1.882   1.434  10.109  0.2534  0.2430  0.0372
  374TMC3    O1 5604   1.789   1.454   9.533  0.3078 -0.0011  0.0809
  374TMC3    O2 5605   1.908   1.337  10.181  0.2775 -0.2344  0.0437
  375MPD2     C 5606   1.019   3.045  17.094 -0.3052 -0.2126 -0.4235
  375MPD2    C1 5607   0.963   3.069  16.963 -0.1329  0.1440  0.3179
  375MPD2    C2 5608   1.028   3.009  16.855 -0.4551 -0.3048 -0.3052
  375MPD2    C3 5609   1.128   2.923  16.872  0.6934 -0.2443 -0.0096
  375MPD2    C4 5610   1.193   2.912  16.997  0.9983  0.0149 -0.8071
  375MPD2    C5 5611   1.136   2.967  17.110 -0.0790  0.7406 -0.1874
  375MPD2     H 5612   0.989   3.029  16.756  3.1144 -0.8521 -1.8223
  375MPD2    H1 5613   1.280   2.848  17.012  2.1981  2.4288  2.6452
  375MPD2    H2 5614   0.977   3.091  17.183  2.4634 -1.7095  1.6462
  375MPD2    H3 5615   1.177   2.958  17.210 -1.3978 -0.9637  0.2075
  375MPD2     N 5616   1.181   2.853  16.762  0.1820 -0.3044 -0.1792
  375MPD2    H5 5617   1.270   2.809  16.784  0.1819  0.0304  0.4872
  375MPD2    N1 5618   0.862   3.158  16.930  0.5653  0.0311  0.7880
  375MPD2    H7 5619   0.836   3.167  16.833  0.4726  2.0557  1.0091
  376TMC3    C1 5620   1.174   2.737  16.551 -0.1725 -0.2599  0.3187
  376TMC3    C2 5621   1.310   2.741  16.537 -0.1423  0.7202 -0.3348
  376TMC3    C3 5622   1.362   2.709  16.414  0.1182 -0.7837 -0.1143
  376TMC3    C4 5623   1.092   2.693  16.449 -0.6140 -0.7338 -0.0232
  376TMC3    C5 5624   1.146   2.683  16.324  0.1145 -0.1181  0.3136
  376TMC3    C6 5625   1.281   2.689  16.308 -0.0329 -0.4515  0.4876
  376TMC3     C 5626   1.118   2.839  16.636  0.9495 -0.7861  0.5593
  376TMC3     O 5627   1.014   2.883  16.594  0.9159 -0.2953 -0.0511
  376TMC3     H 5628   1.372   2.789  16.612 -0.9071 -0.5818  1.1384
  376TMC3    H1 5629   0.985   2.707  16.457 -0.4431  0.2336  0.4953
  376TMC3    H2 5630   1.320   2.677  16.207  1.3981  0.9896  0.8680
  376TMC3    C7 5631   1.081   2.757  16.232 -0.4028  0.5269  0.0898
  376TMC3    C8 5632   1.504   2.735  16.388  0.3639  0.0925 -0.9606
  376TMC3    O1 5633   1.028   2.864  16.266 -0.0083  0.2314 -0.0742
  376TMC3    O2 5634   1.532   2.748  16.268 -0.1435  0.1694 -0.4083
  377MPD2     C 5635   3.787   2.542  12.326  0.2808 -0.0723 -0.2450
  377MPD2    C1 5636   3.842   2.516  12.450 -0.3773 -0.1609  0.2051
  377MPD2    C2 5637   3.778   2.438  12.539 -0.0679 -0.2649  0.2931
  377MPD2    C3 5638   3.648   2.402  12.515  0.3604  0.2532  0.4745
  377MPD2    C4 5639   3.584   2.446  12.396  0.4522 -0.3674  0.0687
  377MPD2    C5 5640   3.657   2.502  12.295 -0.3661 -0.4299  0.3260
  377MPD2     H 5641   3.823   2.407  12.632 -0.1203 -1.5311 -0.0985
  377MPD2    H1 5642   3.480   2.417  12.385  0.5635 -0.7655  0.0525
  377MPD2    H2 5643   3.843   2.592  12.248 -0.6509 -1.2345 -1.6780
  377MPD2    H3 5644   3.615   2.512  12.195  0.7371  1.7238  0.0814
  377MPD2     N 5645   3.570   2.329  12.613  0.1687 -0.2463  0.1126
  377MPD2    H5 5646   3.472   2.310  12.591 -0.2884  2.4069 -0.1846
  377MPD2    N1 5647   3.970   2.569  12.474  0.0399  0.3919 -0.7495
  377MPD2    H7 5648   4.004   2.645  12.416 -0.6940  0.4843 -1.0543
  378TMC3    C1 5649   4.341   2.730  12.450 -0.7998 -0.2868 -0.3114
  378TMC3    C2 5650   4.213   2.688  12.474  0.5239  1.1367  0.2159
  378TMC3    C3 5651   4.194   2.594  12.567 -0.4316 -0.1208 -0.4009
  378TMC3    C4 5652   4.447   2.682  12.522  0.1757 -0.1784  0.0803
  378TMC3    C5 5653   4.428   2.585  12.617 -0.3284  0.2298  0.2056
  378TMC3    C6 5654   4.298   2.538  12.638  0.2543 -0.1973 -0.6988
  378TMC3     C 5655   4.363   2.769  12.315 -0.6072 -0.9035  0.1951
  378TMC3     O 5656   4.285   2.730  12.229 -0.1562  0.2918 -0.3335
  378TMC3     H 5657   4.133   2.719  12.408  0.0817 -1.1360 -0.3432
  378TMC3    H1 5658   4.547   2.713  12.494  1.3930 -2.3191  1.9857
  378TMC3    H2 5659   4.275   2.462  12.712 -1.2550  0.9394 -0.0155
  378TMC3    C7 5660   4.541   2.526  12.690  0.0851 -0.1291  0.3901
  378TMC3    C8 5661   4.062   2.522  12.565 -1.0850 -0.8325 -0.0471
  378TMC3    O1 5662   4.510   2.470  12.792 -0.7612 -0.4892  0.0480
  378TMC3    O2 5663   4.060   2.426  12.638  0.3340 -0.0341 -0.2369
  379MPD2     C 5664   4.651   0.610  16.595  0.3496  0.1464  0.0787
  379MPD2    C1 5665   0.027   0.594  16.495  0.0133  0.4081 -0.2234
  379MPD2    C2 5666   0.126   0.497  16.520  0.4720  0.0549  0.5754
  379MPD2    C3 5667   0.139   0.446  16.645  0.6671 -0.3422  1.1392
  379MPD2    C4 5668   0.050   0.472  16.745  0.2024  0.1294  0.1147
  379MPD2    C5 5669   4.662   0.549  16.716 -0.1541 -0.0110  0.2847
  379MPD2     H 5670   0.184   0.456  16.438 -2.2990  1.1760 -1.9438
  379MPD2    H1 5671   0.061   0.434  16.846  3.4810  0.8794  0.0588
  379MPD2    H2 5672   4.568   0.679  16.581  1.0154  0.3789 -2.6941
  379MPD2    H3 5673   4.591   0.561  16.797  0.5065  0.0093  0.8535
  379MPD2     N 5674   0.215   0.332  16.684  0.1957  0.1777 -0.2345
  379MPD2    H5 5675   0.188   0.298  16.776 -1.4272 -2.2243 -1.6310
  379MPD2    N1 5676   4.710   0.651  16.370  0.4811 -0.1644  0.2083
  379MPD2    H7 5677   4.624   0.705  16.369  0.4582 -0.2584 -3.1458
  380TMC3    C1 5678   0.000   0.716  16.145  0.7826 -0.3345  0.7297
  380TMC3    C2 5679   0.075   0.720  16.031 -0.0616  0.2456  0.5978
  380TMC3    C3 5680   0.012   0.732  15.906 -1.0165 -0.5135 -0.2296
  380TMC3    C4 5681   4.584   0.727  16.141  0.7136  0.4743 -0.0351
  380TMC3    C5 5682   4.522   0.742  16.019  0.5204  0.2178  0.4040
  380TMC3    C6 5683   4.590   0.747  15.903  0.3538 -0.0157 -0.0585
  380TMC3     C 5684   0.065   0.651  16.257  0.8151 -0.1604  0.0993
  380TMC3     O 5685   0.178   0.611  16.246 -0.1202 -0.5953  0.3386
  380TMC3     H 5686   0.183   0.729  16.033  0.1674 -2.1760 -1.5425
  380TMC3    H1 5687   4.529   0.735  16.234  0.3252  1.7491 -0.3744
  380TMC3    H2 5688   4.543   0.755  15.806 -0.3998 -0.4099  0.2724
  380TMC3    C7 5689   4.386   0.685  16.008  0.0027 -1.0092 -0.0909
  380TMC3    C8 5690   0.073   0.741  15.773 -0.3580  0.4617 -0.1371
  380TMC3    O1 5691   4.310   0.709  16.099 -0.4334  0.0170  0.0524
  380TMC3    O2 5692   4.720   0.774  15.682  0.0238 -0.6897 -0.4010
  381TMC3    C1 5693   4.618   1.779  16.335 -0.1775 -0.4639 -0.7498
  381TMC3    C2 5694   4.682   1.869  16.412 -0.9990  0.1054  0.0777
  381TMC3    C3 5695   4.612   1.967  16.474 -0.1893 -0.1259 -0.3386
  381TMC3    C4 5696   4.480   1.788  16.317  0.2078 -0.5003  0.5412
  381TMC3    C5 5697   4.416   1.891  16.382 -0.8056  0.1142  0.1955
  381TMC3    C6 5698   4.479   1.982  16.465  0.3891 -0.2792  0.0801
  381TMC3     C 5699   4.684   1.755  16.208 -0.4215  0.6146 -0.8694
  381TMC3     O 5700   0.042   1.845  16.172  0.4087 -0.0051  0.0292
  381TMC3     H 5701   0.070   1.866  16.419 -0.9772 -0.5628 -0.5448
  381TMC3    H1 5702   4.418   1.716  16.265  1.8552 -0.3840 -1.5951
  381TMC3    H2 5703   4.434   2.068  16.513  1.1035 -0.1589  0.5387
  381TMC3    C7 5704   4.286   1.923  16.335  0.2824  0.2784 -0.5638
  381TMC3    C8 5705   4.684   2.091  16.492  0.3923  0.2442  0.3948
  381TMC3    O1 5706   4.257   1.886  16.222  0.0770  0.4554  0.4023
  381TMC3    O2 5707   4.647   2.176  16.573  0.4517  0.2088  0.2549
  382MPD2     C 5708   3.706   3.540  17.104  0.7764  0.1331  0.7808
  382MPD2    C1 5709   3.652   3.560  17.230 -0.3363 -0.1091 -0.2864
  382MPD2    C2 5710   3.553   3.475  17.271 -0.2756  1.0648  0.2580
  382MPD2    C3 5711   3.516   3.364  17.197  0.0867  0.1884  0.6802
  382MPD2    C4 5712   3.586   3.336  17.084  0.2360  0.5648 -0.5458
  382MPD2    C5 5713   3.672   3.429  17.030  0.4273 -0.0496  0.0413
  382MPD2     H 5714   3.496   3.499  17.360 -1.0654  0.4714 -0.0923
  382MPD2    H1 5715   3.547   3.258  17.019  2.0884 -0.7765 -0.0352
  382MPD2    H2 5716   3.777   3.610  17.061 -2.0379  1.9486 -0.9397
  382MPD2    H3 5717   3.711   3.421  16.929 -1.9942  1.7838 -1.0312
  382MPD2     N 5718   3.412   3.272  17.229  0.3164 -0.8238 -0.2395
  382MPD2    H5 5719   3.405   3.191  17.169  0.3100 -0.0523 -1.2849
  382MPD2    N1 5720   3.683   3.665  17.317  0.2370 -0.3483  0.1552
  382MPD2    H7 5721   3.636   3.667  17.407  0.7013  2.7360  0.3415
  383TMC3    C1 5722   3.227   3.184  17.319  0.2096  0.3993 -0.6467
  383TMC3    C2 5723   3.190   3.131  17.201 -0.1396  0.3975 -0.0269
  383TMC3    C3 5724   3.124   3.017  17.200  0.3655  0.6913  0.2543
  383TMC3    C4 5725   3.172   3.142  17.437  0.0886  0.2052 -0.0435
  383TMC3    C5 5726   3.089   3.039  17.432 -0.6038 -0.1326 -0.6539
  383TMC3    C6 5727   3.069   2.968  17.317 -0.3420  0.0297  0.0051
  383TMC3     C 5728   3.322   3.290  17.328  0.6663 -0.3501 -0.6068
  383TMC3     O 5729   3.325   3.345  17.436  0.5811 -0.2092  0.1941
  383TMC3     H 5730   3.239   3.156  17.107 -0.6610  0.1162 -0.3765
  383TMC3    H1 5731   3.200   3.183  17.534  0.4188 -1.8529  0.7150
  383TMC3    H2 5732   3.003   2.883  17.323 -0.4215 -0.0417 -1.8322
  383TMC3    C7 5733   3.039   2.984  17.559  0.1885  0.2300 -0.8020
  383TMC3    C8 5734   3.036   2.991  17.088  0.9999  0.1971  0.3395
  383TMC3    O1 5735   3.040   3.060  17.656 -0.0621  0.0176 -0.3678
  383TMC3    O2 5736   2.983   3.081  17.026 -0.5351 -0.2529 -0.5284
  384MPD2     C 5737   0.256   0.562  12.027 -0.4515  0.0911 -0.7220
  384MPD2    C1 5738   0.350   0.621  11.950  0.3536 -0.6547  0.0984
  384MPD2    C2 5739   0.414   0.541  11.849  0.0066 -0.9813  0.9298
  384MPD2    C3 5740   0.377   0.407  11.843 -0.7180 -0.0308 -0.1595
  384MPD2    C4 5741   0.269   0.357  11.910 -0.8040  0.3933  0.5322
  384MPD2    C5 5742   0.202   0.441  11.999 -0.8660 -0.4499  0.1488
  384MPD2     H 5743   0.495   0.581  11.788 -0.4407 -0.5508  0.6148
  384MPD2    H1 5744   0.231   0.256  11.900 -2.2003  0.8461  1.2191
  384MPD2    H2 5745   0.224   0.608  12.120  0.0366 -2.9508  0.9531
  384MPD2    H3 5746   0.107   0.413  12.044  0.3793 -1.8598  1.8696
  384MPD2     N 5747   0.451   0.311  11.777 -0.2816 -0.4211  0.5560
  384MPD2    H5 5748   0.425   0.217  11.808  1.0874 -1.3235 -1.0024
  384MPD2    N1 5749   0.381   0.751  11.999  0.2973 -0.8188  0.0570
  384MPD2    H7 5750   0.328   0.785  12.079 -1.7125 -1.1637 -1.1262
  385TMC3    C1 5751   0.655   0.210  11.717 -0.1471 -0.1371 -0.0859
  385TMC3    C2 5752   0.596   0.088  11.720  0.0760 -0.3774 -0.0627
  385TMC3    C3 5753   0.617   0.004  11.827  0.6694 -0.0067 -0.4693
  385TMC3    C4 5754   0.756   0.236  11.806  0.0267 -0.0437  0.1721
  385TMC3    C5 5755   0.753   0.170  11.923  0.3066  0.1719 -0.4421
  385TMC3    C6 5756   0.680   0.051  11.935 -0.3763  0.0903 -0.1903
  385TMC3     C 5757   0.567   0.322  11.703  0.1436 -0.2712  0.0248
  385TMC3     O 5758   0.611   0.418  11.647  0.3101 -0.4908  0.2562
  385TMC3     H 5759   0.518   0.055  11.652  0.8522 -0.4804 -0.8978
  385TMC3    H1 5760   0.801   0.334  11.814  3.2952 -1.5438  0.3210
  385TMC3    H2 5761   0.676   4.719  12.030  0.0302  0.5713  0.0924
  385TMC3    C7 5762   0.739   0.266  12.025  0.4725  0.8303 -0.4165
  385TMC3    C8 5763   0.567   4.591  11.823 -0.2241 -0.6856  0.2806
  385TMC3    O1 5764   0.826   0.352  12.051 -0.8912  0.3129 -0.5940
  385TMC3    O2 5765   0.514   4.541  11.919 -0.1843  0.5655  0.2394
  386TMC3    C1 5766   0.489   2.736  11.836  0.8174  0.2456 -0.0064
  386TMC3    C2 5767   0.586   2.708  11.739  0.4342 -0.0004 -0.1774
  386TMC3    C3 5768   0.557   2.767  11.614  0.1551 -0.0638 -0.1212
  386TMC3    C4 5769   0.372   2.795  11.804 -0.0582 -0.3923 -0.5955
  386TMC3    C5 5770   0.357   2.851  11.681 -0.0814 -0.0283  0.5222
  386TMC3    C6 5771   0.461   2.856  11.590  0.0116 -0.4110 -0.7157
  386TMC3     C 5772   0.494   2.661  11.961  0.2162 -0.0162  0.3634
  386TMC3     O 5773   0.391   2.623  12.020  0.4063  0.3313  0.0618
  386TMC3     H 5774   0.655   2.626  11.753 -0.7682 -1.4205 -2.5285
  386TMC3    H1 5775   0.289   2.781  11.873 -0.4165  0.2149 -0.9084
  386TMC3    H2 5776   0.455   2.906  11.494 -2.9582  0.5855 -0.0124
  386TMC3    C7 5777   0.223   2.848  11.626 -0.2074  0.8359  0.4365
  386TMC3    C8 5778   0.585   2.684  11.492  0.1292  0.0613  0.1158
  386TMC3    O1 5779   0.130   2.840  11.699 -0.0552 -0.3621 -0.0464
  386TMC3    O2 5780   0.535   2.715  11.384  0.3829 -0.3533  0.0951
  387MPD2     C 5781   3.186   2.038   9.562 -0.3594  0.4324  0.0761
  387MPD2    C1 5782   3.309   2.025   9.622  0.3042  0.2263  0.8181
  387MPD2    C2 5783   3.388   1.920   9.584  0.0588  0.3369 -0.4796
  387MPD2    C3 5784   3.353   1.843   9.479  0.7524 -0.1074  0.5102
  387MPD2    C4 5785   3.230   1.857   9.409 -0.3696  0.4052 -0.4686
  387MPD2    C5 5786   3.149   1.958   9.456  0.0775  0.2109 -0.3632
  387MPD2     H 5787   3.479   1.913   9.642 -2.6749 -0.4133  3.6857
  387MPD2    H1 5788   3.187   1.795   9.331 -1.2999 -0.3597  0.6718
  387MPD2    H2 5789   3.119   2.107   9.611  0.2377  0.6371  0.5909
  387MPD2    H3 5790   3.051   1.958   9.411 -0.1724 -2.6653  0.1794
  387MPD2     N 5791   3.440   1.742   9.447 -0.4929 -0.2623  0.3213
  387MPD2    H5 5792   3.515   1.737   9.516 -1.7654  0.6609  1.7662
  387MPD2    N1 5793   3.357   2.090   9.741 -0.5657 -0.3287 -0.3159
  387MPD2    H7 5794   3.445   2.050   9.774  0.0132 -1.1642 -2.8482
  388TMC3    C1 5795   3.410   2.259   9.878  0.3209  0.0838  0.2645
  388TMC3    C2 5796   3.384   2.358   9.965  0.5204 -0.0282  0.8645
  388TMC3    C3 5797   3.490   2.438  10.012 -0.3218  0.2386 -0.1183
  388TMC3    C4 5798   3.536   2.252   9.827 -0.1521 -1.3083 -0.5703
  388TMC3    C5 5799   3.641   2.324   9.873  0.4135  0.6330  0.3820
  388TMC3    C6 5800   3.623   2.416   9.975  0.1203  0.3416  0.2863
  388TMC3     C 5801   3.302   2.200   9.802  0.0247 -0.3824 -0.4839
  388TMC3     O 5802   3.192   2.254   9.789  0.7155 -0.3575 -0.1526
  388TMC3     H 5803   3.281   2.386   9.985  0.7861  0.0144  2.1201
  388TMC3    H1 5804   3.554   2.195   9.737 -1.2199 -1.7561 -0.5033
  388TMC3    H2 5805   3.712   2.466  10.010  0.1291  1.1896 -0.9356
  388TMC3    C7 5806   3.778   2.289   9.825  0.2250  0.1964  0.2708
  388TMC3    C8 5807   3.445   2.574  10.027  0.1624 -0.0251  0.8474
  388TMC3    O1 5808   3.871   2.367   9.832 -0.1999 -0.4242 -0.4397
  388TMC3    O2 5809   3.334   2.605   9.986  0.3084  0.2955 -0.1802
  389MPD2     C 5810   2.786   1.061  11.379  0.3205 -0.2156  0.1261
  389MPD2    C1 5811   2.766   0.991  11.264  0.2920 -0.5358  0.4459
  389MPD2    C2 5812   2.668   0.892  11.266  0.6427 -0.1917 -0.4768
  389MPD2    C3 5813   2.589   0.860  11.377 -0.2033  0.3395  0.0061
  389MPD2    C4 5814   2.610   0.934  11.490 -0.6710  0.4697  0.6254
  389MPD2    C5 5815   2.708   1.024  11.490  0.0439  0.6275 -0.4245
  389MPD2     H 5816   2.655   0.827  11.181  0.4491  1.1686 -1.4949
  389MPD2    H1 5817   2.557   0.911  11.581  2.2323 -0.0544  2.1689
  389MPD2    H2 5818   2.866   1.133  11.377 -1.0525  1.3134  0.3886
  389MPD2    H3 5819   2.724   1.074  11.584 -0.7732  1.4667 -0.7307
  389MPD2     N 5820   2.512   0.744  11.390  0.0820  0.0289  0.2753
  389MPD2    H5 5821   2.478   0.731  11.485 -1.2506  1.6412  0.0254
  389MPD2    N1 5822   2.851   1.010  11.156  0.0590  0.1128  0.7204
  389MPD2    H7 5823   2.923   1.081  11.162  1.2907 -1.0700 -0.1650
  390TMC3    C1 5824   2.388   0.544  11.329  0.7631  0.5411  0.5965
  390TMC3    C2 5825   2.400   0.501  11.455 -0.2370  0.4861  0.5343
  390TMC3    C3 5826   2.373   0.364  11.471  0.0035  0.3072  0.4673
  390TMC3    C4 5827   2.329   0.473  11.225  0.7328 -0.4694 -0.6377
  390TMC3    C5 5828   2.283   0.349  11.257  0.0664 -0.1395 -0.0175
  390TMC3    C6 5829   2.304   0.292  11.380 -0.1924  0.2200  0.3194
  390TMC3     C 5830   2.457   0.672  11.289  0.3268 -0.4520 -0.7146
  390TMC3     O 5831   2.455   0.690  11.167 -0.0548  0.0409  0.6684
  390TMC3     H 5832   2.471   0.543  11.524 -0.0176  0.0665  0.5661
  390TMC3    H1 5833   2.317   0.522  11.128  1.1624  0.1454 -0.3786
  390TMC3    H2 5834   2.290   0.186  11.396 -0.5952  0.4592  1.5467
  390TMC3    C7 5835   2.169   0.294  11.182  0.3154  0.0112 -0.6270
  390TMC3    C8 5836   2.386   0.319  11.609 -0.6350  0.4105 -0.1883
  390TMC3    O1 5837   2.178   0.274  11.060 -0.1569  0.0144  0.0675
  390TMC3    O2 5838   2.477   0.369  11.673  0.0010  0.0439 -0.5926
  391MPD2     C 5839   1.549   2.475  11.221 -0.1492  0.5872  0.0477
  391MPD2    C1 5840   1.680   2.525  11.196 -0.4973  0.5082  0.3273
  391MPD2    C2 5841   1.734   2.489  11.080  0.2419 -0.1442 -0.1250
  391MPD2    C3 5842   1.676   2.402  10.986  0.2544  0.0440 -0.0069
  391MPD2    C4 5843   1.545   2.359  11.018  0.2026  0.9905  1.4340
  391MPD2    C5 5844   1.480   2.405  11.128 -0.0809 -0.5696 -0.3140
  391MPD2     H 5845   1.838   2.510  11.061 -0.5451  3.1549 -0.8673
  391MPD2    H1 5846   1.483   2.305  10.948  1.0947  1.1305  0.5361
  391MPD2    H2 5847   1.492   2.497  11.310  2.0917 -0.2469  1.6943
  391MPD2    H3 5848   1.375   2.379  11.141 -0.0846 -0.2300  0.3063
  391MPD2     N 5849   1.755   2.367  10.877 -0.0256 -0.9762  0.5321
  391MPD2    H5 5850   1.852   2.397  10.876 -0.5887  0.9649  3.6067
  391MPD2    N1 5851   1.753   2.579  11.298  0.6038 -0.3408  0.5716
  391MPD2    H7 5852   1.707   2.579  11.389 -0.2341 -0.5087  0.1483
  392TMC3    C1 5853   1.820   2.259  10.669  0.6109  0.2562  0.1721
  392TMC3    C2 5854   1.790   2.151  10.585  0.5545  0.0989 -0.0325
  392TMC3    C3 5855   1.893   2.109  10.508 -0.0589  0.3453 -0.3280
  392TMC3    C4 5856   1.934   2.331  10.658  0.8419  0.3614  0.9599
  392TMC3    C5 5857   2.024   2.283  10.566 -0.4523 -0.3830 -0.2405
  392TMC3    C6 5858   2.010   2.176  10.490 -0.5424  0.3171  0.2840
  392TMC3     C 5859   1.716   2.288  10.767 -0.1459 -0.5834 -0.4778
  392TMC3     O 5860   1.606   2.240  10.749  0.1828  0.4488 -0.2125
  392TMC3     H 5861   1.698   2.094  10.595  1.3098 -0.9677  0.8820
  392TMC3    H1 5862   1.949   2.422  10.716 -2.1357 -0.4756  3.0471
  392TMC3    H2 5863   2.092   2.141  10.427 -3.0756  0.4411 -3.0662
  392TMC3    C7 5864   2.156   2.339  10.581 -0.3727 -0.1732  0.2353
  392TMC3    C8 5865   1.881   1.983  10.437 -0.0823  0.4255  0.0125
  392TMC3    O1 5866   2.188   2.383  10.690  0.1339  0.3133 -0.6304
  392TMC3    O2 5867   1.771   1.956  10.388  0.3369  0.1054 -0.2566
  393TMC3    C1 5868   1.629   0.145  10.195  0.2601 -0.4069  0.6965
  393TMC3    C2 5869   1.544   0.117  10.292 -0.1946 -0.0522  0.1387
  393TMC3    C3 5870   1.527   4.709  10.322 -0.3538 -0.2962 -0.1362
  393TMC3    C4 5871   1.698   0.048  10.129 -0.1988 -0.3645  0.8805
  393TMC3    C5 5872   1.686   4.643  10.173  0.6453  0.6113  0.1535
  393TMC3    C6 5873   1.595   4.603  10.266  0.1898  0.1979 -0.6075
  393TMC3     C 5874   1.670   0.278  10.171 -0.2148  0.8006  0.7240
  393TMC3     O 5875   1.676   0.303  10.053  0.7303  0.6254  0.0741
  393TMC3     H 5876   1.476   0.193  10.330 -0.0221  0.6645 -0.9778
  393TMC3    H1 5877   1.745   0.077  10.036 -0.3053  0.9404  1.2291
  393TMC3    H2 5878   1.569   4.504  10.301 -0.3899  0.4915 -0.2027
  393TMC3    C7 5879   1.773   4.544  10.104  0.4840 -0.4770 -0.4276
  393TMC3    C8 5880   1.408   4.686  10.396  0.1036 -0.3070 -0.4709
  393TMC3    O1 5881   1.725   4.430  10.096 -0.2716  0.3992 -0.1486
  393TMC3    O2 5882   1.347   4.585  10.359 -0.3105 -0.5235  0.4577
  394TMC3    C1 5883   2.930   0.999  10.933  0.0730  0.4484  0.0403
  394TMC3    C2 5884   2.905   1.128  10.887 -0.0699  0.0400 -0.1431
  394TMC3    C3 5885   3.003   1.192  10.813  0.4336  0.2300  0.7868
  394TMC3    C4 5886   3.056   0.944  10.911  0.2311 -0.1779 -0.7824
  394TMC3    C5 5887   3.143   1.007  10.824 -0.1271  0.0352  0.3280
  394TMC3    C6 5888   3.120   1.138  10.782  0.4275 -0.5211 -0.1214
  394TMC3     C 5889   2.851   0.942  11.036 -0.2850  0.0656 -0.5385
  394TMC3     O 5890   2.791   0.836  11.001 -0.2157 -0.1764 -0.7740
  394TMC3     H 5891   2.816   1.189  10.893 -2.1004 -2.7999 -1.5298
  394TMC3    H1 5892   3.078   0.841  10.936  0.1200 -0.0010  0.0380
  394TMC3    H2 5893   3.188   1.184  10.711  0.3789 -0.0644  0.1309
  394TMC3    C7 5894   3.249   0.935  10.751 -0.0991 -0.2900 -0.3818
  394TMC3    C8 5895   2.954   1.249  10.693  0.6575 -0.0655 -0.0352
  394TMC3    O1 5896   3.343   1.012  10.730  0.1691  0.0201 -0.6711
  394TMC3    O2 5897   3.024   1.332  10.635 -0.0665  0.1658  0.3165
  395TMC3    C1 5898   2.075   2.516  14.688 -0.5162  0.5600  0.5922
  395TMC3    C2 5899   2.101   2.392  14.635 -0.1990  0.7514  0.1122
  395TMC3    C3 5900   2.228   2.343  14.646  0.2666 -0.2404 -0.6000
  395TMC3    C4 5901   2.175   2.582  14.758 -0.5267  0.1913  0.2578
  395TMC3    C5 5902   2.297   2.535  14.766  0.1027 -0.1955 -0.5686
  395TMC3    C6 5903   2.329   2.419  14.696  0.2145  0.0354  0.4723
  395TMC3     C 5904   1.944   2.569  14.699 -0.7106  0.1449  0.4327
  395TMC3     O 5905   1.874   2.531  14.789 -0.1284 -0.1652  0.0462
  395TMC3     H 5906   2.016   2.337  14.597  1.1068 -0.4849 -1.0316
  395TMC3    H1 5907   2.152   2.685  14.782 -0.1784  0.4111 -0.3330
  395TMC3    H2 5908   2.431   2.385  14.710  0.0225  0.1058  2.0929
  395TMC3    C7 5909   2.398   2.633  14.786  0.7526  0.3018  0.9735
  395TMC3    C8 5910   2.267   2.201  14.617 -0.7000 -0.8062  0.5786
  395TMC3    O1 5911   2.363   2.749  14.768  0.0370  0.1486  0.5676
  395TMC3    O2 5912   2.360   2.152  14.679  0.3583 -0.5331  0.4464
  396MPD2     C 5913   1.534   3.704  17.402 -0.1293 -0.4635 -0.1055
  396MPD2    C1 5914   1.663   3.657  17.388 -0.2693 -0.2870  0.0666
  396MPD2    C2 5915   1.756   3.741  17.331 -0.4906 -0.4440  0.3667
  396MPD2    C3 5916   1.728   3.874  17.293  0.5340 -0.1122 -0.2139
  396MPD2    C4 5917   1.601   3.918  17.306 -1.4907  0.1996  0.6447
  396MPD2    C5 5918   1.508   3.829  17.356 -0.6448  0.3692  0.2399
  396MPD2     H 5919   1.859   3.711  17.313 -0.4663 -1.2433  1.8314
  396MPD2    H1 5920   1.570   4.017  17.274 -3.1107 -0.5909 -0.2601
  396MPD2    H2 5921   1.453   3.654  17.454 -1.0295  0.9282 -0.1577
  396MPD2    H3 5922   1.405   3.863  17.352 -0.8871 -0.7621 -3.5804
  396MPD2     N 5923   1.836   3.952  17.240 -0.2974 -0.0337 -0.1526
  396MPD2    H5 5924   1.934   3.927  17.243 -0.1030  0.7333 -0.0220
  396MPD2    N1 5925   1.682   3.520  17.423 -0.4907 -0.3761 -0.7311
  396MPD2    H7 5926   1.595   3.481  17.458  0.4042 -0.2744  1.5888
  397TMC3    C1 5927   1.769   3.299  17.434  0.5677  0.3297 -0.3269
  397TMC3    C2 5928   1.840   3.239  17.334  1.0558 -0.0004 -0.1305
  397TMC3    C3 5929   1.774   3.186  17.230 -0.5691  0.0486 -0.2589
  397TMC3    C4 5930   1.637   3.261  17.450 -0.5641 -0.3246 -0.0260
  397TMC3    C5 5931   1.582   3.198  17.346  0.5640 -0.1223  0.2474
  397TMC3    C6 5932   1.635   3.171  17.227  0.0135  0.0256  0.0378
  397TMC3     C 5933   1.797   3.444  17.410  0.1173 -0.4687 -1.0014
  397TMC3     O 5934   1.903   3.472  17.359 -0.0347  0.3068  0.3375
  397TMC3     H 5935   1.943   3.266  17.317  1.1429  1.1335  2.2036
  397TMC3    H1 5936   1.571   3.281  17.534  0.4461  0.2613  0.6288
  397TMC3    H2 5937   1.579   3.122  17.148  1.3191 -2.1190  0.4507
  397TMC3    C7 5938   1.450   3.147  17.364  0.5958  0.4279  0.0464
  397TMC3    C8 5939   1.824   3.226  17.103  0.3542  0.2985 -0.4368
  397TMC3    O1 5940   1.370   3.150  17.272 -0.4541 -0.1541 -0.3704
  397TMC3    O2 5941   1.737   3.258  17.019 -0.1095 -0.3245 -0.3861
  398MPD2     C 5942   4.364   4.279  17.590 -0.2888  0.2468  0.2869
  398MPD2    C1 5943   4.429   4.202   0.001 -0.4907 -0.4526  0.0796
  398MPD2    C2 5944   4.533   4.256   0.073 -0.5192  0.5413 -0.3185
  398MPD2    C3 5945   4.575   4.383   0.052 -0.1452 -0.2479 -0.4475
  398MPD2    C4 5946   4.504   4.460  17.643 -0.2028  0.5436 -0.5774
  398MPD2    C5 5947   4.412   4.402  17.561  0.5995  0.0833  0.3058
  398MPD2     H 5948   4.578   4.186   0.143 -3.1502 -0.6665  0.1773
  398MPD2    H1 5949   4.521   4.566  17.628  0.3725  0.6398  0.7432
  398MPD2    H2 5950   4.285   4.244  17.525 -0.6589  4.0214 -1.2468
  398MPD2    H3 5951   4.369   4.465  17.484  0.2300 -2.1256 -1.2839
  398MPD2     N 5952   4.680   4.423   0.131  0.0567 -0.2862  0.0486
  398MPD2    H5 5953   4.710   4.357   0.202 -0.0054 -1.0925 -0.6836
  398MPD2    N1 5954   4.402   4.068   0.028  0.3169 -0.1541  0.2705
  398MPD2    H7 5955   4.471   4.016   0.082 -0.7419 -0.8070  0.9910
  399TMC3    C1 5956   4.300   3.852   0.005  0.1415 -0.6056 -0.1332
  399TMC3    C2 5957   4.421   3.802   0.061  0.1773  0.2482  0.4761
  399TMC3    C3 5958   4.399   3.691   0.138  0.7386  0.3752  0.0934
  399TMC3    C4 5959   4.181   3.787   0.009 -0.0626 -0.0328 -0.1159
  399TMC3    C5 5960   4.174   3.668   0.079 -0.1950  0.3850 -0.1964
  399TMC3    C6 5961   4.279   3.621   0.151  0.3077  0.8904  0.4852
  399TMC3     C 5962   4.310   3.992  17.641  0.3385 -0.0591 -0.4686
  399TMC3     O 5963   4.224   4.031  17.565 -0.2406 -0.8625  0.8213
  399TMC3     H 5964   4.520   3.843   0.047 -0.5980  1.3475 -1.7413
  399TMC3    H1 5965   4.097   3.829  17.636  0.0969  0.8292  0.2960
  399TMC3    H2 5966   4.264   3.519   0.185  1.6900  0.3217 -0.5868
  399TMC3    C7 5967   4.077   3.576   0.033  0.3061 -0.0703  0.0105
  399TMC3    C8 5968   4.520   3.644   0.201  0.3937 -0.1174 -0.1393
  399TMC3    O1 5969   4.014   3.520   0.117  0.6255 -0.9744  0.3279
  399TMC3    O2 5970   4.623   3.680   0.149 -0.1758  0.4212  0.0143
  400TMC3    C1 5971   3.133   2.850  16.635 -0.3481  0.1222 -0.2723
  400TMC3    C2 5972   2.999   2.864  16.616  0.5059 -0.2706  0.1678
  400TMC3    C3 5973   2.951   2.991  16.643 -0.2344 -0.3711 -0.1072
  400TMC3    C4 5974   3.204   2.948  16.697 -0.0190 -0.6021 -0.6563
  400TMC3    C5 5975   3.149   3.071  16.729 -0.0612 -1.0106  0.7209
  400TMC3    C6 5976   3.016   3.096  16.701 -0.0794  0.1492  0.0358
  400TMC3     C 5977   3.185   2.716  16.619  0.5938 -0.3787  0.0917
  400TMC3     O 5978   3.103   2.633  16.593  0.4111 -0.2047 -0.1163
  400TMC3     H 5979   2.949   2.782  16.566 -0.7442  0.8907 -0.4898
  400TMC3    H1 5980   3.295   2.910  16.742 -1.1682 -1.1554  1.1995
  400TMC3    H2 5981   2.988   3.200  16.704 -0.1851  0.0929  0.8537
  400TMC3    C7 5982   3.222   3.179  16.794  0.2093  0.1000 -0.3385
  400TMC3    C8 5983   2.817   3.031  16.583 -0.3370 -0.2538  0.4028
  400TMC3    O1 5984   3.340   3.181  16.777 -0.0688 -0.7934  0.2271
  400TMC3    O2 5985   2.771   3.146  16.597 -0.5818 -1.0573  0.0378
  401MPD2     C 5986   0.637   1.022   0.599 -0.1249  0.3452  0.3755
  401MPD2    C1 5987   0.732   1.128   0.578  0.5253  0.3591  0.1720
  401MPD2    C2 5988   0.868   1.090   0.561 -0.5140 -0.4211  0.1729
  401MPD2    C3 5989   0.921   0.958   0.578 -0.2013 -1.5658  0.5271
  401MPD2    C4 5990   0.819   0.862   0.607 -0.4018 -0.5284 -0.6599
  401MPD2    C5 5991   0.685   0.890   0.601  0.4682 -0.2621  0.0791
  401MPD2     H 5992   0.948   1.163   0.550 -1.4016  0.0475 -3.1396
  401MPD2    H1 5993   0.843   0.757   0.621 -0.2877 -0.5467 -0.9943
  401MPD2    H2 5994   0.532   1.045   0.612 -1.0407 -2.1135 -2.6278
  401MPD2    H3 5995   0.618   0.806   0.607 -1.3739  1.0557 -2.0000
  401MPD2     N 5996   1.059   0.927   0.574  0.3599 -0.8710  0.3306
  401MPD2    H5 5997   1.126   0.993   0.535  0.7658 -1.7469 -0.4381
  401MPD2    N1 5998   0.693   1.260   0.577 -0.0494 -0.6908 -0.0001
  401MPD2    H7 5999   0.597   1.268   0.608 -0.0385  0.2091 -0.1981
  402TMC3    C1 6000   1.263   0.821   0.596  0.2601 -0.3707  0.0109
  402TMC3    C2 6001   1.324   0.713   0.647  0.0624 -0.0849 -0.0633
  402TMC3    C3 6002   1.444   0.733   0.704  0.3396 -0.3230  0.5080
  402TMC3    C4 6003   1.330   0.949   0.593 -0.2373  0.0344 -0.2922
  402TMC3    C5 6004   1.463   0.949   0.631  0.3379 -0.5018 -1.1008
  402TMC3    C6 6005   1.529   0.842   0.691 -0.6091  0.1447  0.6057
  402TMC3     C 6006   1.119   0.807   0.621 -0.7477 -0.4085 -0.5059
  402TMC3     O 6007   1.070   0.712   0.674  0.7007  0.3270  0.3087
  402TMC3     H 6008   1.274   0.616   0.643 -0.9639  0.5174 -2.1347
  402TMC3    H1 6009   1.285   1.043   0.564  1.1961 -0.1264 -2.9889
  402TMC3    H2 6010   1.623   0.858   0.743 -1.4013 -1.5000  2.5157
  402TMC3    C7 6011   1.538   1.070   0.600 -0.1264  0.6827 -0.2950
  402TMC3    C8 6012   1.482   0.648   0.815 -0.3237  0.5431  0.7772
  402TMC3    O1 6013   1.474   1.173   0.606  0.0431  0.0523  0.2318
  402TMC3    O2 6014   1.590   0.655   0.871  0.1265  0.1344 -0.0055
  403MPD2     C 6015   0.278   0.685  12.951 -0.2431 -0.0427  0.4513
  403MPD2    C1 6016   0.318   0.566  13.011 -0.4711  0.3731 -0.4109
  403MPD2    C2 6017   0.400   0.567  13.119 -0.3112  0.6380 -0.0077
  403MPD2    C3 6018   0.440   0.682  13.181 -0.0085  0.4478  0.6129
  403MPD2    C4 6019   0.392   0.799  13.128 -0.3745 -0.1190 -0.1333
  403MPD2    C5 6020   0.305   0.799  13.018  0.4906  0.1611 -0.3858
  403MPD2     H 6021   0.448   0.476  13.153 -3.4008 -0.9202  0.2326
  403MPD2    H1 6022   0.423   0.889  13.178  1.1693  0.0251 -1.3238
  403MPD2    H2 6023   0.204   0.692  12.872  0.5263 -0.4766 -0.3089
  403MPD2    H3 6024   0.268   0.897  12.990  0.9754  0.2251 -0.7956
  403MPD2     N 6025   0.531   0.682  13.289  0.1752  0.3359  0.3311
  403MPD2    H5 6026   0.575   0.592  13.301 -2.0097 -0.9685 -1.5902
  403MPD2    N1 6027   0.270   0.449  12.954  0.7546  0.2442  0.2270
  403MPD2    H7 6028   0.242   0.461  12.857  1.0984  1.2150  0.2489
  404TMC3    C1 6029   0.175   0.224  12.941  0.2923  0.3577  0.0686
  404TMC3    C2 6030   0.143   0.111  13.011  0.8421 -0.0688 -0.2163
  404TMC3    C3 6031   0.129   4.712  12.947  0.1231 -0.1526  0.4143
  404TMC3    C4 6032   0.181   0.217  12.805  0.3483  0.2786  0.7382
  404TMC3    C5 6033   0.146   0.107  12.737 -0.2987  0.1056  0.7731
  404TMC3    C6 6034   0.113   4.712  12.806  0.2393  0.4054 -0.5128
  404TMC3     C 6035   0.252   0.323  13.021  0.3320 -0.0786  0.3724
  404TMC3     O 6036   0.274   0.294  13.138  0.1595 -0.0466  0.2314
  404TMC3     H 6037   0.148   0.115  13.119  0.0082 -1.7315 -0.1174
  404TMC3    H1 6038   0.239   0.292  12.752 -0.2013 -0.5582 -1.0410
  404TMC3    H2 6039   0.089   4.620  12.753  2.3841  0.3291 -1.3538
  404TMC3    C7 6040   0.148   0.111  12.593  0.3479  0.2007  0.3604
  404TMC3    C8 6041   0.112   4.587  13.021  0.5027 -0.1843  0.7169
  404TMC3    O1 6042   0.202   0.204  12.537  0.1666 -0.0474  0.5842
  404TMC3    O2 6043   0.112   4.489  12.949 -0.0646 -0.0086  0.0455
  405MPD2     C 6044   0.703   0.737  13.994 -0.1386  0.5070  0.6221
  405MPD2    C1 6045   0.659   0.614  13.962 -0.1719 -0.2177  0.7889
  405MPD2    C2 6046   0.541   0.594  13.898  0.4734  0.7897 -0.6461
  405MPD2    C3 6047   0.469   0.701  13.850 -0.1707 -0.0390 -0.2754
  405MPD2    C4 6048   0.520   0.825  13.862  0.1806  0.4255 -0.1752
  405MPD2    C5 6049   0.631   0.841  13.951 -0.0386 -0.1374 -0.1015
  405MPD2     H 6050   0.499   0.495  13.888 -1.6804  1.6258  0.0807
  405MPD2    H1 6051   0.482   0.909  13.806 -3.5178  0.1728  1.9548
  405MPD2    H2 6052   0.792   0.762  14.051  0.0066  2.1665 -0.3069
  405MPD2    H3 6053   0.672   0.941  13.961 -0.6625  0.2014 -0.9052
  405MPD2     N 6054   0.343   0.680  13.789  0.3142 -0.0425  0.2459
  405MPD2    H5 6055   0.314   0.586  13.767 -0.0612  0.5604 -1.9009
  405MPD2    N1 6056   0.715   0.493  14.011  0.8020 -0.3301  1.2400
  405MPD2    H7 6057   0.659   0.412  13.986  3.9225 -1.8656 -0.7447
  406TMC3    C1 6058   4.615   0.764  13.850  0.0181  0.6565  0.4058
  406TMC3    C2 6059   4.601   0.651  13.922  0.0610  0.4664  0.0694
  406TMC3    C3 6060   4.706   0.559  13.915  0.2504  0.9402 -0.2815
  406TMC3    C4 6061   0.005   0.794  13.773 -0.2158 -0.2848  0.5080
  406TMC3    C5 6062   0.111   0.706  13.778  0.8384  0.6097  1.0498
  406TMC3    C6 6063   0.103   0.594  13.856  0.1784  0.3128 -0.4556
  406TMC3     C 6064   4.529   0.883  13.866  0.6699  0.6569 -0.8059
  406TMC3     O 6065   4.556   0.984  13.798 -0.5913  0.0698  0.6937
  406TMC3     H 6066   4.507   0.625  13.970 -0.2097 -0.0251 -0.7140
  406TMC3    H1 6067   0.018   0.884  13.713 -0.3514 -0.5828  0.0316
  406TMC3    H2 6068   0.187   0.526  13.870  1.1777  1.6267 -0.0377
  406TMC3    C7 6069   0.242   0.772  13.764 -0.2337 -0.9296 -0.1740
  406TMC3    C8 6070   4.703   0.459  14.020 -0.4813  0.3097 -0.3286
  406TMC3    O1 6071   0.249   0.893  13.763  0.0716  0.1822 -0.3425
  406TMC3    O2 6072   4.613   0.478  14.104 -0.6649 -0.3603  0.7056
  407MPD2     C 6073   2.785   1.600   9.357  0.4816  0.3444  0.2069
  407MPD2    C1 6074   2.914   1.566   9.349 -0.4072  0.2429 -0.0115
  407MPD2    C2 6075   3.000   1.601   9.451  0.2640 -0.8838  0.1783
  407MPD2    C3 6076   2.958   1.682   9.551 -0.3069 -0.0981 -0.7598
  407MPD2    C4 6077   2.823   1.721   9.549 -0.1412  0.2183 -0.4286
  407MPD2    C5 6078   2.741   1.685   9.453  0.1991 -0.4021 -0.0570
  407MPD2     H 6079   3.102   1.564   9.447  0.5791  0.0899 -0.7950
  407MPD2    H1 6080   2.784   1.783   9.629 -1.4096  1.0082 -1.6545
  407MPD2    H2 6081   2.709   1.570   9.286  0.6799 -1.6237  0.8385
  407MPD2    H3 6082   2.641   1.725   9.460  0.4267  0.4273 -1.6885
  407MPD2     N 6083   3.037   1.724   9.658 -0.2701  0.3875 -0.0200
  407MPD2    H5 6084   2.996   1.796   9.716  0.7338  0.1936  0.9215
  407MPD2    N1 6085   2.972   1.481   9.246 -0.4460  0.1019 -0.0206
  407MPD2    H7 6086   3.065   1.445   9.264 -0.7134 -1.4771 -1.7596
  408TMC3    C1 6087   2.969   1.334   9.051 -0.0975 -0.2906 -0.8697
  408TMC3    C2 6088   3.103   1.364   9.013  0.3475  0.5207  0.3818
  408TMC3    C3 6089   3.160   1.271   8.929 -0.3751  0.4164  0.0304
  408TMC3    C4 6090   2.899   1.226   9.002 -1.0588 -0.0568  0.2810
  408TMC3    C5 6091   2.968   1.148   8.912  0.0856  0.4838  0.6530
  408TMC3    C6 6092   3.096   1.164   8.881 -0.6752 -0.7790  0.0244
  408TMC3     C 6093   2.900   1.409   9.152 -0.3336 -0.1025 -0.5330
  408TMC3     O 6094   2.778   1.404   9.129 -0.6783  0.4810  0.4264
  408TMC3     H 6095   3.149   1.453   9.055 -0.3987  1.1232 -0.0774
  408TMC3    H1 6096   2.795   1.210   9.027 -0.9860  0.5966  1.0122
  408TMC3    H2 6097   3.141   1.104   8.803  1.2378 -1.8855  2.0004
  408TMC3    C7 6098   2.898   1.033   8.857 -1.3605  0.1717  0.3913
  408TMC3    C8 6099   3.302   1.280   8.891  0.3520 -0.5697  0.0514
  408TMC3    O1 6100   2.776   1.033   8.870 -0.0494  0.1758 -0.2849
  408TMC3    O2 6101   3.351   1.191   8.820 -0.0645 -0.2229 -0.4455
  409MPD2     C 6102   1.628   2.758  17.016  0.3841  0.2593  1.1171
  409MPD2    C1 6103   1.743   2.680  17.008  0.1320 -0.1863  0.2603
  409MPD2    C2 6104   1.852   2.737  16.949 -0.3953  0.3725 -0.0004
  409MPD2    C3 6105   1.851   2.860  16.888 -0.0683 -0.0597  0.3940
  409MPD2    C4 6106   1.735   2.931  16.896  0.1157  0.2572  0.5017
  409MPD2    C5 6107   1.628   2.882  16.970  0.1587  0.0678 -0.1395
  409MPD2     H 6108   1.935   2.668  16.952 -0.9061 -0.2210  0.4099
  409MPD2    H1 6109   1.727   3.030  16.851 -0.4009  0.4374  0.9912
  409MPD2    H2 6110   1.545   2.729  17.079 -0.9436 -0.7715 -1.1015
  409MPD2    H3 6111   1.539   2.942  16.985  0.6034  0.9950 -1.3226
  409MPD2     N 6112   1.967   2.915  16.829  0.5163 -0.9468 -0.6302
  409MPD2    H5 6113   1.958   3.004  16.781 -1.4945 -0.1009  1.3627
  409MPD2    N1 6114   1.751   2.552  17.055 -0.3757 -0.2458  0.3157
  409MPD2    H7 6115   1.839   2.502  17.052 -0.1499  0.1401  0.5632
  410TMC3    C1 6116   2.189   2.937  16.772  0.4772  0.0356  0.2885
  410TMC3    C2 6117   2.317   2.908  16.811  0.0645  0.1365 -0.8003
  410TMC3    C3 6118   2.418   2.985  16.763 -0.1131  0.6082  0.2663
  410TMC3    C4 6119   2.168   3.042  16.683 -0.0944  0.0782  0.7034
  410TMC3    C5 6120   2.271   3.116  16.634 -0.2526  0.1250 -0.6903
  410TMC3    C6 6121   2.398   3.090  16.678  0.0693  0.6594 -0.0704
  410TMC3     C 6122   2.092   2.866  16.852 -0.1360 -0.2740 -0.4377
  410TMC3     O 6123   2.132   2.786  16.938  0.1456 -0.2133  0.2329
  410TMC3     H 6124   2.334   2.827  16.881 -0.2923  0.5508 -0.2307
  410TMC3    H1 6125   2.073   3.048  16.629  0.2810  0.3682  0.0752
  410TMC3    H2 6126   2.482   3.154  16.655  1.4442 -1.3070 -0.4961
  410TMC3    C7 6127   2.242   3.219  16.541  0.5484  1.0047  0.1737
  410TMC3    C8 6128   2.545   2.978  16.823 -0.3711  0.2252  0.6461
  410TMC3    O1 6129   2.126   3.225  16.502 -0.6272 -0.1078 -0.0873
  410TMC3    O2 6130   2.616   3.076  16.834 -0.9583 -0.0854  0.1868
  411MPD2     C 6131   2.977   3.410  14.488  0.0794 -0.0525  1.2394
  411MPD2    C1 6132   2.845   3.414  14.448 -0.6446 -0.3928 -0.0631
  411MPD2    C2 6133   2.766   3.299  14.435 -0.2168 -0.1499 -0.1661
  411MPD2    C3 6134   2.830   3.176  14.452  0.4563 -0.0143 -0.4453
  411MPD2    C4 6135   2.956   3.177  14.497  0.3100 -1.6014  0.0595
  411MPD2    C5 6136   3.031   3.294  14.511  0.3377  0.3104  0.1513
  411MPD2     H 6137   2.661   3.303  14.409 -0.2922  1.1928  0.3594
  411MPD2    H1 6138   3.000   3.083  14.528 -0.6742 -2.3735 -0.8840
  411MPD2    H2 6139   3.038   3.499  14.501  0.7720 -0.2666 -0.5708
  411MPD2    H3 6140   3.127   3.276  14.559  0.6041  0.5931 -0.2770
  411MPD2     N 6141   2.753   3.058  14.452  0.2319 -0.1441 -0.4418
  411MPD2    H5 6142   2.805   2.971  14.447  2.3636  1.2729 -2.6457
  411MPD2    N1 6143   2.775   3.535  14.438  0.1927  0.3397  0.1762
  411MPD2    H7 6144   2.680   3.537  14.402  0.8037  0.3984 -1.4001
  412TMC3    C1 6145   2.567   2.927  14.411  0.5169 -0.2527 -0.5379
  412TMC3    C2 6146   2.458   2.904  14.494  0.0416 -0.3341 -0.1496
  412TMC3    C3 6147   2.334   2.872  14.440  0.1302  0.1845  0.3311
  412TMC3    C4 6148   2.553   2.921  14.278  0.9998  0.0736  0.6264
  412TMC3    C5 6149   2.437   2.895  14.223  0.4963  0.7977  0.1785
  412TMC3    C6 6150   2.333   2.862  14.305 -0.0182  0.2260 -0.0540
  412TMC3     C 6151   2.616   3.053  14.460  0.2997 -0.0177 -1.2613
  412TMC3     O 6152   2.534   3.144  14.483 -0.0100 -0.2510 -0.0423
  412TMC3     H 6153   2.481   2.901  14.600 -1.0652 -0.9404  0.0721
  412TMC3    H1 6154   2.626   2.960  14.207  0.3279  1.5435  0.7364
  412TMC3    H2 6155   2.240   2.843  14.252  0.8489 -0.1807 -1.4062
  412TMC3    C7 6156   2.404   2.991  14.111 -0.1635 -0.0244 -0.1439
  412TMC3    C8 6157   2.220   2.951  14.484 -0.2920 -0.0927  0.1030
  412TMC3    O1 6158   2.469   2.980  14.006  0.4533 -0.1628  0.3632
  412TMC3    O2 6159   2.166   3.023  14.404  0.0170 -0.4965 -0.8368
  413MPD2     C 6160   4.109   2.332  15.570 -0.1341  0.2348  0.5912
  413MPD2    C1 6161   4.097   2.325  15.431  0.9774 -0.6281  0.2635
  413MPD2    C2 6162   4.207   2.278  15.360  0.2294  0.1634 -0.4028
  413MPD2    C3 6163   4.324   2.247  15.429  0.4068 -0.0768 -0.5258
  413MPD2    C4 6164   4.328   2.235  15.566  0.1026 -0.5674  0.0906
  413MPD2    C5 6165   4.223   2.284  15.640 -0.4664  0.5342 -0.2247
  413MPD2     H 6166   4.217   2.267  15.253 -0.1870 -0.3915 -0.3845
  413MPD2    H1 6167   4.416   2.203  15.621  0.9116 -1.5678 -1.7943
  413MPD2    H2 6168   4.019   2.368  15.619 -1.5748  0.6447 -2.3314
  413MPD2    H3 6169   4.226   2.272  15.747  0.7222 -2.3254 -0.5700
  413MPD2     N 6170   4.426   2.200  15.344  0.5260  0.7905 -0.1712
  413MPD2    H5 6171   4.410   2.202  15.244 -0.5457  0.9611 -0.0021
  413MPD2    N1 6172   3.981   2.382  15.372 -0.0994  0.4828 -0.8473
  413MPD2    H7 6173   3.912   2.427  15.432  0.5141 -1.5556  1.4232
  414TMC3    C1 6174   4.628   2.107  15.276  0.0706 -0.5461  0.3790
  414TMC3    C2 6175   4.682   1.981  15.293 -0.2224 -0.2078 -0.4534
  414TMC3    C3 6176   4.668   1.892  15.198 -0.4503  0.6067  0.5839
  414TMC3    C4 6177   4.590   2.147  15.151  0.4116  0.3400 -0.1719
  414TMC3    C5 6178   4.593   2.055  15.050 -0.2108 -0.6903 -0.0125
  414TMC3    C6 6179   4.622   1.925  15.075  0.2020  0.1215  0.0422
  414TMC3     C 6180   4.541   2.143  15.383  0.7575 -0.2370  0.6403
  414TMC3     O 6181   4.574   2.107  15.494 -0.1445 -0.3386 -0.3012
  414TMC3     H 6182   4.708   1.944  15.391  1.0058  2.6300  0.3039
  414TMC3    H1 6183   4.573   2.253  15.133  0.7267  0.7215  1.7689
  414TMC3    H2 6184   4.607   1.846  15.002  0.8965 -2.3875  2.6007
  414TMC3    C7 6185   4.509   2.093  14.944  0.0758 -0.1865  0.7799
  414TMC3    C8 6186   0.027   1.769  15.201  0.5971 -0.9227  0.0223
  414TMC3    O1 6187   4.430   2.183  14.969  0.0570 -0.0958 -0.2099
  414TMC3    O2 6188   4.703   1.671  15.137 -0.1260  0.0665 -0.2056
  415TMC3    C1 6189   0.321   3.667   9.469  0.3171  0.3348 -0.0793
  415TMC3    C2 6190   0.361   3.775   9.398  0.2758 -0.0870 -0.3179
  415TMC3    C3 6191   0.303   3.799   9.272  0.2612 -0.4443  0.0050
  415TMC3    C4 6192   0.208   3.600   9.439  0.0489  0.4372  0.1785
  415TMC3    C5 6193   0.151   3.633   9.314  0.2518  0.0064  0.4019
  415TMC3    C6 6194   0.198   3.721   9.224  0.3788 -0.2233 -0.9185
  415TMC3     C 6195   0.383   3.625   9.593  0.1294 -0.7371  0.0997
  415TMC3     O 6196   0.326   3.555   9.674 -0.2831  0.4598  0.0220
  415TMC3     H 6197   0.436   3.844   9.435 -0.7975  1.3394 -0.7905
  415TMC3    H1 6198   0.168   3.515   9.493  1.0879 -0.7395 -0.9070
  415TMC3    H2 6199   0.143   3.754   9.136 -1.1195 -2.8855 -0.9589
  415TMC3    C7 6200   0.017   3.583   9.283 -0.6604 -0.6806  0.1301
  415TMC3    C8 6201   0.340   3.905   9.175  0.8434  0.2955 -0.5145
  415TMC3    O1 6202   4.680   3.601   9.179 -0.0949 -0.2325  0.2506
  415TMC3    O2 6203   0.279   3.924   9.073  0.1209 -0.0646  0.4446
  416MPD2     C 6204   0.853   3.466  12.085  0.4822 -0.9105  0.1421
  416MPD2    C1 6205   0.970   3.475  12.017  1.6540 -0.0195  0.0033
  416MPD2    C2 6206   1.046   3.359  11.999  0.2448 -0.3387  0.4713
  416MPD2    C3 6207   0.995   3.235  12.039  0.5006 -0.3196  0.1105
  416MPD2    C4 6208   0.872   3.229  12.088  0.1095 -0.7855  0.1546
  416MPD2    C5 6209   0.810   3.347  12.123  0.0892  0.2481 -0.3910
  416MPD2     H 6210   1.139   3.365  11.944  0.3680 -0.7835  0.6271
  416MPD2    H1 6211   0.833   3.131  12.115 -1.7734 -0.1515 -0.2065
  416MPD2    H2 6212   0.814   3.562  12.119 -1.2325 -1.7643  0.6087
  416MPD2    H3 6213   0.725   3.342  12.190  0.6656 -0.3812  0.2952
  416MPD2     N 6214   1.057   3.117  11.999 -0.1847 -0.3104  0.3705
  416MPD2    H5 6215   1.002   3.033  12.011  0.3653 -0.8040 -0.6647
  416MPD2    N1 6216   1.014   3.610  11.979 -0.7409  0.4036 -0.1381
  416MPD2    H7 6217   0.941   3.679  11.997 -1.1397 -0.2558  0.7293
  417TMC3    C1 6218   1.113   3.796  11.865  0.6433 -0.1926 -0.4281
  417TMC3    C2 6219   1.097   3.886  11.971  0.2123  0.1123  0.0982
  417TMC3    C3 6220   1.107   4.020  11.934  0.4488 -0.3340  0.4132
  417TMC3    C4 6221   1.136   3.828  11.735 -0.5092 -0.2881  0.7242
  417TMC3    C5 6222   1.135   3.962  11.707  0.5479 -0.2112  0.1578
  417TMC3    C6 6223   1.140   4.056  11.805  0.1573  0.0648  0.2150
  417TMC3     C 6224   1.105   3.651  11.886  0.7924  0.1361  0.6202
  417TMC3     O 6225   1.174   3.580  11.814 -0.1294 -1.0662 -0.5016
  417TMC3     H 6226   1.067   3.857  12.071 -2.0045  0.4149 -0.4812
  417TMC3    H1 6227   1.152   3.747  11.665 -1.8496  2.5872 -2.8545
  417TMC3    H2 6228   1.149   4.160  11.777  0.0261  0.2888  1.0022
  417TMC3    C7 6229   1.183   3.999  11.577 -0.4423 -0.3008 -0.0792
  417TMC3    C8 6230   1.124   4.113  12.044 -0.6798 -0.1029  0.6314
  417TMC3    O1 6231   1.249   4.103  11.570 -0.1887 -0.0834  0.0388
  417TMC3    O2 6232   1.088   4.070  12.154 -0.2082 -0.0770  0.4933
  418TMC3    C1 6233   0.348   4.393   0.215  0.8371 -0.3243 -0.3264
  418TMC3    C2 6234   0.266   4.480   0.148  0.9393 -0.1567  0.1688
  418TMC3    C3 6235   0.143   4.521   0.208 -0.1244 -0.0217 -0.2120
  418TMC3    C4 6236   0.302   4.332   0.337  0.2594 -0.2422  0.1117
  418TMC3    C5 6237   0.175   4.367   0.376 -0.3821 -0.3037  0.3608
  418TMC3    C6 6238   0.094   4.458   0.317  0.2284  0.2515 -0.5623
  418TMC3     C 6239   0.472   4.352   0.145  0.5594  0.1580 -0.1627
  418TMC3     O 6240   0.493   4.392   0.029 -0.2693 -0.0534 -0.0163
  418TMC3     H 6241   0.287   4.524   0.052 -0.5325 -1.0957 -0.5705
  418TMC3    H1 6242   0.366   4.255   0.380 -1.7023 -0.5653  2.4625
  418TMC3    H2 6243   4.713   4.471   0.352 -1.3761 -1.1160 -4.5770
  418TMC3    C7 6244   0.108   4.287   0.474  0.0638 -0.3152  0.2184
  418TMC3    C8 6245   0.033   4.534   0.111  0.1523 -0.8322 -0.1799
  418TMC3    O1 6246   4.715   4.248   0.448  0.3401 -0.6011 -0.5088
  418TMC3    O2 6247   0.048   4.613   0.022 -0.2722  0.2158 -0.0803
  419MPD2     C 6248   3.439   3.121  12.286 -0.1048 -0.3390  0.0134
  419MPD2    C1 6249   3.481   3.249  12.280 -0.2120 -0.1151 -0.2986
  419MPD2    C2 6250   3.427   3.341  12.365  0.0480  0.0879  0.1044
  419MPD2    C3 6251   3.328   3.310  12.457  0.0188 -0.8854  0.3421
  419MPD2    C4 6252   3.291   3.176  12.472 -0.2245  0.0608  0.1547
  419MPD2    C5 6253   3.346   3.085  12.388  0.6920 -0.5118  0.1249
  419MPD2     H 6254   3.470   3.440  12.358 -0.4285  0.1327 -2.4102
  419MPD2    H1 6255   3.227   3.147  12.554 -0.1228 -1.2499 -0.2271
  419MPD2    H2 6256   3.492   3.053  12.220 -0.5162  1.3387 -2.0475
  419MPD2    H3 6257   3.322   2.980  12.399  0.9881 -0.4203  1.5423
  419MPD2     N 6258   3.280   3.413  12.544  0.4068  0.3976 -0.4601
  419MPD2    H5 6259   3.327   3.500  12.521  2.6140 -0.1965  1.8559
  419MPD2    N1 6260   3.596   3.297  12.218  0.2690 -0.3739  0.3036
  419MPD2    H7 6261   3.611   3.397  12.224 -0.5141 -0.3365  1.6517
  420TMC3    C1 6262   3.245   3.534  12.731  0.2595 -0.5248 -0.2767
  420TMC3    C2 6263   3.252   3.641  12.643 -0.5193 -0.1635  0.1774
  420TMC3    C3 6264   3.352   3.735  12.661 -0.3988  0.6783 -0.1070
  420TMC3    C4 6265   3.321   3.527  12.845  1.0056  0.0182 -0.2074
  420TMC3    C5 6266   3.404   3.632  12.867  0.3203  0.7379 -0.8397
  420TMC3    C6 6267   3.426   3.735  12.775 -0.2426 -0.2536  0.3573
  420TMC3     C 6268   3.223   3.402  12.668  0.5180 -0.4293 -0.0269
  420TMC3     O 6269   3.191   3.308  12.734 -0.1171 -0.7187 -0.2057
  420TMC3     H 6270   3.218   3.642  12.540  0.0740  1.7829 -0.0074
  420TMC3    H1 6271   3.311   3.450  12.921  2.0474 -1.0487 -1.1459
  420TMC3    H2 6272   3.514   3.797  12.783 -0.1679 -0.1650 -1.2138
  420TMC3    C7 6273   3.466   3.647  12.998 -0.1392  0.6381  0.7012
  420TMC3    C8 6274   3.424   3.763  12.541 -0.5639  0.7540 -0.3049
  420TMC3    O1 6275   3.470   3.542  13.060  0.1189  0.1530 -0.2502
  420TMC3    O2 6276   3.421   3.674  12.455  0.5654  0.9249  0.5286
  421TMC3    C1 6277   0.637   0.736  13.499  0.2545 -0.5135  0.2085
  421TMC3    C2 6278   0.727   0.826  13.551  0.3246  0.2763  0.3322
  421TMC3    C3 6279   0.818   0.780  13.642  0.1745 -0.4653 -0.1278
  421TMC3    C4 6280   0.633   0.609  13.538 -0.0939  0.2316 -0.3047
  421TMC3    C5 6281   0.726   0.565  13.628  0.2661 -0.4635 -0.2256
  421TMC3    C6 6282   0.816   0.649  13.683 -0.0142  0.4934  0.5747
  421TMC3     C 6283   0.556   0.783  13.382  0.1045 -0.8585  0.2621
  421TMC3     O 6284   0.515   0.896  13.389  0.1577 -0.3789  0.2768
  421TMC3     H 6285   0.743   0.928  13.519  1.1539 -1.0914 -3.5311
  421TMC3    H1 6286   0.550   0.549  13.502 -1.1238  0.8649  1.0111
  421TMC3    H2 6287   0.877   0.612  13.764 -1.4388 -3.3207 -0.1038
  421TMC3    C7 6288   0.771   0.424  13.626 -0.2648 -0.1777  0.3852
  421TMC3    C8 6289   0.923   0.871  13.698 -0.4409  0.8627  0.4233
  421TMC3    O1 6290   0.869   0.412  13.700 -0.7047 -0.3730  0.0089
  421TMC3    O2 6291   1.025   0.803  13.730  0.0845 -0.0001 -0.0877
  422TMC3    C1 6292   3.045   1.638  12.451 -0.1679  0.3503  0.4047
  422TMC3    C2 6293   3.011   1.764  12.402 -0.2887 -0.2052 -0.4711
  422TMC3    C3 6294   2.888   1.811  12.435 -0.5676  0.3360  0.1025
  422TMC3    C4 6295   2.965   1.561  12.534  0.0834  0.0760  0.1779
  422TMC3    C5 6296   2.843   1.616  12.559 -0.1829 -1.0449  0.0529
  422TMC3    C6 6297   2.809   1.741  12.515  0.2132  0.2859 -0.0774
  422TMC3     C 6298   3.181   1.594  12.407  0.4258 -0.3191 -0.2751
  422TMC3     O 6299   3.261   1.687  12.392  0.0774 -0.0944 -0.3308
  422TMC3     H 6300   3.071   1.813  12.326 -0.8517  0.4369 -0.4922
  422TMC3    H1 6301   2.985   1.460  12.568 -1.9348 -0.4591 -0.2648
  422TMC3    H2 6302   2.729   1.792  12.569  0.1011  0.6301 -0.5701
  422TMC3    C7 6303   2.745   1.547  12.640 -0.7175 -0.0631 -0.8788
  422TMC3    C8 6304   2.853   1.945  12.409 -0.5303  0.3740 -0.0911
  422TMC3    O1 6305   2.792   1.455  12.708  0.1766 -0.0396  0.1296
  422TMC3    O2 6306   2.780   2.000  12.490  0.5683 -0.2912  0.6498
  423MPD2     C 6307   3.514   1.583   0.403 -0.0595  0.3236 -0.0883
  423MPD2    C1 6308   3.508   1.720   0.412  0.0700  0.0375 -0.0729
  423MPD2    C2 6309   3.556   1.790   0.304 -1.0881 -0.2133  0.1046
  423MPD2    C3 6310   3.611   1.727   0.194 -0.3158 -0.2956  1.2552
  423MPD2    C4 6311   3.631   1.590   0.195 -0.1455  0.6489 -0.5438
  423MPD2    C5 6312   3.584   1.524   0.304 -0.3784  0.0789  0.2483
  423MPD2     H 6313   3.553   1.898   0.309  0.9582 -0.2273  1.6041
  423MPD2    H1 6314   3.672   1.533   0.113 -0.3413 -0.7184  0.3220
  423MPD2    H2 6315   3.462   1.521   0.475 -0.5411  2.3279  1.2895
  423MPD2    H3 6316   3.595   1.416   0.303 -1.4580 -0.0466  1.5002
  423MPD2     N 6317   3.668   1.804   0.084 -0.5053 -0.0414  0.1301
  423MPD2    H5 6318   3.696   1.752   0.002 -0.8880 -0.2741  0.1480
  423MPD2    N1 6319   3.445   1.793   0.521 -1.1526  0.4922 -0.9448
  423MPD2    H7 6320   3.450   1.895   0.516 -0.6346  0.4977 -0.3662
  424TMC3    C1 6321   3.327   1.816   0.732  0.3987  0.4312  0.4571
  424TMC3    C2 6322   3.304   1.761   0.855  1.4352 -0.2176 -0.6270
  424TMC3    C3 6323   3.176   1.777   0.908  0.2184  0.7954  0.9598
  424TMC3    C4 6324   3.228   1.897   0.678 -0.1932 -0.6236 -0.0245
  424TMC3    C5 6325   3.122   1.937   0.748 -0.2731 -0.6658  0.1503
  424TMC3    C6 6326   3.081   1.867   0.860  0.3803 -0.7324 -0.0200
  424TMC3     C 6327   3.406   1.738   0.641 -0.2603 -0.5848 -0.4038
  424TMC3     O 6328   3.437   1.627   0.676  0.1790  0.5532 -0.2625
  424TMC3     H 6329   3.375   1.690   0.895  0.7190 -0.0286  0.9475
  424TMC3    H1 6330   3.245   1.938   0.579 -0.1710  0.5567  0.4620
  424TMC3    H2 6331   2.990   1.886   0.915 -0.7894 -0.0798 -2.1638
  424TMC3    C7 6332   3.036   2.040   0.688  0.4978 -0.1008 -0.3209
  424TMC3    C8 6333   3.144   1.688   1.016 -0.0154  0.9926  0.8369
  424TMC3    O1 6334   3.050   2.065   0.569 -0.4113 -0.7309 -0.2867
  424TMC3    O2 6335   3.235   1.625   1.066  0.1539  0.0035  0.1502
  425MPD2     C 6336   2.775   1.599  17.152  0.3654  0.2334 -0.0019
  425MPD2    C1 6337   2.784   1.478  17.217 -0.1828 -0.3777 -0.0274
  425MPD2    C2 6338   2.680   1.437  17.298  0.1079  0.6210  1.2586
  425MPD2    C3 6339   2.571   1.517  17.315 -0.6204  0.2380 -0.9234
  425MPD2    C4 6340   2.567   1.646  17.270  0.9405 -0.1609 -0.0739
  425MPD2    C5 6341   2.664   1.681  17.182  0.9766 -0.2073 -0.0683
  425MPD2     H 6342   2.682   1.346  17.356  1.5641 -1.6622 -2.3265
  425MPD2    H1 6343   2.484   1.710  17.298 -0.3114 -1.9304  0.2433
  425MPD2    H2 6344   2.854   1.635  17.087  1.6987 -1.8176  0.4992
  425MPD2    H3 6345   2.662   1.781  17.142 -0.5335  0.7095  2.2728
  425MPD2     N 6346   2.464   1.450  17.384  0.0265 -0.1695  0.2023
  425MPD2    H5 6347   2.471   1.356  17.422 -4.0570 -0.4274  0.4168
  425MPD2    N1 6348   2.894   1.393  17.188  0.1793  0.4580  0.7314
  425MPD2    H7 6349   2.953   1.420  17.110 -1.6023 -0.6497 -0.9944
  426TMC3    C1 6350   3.043   1.212  17.232  0.1788 -0.0790 -0.4810
  426TMC3    C2 6351   3.041   1.192  17.097 -0.1178 -0.1580  0.4498
  426TMC3    C3 6352   3.077   1.064  17.063  0.1600 -0.0084 -0.0540
  426TMC3    C4 6353   3.074   1.124  17.329  0.4564 -0.5303 -0.1160
  426TMC3    C5 6354   3.112   0.999  17.289 -0.0315  0.2289 -0.1552
  426TMC3    C6 6355   3.112   0.968  17.151  0.5949  0.5076  0.5057
  426TMC3     C 6356   2.941   1.299  17.282 -0.2379  0.1347  0.5270
  426TMC3     O 6357   2.901   1.275  17.397 -0.0922 -0.1929 -0.0254
  426TMC3     H 6358   2.995   1.258  17.024 -0.7247 -1.3599 -0.2571
  426TMC3    H1 6359   3.085   1.159  17.431 -1.0552 -0.2415 -0.0588
  426TMC3    H2 6360   3.124   0.869  17.109  1.8178  0.4303  1.0210
  426TMC3    C7 6361   3.093   0.888  17.378  0.2891 -0.8959  0.7631
  426TMC3    C8 6362   3.071   1.013  16.925 -0.4172 -0.8989 -0.6481
  426TMC3    O1 6363   3.122   0.773  17.339 -0.2587  0.4033  0.2359
  426TMC3    O2 6364   3.137   0.917  16.893 -0.2647  0.1925 -0.3042
  427MPD2     C 6365   1.921   3.892  14.617 -0.3516  0.3534 -0.4146
  427MPD2    C1 6366   1.868   3.872  14.745 -0.4261 -0.3364 -0.3867
  427MPD2    C2 6367   1.734   3.861  14.764 -0.0930 -0.1345 -0.2170
  427MPD2    C3 6368   1.642   3.868  14.663  0.0617  0.3398 -0.0220
  427MPD2    C4 6369   1.692   3.885  14.535  0.9874  0.5816 -0.7291
  427MPD2    C5 6370   1.828   3.892  14.511 -0.1971  0.1592 -0.0672
  427MPD2     H 6371   1.693   3.847  14.863  0.1180 -0.8466 -0.2300
  427MPD2    H1 6372   1.626   3.891  14.449 -0.9805  0.1520  0.7508
  427MPD2    H2 6373   2.026   3.905  14.593  0.5255  0.2632  3.3495
  427MPD2    H3 6374   1.867   3.907  14.411  2.0669  1.1305  0.9518
  427MPD2     N 6375   1.502   3.866  14.693 -0.1765  0.5213 -0.8260
  427MPD2    H5 6376   1.436   3.909  14.629  0.4495 -0.2822 -2.0254
  427MPD2    N1 6377   1.944   3.852  14.861 -0.7074  0.2111  0.3981
  427MPD2    H7 6378   1.896   3.829  14.947  1.2662  0.3004  1.5274
  428TMC3    C1 6379   2.131   3.831  14.996  0.5129  0.6160  0.3674
  428TMC3    C2 6380   2.036   3.821  15.096  0.4905  0.0304  0.1035
  428TMC3    C3 6381   2.071   3.750  15.202  0.5204 -0.0801 -0.0303
  428TMC3    C4 6382   2.251   3.779  14.996 -0.2657  0.3295 -0.1640
  428TMC3    C5 6383   2.282   3.713  15.109 -0.5714  0.0484 -0.0961
  428TMC3    C6 6384   2.192   3.687  15.205 -0.0922  0.0017 -0.2100
  428TMC3     C 6385   2.085   3.850  14.863 -0.6210 -0.4361  0.3262
  428TMC3     O 6386   2.169   3.872  14.776  0.0788 -0.4154  0.2445
  428TMC3     H 6387   1.936   3.863  15.098  0.6768  0.4843 -0.1286
  428TMC3    H1 6388   2.322   3.784  14.913  0.1966 -0.8560  0.1541
  428TMC3    H2 6389   2.219   3.624  15.289  0.2191  2.4715  1.5559
  428TMC3    C7 6390   2.422   3.707  15.154 -0.6171  0.1139  0.5663
  428TMC3    C8 6391   1.956   3.671  15.256 -0.1484  0.0786 -0.9498
  428TMC3    O1 6392   2.441   3.715  15.273  0.1330  0.1902  0.0658
  428TMC3    O2 6393   1.860   3.656  15.181 -0.4929  0.4157  0.3575
  429MPD2     C 6394   2.114   3.212  17.604  0.1704 -0.0114 -0.1625
  429MPD2    C1 6395   2.202   3.146  17.521 -0.4377  0.4054  0.3736
  429MPD2    C2 6396   2.301   3.210  17.446 -0.1347  0.2724 -0.1111
  429MPD2    C3 6397   2.311   3.347  17.454 -0.0869  0.1628 -0.5105
  429MPD2    C4 6398   2.225   3.415  17.545  0.4236  0.7088 -1.0439
  429MPD2    C5 6399   2.137   3.345  17.625  0.2183  0.7859  0.1244
  429MPD2     H 6400   2.361   3.151  17.378  0.8253  1.0228  0.0788
  429MPD2    H1 6401   2.231   3.521  17.564 -0.3470  0.3556  1.1134
  429MPD2    H2 6402   2.030   3.165  17.655  0.3761 -0.3733 -0.1547
  429MPD2    H3 6403   2.077   3.406   0.008  1.2801 -0.0358  1.8492
  429MPD2     N 6404   2.415   3.413  17.379  0.0020 -0.2518  0.3520
  429MPD2    H5 6405   2.475   3.356  17.320  0.3870  0.8251 -0.2884
  429MPD2    N1 6406   2.184   3.007  17.489 -0.1940  1.0275  0.1535
  429MPD2    H7 6407   2.252   2.970  17.423  0.2143  0.2746  0.9971
  430TMC3    C1 6408   2.556   3.597  17.300  0.1506 -0.4357 -0.1821
  430TMC3    C2 6409   2.551   3.729  17.255  0.3854 -0.0913  0.5479
  430TMC3    C3 6410   2.668   3.776  17.207  0.0381  0.9546  0.1587
  430TMC3    C4 6411   2.672   3.519  17.295 -0.3005  0.1313  0.1751
  430TMC3    C5 6412   2.781   3.585  17.265 -0.2997  0.4455 -0.5423
  430TMC3    C6 6413   2.785   3.713  17.214 -0.4894  0.3257 -0.7517
  430TMC3     C 6414   2.438   3.548  17.377 -0.0114  0.2001 -0.2524
  430TMC3     O 6415   2.379   3.639  17.435 -0.0691  0.2888 -0.3847
  430TMC3     H 6416   2.458   3.786  17.247 -1.1808 -3.0220 -2.2208
  430TMC3    H1 6417   2.672   3.419  17.336  0.7982  0.2165  0.3747
  430TMC3    H2 6418   2.869   3.767  17.172 -0.8947  0.7707 -0.9949
  430TMC3    C7 6419   2.901   3.507  17.244 -0.2438 -0.6765 -0.0625
  430TMC3    C8 6420   2.654   3.869  17.097  0.4860  0.6210 -0.4370
  430TMC3    O1 6421   2.886   3.383  17.248 -0.1610 -0.3746 -0.1524
  430TMC3    O2 6422   2.564   3.845  17.015  0.2312 -0.2377 -0.3283
  431MPD2     C 6423   4.018   3.922  12.535 -0.4133  0.0443  0.0547
  431MPD2    C1 6424   4.052   3.919  12.400  0.8076  0.6411 -0.2511
  431MPD2    C2 6425   4.050   3.798  12.333 -0.5315  0.3724 -0.6086
  431MPD2    C3 6426   4.003   3.683  12.396  0.0735  0.3299 -0.1821
  431MPD2    C4 6427   3.968   3.680  12.531  0.6994  0.2499 -0.0647
  431MPD2    C5 6428   3.978   3.802  12.596 -0.5309  0.5490  0.7881
  431MPD2     H 6429   4.073   3.797  12.227  0.2562  3.2404 -0.4516
  431MPD2    H1 6430   3.914   3.596  12.575  0.6003 -1.1239 -2.8151
  431MPD2    H2 6431   4.021   4.013  12.594 -0.8795  0.4658 -0.5739
  431MPD2    H3 6432   3.958   3.814  12.702  1.8419  0.1326  1.2862
  431MPD2     N 6433   3.990   3.564  12.321 -0.4982 -0.1398  0.2959
  431MPD2    H5 6434   3.934   3.492  12.365 -0.0264 -0.8491 -0.2382
  431MPD2    N1 6435   4.085   4.033  12.320 -0.1991  0.0609 -0.1161
  431MPD2    H7 6436   4.116   4.013  12.226  2.1636  0.7914  0.5190
  432TMC3    C1 6437   3.997   3.410  12.145  0.1664  0.0468  0.1787
  432TMC3    C2 6438   4.065   3.359  12.039  0.5062 -0.4138 -0.5386
  432TMC3    C3 6439   3.998   3.259  11.973 -0.0389 -0.4261 -0.7030
  432TMC3    C4 6440   3.867   3.373  12.189 -0.6627  0.8993  0.5497
  432TMC3    C5 6441   3.806   3.279  12.108  0.6511  0.5080  0.2189
  432TMC3    C6 6442   3.874   3.215  12.016 -0.2149 -0.0185  0.7455
  432TMC3     C 6443   4.050   3.534  12.205 -0.0750 -0.3793  0.1829
  432TMC3     O 6444   4.131   3.588  12.135  0.2034 -0.5774  0.1471
  432TMC3     H 6445   4.166   3.387  12.008  1.6549 -0.8665  2.8230
  432TMC3    H1 6446   3.804   3.416  12.266  0.6419  0.8136  1.6538
  432TMC3    H2 6447   3.826   3.138  11.957  0.3252  1.3344 -1.4588
  432TMC3    C7 6448   3.689   3.218  12.155  0.5059 -0.3127  0.5160
  432TMC3    C8 6449   4.037   3.220  11.842 -1.1228  0.2422  0.1818
  432TMC3    O1 6450   3.683   3.101  12.120  0.7716  0.2627 -0.6545
  432TMC3    O2 6451   3.988   3.120  11.790  0.2029 -0.6503  0.1203
  433MPD2     C 6452   2.686   2.221  10.679 -0.1624  0.3497 -0.9949
  433MPD2    C1 6453   2.816   2.222  10.714  0.1366  0.3403 -0.2622
  433MPD2    C2 6454   2.841   2.251  10.845 -0.5758 -0.8877  0.1567
  433MPD2    C3 6455   2.741   2.278  10.934  0.2412 -0.2123  0.4707
  433MPD2    C4 6456   2.607   2.280  10.897  0.1789  0.2009  0.2168
  433MPD2    C5 6457   2.580   2.254  10.763 -0.2823  0.1200 -0.2715
  433MPD2     H 6458   2.941   2.244  10.885 -0.3123  0.4898 -0.2865
  433MPD2    H1 6459   2.526   2.297  10.967 -0.3360  1.2773 -0.6256
  433MPD2    H2 6460   2.656   2.186  10.580 -1.8023 -0.3494 -0.2571
  433MPD2    H3 6461   2.476   2.258  10.732 -0.8615  0.9002  1.8134
  433MPD2     N 6462   2.778   2.287  11.067  0.1800  0.1876  0.1517
  433MPD2    H5 6463   2.877   2.284  11.087  0.1776 -0.2839  0.0830
  433MPD2    N1 6464   2.911   2.173  10.618  0.7023 -0.3262 -0.3030
  433MPD2    H7 6465   2.870   2.146  10.529  1.4887  0.8314 -1.0286
  434TMC3    C1 6466   3.104   2.056  10.568 -0.0031 -0.6912  0.4371
  434TMC3    C2 6467   3.193   1.979  10.642 -0.3559  0.1931 -0.0753
  434TMC3    C3 6468   3.185   1.845  10.634 -0.4338 -0.3503 -0.0188
  434TMC3    C4 6469   3.032   2.007  10.461  0.6112  0.2632  0.1733
  434TMC3    C5 6470   3.028   1.867  10.456  0.0351 -0.5946 -0.7576
  434TMC3    C6 6471   3.104   1.783  10.539  0.1366 -0.4800  0.4332
  434TMC3     C 6472   3.047   2.168  10.638 -0.1495 -0.9240  0.3799
  434TMC3     O 6473   3.118   2.217  10.726 -0.1012  0.1199 -0.3447
  434TMC3     H 6474   3.250   2.025  10.722  1.2579 -0.5443 -0.8083
  434TMC3    H1 6475   2.971   2.072  10.399  0.3692  0.0616  0.1940
  434TMC3    H2 6476   3.095   1.675  10.538 -0.6958 -0.4155  1.1251
  434TMC3    C7 6477   2.956   1.804  10.344  0.0559 -0.6349  0.1433
  434TMC3    C8 6478   3.219   1.773  10.754  0.0885 -0.1624  0.1631
  434TMC3    O1 6479   2.883   1.883  10.286  0.0544 -0.5518 -0.2058
  434TMC3    O2 6480   3.218   1.834  10.857 -0.2887 -0.2043 -0.3088
  435MPD2     C 6481   4.625   2.507  15.367 -0.5227 -0.0438 -0.6921
  435MPD2    C1 6482   4.624   2.514  15.505  0.1391 -0.3715 -0.2423
  435MPD2    C2 6483   0.015   2.472  15.574 -0.5460  0.7860 -0.1029
  435MPD2    C3 6484   0.127   2.416  15.514  0.6459 -0.7199  0.8168
  435MPD2    C4 6485   0.128   2.403  15.376  0.4531  0.0889 -0.5673
  435MPD2    C5 6486   0.016   2.452  15.309 -0.3874  0.7713  0.6509
  435MPD2     H 6487   0.011   2.480  15.682 -0.2923 -2.8929  0.1850
  435MPD2    H1 6488   0.205   2.358  15.315  0.5656 -0.8056  0.2285
  435MPD2    H2 6489   4.535   2.522  15.310  0.5390  0.6495 -2.1960
  435MPD2    H3 6490   0.015   2.424  15.204 -0.4152 -0.3909  0.9562
  435MPD2     N 6491   0.227   2.373  15.605 -0.1543 -0.2701  0.1776
  435MPD2    H5 6492   0.208   2.394  15.702  2.3840 -3.5244  1.3986
  435MPD2    N1 6493   4.511   2.558  15.582  0.1097  0.5424 -0.7550
  435MPD2    H7 6494   4.515   2.546  15.683 -1.0526 -0.1832 -0.7900
  436TMC3    C1 6495   4.080   2.731  15.678 -0.3237  0.3890 -0.1906
  436TMC3    C2 6496   4.186   2.722  15.593 -0.4661  0.0299  0.5976
  436TMC3    C3 6497   4.290   2.644  15.632  0.3044 -0.5750 -0.7797
  436TMC3    C4 6498   4.071   2.667  15.799  0.3710 -0.7096 -0.4288
  436TMC3    C5 6499   4.173   2.582  15.838  0.4642  0.1461  0.5034
  436TMC3    C6 6500   4.284   2.579  15.752 -0.2303  0.1772 -0.6739
  436TMC3     C 6501   3.975   2.813  15.634 -0.4755  0.0080  0.6319
  436TMC3     O 6502   3.981   2.867  15.526  0.3139  0.1749 -0.1574
  436TMC3     H 6503   4.204   2.788  15.509 -2.0691 -0.3327 -0.0274
  436TMC3    H1 6504   3.985   2.635  15.857  1.7719 -1.5366  1.1942
  436TMC3    H2 6505   4.355   2.500  15.773  1.4618  1.9932  0.4552
  436TMC3    C7 6506   4.170   2.524  15.971  0.3792  0.2185  0.2211
  436TMC3    C8 6507   4.397   2.617  15.535  0.0584  0.1709 -0.3557
  436TMC3    O1 6508   4.223   2.418  15.989 -0.2980  0.1484  0.6975
  436TMC3    O2 6509   4.392   2.675  15.431 -0.1375 -0.3990 -0.2233
  437TMC3    C1 6510   3.553   4.616  12.219  0.4539 -0.1578  0.2470
  437TMC3    C2 6511   3.483   4.689  12.129  0.0671  0.1356 -0.4199
  437TMC3    C3 6512   3.551   0.025  12.025  0.3992 -0.0330  0.1572
  437TMC3    C4 6513   3.688   4.589  12.208  0.4287 -0.2636 -0.3138
  437TMC3    C5 6514   3.755   4.645  12.094  0.1209  0.2842  0.8419
  437TMC3    C6 6515   3.685   0.010  12.016  0.8574 -0.3492  0.3749
  437TMC3     C 6516   3.480   4.536  12.326 -1.1181 -0.2851 -0.1998
  437TMC3     O 6517   3.545   4.454  12.387 -0.0736 -0.0000  0.2254
  437TMC3     H 6518   3.376   4.693  12.145 -0.2527  0.8074 -2.6806
  437TMC3    H1 6519   3.747   4.541  12.285 -0.8972  0.0643  0.9001
  437TMC3    H2 6520   3.739   0.059  11.935  0.8792 -1.9597 -0.5814
  437TMC3    C7 6521   3.902   4.637  12.090  0.1414  0.2939 -0.5532
  437TMC3    C8 6522   3.493   0.119  11.938 -0.0050 -0.6900 -0.7930
  437TMC3    O1 6523   3.957   4.604  12.193 -0.6005 -0.1409 -0.1546
  437TMC3    O2 6524   3.565   0.159  11.847  0.4893 -0.1859  0.8323
  438MPD2     C 6525   0.583   0.410  16.854 -0.8139  0.2209  0.2474
  438MPD2    C1 6526   0.623   0.290  16.896 -0.5456 -0.0781  0.0028
  438MPD2    C2 6527   0.549   0.228  16.989  0.0687  0.1096 -0.3910
  438MPD2    C3 6528   0.430   0.286  17.037 -0.2017 -0.8044 -0.1212
  438MPD2    C4 6529   0.386   0.398  16.976 -0.1475  0.2809  0.5406
  438MPD2    C5 6530   0.463   0.462  16.887 -0.0664 -0.4451  0.2510
  438MPD2     H 6531   0.589   0.132  17.020 -1.0503 -0.9338 -2.1603
  438MPD2    H1 6532   0.289   0.442  16.997 -0.8443 -0.4847 -1.1082
  438MPD2    H2 6533   0.645   0.470  16.789 -0.8213 -1.2107 -1.0804
  438MPD2    H3 6534   0.425   0.563  16.871  1.0294 -0.0729  0.0229
  438MPD2     N 6535   0.346   0.227  17.130 -0.0239 -0.1528 -0.1996
  438MPD2    H5 6536   0.251   0.261  17.129 -0.6283 -1.9256 -1.8111
  438MPD2    N1 6537   0.755   0.234  16.879  0.0490 -0.2946 -0.1906
  438MPD2    H7 6538   0.770   0.140  16.914 -0.1810 -0.4151 -0.4116
  439TMC3    C1 6539   0.976   0.217  16.809  0.0126  0.4348 -0.0686
  439TMC3    C2 6540   1.050   0.233  16.695 -0.1396 -0.5285  0.0353
  439TMC3    C3 6541   1.166   0.162  16.687  0.2852 -0.7650  0.8344
  439TMC3    C4 6542   1.005   0.122  16.907  0.3093  0.4522  0.1492
  439TMC3    C5 6543   1.116   0.046  16.887  0.2066  0.6462  0.4658
  439TMC3    C6 6544   1.200   0.076  16.783 -0.3956 -0.3980 -0.2326
  439TMC3     C 6545   0.855   0.298  16.816  0.2771 -0.3148 -0.0508
  439TMC3     O 6546   0.863   0.399  16.745 -0.3404 -0.3660  0.3676
  439TMC3     H 6547   1.023   0.299  16.614  1.2165 -0.4820 -0.3737
  439TMC3    H1 6548   0.955   0.129  17.003 -0.5267  1.2335 -0.3425
  439TMC3    H2 6549   1.295   0.024  16.776  0.3431  1.1367 -1.5608
  439TMC3    C7 6550   1.167   4.683  16.992 -0.2865  0.4650  0.8101
  439TMC3    C8 6551   1.265   0.177  16.588  0.3857  0.1300 -0.6307
  439TMC3    O1 6552   1.285   4.653  16.988  0.0336 -0.2416 -0.3070
  439TMC3    O2 6553   1.358   0.096  16.589 -0.4726  0.1845  0.1113
  440MPD2     C 6554   4.580   1.317  14.447 -0.1045  0.1432 -0.4028
  440MPD2    C1 6555   4.536   1.352  14.575 -0.0732  0.0276 -0.8682
  440MPD2    C2 6556   4.609   1.300  14.678  0.5264 -0.7802 -0.2591
  440MPD2    C3 6557   4.708   1.206  14.662  0.2899 -0.1193 -0.0474
  440MPD2    C4 6558   0.028   1.171  14.532  0.4432 -0.6070 -0.1682
  440MPD2    C5 6559   4.680   1.228  14.430 -0.2807 -0.5237  0.2977
  440MPD2     H 6560   4.591   1.320  14.783  1.3568 -1.8537  0.0858
  440MPD2    H1 6561   0.108   1.101  14.511  1.9578  0.7026  1.2108
  440MPD2    H2 6562   4.533   1.357  14.357 -0.3586 -0.9215 -0.7471
  440MPD2    H3 6563   4.704   1.198  14.328 -0.3744 -0.1940  0.1770
  440MPD2     N 6564   0.073   1.152  14.763 -0.1207  0.5470 -0.4922
  440MPD2    H5 6565   0.166   1.130  14.727  0.0448  1.3699 -0.5506
  440MPD2    N1 6566   4.422   1.435  14.600  0.3128  0.0317 -0.9020
  440MPD2    H7 6567   4.404   1.456  14.698  1.0571  0.2545 -0.8127
  441TMC3    C1 6568   0.156   1.103  14.983 -0.5326 -0.3046  0.8642
  441TMC3    C2 6569   0.271   1.176  14.967  0.2773 -0.1968 -0.7386
  441TMC3    C3 6570   0.362   1.148  15.060  0.0280  0.1029  0.3922
  441TMC3    C4 6571   0.145   0.995  15.063 -0.2338 -0.7612  0.6585
  441TMC3    C5 6572   0.245   0.964  15.147  0.2718 -0.0336 -0.0167
  441TMC3    C6 6573   0.362   1.044  15.147  0.4007  0.6002 -0.0502
  441TMC3     C 6574   0.042   1.132  14.897  0.3572  0.6038  0.1975
  441TMC3     O 6575   4.651   1.143  14.950  0.7997 -0.2402  0.4566
  441TMC3     H 6576   0.274   1.260  14.899  0.0863  1.0182  0.7382
  441TMC3    H1 6577   0.059   0.929  15.057 -1.1341  0.6464 -2.1450
  441TMC3    H2 6578   0.428   1.034  15.232  1.7483  1.9067 -0.9324
  441TMC3    C7 6579   0.210   0.871  15.262 -0.4841 -0.0488 -0.1910
  441TMC3    C8 6580   0.437   1.265  15.108  0.3290 -0.0610  0.1531
  441TMC3    O1 6581   0.093   0.838  15.296  0.0413  0.0831  0.4389
  441TMC3    O2 6582   0.550   1.253  15.149 -0.0591  0.3988  0.6407
  442MPD2     C 6583   2.441   1.613  16.397  0.6263 -0.3802 -0.9285
  442MPD2    C1 6584   2.389   1.531  16.494 -0.4546  0.3693  0.4409
  442MPD2    C2 6585   2.452   1.409  16.519  0.8628  0.6064  0.9753
  442MPD2    C3 6586   2.569   1.376  16.460  0.4002  0.2542 -0.1214
  442MPD2    C4 6587   2.621   1.459  16.372 -0.0660  0.1128  0.2359
  442MPD2    C5 6588   2.564   1.576  16.342  0.4217 -0.1124 -1.3451
  442MPD2     H 6589   2.405   1.342  16.590 -1.1287 -0.9402 -1.8126
  442MPD2    H1 6590   2.720   1.432  16.336 -0.8909 -1.5196 -0.7909
  442MPD2    H2 6591   2.395   1.706  16.364  0.5102  0.6771  2.2054
  442MPD2    H3 6592   2.615   1.647  16.278  1.1150  0.8562  0.2741
  442MPD2     N 6593   2.640   1.256  16.490 -0.0887 -0.0498  0.1016
  442MPD2    H5 6594   2.705   1.226  16.417 -0.8414  0.4546 -0.7716
  442MPD2    N1 6595   2.287   1.568  16.581 -0.4991 -0.1386  0.6052
  442MPD2    H7 6596   2.247   1.492  16.636 -0.8711  0.9858  1.8830
  443TMC3    C1 6597   2.134   1.692  16.690  0.1162 -0.6361  0.6208
  443TMC3    C2 6598   2.029   1.770  16.649  0.5322 -0.1567  0.0451
  443TMC3    C3 6599   1.903   1.734  16.695 -0.1860 -0.2178  0.1183
  443TMC3    C4 6600   2.114   1.583  16.762 -0.2282  0.2951  0.1235
  443TMC3    C5 6601   1.989   1.556  16.815  0.3635 -0.7626  0.0790
  443TMC3    C6 6602   1.884   1.642  16.789 -0.4087  0.5347  0.4981
  443TMC3     C 6603   2.242   1.695  16.598  0.2428  0.0639 -1.2414
  443TMC3     O 6604   2.280   1.802  16.550 -0.3665  0.0541 -0.3324
  443TMC3     H 6605   2.039   1.846  16.572  0.0008 -1.1184 -0.9672
  443TMC3    H1 6606   2.195   1.527  16.805  0.3762  0.8477 -0.2882
  443TMC3    H2 6607   1.788   1.629  16.838  0.2949  0.0299  1.7178
  443TMC3    C7 6608   1.978   1.451  16.908 -0.1034  0.6323  0.3192
  443TMC3    C8 6609   1.788   1.814  16.667 -0.2440 -0.0680 -0.4402
  443TMC3    O1 6610   2.068   1.368  16.907 -0.2745  0.1581  0.2233
  443TMC3    O2 6611   1.719   1.840  16.767 -0.1053 -0.4761 -0.0583
  444MPD2     C 6612   2.961   0.242   0.053  0.2242  0.6583 -1.0864
  444MPD2    C1 6613   2.921   0.280  17.613 -0.0671  0.6792 -0.0959
  444MPD2    C2 6614   3.012   0.283  17.513  0.0518  0.3581  0.0483
  444MPD2    C3 6615   3.142   0.248  17.534  0.0728  0.4604  0.1518
  444MPD2    C4 6616   3.186   0.217  17.660 -0.4607 -0.2509 -0.9299
  444MPD2    C5 6617   3.092   0.227   0.077  0.5358  0.6671  0.4868
  444MPD2     H 6618   2.982   0.287  17.409  1.9538  0.4813 -0.4990
  444MPD2    H1 6619   3.288   0.201   0.011 -1.3596 -2.0450  0.9177
  444MPD2    H2 6620   2.897   0.231   0.139  0.6033 -0.2634 -0.9222
  444MPD2    H3 6621   3.127   0.225   0.179 -0.0883  0.3213  0.6945
  444MPD2     N 6622   3.217   0.237  17.414  0.1429  0.6585 -0.4621
  444MPD2    H5 6623   3.163   0.260  17.331  0.4312 -1.4714 -1.2322
  444MPD2    N1 6624   2.787   0.285  17.580 -0.4418  0.2507  0.2812
  444MPD2    H7 6625   2.770   0.333  17.492 -0.1031 -0.0764  0.0400
  445TMC3    C1 6626   3.393   0.157  17.275  0.8689 -0.1875  0.4420
  445TMC3    C2 6627   3.301   0.092  17.197 -0.0084  0.5468 -0.4080
  445TMC3    C3 6628   3.344   4.706  17.121 -0.0660  0.0020 -0.3105
  445TMC3    C4 6629   3.528   0.123  17.272 -0.1815  0.6718  0.7178
  445TMC3    C5 6630   3.561   0.031  17.180 -0.3762  0.5043 -0.1390
  445TMC3    C6 6631   3.477   4.668  17.114  0.1077  0.4691  0.1521
  445TMC3     C 6632   3.350   0.203  17.406 -0.2258  0.6172  0.4166
  445TMC3     O 6633   3.426   0.158  17.493 -0.2873 -0.0719  0.4919
  445TMC3     H 6634   3.193   0.103  17.209  0.0621  1.7337 -0.8161
  445TMC3    H1 6635   3.601   0.186  17.322  0.3475  2.7890 -2.6768
  445TMC3    H2 6636   3.513   4.600  17.037  0.7544  0.4112  0.5089
  445TMC3    C7 6637   3.697   0.031  17.130  0.1184  0.1591 -0.4361
  445TMC3    C8 6638   3.253   4.640  17.037  1.0816  0.0610 -0.1356
  445TMC3    O1 6639   3.717   0.137  17.074  0.2007  0.7691  0.0305
  445TMC3    O2 6640   3.303   4.581  16.941  0.5683 -0.4036 -0.4157
  446MPD2     C 6641   3.004   1.859  11.315  0.7277 -0.0100  0.4488
  446MPD2    C1 6642   2.987   1.912  11.188  0.1494 -0.3332 -0.5252
  446MPD2    C2 6643   3.107   1.945  11.125  0.1848  0.4867 -0.5689
  446MPD2    C3 6644   3.234   1.931  11.183  0.5414  0.0229 -0.3338
  446MPD2    C4 6645   3.247   1.870  11.306  0.0813 -0.2774 -0.3436
  446MPD2    C5 6646   3.129   1.834  11.371  0.3411 -0.3666 -0.1800
  446MPD2     H 6647   3.103   1.974  11.020  1.4406  2.4022 -0.1017
  446MPD2    H1 6648   3.340   1.838  11.350 -0.4043  0.9279  1.5680
  446MPD2    H2 6649   2.919   1.816  11.367  0.2745 -1.1499 -1.2320
  446MPD2    H3 6650   3.141   1.783  11.466  2.2067 -0.6489 -0.5754
  446MPD2     N 6651   3.343   1.964  11.098 -0.0236 -0.0295 -0.1781
  446MPD2    H5 6652   3.325   1.990  11.001 -0.6908 -0.8409 -0.2796
  446MPD2    N1 6653   2.861   1.920  11.122 -0.5452 -0.4310 -0.3857
  446MPD2    H7 6654   2.874   1.947  11.025 -0.0178  1.9084  0.3485
  447TMC3    C1 6655   3.570   1.943  11.036 -0.1696 -0.8718  0.5932
  447TMC3    C2 6656   3.537   1.960  10.907  0.0010 -0.3487 -0.3638
  447TMC3    C3 6657   3.644   1.951  10.824  0.1685  0.2065  0.3778
  447TMC3    C4 6658   3.695   1.915  11.088  1.0670  1.1284  0.6812
  447TMC3    C5 6659   3.799   1.909  10.994 -0.1632 -0.5643  0.9179
  447TMC3    C6 6660   3.770   1.923  10.865  0.0286  0.1445  0.4301
  447TMC3     C 6661   3.472   1.971  11.139  0.2797 -0.9041 -0.4402
  447TMC3     O 6662   3.520   1.960  11.253  0.6523 -0.4441 -0.4203
  447TMC3     H 6663   3.438   1.978  10.865  0.6232 -1.1068 -2.1747
  447TMC3    H1 6664   3.721   1.908  11.193  0.2006 -0.5072  0.7837
  447TMC3    H2 6665   3.845   1.894  10.793  0.5518 -0.9197  1.3941
  447TMC3    C7 6666   3.930   1.894  11.043  0.4941  0.1250 -0.0065
  447TMC3    C8 6667   3.598   1.900  10.697  0.4062 -0.0505  0.0870
  447TMC3    O1 6668   3.944   1.836  11.153 -0.1533 -0.0050  0.2839
  447TMC3    O2 6669   3.525   1.975  10.630  0.1077 -0.2200 -0.3199
  448TMC3    C1 6670   1.380   1.623  17.163  0.5194 -0.2878  0.0253
  448TMC3    C2 6671   1.421   1.530  17.075  0.4146 -0.2690  0.0984
  448TMC3    C3 6672   1.442   1.402  17.126 -0.1489 -0.1609 -0.1493
  448TMC3    C4 6673   1.351   1.595  17.293  0.3175 -0.3172  0.9385
  448TMC3    C5 6674   1.368   1.471  17.340  0.3382  0.4188 -0.4727
  448TMC3    C6 6675   1.419   1.373  17.261 -0.1929 -0.1538 -0.1446
  448TMC3     C 6676   1.394   1.757  17.113 -0.2468  0.1133  0.1381
  448TMC3     O 6677   1.452   1.774  17.005  0.1181 -0.1407  0.4250
  448TMC3     H 6678   1.470   1.557  16.982  0.2388 -1.5900 -0.3842
  448TMC3    H1 6679   1.329   1.680  17.357  1.7105  1.3892 -0.8356
  448TMC3    H2 6680   1.417   1.272  17.299 -0.0510 -0.4623 -0.9551
  448TMC3    C7 6681   1.400   1.455  17.481 -0.5659  1.0863 -0.8118
  448TMC3    C8 6682   1.443   1.288  17.033 -0.1724  0.1793 -0.9703
  448TMC3    O1 6683   1.450   1.555  17.529 -0.5715  0.5173 -0.1802
  448TMC3    O2 6684   1.430   1.179  17.087 -0.2326  0.3602 -0.3740
  449MPD2     C 6685   2.930   0.857  13.906  0.4115  0.2338 -0.2713
  449MPD2    C1 6686   2.841   0.784  13.822  0.3582 -0.4497 -0.7869
  449MPD2    C2 6687   2.797   0.656  13.857 -0.8756  0.1335  0.3364
  449MPD2    C3 6688   2.840   0.595  13.970 -0.1476  0.4104  0.0968
  449MPD2    C4 6689   2.924   0.669  14.048 -0.1639  0.1465 -1.0960
  449MPD2    C5 6690   2.964   0.795  14.019 -0.3736  0.2720  0.0303
  449MPD2     H 6691   2.724   0.610  13.791  1.0592 -0.0931 -1.6180
  449MPD2    H1 6692   2.962   0.630  14.141  2.8470  1.8325 -1.6282
  449MPD2    H2 6693   2.983   0.948  13.883  1.7300 -0.0506  1.6343
  449MPD2    H3 6694   3.040   0.838  14.082  0.6481 -1.1746 -0.2287
  449MPD2     N 6695   2.798   0.466  14.005 -0.2107 -0.1320  0.5027
  449MPD2    H5 6696   2.755   0.418  13.927 -0.8243 -1.0933  1.4357
  449MPD2    N1 6697   2.795   0.823  13.686  0.2037 -0.1951 -0.2896
  449MPD2    H7 6698   2.737   0.760  13.633 -0.4651 -0.0779  0.2941
  450TMC3    C1 6699   2.739   0.944  13.501  0.3616  0.4931  0.2624
  450TMC3    C2 6700   2.810   0.930  13.388  0.3937 -0.7162 -0.0640
  450TMC3    C3 6701   2.743   0.866  13.290  0.5060  0.0599 -0.4047
  450TMC3    C4 6702   2.616   0.886  13.524  0.4569 -0.5076  0.1509
  450TMC3    C5 6703   2.552   0.817  13.428  0.3144  0.4535  0.7473
  450TMC3    C6 6704   2.621   0.807  13.307 -0.7465  0.9969 -0.0869
  450TMC3     C 6705   2.822   0.944  13.624  0.2556 -0.3520  0.6392
  450TMC3     O 6706   2.911   1.025  13.636 -0.3413  0.6572  0.2634
  450TMC3     H 6707   2.915   0.956  13.381  0.4072 -0.6847  0.2814
  450TMC3    H1 6708   2.572   0.876  13.623  2.8963 -0.8729  1.2012
  450TMC3    H2 6709   2.573   0.760  13.221 -3.9595  1.5498  1.4081
  450TMC3    C7 6710   2.527   0.690  13.494  0.2641  0.1188  0.7323
  450TMC3    C8 6711   2.818   0.846  13.168  0.7050  0.0998 -0.2754
  450TMC3    O1 6712   2.621   0.661  13.572 -0.0654  0.2498 -0.9521
  450TMC3    O2 6713   2.924   0.907  13.151  0.9068  0.4219  0.9313
  451MPD2     C 6714   2.786   3.319   1.465  0.8302  0.7296  0.2480
  451MPD2    C1 6715   2.847   3.375   1.352  0.3251 -0.1598 -0.3714
  451MPD2    C2 6716   2.870   3.298   1.239 -0.4598  0.3676  0.3373
  451MPD2    C3 6717   2.840   3.166   1.251  0.5946  0.1655  0.4347
  451MPD2    C4 6718   2.779   3.108   1.358 -0.5390  0.5134  0.1746
  451MPD2    C5 6719   2.754   3.189   1.466 -0.5088 -0.4818  0.3512
  451MPD2     H 6720   2.912   3.336   1.146  1.1456  1.2442  1.4244
  451MPD2    H1 6721   2.757   3.002   1.360  1.8067  0.0677  2.8373
  451MPD2    H2 6722   2.780   3.368   1.561  1.8095  0.3980  0.4758
  451MPD2    H3 6723   2.723   3.160   1.565  2.0839 -3.4582  0.2704
  451MPD2     N 6724   2.888   3.077   1.152 -0.4249 -0.3290  0.0258
  451MPD2    H5 6725   2.890   2.978   1.175 -0.6721 -0.2182  0.5286
  451MPD2    N1 6726   2.868   3.510   1.357  0.1483  0.1627 -0.0935
  451MPD2    H7 6727   2.849   3.550   1.449 -0.1744  0.4772 -0.2946
  452TMC3    C1 6728   3.026   2.988   0.996 -0.2610 -0.1924 -0.5046
  452TMC3    C2 6729   3.071   2.897   1.084 -0.2965  0.7273 -0.1812
  452TMC3    C3 6730   3.150   2.796   1.032 -0.1104 -1.5186  0.4724
  452TMC3    C4 6731   3.039   2.982   0.860  0.0618  0.2244 -0.3169
  452TMC3    C5 6732   3.104   2.875   0.812  0.3912  0.9283 -0.5009
  452TMC3    C6 6733   3.170   2.783   0.895  0.5359  0.6649 -0.3582
  452TMC3     C 6734   2.965   3.107   1.042 -1.0072  0.1482 -0.4216
  452TMC3     O 6735   2.957   3.207   0.968  0.3906  0.0194 -0.3472
  452TMC3     H 6736   3.076   2.923   1.189 -0.2921 -0.0562  0.0123
  452TMC3    H1 6737   2.989   3.046   0.788  2.1455  0.5084 -1.5091
  452TMC3    H2 6738   3.243   2.710   0.861  1.0739  0.5668  1.0393
  452TMC3    C7 6739   3.126   2.884   0.671  0.4304  0.0586 -0.9350
  452TMC3    C8 6740   3.209   2.700   1.120  0.5492  0.8946 -0.7698
  452TMC3    O1 6741   3.140   2.996   0.618 -0.4660 -0.0984 -0.6917
  452TMC3    O2 6742   3.166   2.685   1.236 -0.4312  0.1923 -0.0123
  453TMC3    C1 6743   0.342   1.436  11.823 -0.2163  0.0228 -0.0542
  453TMC3    C2 6744   0.255   1.332  11.854 -0.6576  0.1823 -0.0489
  453TMC3    C3 6745   0.226   1.239  11.763  0.5151 -0.6474  0.3648
  453TMC3    C4 6746   0.388   1.455  11.696  0.1984  0.5715  0.3581
  453TMC3    C5 6747   0.354   1.356  11.608  0.8440 -0.1252  0.1591
  453TMC3    C6 6748   0.285   1.242  11.641 -0.0302 -0.1000 -0.2586
  453TMC3     C 6749   0.449   1.473  11.921  0.5219  0.7633 -0.4879
  453TMC3     O 6750   0.536   1.546  11.873  0.5490 -0.6358  0.1001
  453TMC3     H 6751   0.220   1.338  11.956 -0.5227  0.0442  0.0068
  453TMC3    H1 6752   0.458   1.531  11.663  1.3982 -0.4322  0.5617
  453TMC3    H2 6753   0.260   1.167  11.567 -0.6748 -1.2238  1.1097
  453TMC3    C7 6754   0.428   1.350  11.488 -0.0622 -0.8766 -0.7350
  453TMC3    C8 6755   0.158   1.119  11.809 -0.4151  0.0452 -0.7901
  453TMC3    O1 6756   0.484   1.247  11.463  0.6461  0.2345  0.1950
  453TMC3    O2 6757   0.106   1.130  11.916 -0.3544 -0.3296  0.2043
  454MPD2     C 6758   3.337   1.378  15.834 -0.4440  0.4219  0.1236
  454MPD2    C1 6759   3.328   1.260  15.767 -0.5640  0.0820 -0.6281
  454MPD2    C2 6760   3.360   1.144  15.832 -0.0675 -1.2706 -0.0030
  454MPD2    C3 6761   3.374   1.145  15.971 -0.8808 -0.0073 -0.4700
  454MPD2    C4 6762   3.369   1.265  16.040 -0.4149  0.1799  0.4139
  454MPD2    C5 6763   3.347   1.380  15.969  0.3022 -0.2285  0.2364
  454MPD2     H 6764   3.369   1.047  15.785  0.7478 -0.9424 -0.5212
  454MPD2    H1 6765   3.383   1.271  16.148  1.1653 -0.5234  0.2412
  454MPD2    H2 6766   3.299   1.464  15.781 -3.9576 -0.2096  1.6072
  454MPD2    H3 6767   3.325   1.464  16.034 -0.9173 -1.4918  1.4514
  454MPD2     N 6768   3.387   1.024  16.046  0.6948  0.1809  0.0010
  454MPD2    H5 6769   3.415   1.040  16.142 -0.7161 -1.7258  0.7191
  454MPD2    N1 6770   3.293   1.282  15.633  0.1057  1.0092  0.3309
  454MPD2    H7 6771   3.296   1.380  15.606  1.9745  0.5330 -1.1814
  455TMC3    C1 6772   3.367   0.803  16.119  0.5269  0.7974 -0.0100
  455TMC3    C2 6773   3.315   0.846  16.237 -0.1151  0.3177 -0.0684
  455TMC3    C3 6774   3.246   0.754  16.311 -0.4945 -0.3643 -0.2644
  455TMC3    C4 6775   3.374   0.672  16.092  0.4679  0.1445 -0.6627
  455TMC3    C5 6776   3.315   0.583  16.174 -1.4860  0.3933  0.0245
  455TMC3    C6 6777   3.243   0.623  16.289 -0.3254 -0.6593 -0.0181
  455TMC3     C 6778   3.389   0.893  16.009 -0.1328 -0.1985 -0.1091
  455TMC3     O 6779   3.379   0.842  15.895  0.1384  0.0092  0.4811
  455TMC3     H 6780   3.313   0.951  16.263  0.8890  0.5484 -0.8898
  455TMC3    H1 6781   3.432   0.647  16.004 -1.1645 -2.0573 -1.1281
  455TMC3    H2 6782   3.195   0.548  16.350 -1.0329 -1.3722 -1.4554
  455TMC3    C7 6783   3.309   0.447  16.121  0.3440 -0.6655  0.8086
  455TMC3    C8 6784   3.158   0.795  16.424  0.6231  0.4519 -0.2218
  455TMC3    O1 6785   3.335   0.441  16.002 -0.2720 -0.0991 -0.2921
  455TMC3    O2 6786   3.150   0.726  16.526  0.1266  0.2193  0.2929
  456MPD2     C 6787   1.938   0.187  16.337 -0.0889 -0.0743 -1.0736
  456MPD2    C1 6788   1.968   0.146  16.463  0.3779 -0.6137 -0.7627
  456MPD2    C2 6789   1.869   0.180  16.558 -0.2452  0.3708 -0.3094
  456MPD2    C3 6790   1.757   0.254  16.525 -0.8688  0.7906 -0.4832
  456MPD2    C4 6791   1.747   0.315  16.402  0.1342  0.5026  0.5563
  456MPD2    C5 6792   1.832   0.266  16.303 -0.3849  0.4283 -0.2223
  456MPD2     H 6793   1.882   0.153  16.662 -0.8381  1.2779 -0.0035
  456MPD2    H1 6794   1.671   0.380  16.359 -0.4648 -0.9221 -0.5791
  456MPD2    H2 6795   2.007   0.161  16.257  2.2872  0.1230  0.9077
  456MPD2    H3 6796   1.823   0.300  16.201  1.3991  1.9155  0.1214
  456MPD2     N 6797   1.678   0.301  16.633  0.0917  0.1382  0.0595
  456MPD2    H5 6798   1.694   0.256  16.723  1.3612 -0.3348 -0.4074
  456MPD2    N1 6799   2.078   0.070  16.490  0.1730  0.7739  0.2398
  456MPD2    H7 6800   2.135   0.044  16.410 -0.4013 -0.5033  0.2386
  457TMC3    C1 6801   1.528   0.453  16.745  0.1647  0.6420  0.1993
  457TMC3    C2 6802   1.508   0.589  16.748  0.0096  0.0637 -0.0902
  457TMC3    C3 6803   1.416   0.634  16.840 -0.2224  0.0615 -0.0880
  457TMC3    C4 6804   1.462   0.374  16.835  0.3138  0.0479  0.8866
  457TMC3    C5 6805   1.390   0.427  16.938  0.8507 -0.6965 -0.0219
  457TMC3    C6 6806   1.365   0.559  16.940 -1.4342  0.2687 -0.2122
  457TMC3     C 6807   1.582   0.398  16.621 -0.2154 -0.2824 -0.4386
  457TMC3     O 6808   1.555   0.471  16.527  0.3762 -0.0687 -0.2084
  457TMC3     H 6809   1.564   0.643  16.674 -1.3374  0.3560 -0.9012
  457TMC3    H1 6810   1.492   0.270  16.825 -0.0987 -0.0827  0.9823
  457TMC3    H2 6811   1.286   0.595  17.006  0.3743  1.8390  1.0904
  457TMC3    C7 6812   1.314   0.329  17.019  0.7088  0.7385  0.2003
  457TMC3    C8 6813   1.396   0.776  16.851 -0.4215 -0.4301 -0.0891
  457TMC3    O1 6814   1.385   0.232  17.057  0.1758  0.0685  0.2440
  457TMC3    O2 6815   1.338   0.822  16.945 -0.1871  0.0637 -0.0775
  458MPD2     C 6816   4.355   0.047  11.890  0.0294 -0.9510 -0.1553
  458MPD2    C1 6817   4.296   0.061  12.015 -0.5937 -0.3319 -0.0276
  458MPD2    C2 6818   4.163   0.030  12.040  0.8935 -0.1823 -0.5843
  458MPD2    C3 6819   4.094   4.685  11.940  0.6626 -0.6055  0.2667
  458MPD2    C4 6820   4.153   4.661  11.821 -0.2967  0.5203 -0.1615
  458MPD2    C5 6821   4.275   4.703  11.791 -0.5460  0.1058  0.6736
  458MPD2     H 6822   4.117   0.060  12.134  2.1238 -1.0000  0.2868
  458MPD2    H1 6823   4.091   4.611  11.748 -1.0501 -0.8547  1.4277
  458MPD2    H2 6824   4.454   0.079  11.861 -0.1295  0.0890  0.4598
  458MPD2    H3 6825   4.312   4.664  11.697  0.4282  0.6976  0.8099
  458MPD2     N 6826   3.957   4.655  11.962  0.4682 -0.5513 -0.6396
  458MPD2    H5 6827   3.897   4.639  11.881 -0.7644  1.2744 -0.0756
  458MPD2    N1 6828   4.365   0.137  12.110  0.8459  0.3050  0.0433
  458MPD2    H7 6829   4.454   0.183  12.089  1.1641 -0.2150  0.2410
  459TMC3    C1 6830   4.427   0.205  12.326  0.6307 -0.3969 -0.2820
  459TMC3    C2 6831   4.519   0.300  12.286 -0.4764  0.7211  0.3144
  459TMC3    C3 6832   4.608   0.343  12.382  0.7274  0.6052  0.2178
  459TMC3    C4 6833   4.421   0.161  12.453 -0.2535  0.3289 -0.4697
  459TMC3    C5 6834   4.510   0.209  12.544 -0.0719 -0.3722 -0.4437
  459TMC3    C6 6835   4.606   0.299  12.510 -0.1589  0.1415 -0.1656
  459TMC3     C 6836   4.327   0.151  12.241 -0.4392  0.0020  0.2666
  459TMC3     O 6837   4.223   0.110  12.298 -0.2256 -0.3105  0.4509
  459TMC3     H 6838   4.506   0.343  12.188 -1.0666  0.1953  0.1608
  459TMC3    H1 6839   4.342   0.096  12.488  0.2687 -0.0724 -0.0377
  459TMC3    H2 6840   4.662   0.359  12.581 -0.6681  1.9037 -1.2582
  459TMC3    C7 6841   4.510   0.148  12.675 -0.5799  0.0408 -0.5868
  459TMC3    C8 6842   4.685   0.465  12.354 -0.3684  0.6387  0.9075
  459TMC3    O1 6843   4.499   0.023  12.687  0.1359 -0.3354 -0.1129
  459TMC3    O2 6844   0.068   0.491  12.414 -0.2020 -0.0429  0.2314
  460MPD2     C 6845   3.609   1.558  10.575  0.2761  0.2350 -0.0112
  460MPD2    C1 6846   3.570   1.691  10.576 -0.1933  0.1278  0.1340
  460MPD2    C2 6847   3.482   1.738  10.480  0.3732 -0.2437  0.7435
  460MPD2    C3 6848   3.445   1.650  10.375  0.1348 -0.5812 -0.1021
  460MPD2    C4 6849   3.477   1.518  10.377  0.8482 -0.4078  0.2154
  460MPD2    C5 6850   3.560   1.475  10.480 -0.3082 -0.0082 -0.1211
  460MPD2     H 6851   3.466   1.845  10.470 -3.5107 -0.5325  3.8731
  460MPD2    H1 6852   3.444   1.445  10.305  0.9328 -1.2076  0.9955
  460MPD2    H2 6853   3.675   1.514  10.648  1.0668  1.5467  0.0784
  460MPD2    H3 6854   3.601   1.374  10.481  0.1206  0.1562 -0.9668
  460MPD2     N 6855   3.391   1.706  10.251 -0.9675 -0.0965 -0.1345
  460MPD2    H5 6856   3.359   1.802  10.257 -0.3802  0.1414 -0.7340
  460MPD2    N1 6857   3.621   1.766  10.681  0.1676 -0.4868  0.1081
  460MPD2    H7 6858   3.678   1.707  10.742  0.6134  0.8046  0.9439
  461TMC3    C1 6859   3.301   1.723  10.032 -0.3628  0.2226 -0.2265
  461TMC3    C2 6860   3.287   1.681   9.906  0.2453  0.2574  0.1524
  461TMC3    C3 6861   3.203   1.753   9.825  0.0373 -0.4523  0.1268
  461TMC3    C4 6862   3.232   1.836  10.084  0.4724  0.1287 -0.1061
  461TMC3    C5 6863   3.142   1.892   9.999 -0.8034  1.1161 -0.0888
  461TMC3    C6 6864   3.128   1.857   9.867  0.4356  0.1741 -0.1197
  461TMC3     C 6865   3.375   1.642  10.126  0.4645 -0.6492  0.0756
  461TMC3     O 6866   3.410   1.536  10.084 -0.0848  0.5213  0.3257
  461TMC3     H 6867   3.335   1.587   9.880 -1.6529 -0.8050  0.5240
  461TMC3    H1 6868   3.220   1.856  10.189  0.4670  0.4093 -0.1620
  461TMC3    H2 6869   3.080   1.918   9.792  2.9637  3.2832  0.7647
  461TMC3    C7 6870   3.084   2.018  10.029 -0.0807 -0.0423  0.5764
  461TMC3    C8 6871   3.156   1.681   9.707  0.5822 -0.1975  0.1407
  461TMC3    O1 6872   2.980   2.045   9.965  0.0127 -0.0350  0.2712
  461TMC3    O2 6873   3.222   1.581   9.678  0.3453 -0.3414  0.3512
  462TMC3    C1 6874   2.668   2.524  17.490  0.2956 -0.6901 -0.1507
  462TMC3    C2 6875   2.747   2.416  17.476 -0.7797 -0.0855 -0.4340
  462TMC3    C3 6876   2.696   2.294  17.505  0.1571 -0.2651  0.0092
  462TMC3    C4 6877   2.551   2.523  17.550  0.2417  0.4245  0.5490
  462TMC3    C5 6878   2.504   2.400  17.590 -0.0907 -0.2156  0.3298
  462TMC3    C6 6879   2.581   2.288  17.574  0.5535 -1.1376 -0.1730
  462TMC3     C 6880   2.723   2.655  17.446 -0.5440  0.0907  0.0725
  462TMC3     O 6881   2.809   2.663  17.352  0.0284  0.0316  0.2098
  462TMC3     H 6882   2.844   2.418  17.427  0.0994  1.2989  1.3103
  462TMC3    H1 6883   2.483   2.606  17.534 -0.2869  0.1997  1.5940
  462TMC3    H2 6884   2.532   2.195  17.599 -0.2796 -0.1100  2.0176
  462TMC3    C7 6885   2.366   2.387  17.628  0.3643  0.4639  0.4530
  462TMC3    C8 6886   2.771   2.169  17.468 -0.2800  0.7419 -0.6863
  462TMC3    O1 6887   2.310   2.281  17.609  0.1812 -0.2763 -0.5682
  462TMC3    O2 6888   2.740   2.071  17.540 -0.4934  0.3326  1.0025
  463MPD2     C 6889   2.766   1.852   1.498 -0.1249  0.3663  0.3985
  463MPD2    C1 6890   2.734   1.903   1.380  0.5364  0.3098 -0.0980
  463MPD2    C2 6891   2.836   1.951   1.300  0.6426 -0.0564 -0.4722
  463MPD2    C3 6892   2.970   1.938   1.334  0.6221 -0.0825 -0.5712
  463MPD2    C4 6893   2.997   1.879   1.453  0.6210  0.0099 -0.5823
  463MPD2    C5 6894   2.894   1.841   1.541 -0.1267 -0.2490 -0.1080
  463MPD2     H 6895   2.818   2.012   1.212 -0.7491 -0.7537 -0.6675
  463MPD2    H1 6896   3.098   1.873   1.490  0.5566 -0.2433 -0.4473
  463MPD2    H2 6897   2.688   1.842   1.572 -0.2380 -0.8410  0.1189
  463MPD2    H3 6898   2.917   1.787   1.632  0.7048  0.7712  0.2917
  463MPD2     N 6899   3.084   1.987   1.264 -0.0933  0.0940  0.1981
  463MPD2    H5 6900   3.176   1.972   1.305 -0.5247 -2.3458  0.3167
  463MPD2    N1 6901   2.600   1.920   1.334 -0.3575 -0.4836  0.2610
  463MPD2    H7 6902   2.588   1.965   1.244  0.5455  0.3892  0.5826
  464TMC3    C1 6903   2.371   1.897   1.338  1.0431 -0.1773 -0.0058
  464TMC3    C2 6904   2.360   1.997   1.255  0.4155 -0.6424  0.0278
  464TMC3    C3 6905   2.234   2.031   1.207 -0.6668  0.0900 -0.4991
  464TMC3    C4 6906   2.261   1.828   1.393  0.1938  0.3786  0.1582
  464TMC3    C5 6907   2.138   1.873   1.361 -0.1346  0.2314 -0.4917
  464TMC3    C6 6908   2.117   1.973   1.264  0.7545  0.3017  0.7134
  464TMC3     C 6909   2.495   1.874   1.401 -0.2320  0.3061 -0.1023
  464TMC3     O 6910   2.490   1.813   1.510  0.2461  0.5497 -0.9214
  464TMC3     H 6911   2.444   2.047   1.208  1.3311 -0.6473  1.6853
  464TMC3    H1 6912   2.283   1.756   1.471 -0.1413  1.4064  1.2186
  464TMC3    H2 6913   2.017   1.989   1.224  0.0306 -0.0418  2.4229
  464TMC3    C7 6914   2.029   1.779   1.379 -0.2852  0.4121 -0.1726
  464TMC3    C8 6915   2.227   2.098   1.078 -0.0858 -1.1932 -0.7212
  464TMC3    O1 6916   1.915   1.825   1.393 -0.2143  0.1509 -0.8837
  464TMC3    O2 6917   2.324   2.156   1.029  0.1101  0.1323 -0.1828
  465MPD2     C 6918   0.297   0.459  17.425 -0.0930 -0.0724 -0.5619
  465MPD2    C1 6919   0.176   0.494  17.470  0.4608  0.1702  0.8683
  465MPD2    C2 6920   0.102   0.575  17.386 -0.1610 -0.6406  0.0225
  465MPD2    C3 6921   0.150   0.628  17.266  0.0118 -0.3456  0.4724
  465MPD2    C4 6922   0.279   0.596  17.230 -0.3474 -0.4955 -0.0017
  465MPD2    C5 6923   0.344   0.515  17.309 -0.0364  0.4796  0.4186
  465MPD2     H 6924   4.719   0.595  17.414  0.6892  0.3823  2.4975
  465MPD2    H1 6925   0.336   0.617  17.140  0.1132 -2.4813 -0.1818
  465MPD2    H2 6926   0.367   0.401  17.483 -3.2204 -2.0173  1.2775
  465MPD2    H3 6927   0.442   0.481  17.279  0.6180  1.9853  0.8781
  465MPD2     N 6928   0.068   0.697  17.179  0.3681  0.3973  0.6501
  465MPD2    H5 6929   4.696   0.723  17.211  0.3587  1.1103  0.0658
  465MPD2    N1 6930   0.112   0.428  17.579  0.0095  0.6519 -0.0437
  465MPD2    H7 6931   0.012   0.446  17.589 -0.3678 -0.3869 -2.1372
  466TMC3    C1 6932   4.455   0.808  16.976 -0.9284  0.3021  0.3055
  466TMC3    C2 6933   4.478   0.907  16.887 -0.8842  0.0804  0.8605
  466TMC3    C3 6934   4.600   0.926  16.830  0.4947  0.2797  0.3134
  466TMC3    C4 6935   4.564   0.749  17.040 -0.1017  1.0761 -0.2454
  466TMC3    C5 6936   4.692   0.779  16.985  0.5387 -0.1913  0.2479
  466TMC3    C6 6937   4.712   0.868  16.874 -0.6095 -0.6344  0.4043
  466TMC3     C 6938   4.341   0.801  17.067 -0.0845 -0.3572  0.0552
  466TMC3     O 6939   4.367   0.777  17.184 -0.1358 -0.5102 -0.4030
  466TMC3     H 6940   4.388   0.951  16.845  0.5046 -0.0005 -2.1732
  466TMC3    H1 6941   4.550   0.672  17.115 -1.5943  2.1161  0.5393
  466TMC3    H2 6942   0.091   0.906  16.850 -1.1387  0.3959 -0.1329
  466TMC3    C7 6943   0.095   0.737  17.051 -0.4258 -0.2123 -0.1330
  466TMC3    C8 6944   4.625   1.046  16.751  0.5831 -0.5646 -0.2054
  466TMC3    O1 6945   0.200   0.727  16.987 -0.0445 -0.6850 -0.5180
  466TMC3    O2 6946   0.001   1.055  16.675 -0.4575  0.0208  0.2579
  467TMC3    C1 6947   1.305   4.218  13.481 -0.7712 -0.0527  0.1680
  467TMC3    C2 6948   1.368   4.210  13.357  0.2359 -0.0622 -0.2077
  467TMC3    C3 6949   1.294   4.192  13.245 -0.2686 -0.0133  0.3963
  467TMC3    C4 6950   1.165   4.208  13.496  0.1780  0.2634 -0.1347
  467TMC3    C5 6951   1.095   4.197  13.376  0.1250  0.5868  0.2352
  467TMC3    C6 6952   1.161   4.195  13.254 -0.0151  0.2482  0.2099
  467TMC3     C 6953   1.358   4.314  13.570 -0.5281  0.3437 -0.2610
  467TMC3     O 6954   1.357   4.297  13.690 -0.4780  0.2590 -0.6277
  467TMC3     H 6955   1.476   4.213  13.353  0.2935  0.5768  1.7586
  467TMC3    H1 6956   1.124   4.243  13.590 -0.2507 -1.1912  0.2105
  467TMC3    H2 6957   1.109   4.201  13.158 -2.0340 -3.4658  1.0709
  467TMC3    C7 6958   0.952   4.237  13.363 -0.4146  0.5657  0.0267
  467TMC3    C8 6959   1.339   4.287  13.152 -0.2100  0.8228 -1.1776
  467TMC3    O1 6960   0.903   4.264  13.253  0.5399 -0.1814  0.8242
  467TMC3    O2 6961   1.373   4.392  13.208  0.1047  0.1368  0.0878
  468MPD2     C 6962   0.179   2.007  10.780 -0.2851  0.4033 -0.3670
  468MPD2    C1 6963   0.305   1.981  10.733  0.1799  0.2385 -0.3306
  468MPD2    C2 6964   0.356   1.852  10.754 -0.6499 -0.7033 -0.0447
  468MPD2    C3 6965   0.270   1.750  10.798  0.1688  0.0808 -0.4538
  468MPD2    C4 6966   0.139   1.775  10.840  0.1484 -0.0830 -0.0613
  468MPD2    C5 6967   0.097   1.904  10.827  0.3226 -0.3200  0.3608
  468MPD2     H 6968   0.458   1.830  10.726 -0.3160  0.7441  0.0671
  468MPD2    H1 6969   0.077   1.691  10.870  1.0028 -0.4064  0.8147
  468MPD2    H2 6970   0.132   2.104  10.767 -1.8252 -0.4146 -0.8776
  468MPD2    H3 6971   4.715   1.930  10.853  0.2827 -1.0833  1.0011
  468MPD2     N 6972   0.305   1.614  10.826 -0.4569 -0.0504  0.2002
  468MPD2    H5 6973   0.235   1.549  10.860  0.6485 -0.9064  0.8451
  468MPD2    N1 6974   0.390   2.090  10.701 -0.4015 -0.1611  0.6365
  468MPD2    H7 6975   0.490   2.072  10.694 -0.8134 -1.7758 -1.0504
  469TMC3    C1 6976   0.445   2.307  10.715 -0.3258 -0.5763 -0.6728
  469TMC3    C2 6977   0.568   2.271  10.777  0.2231 -0.3448 -0.6259
  469TMC3    C3 6978   0.635   2.365  10.847  0.0365 -0.6458 -0.4098
  469TMC3    C4 6979   0.397   2.430  10.722 -0.5063 -0.4984 -0.5287
  469TMC3    C5 6980   0.463   2.515  10.807  0.6735 -0.1703  0.3327
  469TMC3    C6 6981   0.581   2.488  10.871 -0.4459 -0.5229 -0.2323
  469TMC3     C 6982   0.347   2.213  10.673 -0.2547 -0.3940  0.5891
  469TMC3     O 6983   0.232   2.255  10.649 -0.2052  0.2283  0.8883
  469TMC3     H 6984   0.601   2.169  10.794  1.6175  0.0238 -1.1212
  469TMC3    H1 6985   0.304   2.472  10.683 -0.1789  0.9458  0.2411
  469TMC3    H2 6986   0.626   2.573  10.922 -2.0478  1.0833 -1.4650
  469TMC3    C7 6987   0.430   2.657  10.798 -0.2782 -0.6514  0.4191
  469TMC3    C8 6988   0.688   2.304  10.971  0.0601  0.0360 -0.0642
  469TMC3    O1 6989   0.520   2.738  10.817 -0.3701 -0.7399  0.3104
  469TMC3    O2 6990   0.753   2.197  10.965 -0.2682 -0.2434 -0.0945
  470TMC3    C1 6991   2.521   2.913   0.898  0.8165  0.0005 -1.1438
  470TMC3    C2 6992   2.503   3.023   0.813  0.1333  0.0375  0.1768
  470TMC3    C3 6993   2.396   3.012   0.734  0.1086 -0.2749  0.4238
  470TMC3    C4 6994   2.421   2.827   0.936  0.1880 -0.0521 -0.0658
  470TMC3    C5 6995   2.307   2.834   0.859  1.0788 -1.0812  0.1382
  470TMC3    C6 6996   2.299   2.918   0.753 -0.0474  0.0907 -0.1470
  470TMC3     C 6997   2.660   2.871   0.919 -1.0655 -0.2760  0.7177
  470TMC3     O 6998   2.729   2.901   0.825  0.4816  0.1770  0.7558
  470TMC3     H 6999   2.577   3.102   0.803 -0.8779  0.5154 -3.2896
  470TMC3    H1 7000   2.431   2.764   1.024 -0.5887  0.8963  0.7062
  470TMC3    H2 7001   2.217   2.922   0.682  1.3925 -0.0417 -1.8182
  470TMC3    C7 7002   2.177   2.806   0.917  0.4388  0.1733 -0.0006
  470TMC3    C8 7003   2.331   3.144   0.701 -0.4088 -0.0498 -0.2087
  470TMC3    O1 7004   2.106   2.744   0.839  0.4762  0.1903  0.4627
  470TMC3    O2 7005   2.208   3.149   0.702 -0.0935  0.5571 -0.3405
  471MPD2     C 7006   2.924   4.156  16.756  0.1886 -0.3636  0.0328
  471MPD2    C1 7007   2.832   4.050  16.738 -0.1011 -0.3524 -1.3363
  471MPD2    C2 7008   2.783   3.989  16.852 -0.2721  0.3761 -0.5472
  471MPD2    C3 7009   2.815   4.032  16.980 -0.6054 -0.6752 -0.0428
  471MPD2    C4 7010   2.914   4.134  16.994  0.1199 -0.5436  0.5948
  471MPD2    C5 7011   2.972   4.192  16.883  0.3363  0.0370  0.2784
  471MPD2     H 7012   2.705   3.915  16.844 -0.2196  0.2362  0.2406
  471MPD2    H1 7013   2.954   4.174  17.086  1.6887  0.9889 -0.7429
  471MPD2    H2 7014   2.971   4.212  16.675  0.5840  0.4300  0.8093
  471MPD2    H3 7015   3.044   4.273  16.884 -0.8606  1.1008  0.7483
  471MPD2     N 7016   2.758   3.959  17.090 -0.7651  0.6282  0.0314
  471MPD2    H5 7017   2.791   3.986  17.182  0.8350 -0.2677 -0.2816
  471MPD2    N1 7018   2.793   4.001  16.617 -0.6079  0.7219  0.3307
  471MPD2    H7 7019   2.755   3.907  16.619 -0.7814  0.7936  0.4504
  472TMC3    C1 7020   2.792   3.970  16.389  0.1081 -0.0662  0.6647
  472TMC3    C2 7021   2.737   4.038  16.282  0.8579 -0.1387  0.3300
  472TMC3    C3 7022   2.735   3.974  16.167 -0.0199  0.2497 -0.0607
  472TMC3    C4 7023   2.818   3.838  16.397 -0.7864  0.1955 -0.2218
  472TMC3    C5 7024   2.789   3.770  16.280  0.3580 -0.1424 -0.1998
  472TMC3    C6 7025   2.757   3.836  16.165 -0.5727  0.4648  0.2332
  472TMC3     C 7026   2.829   4.059  16.499 -0.0244  0.7969 -0.3946
  472TMC3     O 7027   2.887   4.163  16.477  0.0377  0.2220  0.4496
  472TMC3     H 7028   2.709   4.143  16.291  0.9893  0.0027 -0.9522
  472TMC3    H1 7029   2.834   3.789  16.492  1.5464  1.3561 -0.0096
  472TMC3    H2 7030   2.749   3.782  16.072  0.7845 -1.4254  1.2074
  472TMC3    C7 7031   2.725   3.640  16.313 -0.1771 -0.0829  0.1275
  472TMC3    C8 7032   2.634   4.001  16.077  0.1533  0.4725 -0.0457
  472TMC3    O1 7033   2.754   3.581  16.417 -0.1553 -0.2325 -0.5029
  472TMC3    O2 7034   2.657   4.012  15.958  0.2371  0.7813  0.2929
  473MPD2     C 7035   2.968   1.675  13.941  0.8336  0.6355  0.4013
  473MPD2    C1 7036   2.870   1.779  13.944  0.4701  0.1317 -0.1649
  473MPD2    C2 7037   2.888   1.894  14.028  0.6308  0.1737 -0.3080
  473MPD2    C3 7038   2.992   1.898  14.115  0.1449  0.3053  1.1628
  473MPD2    C4 7039   3.089   1.794  14.114 -0.2993 -0.2579 -0.2830
  473MPD2    C5 7040   3.076   1.687  14.022 -0.5463  0.5546  0.3874
  473MPD2     H 7041   2.814   1.972  14.021 -1.5413 -1.9141 -0.5895
  473MPD2    H1 7042   3.167   1.798  14.190 -0.7414  1.5910  0.0737
  473MPD2    H2 7043   2.957   1.586  13.880 -0.0926  0.8044  0.3126
  473MPD2    H3 7044   3.148   1.606  14.025 -2.1331 -0.8065  1.1167
  473MPD2     N 7045   3.007   2.002  14.211  0.3820  0.6344 -0.2941
  473MPD2    H5 7046   3.082   1.991  14.279 -0.1255  0.2054  0.1899
  473MPD2    N1 7047   2.761   1.787  13.852 -0.0740 -0.5792  0.4308
  473MPD2    H7 7048   2.715   1.874  13.829  2.2316  0.2270 -1.2095
  474TMC3    C1 7049   2.968   2.204  14.318 -0.6892  0.5126 -0.7152
  474TMC3    C2 7050   2.880   2.309  14.327  0.2177  0.0704  0.1965
  474TMC3    C3 7051   2.921   2.436  14.359 -0.9259 -0.0666  0.6754
  474TMC3    C4 7052   3.099   2.219  14.344  0.4321  0.3948  0.5484
  474TMC3    C5 7053   3.129   2.344  14.387 -0.0851 -0.2980 -0.6323
  474TMC3    C6 7054   3.047   2.448  14.401 -0.3680 -0.0468 -0.2593
  474TMC3     C 7055   2.930   2.116  14.212 -1.1627  0.1701  0.2420
  474TMC3     O 7056   2.841   2.151  14.135 -0.3433 -0.0531 -0.3878
  474TMC3     H 7057   2.775   2.300  14.299 -0.7010  1.1946  3.2373
  474TMC3    H1 7058   3.178   2.148  14.322  0.8303  1.2979 -0.9718
  474TMC3    H2 7059   3.080   2.545  14.438  0.6556 -0.1620 -0.8765
  474TMC3    C7 7060   3.265   2.364  14.416 -0.2517  0.4657  0.2553
  474TMC3    C8 7061   2.848   2.533  14.279  0.2307 -0.0366  0.3290
  474TMC3    O1 7062   3.346   2.310  14.341 -0.2998  0.4517  0.0278
  474TMC3    O2 7063   2.737   2.507  14.236  0.1620  0.1301 -0.1198
  475MPD2     C 7064   2.172   4.451   9.790  0.4821 -0.0434 -0.2221
  475MPD2    C1 7065   2.190   4.578   9.844 -0.4228 -0.1143 -0.0012
  475MPD2    C2 7066   2.089   4.626   9.929 -0.3056  0.7217 -0.1511
  475MPD2    C3 7067   1.982   4.539   9.969 -0.6842  0.0030  0.1117
  475MPD2    C4 7068   1.979   4.408   9.924  0.0868 -0.2810  0.0685
  475MPD2    C5 7069   2.073   4.372   9.837  0.4237  0.1371 -1.0394
  475MPD2     H 7070   2.093   0.011   9.952 -1.3416  0.0972  2.9663
  475MPD2    H1 7071   1.901   4.338   9.956 -0.9462  1.1429  0.6691
  475MPD2    H2 7072   2.238   4.405   9.718 -0.3678 -1.9826  0.2468
  475MPD2    H3 7073   2.081   4.268   9.808 -1.5856 -0.2390 -0.3047
  475MPD2     N 7074   1.886   4.601  10.049 -0.4827  0.1109 -0.1086
  475MPD2    H5 7075   1.907   4.693  10.087 -0.1231  0.0977 -0.2783
  475MPD2    N1 7076   2.288   4.674   9.798 -0.4849  0.3387  0.0567
  475MPD2    H7 7077   2.355   4.647   9.727 -0.9154  0.8237 -0.5274
  476TMC3    C1 7078   2.398   0.160   9.767  0.2928  0.2271  1.1203
  476TMC3    C2 7079   2.350   0.163   9.643 -0.7230 -0.4596 -1.3692
  476TMC3    C3 7080   2.328   0.290   9.591 -0.0472  0.4737  0.7621
  476TMC3    C4 7081   2.437   0.272   9.838 -0.7230  0.5620 -0.1562
  476TMC3    C5 7082   2.423   0.391   9.780  0.4397  0.0283  0.3512
  476TMC3    C6 7083   2.375   0.406   9.653  0.1603 -0.0037 -0.1702
  476TMC3     C 7084   2.325   0.070   9.860 -0.0370 -0.5156 -0.7176
  476TMC3     O 7085   2.305   0.094   9.978 -0.5427 -0.0495  0.2351
  476TMC3     H 7086   2.314   0.084   9.579  1.2011 -2.9710  0.6412
  476TMC3    H1 7087   2.463   0.260   9.943 -0.1718  0.5393 -0.3004
  476TMC3    H2 7088   2.340   0.499   9.610  1.1259 -0.1124 -1.1622
  476TMC3    C7 7089   2.434   0.514   9.853 -0.2273  0.0725  0.5697
  476TMC3    C8 7090   2.194   0.307   9.537 -0.0379  0.4207  0.3363
  476TMC3    O1 7091   2.485   0.606   9.790 -0.8338 -0.0603  0.0534
  476TMC3    O2 7092   2.163   0.419   9.501 -0.2706  0.3146  0.4006
  477MPD2     C 7093   4.195   1.639  11.785  0.1227 -0.6176 -0.4827
  477MPD2    C1 7094   4.098   1.556  11.746 -0.1923 -0.2521 -0.3339
  477MPD2    C2 7095   4.092   1.431  11.810 -0.0849 -0.4376 -0.9718
  477MPD2    C3 7096   4.155   1.398  11.928  0.1578 -0.0950 -0.0005
  477MPD2    C4 7097   4.251   1.488  11.963  0.4743  0.8753  0.1579
  477MPD2    C5 7098   4.265   1.609  11.898 -0.1568  0.6205  0.0215
  477MPD2     H 7099   4.010   1.363  11.789  0.4876 -0.8711 -1.8049
  477MPD2    H1 7100   4.302   1.478  12.058  2.1120 -0.7756 -0.9042
  477MPD2    H2 7101   4.225   1.736  11.747 -1.1573  0.0405  0.1884
  477MPD2    H3 7102   4.328   1.681  11.947  2.8585 -1.3951 -0.8668
  477MPD2     N 7103   4.111   1.294  12.011  0.1328  0.0635  0.1347
  477MPD2    H5 7104   4.063   1.212  11.975  1.5608 -0.2095 -1.1477
  477MPD2    N1 7105   4.011   1.599  11.647 -0.1978 -0.4404  0.5598
  477MPD2    H7 7106   4.014   1.696  11.617  0.3158 -1.3113 -2.2578
  478TMC3    C1 7107   3.820   1.586  11.512 -0.5369 -0.2449 -0.6010
  478TMC3    C2 7108   3.805   1.721  11.538  0.1267  0.1673 -0.8771
  478TMC3    C3 7109   3.701   1.781  11.474  0.3911  0.1919  0.2028
  478TMC3    C4 7110   3.735   1.507  11.436 -0.0522  0.2439 -0.8995
  478TMC3    C5 7111   3.635   1.572  11.369  0.7034  0.6101 -0.0301
  478TMC3    C6 7112   3.622   1.711  11.384 -0.7388  0.6997 -0.4645
  478TMC3     C 7113   3.923   1.513  11.582  0.0551  0.8199  0.0349
  478TMC3     O 7114   3.926   1.393  11.557  0.1200 -0.6423 -0.5092
  478TMC3     H 7115   3.873   1.786  11.592 -1.2662  0.7540  0.1733
  478TMC3    H1 7116   3.749   1.400  11.426  0.2893  0.3471 -1.5566
  478TMC3    H2 7117   3.531   1.755  11.343 -1.0830 -0.1602 -0.6327
  478TMC3    C7 7118   3.560   1.502  11.272  0.1559  0.0754  0.2860
  478TMC3    C8 7119   3.628   1.859  11.572  0.1687  0.1702  0.5374
  478TMC3    O1 7120   3.567   1.382  11.288  0.3632  0.2114  0.0499
  478TMC3    O2 7121   3.661   1.842  11.684  0.2216  0.4896  0.3526
  479MPD2     C 7122   2.723   3.803  14.967 -0.9848  0.5812 -0.4191
  479MPD2    C1 7123   2.645   3.771  15.078 -0.3552 -0.0663  0.2093
  479MPD2    C2 7124   2.703   3.799  15.201  0.0997  0.3600  1.0436
  479MPD2    C3 7125   2.813   3.873  15.211 -0.0696  0.6653  0.0107
  479MPD2    C4 7126   2.889   3.904  15.103 -0.8707  0.4620  0.1455
  479MPD2    C5 7127   2.837   3.871  14.984  0.4959  0.1918  0.3576
  479MPD2     H 7128   2.657   3.771  15.295  0.4809  2.3439  1.8178
  479MPD2    H1 7129   2.984   3.957  15.108 -0.5079 -0.4570  3.2364
  479MPD2    H2 7130   2.695   3.761  14.871 -1.9571  1.4956 -0.5377
  479MPD2    H3 7131   2.898   3.899  14.899 -1.8454  0.9337 -1.0828
  479MPD2     N 7132   2.861   3.916  15.334 -0.1523 -0.5813 -0.5191
  479MPD2    H5 7133   2.958   3.946  15.335  0.0653 -1.2319 -1.6259
  479MPD2    N1 7134   2.514   3.717  15.056  0.5379 -0.6074  0.3377
  479MPD2    H7 7135   2.498   3.685  14.962  0.2019 -1.1886  0.5915
  480TMC3    C1 7136   2.464   3.861  15.553  0.5192 -0.2256 -0.4516
  480TMC3    C2 7137   2.386   3.929  15.464  0.8068 -0.3329 -0.6099
  480TMC3    C3 7138   2.449   4.005  15.369  0.1162 -0.1328  0.2532
  480TMC3    C4 7139   2.601   3.869  15.551 -0.3612 -0.1172 -0.1139
  480TMC3    C5 7140   2.654   3.951  15.454  0.2541  0.4285 -0.4490
  480TMC3    C6 7141   2.584   4.026  15.365  0.7726  0.3325  0.5546
  480TMC3     C 7142   2.406   3.760  15.638 -0.4361 -0.4302  0.3406
  480TMC3     O 7143   2.485   3.672  15.673 -0.1116 -0.3595 -0.1149
  480TMC3     H 7144   2.279   3.917  15.452  0.9393 -1.7953 -0.2827
  480TMC3    H1 7145   2.665   3.818  15.622  0.6366 -1.1747 -1.7697
  480TMC3    H2 7146   2.627   4.090  15.289  1.8514 -0.1318  0.7765
  480TMC3    C7 7147   2.794   3.942  15.453  0.2013 -0.1396  0.0001
  480TMC3    C8 7148   2.364   4.060  15.259 -0.5147  0.0875  0.2300
  480TMC3    O1 7149   2.840   3.975  15.563  0.3080 -0.3910  0.3804
  480TMC3    O2 7150   2.253   4.101  15.291  0.6878  0.3548  0.5894
  481MPD2     C 7151   4.343   3.725  13.987  0.1868 -0.0365 -0.5315
  481MPD2    C1 7152   4.229   3.664  14.024 -0.1690 -0.5428  0.1366
  481MPD2    C2 7153   4.199   3.642  14.157 -0.5978  0.7330 -0.0296
  481MPD2    C3 7154   4.296   3.678  14.252 -0.2502  0.9224 -0.0457
  481MPD2    C4 7155   4.420   3.720  14.211 -0.9267 -0.6714 -0.2239
  481MPD2    C5 7156   4.440   3.750  14.080  0.2120 -0.2347 -0.4231
  481MPD2     H 7157   4.106   3.599  14.193 -0.7848 -0.4017 -1.8720
  481MPD2    H1 7158   4.493   3.744  14.288  0.4248 -1.1951 -1.3380
  481MPD2    H2 7159   4.370   3.749  13.885  0.0481  0.2747 -0.4938
  481MPD2    H3 7160   4.536   3.790  14.051  1.1203 -1.5791  0.7292
  481MPD2     N 7161   4.275   3.660  14.389  0.3406 -0.1561  0.1206
  481MPD2    H5 7162   4.357   3.674  14.446  0.7072 -3.3240  0.4106
  481MPD2    N1 7163   4.131   3.645  13.922 -0.0086 -0.0720 -0.1744
  481MPD2    H7 7164   4.141   3.688  13.830 -2.4210 -0.1906 -0.5003
  482TMC3    C1 7165   3.918   3.559  13.841  0.0303  0.0324 -0.4535
  482TMC3    C2 7166   3.808   3.484  13.867 -0.3125  0.1993 -0.2615
  482TMC3    C3 7167   3.701   3.493  13.786 -0.3391 -0.5131  0.1744
  482TMC3    C4 7168   3.920   3.641  13.731 -0.4371  0.0733  0.0001
  482TMC3    C5 7169   3.807   3.644  13.650  0.1944 -0.5380 -0.3803
  482TMC3    C6 7170   3.693   3.572  13.672  0.2336  0.0709  0.3410
  482TMC3     C 7171   4.024   3.557  13.940  0.5760 -0.1403  0.0298
  482TMC3     O 7172   4.005   3.477  14.030 -0.8277 -0.3985  0.0537
  482TMC3     H 7173   3.800   3.406  13.942  0.9443 -1.1125 -1.4749
  482TMC3    H1 7174   4.003   3.710  13.721  1.3166 -1.8819  1.0897
  482TMC3    H2 7175   3.610   3.577  13.603  1.5021 -0.5016 -1.2272
  482TMC3    C7 7176   3.824   3.723  13.529  0.3883  0.2919  0.3925
  482TMC3    C8 7177   3.584   3.417  13.832  0.1653  0.1151 -0.0997
  482TMC3    O1 7178   3.889   3.823  13.551 -0.2875 -0.0066 -0.3890
  482TMC3    O2 7179   3.601   3.318  13.902  0.2508  0.1405  0.4158
  483TMC3    C1 7180   0.728   1.487   0.599 -0.2341 -0.0610 -0.2193
  483TMC3    C2 7181   0.772   1.597   0.521 -0.1243  0.0446 -0.4647
  483TMC3    C3 7182   0.820   1.705   0.591 -0.1510 -0.1754  0.0120
  483TMC3    C4 7183   0.734   1.491   0.737  0.2863  0.0986  0.3333
  483TMC3    C5 7184   0.798   1.593   0.802  0.6223  0.6295 -0.5022
  483TMC3    C6 7185   0.827   1.703   0.730 -0.6768 -0.4250  0.1033
  483TMC3     C 7186   0.772   1.361   0.538 -0.3292  0.3669  0.4849
  483TMC3     O 7187   0.877   1.370   0.479  0.1589  0.1643 -0.0593
  483TMC3     H 7188   0.773   1.582   0.413  2.0790  2.1113 -0.7175
  483TMC3    H1 7189   0.688   1.407   0.788 -0.8028  0.4437 -0.0943
  483TMC3    H2 7190   0.880   1.785   0.778  0.1209 -1.4165  0.9426
  483TMC3    C7 7191   0.920   1.553   0.865 -0.0254 -0.3568 -0.3472
  483TMC3    C8 7192   0.900   1.796   0.511 -0.1247 -0.2722 -0.5249
  483TMC3    O1 7193   0.992   1.637   0.919 -0.3482 -0.2468  0.0325
  483TMC3    O2 7194   1.001   1.841   0.568  0.2122 -0.2547  0.0384
  484MPD2     C 7195   4.513   0.737  12.190  0.1425 -0.0061  0.4587
  484MPD2    C1 7196   4.626   0.676  12.237 -0.7692  0.2007  0.0182
  484MPD2    C2 7197   0.024   0.743  12.267  0.2167 -0.3777 -0.1000
  484MPD2    C3 7198   0.036   0.881  12.229  0.4169  0.2593 -0.2508
  484MPD2    C4 7199   4.642   0.943  12.181 -0.0071 -0.8103  0.7976
  484MPD2    C5 7200   4.523   0.875  12.162  0.4298  0.1368  0.7603
  484MPD2     H 7201   0.112   0.694  12.307  0.0630 -0.0196  0.6782
  484MPD2    H1 7202   4.644   1.050  12.165 -2.5906 -0.7505  0.8894
  484MPD2    H2 7203   4.419   0.688  12.169  1.6164 -1.5897 -2.5261
  484MPD2    H3 7204   4.432   0.926  12.132  1.2619  1.2654  0.1432
  484MPD2     N 7205   0.156   0.951  12.234 -0.3541  0.1637  1.0912
  484MPD2    H5 7206   0.160   1.040  12.185 -1.0521 -0.0749  0.6026
  484MPD2    N1 7207   4.600   0.546  12.273 -0.3328  0.1739  0.0844
  484MPD2    H7 7208   4.508   0.506  12.256 -0.1570  0.8924 -2.5787
  485TMC3    C1 7209   0.387   0.978  12.239 -0.3629 -0.2627 -0.5677
  485TMC3    C2 7210   0.494   0.936  12.311  1.0741 -0.1152  0.9360
  485TMC3    C3 7211   0.605   0.897  12.239 -0.5309 -0.4263  0.9250
  485TMC3    C4 7212   0.386   0.979  12.104  0.3625 -0.3215  0.0099
  485TMC3    C5 7213   0.501   0.944  12.039 -0.2183 -0.0549 -0.6058
  485TMC3    C6 7214   0.617   0.924  12.106  0.3299 -0.1579  0.8317
  485TMC3     C 7215   0.269   0.924  12.305 -0.2428 -0.0753 -0.0199
  485TMC3     O 7216   0.274   0.839  12.392  0.0877  0.2761  0.1775
  485TMC3     H 7217   0.489   0.922  12.419  0.5937  0.6756  1.0162
  485TMC3    H1 7218   0.298   0.984  12.041 -0.0046  0.1672  0.5727
  485TMC3    H2 7219   0.698   0.882  12.047 -0.1254  1.4828 -0.9825
  485TMC3    C7 7220   0.478   0.832  11.950 -0.2292 -0.1119  0.5075
  485TMC3    C8 7221   0.652   0.764  12.270 -0.4453 -0.2540 -0.2729
  485TMC3    O1 7222   0.538   0.835  11.841  0.9648 -0.1642  0.2728
  485TMC3    O2 7223   0.756   0.728  12.208  0.0653 -0.6493  0.1102
  486MPD2     C 7224   1.768   4.226  13.353  0.1467  0.5912 -0.0782
  486MPD2    C1 7225   1.788   4.144  13.249  0.3731 -0.2503  0.2536
  486MPD2    C2 7226   1.798   4.196  13.122 -0.7231 -0.2030  0.1799
  486MPD2    C3 7227   1.787   4.334  13.102 -1.5493 -0.5920  0.0916
  486MPD2    C4 7228   1.778   4.417  13.217  0.0322 -0.3117  0.7967
  486MPD2    C5 7229   1.761   4.364  13.343  0.2080 -0.1419 -0.5112
  486MPD2     H 7230   1.808   4.128  13.038 -0.4334  1.7607 -1.3689
  486MPD2    H1 7231   1.773   4.525  13.213 -2.0326 -0.3928  1.1453
  486MPD2    H2 7232   1.772   4.185  13.453 -0.9398 -0.7537 -0.5907
  486MPD2    H3 7233   1.751   4.428  13.429 -2.7947 -0.1475 -0.8353
  486MPD2     N 7234   1.800   4.382  12.967  0.5108  0.5795 -0.1803
  486MPD2    H5 7235   1.807   4.307  12.899  0.0113 -0.9471  1.4605
  486MPD2    N1 7236   1.790   4.007  13.283  0.2128  0.2691 -0.1428
  486MPD2    H7 7237   1.758   3.988  13.378  1.8225 -1.6573  0.0357
  487TMC3    C1 7238   1.754   3.779  13.268 -0.4004 -0.0243 -0.9796
  487TMC3    C2 7239   1.665   3.701  13.200  0.0806 -0.1524  0.2405
  487TMC3    C3 7240   1.588   3.609  13.272  0.2567 -0.5468  0.4674
  487TMC3    C4 7241   1.773   3.768  13.402  0.5423 -0.5152  0.6296
  487TMC3    C5 7242   1.697   3.675  13.467 -0.3746 -0.2298 -0.5960
  487TMC3    C6 7243   1.601   3.601  13.407  0.2728  0.1750  1.1936
  487TMC3     C 7244   1.800   3.900  13.201  0.4580 -0.1664  0.4022
  487TMC3     O 7245   1.807   3.890  13.077  0.3681  0.0480  0.0518
  487TMC3     H 7246   1.638   3.714  13.096 -2.1820 -3.0974  0.4659
  487TMC3    H1 7247   1.856   3.812  13.456 -0.9032  1.6715  1.0784
  487TMC3    H2 7248   1.578   3.505  13.451  0.5927  0.9995  3.1802
  487TMC3    C7 7249   1.699   3.663  13.612 -0.0236 -0.1375 -0.4737
  487TMC3    C8 7250   1.461   3.565  13.230  0.2278  0.0022  0.7304
  487TMC3    O1 7251   1.804   3.699  13.666  0.0477 -0.2071 -0.6404
  487TMC3    O2 7252   1.369   3.589  13.311 -0.2169  0.3409  0.5633
  488MPD2     C 7253   2.416   0.822  16.489 -0.0410 -0.4338 -0.2645
  488MPD2    C1 7254   2.350   0.928  16.542 -0.5508  0.1331 -0.8164
  488MPD2    C2 7255   2.286   0.909  16.663  0.2684  0.3961  0.1579
  488MPD2    C3 7256   2.293   0.791  16.732 -0.0191 -0.2382  0.0739
  488MPD2    C4 7257   2.369   0.689  16.679 -0.3100 -0.3652 -0.4720
  488MPD2    C5 7258   2.431   0.703  16.560 -0.8789 -0.6968 -0.4707
  488MPD2     H 7259   2.222   0.993  16.688  0.0638  0.5385 -0.8343
  488MPD2    H1 7260   2.368   0.587  16.717 -0.1280 -0.9757 -2.1263
  488MPD2    H2 7261   2.453   0.811  16.388  0.4915 -1.1310 -0.0011
  488MPD2    H3 7262   2.488   0.618  16.526 -1.2729 -0.8984 -0.6233
  488MPD2     N 7263   2.213   0.775  16.845 -0.4407  0.2547  0.1139
  488MPD2    H5 7264   2.169   0.859  16.882  2.0757  1.8204 -0.4320
  488MPD2    N1 7265   2.316   1.044  16.471  0.0572 -0.5776  0.4499
  488MPD2    H7 7266   2.278   1.122  16.523 -0.5894 -0.1486 -0.6884
  489TMC3    C1 7267   2.122   0.672  17.035 -0.3617 -0.4080  0.2863
  489TMC3    C2 7268   2.060   0.787  17.079  0.0575 -0.1165  0.3734
  489TMC3    C3 7269   2.000   0.788  17.202  0.2248  0.4065  0.3354
  489TMC3    C4 7270   2.100   0.548  17.107  0.1775  0.4624  0.3539
  489TMC3    C5 7271   2.052   0.558  17.235  1.4561  0.3497  0.2442
  489TMC3    C6 7272   1.998   0.675  17.279 -0.4525  0.0308  0.4367
  489TMC3     C 7273   2.193   0.664  16.914  0.3055 -0.2979  0.2505
  489TMC3     O 7274   2.236   0.554  16.889 -0.0639  0.2368 -0.3764
  489TMC3     H 7275   2.058   0.874  17.014  0.1451 -0.2708  0.1640
  489TMC3    H1 7276   2.139   0.454  17.070 -0.9008 -0.3955  1.4165
  489TMC3    H2 7277   1.941   0.678  17.371  0.4764 -0.3323  1.0199
  489TMC3    C7 7278   2.049   0.439  17.316  0.2616 -0.0367  0.2100
  489TMC3    C8 7279   1.913   0.899  17.240  0.5518  0.4517 -0.5483
  489TMC3    O1 7280   2.066   0.335  17.257 -0.1425  0.2639  0.3400
  489TMC3    O2 7281   1.850   0.886  17.342  0.3828  0.6430 -0.2050
  490MPD2     C 7282   3.161   3.805   0.536 -0.6390 -0.5548  0.4389
  490MPD2    C1 7283   3.118   3.892   0.444  0.3264  0.4087  0.1763
  490MPD2    C2 7284   3.144   4.023   0.462 -0.7326 -0.4216  0.3340
  490MPD2    C3 7285   3.207   4.073   0.575  0.0610 -0.1290  0.2866
  490MPD2    C4 7286   3.246   3.979   0.671  0.7128 -0.0109  0.1191
  490MPD2    C5 7287   3.222   3.847   0.649  0.1882 -0.0409  0.3056
  490MPD2     H 7288   3.120   4.086   0.377  0.9809 -1.1123 -0.6734
  490MPD2    H1 7289   3.292   4.006   0.765 -1.4968 -0.0254  1.1951
  490MPD2    H2 7290   3.130   3.701   0.538 -1.4949 -0.3062 -0.4531
  490MPD2    H3 7291   3.236   3.768   0.722 -0.7841  0.8992  1.5155
  490MPD2     N 7292   3.238   4.202   0.592 -0.0402 -0.3522 -0.1413
  490MPD2    H5 7293   3.302   4.220   0.669 -0.0587  0.6396 -0.3685
  490MPD2    N1 7294   3.063   3.833   0.327  0.0416  0.9419  0.0943
  490MPD2    H7 7295   3.054   3.732   0.336 -0.5190  1.1554  1.9388
  491TMC3    C1 7296   2.925   3.826   0.121 -0.9027  0.1631  0.3899
  491TMC3    C2 7297   2.931   3.689   0.112 -0.3595  0.8465  0.3875
  491TMC3    C3 7298   2.850   3.618   0.027 -1.2245 -0.0345 -0.8993
  491TMC3    C4 7299   2.861   3.895   0.024  0.1036 -0.0216 -0.0841
  491TMC3    C5 7300   2.794   3.818  17.620 -0.9525  0.2407 -0.1685
  491TMC3    C6 7301   2.782   3.682  17.616  0.5428  0.2446  0.4681
  491TMC3     C 7302   2.997   3.904   0.226  0.5442  0.8262  0.4469
  491TMC3     O 7303   2.977   4.027   0.224  0.1384 -0.6520  0.2830
  491TMC3     H 7304   2.978   3.630   0.189  0.7508 -1.3151 -1.9788
  491TMC3    H1 7305   2.859   4.004   0.025 -0.4104 -0.0412  0.7426
  491TMC3    H2 7306   2.709   3.627  17.557 -0.7959  0.9434  1.4721
  491TMC3    C7 7307   2.701   3.886  17.530 -0.3765 -0.0590  0.1146
  491TMC3    C8 7308   2.786   3.502   0.096  0.0852  0.0553 -0.0395
  491TMC3    O1 7309   2.576   3.866  17.543  0.5957 -0.6215  0.1536
  491TMC3    O2 7310   2.855   3.432   0.169  0.4836 -0.1786  0.1869
  492MPD2     C 7311   3.160   4.509  10.674 -0.5941  0.0498 -0.1297
  492MPD2    C1 7312   3.231   4.611  10.723 -0.2073  0.3535 -0.2911
  492MPD2    C2 7313   3.213   4.647  10.857 -0.1195 -0.1043  0.1594
  492MPD2    C3 7314   3.134   4.567  10.941 -0.2744 -0.1700  0.2357
  492MPD2    C4 7315   3.061   4.463  10.884  0.9462 -0.2230  0.0633
  492MPD2    C5 7316   3.075   4.437  10.753 -0.3883  0.4132  0.4545
  492MPD2     H 7317   3.257   0.017  10.899  0.5369 -0.8027  0.9670
  492MPD2    H1 7318   3.001   4.393  10.940 -0.0754  0.9405  0.4179
  492MPD2    H2 7319   3.172   4.486  10.569  1.6305  1.5702 -0.2141
  492MPD2    H3 7320   3.024   4.352  10.709  0.5944  1.0423 -1.9199
  492MPD2     N 7321   3.126   4.591  11.087  0.0129  0.1028 -0.1766
  492MPD2    H5 7322   3.071   4.525  11.140 -1.8127  0.3205 -1.7976
  492MPD2    N1 7323   3.303   4.690  10.633 -0.1802  0.3783  0.6146
  492MPD2    H7 7324   3.294   4.655  10.538  3.2197 -0.1768  0.5059
  493TMC3    C1 7325   3.457   0.104  10.541  0.1106  0.1428  0.7648
  493TMC3    C2 7326   3.585   0.160  10.541  0.0930 -0.2291 -0.2816
  493TMC3    C3 7327   3.634   0.211  10.425 -0.7231 -0.9042  0.0256
  493TMC3    C4 7328   3.384   0.120  10.432  0.2286  0.2743 -0.0846
  493TMC3    C5 7329   3.432   0.178  10.319 -0.9319  0.2677  0.3256
  493TMC3    C6 7330   3.567   0.206  10.306  0.3180  0.3857  0.3220
  493TMC3     C 7331   3.403   0.065  10.664  0.2888  0.3564  0.6066
  493TMC3     O 7332   3.444   0.099  10.774  0.0193  0.4400 -0.2013
  493TMC3     H 7333   3.642   0.148  10.633  0.7314 -1.8490 -0.8853
  493TMC3    H1 7334   3.279   0.093  10.435  0.4355 -0.6141 -0.9740
  493TMC3    H2 7335   3.607   0.235  10.210 -1.0121  0.6335 -0.1529
  493TMC3    C7 7336   3.341   0.260  10.258  0.0813  0.4105  0.1019
  493TMC3    C8 7337   3.779   0.250  10.430  0.1886  0.0668 -0.3841
  493TMC3    O1 7338   3.246   0.292  10.326 -0.0993  0.1902  0.1249
  493TMC3    O2 7339   3.832   0.234  10.537 -0.1069  0.2734 -0.3746
  494TMC3    C1 7340   3.037   2.068   0.197 -0.2393 -0.0182  0.8380
  494TMC3    C2 7341   3.035   1.953   0.259  0.2222  0.0682 -0.4708
  494TMC3    C3 7342   3.152   1.875   0.245 -0.0814 -0.1177 -0.0186
  494TMC3    C4 7343   3.140   2.120   0.113  0.9172  0.4112  0.4210
  494TMC3    C5 7344   3.240   2.025   0.085 -0.0380  0.3976 -0.1634
  494TMC3    C6 7345   3.245   1.904   0.145  0.6717 -0.7428 -0.0741
  494TMC3     C 7346   2.911   2.135   0.172 -0.8695 -0.1582 -0.8591
  494TMC3     O 7347   2.912   2.256   0.165 -0.6164 -0.3244 -0.0910
  494TMC3     H 7348   2.959   1.936   0.334  0.7909  0.1900  0.1292
  494TMC3    H1 7349   3.127   2.208   0.051 -3.4763 -0.7572 -0.3526
  494TMC3    H2 7350   3.328   1.834   0.146  0.5924 -0.8394 -0.1697
  494TMC3    C7 7351   3.305   2.034  17.640 -0.5102  0.4780 -0.9785
  494TMC3    C8 7352   3.158   1.746   0.310  0.3961  0.3049  0.2150
  494TMC3    O1 7353   3.331   2.142  17.591 -0.5717  0.0378  0.2341
  494TMC3    O2 7354   3.237   1.660   0.276 -0.4364 -0.1517 -0.4429
  495TMC3    C1 7355   2.727   3.765  14.465 -0.2435  0.0340  0.1052
  495TMC3    C2 7356   2.628   3.758  14.373 -0.1428  0.4878 -0.3796
  495TMC3    C3 7357   2.538   3.860  14.363  0.3118 -0.1937  0.0511
  495TMC3    C4 7358   2.743   3.876  14.551 -0.2272  0.1679  0.0230
  495TMC3    C5 7359   2.648   3.974  14.538 -0.2068 -0.2082 -0.5631
  495TMC3    C6 7360   2.551   3.971  14.444  0.1812 -0.5616 -0.0739
  495TMC3     C 7361   2.812   3.655  14.486  0.6796  0.5670  0.8954
  495TMC3     O 7362   2.890   3.682  14.575 -0.2566  0.0613  0.1514
  495TMC3     H 7363   2.638   3.677  14.301  0.8330 -1.0192  1.4612
  495TMC3    H1 7364   2.833   3.893  14.608  2.1616 -0.2057 -3.6442
  495TMC3    H2 7365   2.485   4.056  14.433 -0.9556 -1.2644  1.3051
  495TMC3    C7 7366   2.617   4.040  14.661 -0.2111 -0.1002 -0.2888
  495TMC3    C8 7367   2.444   3.873  14.247  1.0972  0.7637  1.2045
  495TMC3    O1 7368   2.704   4.065  14.743 -0.1826 -0.3771 -0.7606
  495TMC3    O2 7369   2.358   3.960  14.259  0.3777 -0.2879 -0.4520
  496MPD2     C 7370   0.249   4.390  15.370 -0.3585 -0.3678 -0.7248
  496MPD2    C1 7371   0.162   4.286  15.376 -0.5730 -0.1704  0.1993
  496MPD2    C2 7372   0.029   4.317  15.422 -0.6840 -0.2391 -0.7866
  496MPD2    C3 7373   0.000   4.442  15.480  0.6259 -0.7345 -0.4439
  496MPD2    C4 7374   0.107   4.534  15.497 -0.8030  0.4386  0.0114
  496MPD2    C5 7375   0.226   4.510  15.439  0.0299 -0.6628  0.3133
  496MPD2     H 7376   4.664   4.251  15.410 -0.8760 -0.2368  0.5496
  496MPD2    H1 7377   0.085   4.623  15.555 -1.9569  0.9283 -1.1573
  496MPD2    H2 7378   0.346   4.379  15.323 -0.0368  1.9344 -0.5872
  496MPD2    H3 7379   0.308   4.580  15.446 -0.3471 -0.2844  0.9585
  496MPD2     N 7380   4.593   4.480  15.530 -0.7540  0.0774 -0.0008
  496MPD2    H5 7381   4.583   4.567  15.581 -1.4101 -0.9559  1.6395
  496MPD2    N1 7382   0.193   4.167  15.308 -0.2745  0.0030  0.5443
  496MPD2    H7 7383   0.279   4.153  15.257  0.0920  0.6310  0.9991
  497TMC3    C1 7384   4.359   4.475  15.546  1.0282 -0.3257 -0.1303
  497TMC3    C2 7385   4.240   4.459  15.480  0.4628  0.5948 -1.2931
  497TMC3    C3 7386   4.134   4.421  15.552  0.2511  0.0893 -0.6215
  497TMC3    C4 7387   4.362   4.471  15.686 -0.2029  0.2058 -0.0924
  497TMC3    C5 7388   4.250   4.431  15.752  0.5435  0.2418  1.1792
  497TMC3    C6 7389   4.132   4.411  15.687 -0.4200 -0.3688  0.0462
  497TMC3     C 7390   4.478   4.426  15.482 -0.8210  0.6914  0.0282
  497TMC3     O 7391   4.473   4.347  15.388  0.4114 -0.1904 -0.3189
  497TMC3     H 7392   4.232   4.478  15.373 -0.5788  1.3853 -1.0823
  497TMC3    H1 7393   4.461   4.473  15.731  0.1881 -1.4955 -0.8669
  497TMC3    H2 7394   4.040   4.376  15.733  0.0083  1.1960  2.1205
  497TMC3    C7 7395   4.250   4.392  15.895 -0.1294  0.1002  0.9999
  497TMC3    C8 7396   4.025   4.363  15.482 -0.7568  0.1047  0.8098
  497TMC3    O1 7397   4.135   4.400  15.939 -0.3394 -0.0708 -0.0574
  497TMC3    O2 7398   4.036   4.316  15.367  0.0184 -0.0184 -0.1434
  498MPD2     C 7399   0.573   4.345   9.093  0.5151 -0.5538  0.4188
  498MPD2    C1 7400   0.664   4.266   9.168 -0.2398 -0.4480 -0.8131
  498MPD2    C2 7401   0.633   4.138   9.193 -0.5562 -0.3534  0.8002
  498MPD2    C3 7402   0.507   4.087   9.155  0.2269 -0.0993 -0.0379
  498MPD2    C4 7403   0.420   4.164   9.083 -0.4784 -0.0077  0.3487
  498MPD2    C5 7404   0.455   4.293   9.061 -0.0381 -0.8121 -0.3552
  498MPD2     H 7405   0.700   4.084   9.259 -0.5016 -1.4723 -0.1661
  498MPD2    H1 7406   0.327   4.125   9.042 -0.8716  0.4315  0.8194
  498MPD2    H2 7407   0.589   4.451   9.077  1.3862 -0.6846  0.4019
  498MPD2    H3 7408   0.385   4.350   9.002  1.6603  2.0429  0.4156
  498MPD2     N 7409   0.467   3.958   9.206  0.1518  0.0871  0.3037
  498MPD2    H5 7410   0.525   3.903   9.268  0.0945 -2.3028 -1.7747
  498MPD2    N1 7411   0.787   4.316   9.217 -0.1627 -0.1056  0.2189
  498MPD2    H7 7412   0.851   4.260   9.272  1.1638  1.9067  0.7483
  499TMC3    C1 7413   0.974   4.457   9.256 -0.5099 -0.4073  0.9333
  499TMC3    C2 7414   1.010   4.357   9.347  0.1229 -0.7096  0.2944
  499TMC3    C3 7415   1.144   4.340   9.363  0.2087 -1.1420 -0.4880
  499TMC3    C4 7416   1.068   4.529   9.185 -0.1852 -0.0070 -0.1704
  499TMC3    C5 7417   1.194   4.492   9.204  0.5668  0.7066 -0.4960
  499TMC3    C6 7418   1.238   4.400   9.286 -0.1247 -0.5459 -0.3020
  499TMC3     C 7419   0.840   4.441   9.191  0.1707 -0.5085 -0.0412
  499TMC3     O 7420   0.801   4.522   9.108 -0.2428 -0.7849 -0.4036
  499TMC3     H 7421   0.940   4.302   9.409  0.0246 -1.2702 -0.3078
  499TMC3    H1 7422   1.042   4.603   9.109  0.6085 -0.9788 -1.3880
  499TMC3    H2 7423   1.343   4.372   9.288 -0.5305 -1.9716  0.8466
  499TMC3    C7 7424   1.300   4.567   9.141 -0.2179 -0.1533  0.6480
  499TMC3    C8 7425   1.169   4.215   9.436 -0.0642  0.5077  0.2283
  499TMC3    O1 7426   1.395   4.497   9.108  0.1272 -0.5187 -0.0453
  499TMC3    O2 7427   1.078   4.127   9.436  0.5054  0.3068  0.0714
  500MPD2     C 7428   3.259   0.641   9.513 -0.1399  0.2874 -0.3637
  500MPD2    C1 7429   3.183   0.750   9.551  0.1887 -0.4741 -0.6414
  500MPD2    C2 7430   3.075   0.778   9.472 -0.1331 -0.2158  0.5285
  500MPD2    C3 7431   3.054   0.719   9.349 -0.1289 -0.8228 -0.2206
  500MPD2    C4 7432   3.137   0.614   9.315  0.5077  0.4824 -0.2767
  500MPD2    C5 7433   3.231   0.573   9.398  0.9685  0.0051 -0.3207
  500MPD2     H 7434   3.016   0.865   9.496 -1.1563 -1.1431  1.3499
  500MPD2    H1 7435   3.127   0.570   9.217  0.3716  0.2642 -0.1647
  500MPD2    H2 7436   3.341   0.602   9.573 -0.5550  0.5841  0.4080
  500MPD2    H3 7437   3.291   0.490   9.365  1.0422  0.1349 -0.5152
  500MPD2     N 7438   2.941   0.739   9.271 -0.3600 -0.0209  0.2809
  500MPD2    H5 7439   2.927   0.665   9.202 -0.1739 -1.1390  1.4458
  500MPD2    N1 7440   3.204   0.831   9.669 -0.1853 -0.6264 -0.0334
  500MPD2    H7 7441   3.145   0.911   9.688  0.5526 -0.2160  0.5227
  501TMC3    C1 7442   3.301   0.953   9.839  0.2653 -0.0584 -0.2019
  501TMC3    C2 7443   3.226   1.066   9.811 -0.3084 -0.8875  1.0794
  501TMC3    C3 7444   3.246   1.178   9.884 -0.4640 -0.7647 -0.1907
  501TMC3    C4 7445   3.392   0.962   9.941 -0.2481 -0.0551  0.1822
  501TMC3    C5 7446   3.408   1.072  10.011  0.1072  0.0802 -0.0219
  501TMC3    C6 7447   3.338   1.184   9.984  0.6671  0.1203 -0.9972
  501TMC3     C 7448   3.312   0.834   9.752  0.2682  0.2183 -0.4941
  501TMC3     O 7449   3.414   0.767   9.759  0.2120 -0.1416  0.1189
  501TMC3     H 7450   3.178   1.070   9.714  0.8681  0.4437  0.5525
  501TMC3    H1 7451   3.455   0.879   9.972  1.2117  0.5715 -1.1163
  501TMC3    H2 7452   3.352   1.271  10.047  0.3745  0.8959 -1.9932
  501TMC3    C7 7453   3.511   1.072  10.110  0.3115  0.3142  0.2994
  501TMC3    C8 7454   3.140   1.271   9.886  0.2293 -0.1613 -0.2578
  501TMC3    O1 7455   3.526   0.973  10.179 -0.2689  1.2375 -0.3658
  501TMC3    O2 7456   3.061   1.262   9.795 -0.8728  0.7101  0.3376
  502TMC3    C1 7457   2.030   0.373  15.304 -0.5836  0.2182  0.4071
  502TMC3    C2 7458   1.985   0.499  15.311  0.6946 -0.0034 -0.3883
  502TMC3    C3 7459   1.862   0.524  15.249 -0.0130 -0.4417 -0.3747
  502TMC3    C4 7460   1.957   0.269  15.261 -0.1771  0.0659  0.2398
  502TMC3    C5 7461   1.829   0.300  15.222 -0.1909  0.2883  0.5586
  502TMC3    C6 7462   1.781   0.431  15.203  0.0860 -0.4052  1.0236
  502TMC3     C 7463   2.140   0.350  15.389  0.6220 -0.1883 -0.2433
  502TMC3     O 7464   2.227   0.433  15.409  0.5032  0.6156 -0.1779
  502TMC3     H 7465   2.035   0.584  15.355  0.2767 -0.6252  1.3170
  502TMC3    H1 7466   1.997   0.168  15.263 -2.5876 -0.9105 -1.2654
  502TMC3    H2 7467   1.691   0.447  15.145  1.3078 -1.0909 -1.0295
  502TMC3    C7 7468   1.726   0.201  15.236  0.1205  0.1386 -0.1324
  502TMC3    C8 7469   1.848   0.658  15.202  0.2733  0.5439 -0.6504
  502TMC3    O1 7470   1.770   0.098  15.281 -0.0145  0.4781 -0.7590
  502TMC3    O2 7471   1.952   0.722  15.209  0.1125 -0.3907  0.1001
  503MPD2     C 7472   3.734   0.761  16.587  0.5853  0.4629 -0.1148
  503MPD2    C1 7473   3.696   0.758  16.717 -0.3693 -0.0637  0.5381
  503MPD2    C2 7474   3.768   0.682  16.807 -0.1142 -0.1857 -0.2149
  503MPD2    C3 7475   3.876   0.607  16.772 -0.0751  0.0026 -0.3066
  503MPD2    C4 7476   3.923   0.625  16.641 -0.3883  0.3673  0.6047
  503MPD2    C5 7477   3.845   0.693  16.552  0.1330 -0.5628  0.0559
  503MPD2     H 7478   3.734   0.666  16.909 -1.3465  2.8917 -0.1507
  503MPD2    H1 7479   4.006   0.567  16.602 -1.7737 -0.1494 -1.6067
  503MPD2    H2 7480   3.687   0.819  16.508  0.6170  0.5699 -0.0542
  503MPD2    H3 7481   3.866   0.703  16.446  0.0010 -0.7929  0.0096
  503MPD2     N 7482   3.943   0.532  16.877  0.4090 -0.1572 -0.2452
  503MPD2    H5 7483   3.895   0.516  16.965  1.9223  2.8618  1.1019
  503MPD2    N1 7484   3.596   0.842  16.771 -0.2364  0.1803 -0.0725
  503MPD2    H7 7485   3.557   0.827  16.863 -0.3928  0.6023 -0.0674
  504TMC3    C1 7486   4.104   0.390  16.978  0.7617  0.0729 -0.8394
  504TMC3    C2 7487   4.005   0.347  17.067 -0.2961  0.6809 -0.3194
  504TMC3    C3 7488   4.053   0.261  17.161  0.9235 -0.2538  0.4202
  504TMC3    C4 7489   4.232   0.342  16.977  0.0347 -0.6992 -0.0984
  504TMC3    C5 7490   4.264   0.244  17.069 -0.3264 -0.7177  0.4094
  504TMC3    C6 7491   4.178   0.211  17.170 -0.2998  0.2462  0.2028
  504TMC3     C 7492   4.065   0.468  16.863 -0.3494 -0.1222 -0.0298
  504TMC3     O 7493   4.158   0.477  16.781  0.1671  0.4835 -0.9902
  504TMC3     H 7494   3.899   0.368  17.060 -0.6540 -0.5591  1.2256
  504TMC3    H1 7495   4.304   0.372  16.901  1.1272  0.7692  1.5009
  504TMC3    H2 7496   4.207   0.163  17.263 -1.1385 -0.6099  0.0261
  504TMC3    C7 7497   4.399   0.192  17.060 -0.2242  0.1261  0.2287
  504TMC3    C8 7498   3.970   0.254  17.279 -0.4677 -0.5293  1.0683
  504TMC3    O1 7499   4.487   0.245  16.987  0.3626  0.3790  0.0814
  504TMC3    O2 7500   3.912   0.356  17.304 -0.3914 -0.0338  0.2902
  505MPD2     C 7501   4.549   3.844  10.086  0.5016  0.0978 -0.0967
  505MPD2    C1 7502   4.546   3.717  10.141  0.0533 -0.5074  0.5434
  505MPD2    C2 7503   4.660   3.671  10.208  0.2623 -0.4252  0.0388
  505MPD2    C3 7504   0.046   3.760  10.223  0.6111  0.6360  0.9295
  505MPD2    C4 7505   0.046   3.885  10.168  0.1387 -0.1139  0.3673
  505MPD2    C5 7506   4.657   3.922  10.096 -0.0580  0.7019  0.6369
  505MPD2     H 7507   4.670   3.569  10.243  0.6803 -0.5431 -0.4291
  505MPD2    H1 7508   0.130   3.953  10.182 -1.4113  2.2634 -2.0222
  505MPD2    H2 7509   4.467   3.891  10.033  1.0714 -0.6021 -1.5928
  505MPD2    H3 7510   4.665   4.018  10.047  0.5748 -0.6080 -1.8579
  505MPD2     N 7511   0.162   3.726  10.303  0.1474  0.0551 -0.3984
  505MPD2    H5 7512   0.238   3.794  10.309 -1.2753  1.6353 -0.2244
  505MPD2    N1 7513   4.443   3.631  10.104 -0.5336 -0.2456 -0.4308
  505MPD2    H7 7514   4.377   3.669  10.036  0.4764  1.5349 -0.4211
  506TMC3    C1 7515   4.324   3.419  10.103 -0.0151  0.1065 -0.9255
  506TMC3    C2 7516   4.321   3.412   9.966 -0.3996 -0.7372 -0.5793
  506TMC3    C3 7517   4.295   3.285   9.922  0.1873 -0.5323 -0.0169
  506TMC3    C4 7518   4.277   3.317  10.188 -0.4134 -0.0755 -0.2600
  506TMC3    C5 7519   4.262   3.194  10.134  0.3231 -0.4081 -0.3184
  506TMC3    C6 7520   4.259   3.175   9.996  0.0517  0.1772  0.1057
  506TMC3     C 7521   4.423   3.512  10.164 -0.0940 -0.5016  0.3777
  506TMC3     O 7522   4.471   3.456  10.261  0.3595  0.2841  0.2431
  506TMC3     H 7523   4.339   3.504   9.912  0.4902 -0.5125  0.1019
  506TMC3    H1 7524   4.280   3.329  10.296  1.1484 -1.2923 -0.1669
  506TMC3    H2 7525   4.271   3.075   9.955  0.4432 -0.4575  1.7734
  506TMC3    C7 7526   4.349   3.094  10.204 -0.4508 -0.0566  0.2863
  506TMC3    C8 7527   4.288   3.270   9.778 -0.5475 -0.2198 -0.4343
  506TMC3    O1 7528   4.353   2.982  10.149  0.1478 -0.6512  0.3705
  506TMC3    O2 7529   4.204   3.204   9.718  0.4541 -0.3745  0.2971
  507TMC3    C1 7530   0.853   0.228  14.324 -0.4212 -0.3814  0.7220
  507TMC3    C2 7531   0.739   0.164  14.286 -0.7280  0.1407 -0.4600
  507TMC3    C3 7532   0.697   0.166  14.151  0.7057 -0.1202 -0.0159
  507TMC3    C4 7533   0.912   0.321  14.246 -0.0738  0.6996  0.2064
  507TMC3    C5 7534   0.856   0.341  14.122  0.6741  0.6946 -0.2593
  507TMC3    C6 7535   0.768   0.253  14.070  0.8653 -0.1155 -0.1050
  507TMC3     C 7536   0.923   0.164  14.428 -1.0603  0.1031 -0.3386
  507TMC3     O 7537   0.880   0.060  14.470 -0.4622 -0.3281  0.0957
  507TMC3     H 7538   0.689   0.098  14.356 -1.3149  0.7375 -0.3171
  507TMC3    H1 7539   0.992   0.385  14.282  0.2016  0.0765  0.6995
  507TMC3    H2 7540   0.746   0.262  13.964  2.0798 -0.5901 -0.4000
  507TMC3    C7 7541   0.834   0.483  14.085  0.4265  0.2170 -0.6584
  507TMC3    C8 7542   0.561   0.172  14.116 -0.0392  0.0875 -0.2209
  507TMC3    O1 7543   0.898   0.567  14.148 -0.0203  0.8043 -0.0047
  507TMC3    O2 7544   0.535   0.213  14.007  0.4867 -0.4711 -0.7113
  508MPD2     C 7545   1.045   2.681  15.873 -0.0141  0.6663  0.2718
  508MPD2    C1 7546   1.038   2.755  15.991  1.1947 -0.0332  0.6255
  508MPD2    C2 7547   0.986   2.881  15.985 -0.1768  0.0943 -0.7705
  508MPD2    C3 7548   0.973   2.947  15.865  0.4671  0.1977  0.4451
  508MPD2    C4 7549   0.990   2.873  15.747  0.3040  0.1299  0.1540
  508MPD2    C5 7550   1.019   2.740  15.757 -0.0924 -0.1623  0.1654
  508MPD2     H 7551   0.975   2.947  16.071  2.1400  2.6579 -2.4375
  508MPD2    H1 7552   0.958   2.919  15.653  1.3542 -0.7121 -0.6133
  508MPD2    H2 7553   1.055   2.575  15.893  0.4554  0.6932  0.1704
  508MPD2    H3 7554   0.995   2.679  15.670 -1.9132 -2.3249  2.2100
  508MPD2     N 7555   0.934   3.079  15.860  0.2148  0.3963 -0.3341
  508MPD2    H5 7556   0.917   3.131  15.946 -0.3221 -0.9603  0.3861
  508MPD2    N1 7557   1.080   2.692  16.113 -0.5381  0.3881 -0.1688
  508MPD2    H7 7558   1.133   2.605  16.118 -1.6605 -0.1657  2.0972
  509TMC3    C1 7559   0.882   3.525  15.739 -0.1859 -0.3774 -0.2257
  509TMC3    C2 7560   0.942   3.564  15.855 -0.2034 -0.3676 -0.4202
  509TMC3    C3 7561   1.003   3.467  15.937 -0.1629  0.2822 -0.2765
  509TMC3    C4 7562   0.874   3.392  15.699 -0.5032  0.3776 -0.4924
  509TMC3    C5 7563   0.916   3.298  15.793 -0.5142  0.2287  0.1459
  509TMC3    C6 7564   0.978   3.337  15.915  0.3525 -0.0557 -0.3774
  509TMC3     C 7565   0.811   3.622  15.668 -0.4149 -0.1609  0.8194
  509TMC3     O 7566   0.732   3.699  15.731 -0.3427 -0.2061 -0.0558
  509TMC3     H 7567   0.956   3.671  15.869  0.9337 -0.8991  2.5396
  509TMC3    H1 7568   0.840   3.366  15.599 -0.2036  2.0199 -1.0085
  509TMC3    H2 7569   1.025   3.264  15.980  0.6490 -0.6084 -1.2146
  509TMC3    C7 7570   0.913   3.159  15.751 -0.3094 -0.0646 -1.2698
  509TMC3    C8 7571   1.100   3.501  16.036 -0.4231  0.1885 -0.3073
  509TMC3    O1 7572   0.899   3.134  15.631  0.1180 -0.0146  0.3052
  509TMC3    O2 7573   1.127   3.418  16.119  0.2615 -0.3837  0.4302
  510MPD2     C 7574   3.971   4.370  14.137 -0.5240  0.3569  0.0391
  510MPD2    C1 7575   4.048   4.388  14.250 -0.8094  0.5741 -0.1020
  510MPD2    C2 7576   4.187   4.416  14.238  0.5404  0.3025  0.5958
  510MPD2    C3 7577   4.241   4.419  14.106 -0.5480  0.0152  0.0874
  510MPD2    C4 7578   4.160   4.408  13.994  0.3826 -0.0175 -0.6393
  510MPD2    C5 7579   4.022   4.388  14.015 -0.2656 -0.1270  0.4138
  510MPD2     H 7580   4.260   4.432  14.316  0.3787  2.3920  0.3302
  510MPD2    H1 7581   4.198   4.404  13.893 -0.8065 -2.1817 -0.9886
  510MPD2    H2 7582   3.864   4.355  14.137 -0.6468  1.2311  1.7613
  510MPD2    H3 7583   3.960   4.377  13.927 -1.9277 -1.4815  1.7402
  510MPD2     N 7584   4.380   4.434  14.093 -0.0948 -1.0065 -0.0544
  510MPD2    H5 7585   4.433   4.421  14.178  1.7186 -0.5031 -1.1203
  510MPD2    N1 7586   3.984   4.374  14.368 -0.4148  0.1923  0.4031
  510MPD2    H7 7587   3.882   4.370  14.374 -0.3100 -0.6752  1.7628
  511TMC3    C1 7588   3.951   4.318  14.602 -0.4825  0.6152  0.4471
  511TMC3    C2 7589   3.950   4.382  14.723 -0.2041  0.4331 -0.4787
  511TMC3    C3 7590   3.875   4.313  14.818  0.1395 -0.6552 -1.0368
  511TMC3    C4 7591   3.893   4.203  14.570  0.0972 -0.0989 -0.9735
  511TMC3    C5 7592   3.820   4.145  14.668 -0.3581  0.3247 -0.3055
  511TMC3    C6 7593   3.811   4.200  14.794 -0.2052 -0.8215 -0.3452
  511TMC3     C 7594   4.037   4.377  14.494  0.0789  0.1827  0.1244
  511TMC3     O 7595   4.148   4.423  14.524  0.0123  0.0490 -0.1171
  511TMC3     H 7596   3.990   4.482  14.729  0.0218  0.3185 -0.0606
  511TMC3    H1 7597   3.923   4.153  14.478 -1.7801  3.1795 -3.3540
  511TMC3    H2 7598   3.743   4.161  14.868 -1.9789 -0.7662 -1.9514
  511TMC3    C7 7599   3.761   4.014  14.647  0.1674  0.3976  0.5360
  511TMC3    C8 7600   3.801   4.392  14.920  0.2937  0.0152  0.3625
  511TMC3    O1 7601   3.744   3.987  14.528 -0.1893  0.7176  0.2520
  511TMC3    O2 7602   3.682   4.369  14.919  0.3573 -0.3928  0.1143
  512TMC3    C1 7603   2.618   3.962  12.799  0.8784 -0.3095  0.8496
  512TMC3    C2 7604   2.635   3.940  12.930 -0.1894 -0.8348 -0.4355
  512TMC3    C3 7605   2.602   3.819  12.979 -0.7483  0.0116  0.5097
  512TMC3    C4 7606   2.590   3.870  12.701  0.3126  0.2326 -0.5254
  512TMC3    C5 7607   2.552   3.755  12.756  0.1023 -0.0704  0.5238
  512TMC3    C6 7608   2.548   3.728  12.892 -0.1830  0.0239  1.1451
  512TMC3     C 7609   2.670   4.090  12.745  0.7532 -0.2912 -0.2482
  512TMC3     O 7610   2.771   4.136  12.789 -0.4116 -0.1038  0.5114
  512TMC3     H 7611   2.661   4.028  12.988 -0.3758 -0.4799 -0.8841
  512TMC3    H1 7612   2.570   3.901  12.598 -1.9125 -0.7542 -0.3847
  512TMC3    H2 7613   2.509   3.634  12.928  1.5156 -1.1451 -0.0951
  512TMC3    C7 7614   2.466   3.667  12.671 -0.7259  0.6006 -0.5991
  512TMC3    C8 7615   2.594   3.786  13.118  0.0879  0.4648 -0.8545
  512TMC3    O1 7616   2.420   3.715  12.566  0.0386 -0.1391  0.1852
  512TMC3    O2 7617   2.559   3.673  13.154 -0.1857  0.3401  0.3740
  513MPD2     C 7618   4.384   4.116  12.567  0.3211  0.3633  0.3355
  513MPD2    C1 7619   4.391   3.983  12.553  0.3878  0.6118 -0.2001
  513MPD2    C2 7620   4.362   3.896  12.654  0.0560  0.1525 -0.4810
  513MPD2    C3 7621   4.329   3.939  12.783  0.3094  0.0097 -0.6659
  513MPD2    C4 7622   4.305   4.077  12.790  0.9728 -0.1463  0.2582
  513MPD2    C5 7623   4.336   4.161  12.685  0.3388 -0.7302  0.3365
  513MPD2     H 7624   4.383   3.792  12.633  2.5474  0.4196  0.8184
  513MPD2    H1 7625   4.269   4.119  12.883  0.3144 -0.8242  0.3098
  513MPD2    H2 7626   4.388   4.171  12.473  0.9978  1.8911  1.2638
  513MPD2    H3 7627   4.314   4.265  12.704  2.9224 -0.2723  0.7444
  513MPD2     N 7628   4.290   3.835  12.875 -0.5372 -0.7418  0.0119
  513MPD2    H5 7629   4.296   3.739  12.843 -1.5444 -0.9104  0.3198
  513MPD2    N1 7630   4.433   3.926  12.429  0.0996 -0.4941 -0.4044
  513MPD2    H7 7631   4.427   3.825  12.429 -0.4401 -0.4626  4.3481
  514TMC3    C1 7632   4.523   3.894  12.215 -1.1872  0.0679  0.6144
  514TMC3    C2 7633   4.650   3.924  12.168 -0.0071  0.6195  0.4090
  514TMC3    C3 7634   0.006   3.812  12.146  0.2330  0.6852  0.5845
  514TMC3    C4 7635   4.481   3.770  12.235 -0.1822  0.2282 -0.5637
  514TMC3    C5 7636   4.558   3.662  12.218 -0.2237  0.1417  0.9299
  514TMC3    C6 7637   4.688   3.684  12.176  0.2459  0.4696  0.4226
  514TMC3     C 7638   4.480   3.992  12.313  1.0770 -0.3165 -0.4561
  514TMC3     O 7639   4.516   4.110  12.299 -0.1987 -0.4049  0.6170
  514TMC3     H 7640   4.693   4.023  12.154  1.2039  0.1583  0.8394
  514TMC3    H1 7641   4.375   3.749  12.250 -0.1326 -0.5577 -1.3511
  514TMC3    H2 7642   0.037   3.611  12.135 -0.3252  0.1356  0.0582
  514TMC3    C7 7643   4.538   3.570  12.335  0.1640  0.6902  0.0095
  514TMC3    C8 7644   0.091   3.816  12.031  0.2922 -0.2077 -0.2000
  514TMC3    O1 7645   4.421   3.582  12.385 -0.7571 -0.7699 -0.2575
  514TMC3    O2 7646   0.176   3.730  12.007  0.1761 -0.2506 -0.1902
  515MPD2     C 7647   3.068   1.017  14.364 -0.3613  0.2110  0.3343
  515MPD2    C1 7648   3.051   0.905  14.434 -0.2180  1.0732  0.0008
  515MPD2    C2 7649   3.127   0.889  14.548  0.1759  0.3457 -0.3709
  515MPD2    C3 7650   3.231   0.980  14.581 -0.0709  0.8938 -0.1836
  515MPD2    C4 7651   3.247   1.087  14.502  0.4416  0.4146  0.7872
  515MPD2    C5 7652   3.171   1.107  14.392  0.7877 -0.0493 -0.0931
  515MPD2     H 7653   3.127   0.786  14.583  0.2007  1.1934  2.0461
  515MPD2    H1 7654   3.337   1.146  14.514  0.8319 -0.1357  0.5644
  515MPD2    H2 7655   2.999   1.045  14.286  0.0255 -1.3300 -0.5623
  515MPD2    H3 7656   3.178   1.196  14.331  0.8886 -1.5748 -2.2822
  515MPD2     N 7657   3.327   0.953  14.686  0.4884 -0.0455 -0.5090
  515MPD2    H5 7658   3.403   1.018  14.700  0.2707 -0.0568  0.7141
  515MPD2    N1 7659   2.936   0.827  14.414  0.0048 -0.4218  0.0140
  515MPD2    H7 7660   2.871   0.863  14.345 -0.3306  2.9880  2.1120
  516TMC3    C1 7661   2.760   0.671  14.455 -0.5906  0.0001  0.3507
  516TMC3    C2 7662   2.694   0.675  14.336  0.1860  0.3843 -0.2023
  516TMC3    C3 7663   2.577   0.624  14.335  0.0832  0.7197 -0.2336
  516TMC3    C4 7664   2.707   0.613  14.565 -0.0827 -0.0496  0.3142
  516TMC3    C5 7665   2.585   0.556  14.552 -0.0617  0.1809 -0.0471
  516TMC3    C6 7666   2.514   0.550  14.433  0.0653  0.0695 -0.3845
  516TMC3     C 7667   2.907   0.701  14.462  0.4078 -0.0971 -0.1965
  516TMC3     O 7668   2.965   0.636  14.545 -0.8528  0.6667  0.1213
  516TMC3     H 7669   2.748   0.708  14.248  1.8489  0.8542  0.9684
  516TMC3    H1 7670   2.759   0.623  14.660 -0.1891  1.4788  0.2172
  516TMC3    H2 7671   2.416   0.506  14.420  0.5672 -1.9625  2.6400
  516TMC3    C7 7672   2.531   0.491  14.670  0.4834  0.1974 -0.9404
  516TMC3    C8 7673   2.500   0.639  14.211 -0.1504 -0.4238  0.3244
  516TMC3    O1 7674   2.605   0.484  14.766  0.8038 -0.4435  0.3417
  516TMC3    O2 7675   2.427   0.546  14.182 -0.0667 -0.2366 -0.1608
  517MPD2     C 7676   1.766   1.400   0.171  0.3996  0.0259  0.7139
  517MPD2    C1 7677   1.790   1.479   0.059 -0.1506  0.4382  0.3317
  517MPD2    C2 7678   1.740   1.609   0.051 -0.3779 -0.5179  0.0267
  517MPD2    C3 7679   1.673   1.663   0.161  0.0689 -0.2456 -0.8484
  517MPD2    C4 7680   1.648   1.586   0.266  0.4816 -0.0428 -0.6276
  517MPD2    C5 7681   1.688   1.456   0.269  0.1069 -0.2639 -0.1845
  517MPD2     H 7682   1.773   1.680  17.660 -1.2900 -0.1827 -0.0663
  517MPD2    H1 7683   1.594   1.619   0.355 -2.8299  1.4940 -3.2011
  517MPD2    H2 7684   1.816   1.304   0.176 -1.1388 -0.7480  1.4423
  517MPD2    H3 7685   1.660   1.398   0.356 -1.9193 -1.3394 -1.5714
  517MPD2     N 7686   1.633   1.798   0.170 -0.9116  0.3078  0.0150
  517MPD2    H5 7687   1.588   1.829   0.256 -2.3927  0.7067 -0.9146
  517MPD2    N1 7688   1.876   1.447  17.630  0.3737 -0.4883 -0.0275
  517MPD2    H7 7689   1.902   1.516  17.560  0.4693 -0.6906 -0.1910
  518TMC3    C1 7690   2.032   1.305  17.529 -0.2443  1.0616 -0.9635
  518TMC3    C2 7691   2.065   1.178  17.496  0.9458  0.2436 -0.3543
  518TMC3    C3 7692   2.182   1.156  17.424  0.2219  0.2936 -0.9680
  518TMC3    C4 7693   2.125   1.408  17.508 -0.9294  0.2501  0.9515
  518TMC3    C5 7694   2.245   1.379  17.443 -0.0659 -0.1360  0.0591
  518TMC3    C6 7695   2.277   1.247  17.404 -0.2470 -0.9402  0.0123
  518TMC3     C 7696   1.914   1.315  17.609 -0.0119 -0.1518 -0.0508
  518TMC3     O 7697   1.867   1.210  17.655  0.1372 -0.9184  0.7024
  518TMC3     H 7698   1.995   1.095  17.492 -0.4443  1.4125 -0.1219
  518TMC3    H1 7699   2.107   1.513  17.529  1.3363  0.4581  1.8774
  518TMC3    H2 7700   2.370   1.233  17.350  0.8569 -0.0990  1.6771
  518TMC3    C7 7701   2.330   1.495  17.396 -0.3091 -1.5753 -0.6232
  518TMC3    C8 7702   2.224   1.017  17.399  0.0073 -0.4847  0.6262
  518TMC3    O1 7703   2.287   1.611  17.392 -0.0064  1.0143  0.2674
  518TMC3    O2 7704   2.158   0.936  17.459 -0.4932  0.6881 -0.0927
  519MPD2     C 7705   4.235   0.648  14.590  0.5935  0.2998 -0.5834
  519MPD2    C1 7706   4.135   0.665  14.499  0.2945  0.0476  0.0175
  519MPD2    C2 7707   4.106   0.561  14.412 -0.0464  0.3599 -1.1132
  519MPD2    C3 7708   4.194   0.453  14.417 -0.0399 -0.4425  0.5145
  519MPD2    C4 7709   4.292   0.444  14.507 -0.1283  0.1303 -0.2990
  519MPD2    C5 7710   4.315   0.544  14.593  0.0921 -0.1682  0.4200
  519MPD2     H 7711   4.022   0.567  14.344 -1.6731  0.6145  0.9020
  519MPD2    H1 7712   4.362   0.361  14.509 -1.4520 -1.0078 -0.7566
  519MPD2    H2 7713   4.248   0.734  14.655 -1.9007  0.7082 -0.6026
  519MPD2    H3 7714   4.381   0.527  14.677  0.1462 -1.8235  0.0445
  519MPD2     N 7715   4.197   0.359  14.312  0.4535 -0.2397  0.5525
  519MPD2    H5 7716   4.278   0.297  14.310  1.1816  0.7741 -1.1907
  519MPD2    N1 7717   4.076   0.792  14.504  0.5951 -0.3419 -0.5220
  519MPD2    H7 7718   4.107   0.844  14.585 -2.5814  1.7388 -0.6347
  520TMC3    C1 7719   4.170   0.267  14.089  0.4528  0.2718 -0.0275
  520TMC3    C2 7720   4.117   0.295  13.967  0.7923  0.6864  0.5481
  520TMC3    C3 7721   4.172   0.220  13.863 -0.6231 -0.0388 -0.3027
  520TMC3    C4 7722   4.274   0.179  14.105  0.3432 -0.1022 -0.1260
  520TMC3    C5 7723   4.327   0.111  13.997  0.4293 -0.0657  0.2461
  520TMC3    C6 7724   4.278   0.132  13.870 -0.6642  0.7626  0.3373
  520TMC3     C 7725   4.112   0.341  14.200 -0.5318  0.6735 -0.0942
  520TMC3     O 7726   4.002   0.395  14.190  0.2601 -0.4714  0.4164
  520TMC3     H 7727   4.047   0.376  13.948 -1.8226 -2.2085 -2.2690
  520TMC3    H1 7728   4.311   0.157  14.204 -1.8878 -0.2812  0.6668
  520TMC3    H2 7729   4.315   0.079  13.784 -1.4439  0.5776  0.1146
  520TMC3    C7 7730   4.471   0.099  14.008  0.1150  0.0789 -0.1762
  520TMC3    C8 7731   4.110   0.222  13.734 -0.2854 -0.2864 -0.5804
  520TMC3    O1 7732   4.517   0.071  14.116  0.3750 -0.0272  0.2400
  520TMC3    O2 7733   4.174   0.191  13.636  0.1957 -0.6658 -0.1501
  521MPD2     C 7734   4.602   3.491  17.046  0.3395 -0.9578 -0.4621
  521MPD2    C1 7735   4.677   3.415  17.128 -0.4498 -0.1651  0.1199
  521MPD2    C2 7736   0.092   3.435  17.138  0.0709 -0.2758 -0.3474
  521MPD2    C3 7737   0.152   3.535  17.065 -0.1069 -0.5688 -0.3058
  521MPD2    C4 7738   0.075   3.620  16.992  0.1769 -1.0506 -0.8899
  521MPD2    C5 7739   4.665   3.597  16.977 -0.3070 -0.5818 -0.3819
  521MPD2     H 7740   0.152   3.361  17.188 -0.9107 -0.4858  0.5224
  521MPD2    H1 7741   0.120   3.708  16.948 -3.0725  1.4525  0.8124
  521MPD2    H2 7742   4.496   3.472  17.033 -0.1028 -0.0729  1.7940
  521MPD2    H3 7743   4.597   3.664  16.926 -0.5223  0.3315  1.1069
  521MPD2     N 7744   0.290   3.534  17.034  0.2239  0.2152  0.4963
  521MPD2    H5 7745   0.306   3.587  16.949  0.0766 -1.0919 -0.3468
  521MPD2    N1 7746   4.607   3.311  17.191 -0.1567 -0.1405  0.1099
  521MPD2    H7 7747   4.507   3.308  17.173 -0.0260 -3.1678 -0.0887
  522TMC3    C1 7748   0.488   3.418  16.999  1.2434 -0.5797  0.0295
  522TMC3    C2 7749   0.585   3.338  17.052  0.1531  0.9385 -0.8595
  522TMC3    C3 7750   0.694   3.313  16.967  0.1683 -0.0985 -0.3977
  522TMC3    C4 7751   0.485   3.470  16.869  0.4618 -0.2912 -0.1696
  522TMC3    C5 7752   0.596   3.446  16.791  0.7807  0.0377  0.0556
  522TMC3    C6 7753   0.701   3.372  16.845  0.1552 -0.1889 -0.0737
  522TMC3     C 7754   0.372   3.445  17.085 -0.0625 -0.0825 -0.4119
  522TMC3     O 7755   0.364   3.397  17.197  0.1346 -0.1109  0.0633
  522TMC3     H 7756   0.568   3.306  17.154 -0.3275  0.3901 -1.1152
  522TMC3    H1 7757   0.409   3.534  16.826  0.5035  0.1247  0.3827
  522TMC3    H2 7758   0.796   3.361  16.794  1.8748 -1.0639  3.2856
  522TMC3    C7 7759   0.583   3.458  16.645 -0.2750 -0.0129 -1.0454
  522TMC3    C8 7760   0.787   3.224  17.029 -0.4281 -0.6304  1.3325
  522TMC3    O1 7761   0.683   3.435  16.574  0.6578 -0.0682  0.3639
  522TMC3    O2 7762   0.789   3.213  17.153 -0.4211 -0.0817  0.1170
  523MPD2     C 7763   3.166   2.285  10.280  0.8806 -0.0367  0.4763
  523MPD2    C1 7764   3.101   2.223  10.173 -0.5040  0.0220  0.0569
  523MPD2    C2 7765   3.003   2.304  10.116  0.3498  0.6567 -0.1010
  523MPD2    C3 7766   2.982   2.438  10.140  1.1004  0.1589  0.0059
  523MPD2    C4 7767   3.047   2.484  10.253 -0.4811  0.6969  0.0584
  523MPD2    C5 7768   3.132   2.406  10.327 -1.1165  0.1509 -0.3386
  523MPD2     H 7769   2.954   2.268  10.026  0.1664  2.8602 -0.9019
  523MPD2    H1 7770   3.027   2.582  10.294 -0.8335  0.7678 -0.2778
  523MPD2    H2 7771   3.236   2.229  10.341  2.1532 -1.3401 -2.1752
  523MPD2    H3 7772   3.183   2.449  10.412 -1.4931 -0.4048  0.1691
  523MPD2     N 7773   2.875   2.512  10.085  0.1449  0.2390 -0.2498
  523MPD2    H5 7774   2.872   2.608  10.115  0.1193 -0.4902  2.1029
  523MPD2    N1 7775   3.140   2.093  10.131  0.5979  0.3482 -0.2162
  523MPD2    H7 7776   3.218   2.055  10.183 -0.1941 -1.0534 -0.0614
  524TMC3    C1 7777   2.694   2.579   9.946 -0.6317 -0.4547 -0.1895
  524TMC3    C2 7778   2.647   2.579   9.820  1.3213 -0.0827 -0.2239
  524TMC3    C3 7779   2.562   2.678   9.778 -0.8820 -0.5956  0.1788
  524TMC3    C4 7780   2.655   2.672  10.034  0.3913 -0.3505  0.0686
  524TMC3    C5 7781   2.574   2.773   9.987  0.4136 -0.6718 -0.1393
  524TMC3    C6 7782   2.518   2.777   9.863  0.4828 -0.3900 -0.1195
  524TMC3     C 7783   2.797   2.478   9.978 -0.7690  0.1703  0.6459
  524TMC3     O 7784   2.784   2.372   9.919  0.4649  0.0112  0.1165
  524TMC3     H 7785   2.708   2.520   9.753  1.9315 -1.4590  1.5183
  524TMC3    H1 7786   2.706   2.680  10.130  0.6897  0.4417 -0.1597
  524TMC3    H2 7787   2.451   2.854   9.829 -0.0253 -0.6570  0.2764
  524TMC3    C7 7788   2.571   2.892  10.068 -0.0817  0.4144 -0.3743
  524TMC3    C8 7789   2.537   2.694   9.642  0.1700  0.5056 -0.0223
  524TMC3    O1 7790   2.584   2.883  10.191  0.0994 -0.2465 -0.1021
  524TMC3    O2 7791   2.467   2.790   9.615  0.4895 -0.3957  0.0607
  525MPD2     C 7792   1.002   0.015  14.028  0.4980 -0.1894 -0.1535
  525MPD2    C1 7793   1.083   0.025  14.140 -0.4672  0.6327  0.1857
  525MPD2    C2 7794   1.179   0.127  14.146 -0.2233 -0.4057  0.0674
  525MPD2    C3 7795   1.183   0.220  14.045 -0.2148 -0.5955 -0.2506
  525MPD2    C4 7796   1.113   0.205  13.926  0.3704  0.4195  0.3962
  525MPD2    C5 7797   1.018   0.102  13.919  0.0986  0.0725 -0.0701
  525MPD2     H 7798   1.250   0.120  14.227  0.0892  2.9998  0.0874
  525MPD2    H1 7799   1.108   0.283  13.851 -0.7373  1.2888  1.3755
  525MPD2    H2 7800   0.914   4.671  14.023  2.1599 -2.2063 -3.3861
  525MPD2    H3 7801   0.955   0.096  13.831  0.2133  2.0510 -0.2883
  525MPD2     N 7802   1.263   0.331  14.045 -0.8767 -0.1535 -0.6004
  525MPD2    H5 7803   1.254   0.391  13.964 -0.9597 -0.0924 -0.5459
  525MPD2    N1 7804   1.080   4.653  14.249  0.0466 -0.2379  0.1216
  525MPD2    H7 7805   1.155   4.645  14.318  0.6961  2.2504 -0.3140
  526TMC3    C1 7806   0.994   4.463  14.379  0.1874  0.0874  0.6289
  526TMC3    C2 7807   0.899   4.453  14.484 -0.1752  0.1789 -0.6176
  526TMC3    C3 7808   0.939   4.373  14.590 -0.1415 -0.0428 -0.1800
  526TMC3    C4 7809   1.110   4.403  14.386  0.1679  0.0800  0.8602
  526TMC3    C5 7810   1.135   4.323  14.490 -1.1055 -0.0117 -0.1016
  526TMC3    C6 7811   1.056   4.319  14.597 -0.6018  0.1705 -0.2930
  526TMC3     C 7812   0.975   4.567  14.282  0.8629  0.4383 -0.8781
  526TMC3     O 7813   0.854   4.580  14.250  0.1366 -0.2935 -0.1816
  526TMC3     H 7814   0.822   4.529  14.484 -0.5331 -0.1783  0.6559
  526TMC3    H1 7815   1.177   4.422  14.304  0.2059 -1.8532  0.4275
  526TMC3    H2 7816   1.083   4.259  14.684 -1.6257  0.8029  0.4585
  526TMC3    C7 7817   1.272   4.275  14.518 -0.1664 -0.2930 -0.2048
  526TMC3    C8 7818   0.876   4.386  14.721 -0.3488 -0.1513 -0.7255
  526TMC3    O1 7819   1.292   4.223  14.627  0.0979 -0.6434  0.1282
  526TMC3    O2 7820   0.949   4.369  14.816  0.4857  0.0072 -0.0716
  527MPD2     C 7821   2.664   2.390   0.686  0.2468 -0.2637 -0.5230
  527MPD2    C1 7822   2.665   2.324   0.807 -0.2453 -0.1979  0.0313
  527MPD2    C2 7823   2.759   2.224   0.832 -0.7274 -0.4971  0.5145
  527MPD2    C3 7824   2.847   2.185   0.732 -0.0459  0.4854  0.0718
  527MPD2    C4 7825   2.834   2.232   0.601  0.2306  0.0066 -0.2708
  527MPD2    C5 7826   2.747   2.340   0.584 -0.3141  0.0979 -0.1986
  527MPD2     H 7827   2.776   2.186   0.932  0.0022 -0.8703  0.2449
  527MPD2    H1 7828   2.908   2.221   0.521 -1.2108  1.3557 -1.7766
  527MPD2    H2 7829   2.595   2.472   0.669 -1.1362 -0.8121  2.5037
  527MPD2    H3 7830   2.739   2.394   0.490 -0.0808  0.2647 -0.1226
  527MPD2     N 7831   2.942   2.086   0.771 -0.3920 -0.2639  0.0270
  527MPD2    H5 7832   2.937   2.054   0.868 -3.8844 -0.5250 -0.2082
  527MPD2    N1 7833   2.568   2.355   0.904 -0.4506  0.7423 -0.1981
  527MPD2    H7 7834   2.584   2.322   0.999  0.1125 -0.8455 -0.8368
  528TMC3    C1 7835   2.405   2.479   1.013  1.2939  0.4619  0.2224
  528TMC3    C2 7836   2.476   2.463   1.132  0.4058  0.4024 -0.0423
  528TMC3    C3 7837   2.400   2.485   1.247 -0.1768 -0.3545 -0.3595
  528TMC3    C4 7838   2.271   2.508   1.011 -0.1611  0.2998  0.5317
  528TMC3    C5 7839   2.204   2.521   1.135 -0.2960 -0.2018  1.0788
  528TMC3    C6 7840   2.263   2.494   1.255 -1.0092  0.0147  0.1994
  528TMC3     C 7841   2.459   2.434   0.886  0.1529 -0.7195 -1.3243
  528TMC3     O 7842   2.399   2.466   0.785 -0.4103  0.1968 -0.3651
  528TMC3     H 7843   2.582   2.446   1.142 -0.0373 -2.6787 -0.5925
  528TMC3    H1 7844   2.217   2.511   0.917  1.1821 -0.6353 -0.2700
  528TMC3    H2 7845   2.208   2.525   1.343 -4.0716 -2.1487 -0.9672
  528TMC3    C7 7846   2.058   2.504   1.137  0.5712 -0.3549  0.2531
  528TMC3    C8 7847   2.479   2.448   1.361 -0.4932 -0.3607  0.0239
  528TMC3    O1 7848   2.008   2.458   1.239  0.1189  0.2718  0.0248
  528TMC3    O2 7849   2.599   2.465   1.351 -0.5320  0.2807  0.1681
  529MPD2     C 7850   1.600   0.231   0.798  0.0753  0.0336 -0.7666
  529MPD2    C1 7851   1.460   0.236   0.771  0.3539 -0.0298  0.3774
  529MPD2    C2 7852   1.423   0.301   0.657 -0.4702 -0.8841  0.1029
  529MPD2    C3 7853   1.516   0.357   0.567 -0.9873  0.3934 -0.4227
  529MPD2    C4 7854   1.649   0.359   0.590  0.7152 -0.5294  0.2092
  529MPD2    C5 7855   1.684   0.297   0.709  0.3149  0.2609  0.9181
  529MPD2     H 7856   1.316   0.301   0.641 -0.1216 -1.9307 -2.2504
  529MPD2    H1 7857   1.718   0.422   0.535 -0.7257  0.7320 -0.1501
  529MPD2    H2 7858   1.641   0.186   0.888 -0.8172  0.0201 -0.3580
  529MPD2    H3 7859   1.789   0.299   0.735  0.4813  0.6675  0.2250
  529MPD2     N 7860   1.483   0.427   0.453  0.1680 -0.3467  0.3165
  529MPD2    H5 7861   1.552   0.487   0.410  1.0563 -2.6774 -1.4923
  529MPD2    N1 7862   1.355   0.190   0.853  0.0846  0.1197 -0.0435
  529MPD2    H7 7863   1.262   0.228   0.839 -0.0906 -0.4308 -0.3578
  530TMC3    C1 7864   1.247   0.070   1.021  0.4486 -0.1167  0.1641
  530TMC3    C2 7865   1.250   0.001   1.132  0.6224  0.3022 -0.1088
  530TMC3    C3 7866   1.144   4.670   1.196 -0.1057  0.7506  0.0642
  530TMC3    C4 7867   1.127   0.105   0.960 -0.2532 -0.2371 -0.1706
  530TMC3    C5 7868   1.012   0.063   1.035 -0.0325  0.3174  0.2004
  530TMC3    C6 7869   1.023   4.698   1.141 -0.2357  0.4977 -0.6033
  530TMC3     C 7870   1.373   0.100   0.949 -0.2149  0.0282 -0.4311
  530TMC3     O 7871   1.477   0.042   0.983  0.0345 -0.2576  0.3657
  530TMC3     H 7872   1.348   4.716   1.179  0.3130  0.2288  0.5399
  530TMC3    H1 7873   1.119   0.162   0.868  2.7905 -0.6236 -0.6753
  530TMC3    H2 7874   0.938   4.666   1.199 -0.1516 -0.7459 -1.1626
  530TMC3    C7 7875   0.884   0.122   0.999 -0.1242 -0.2237 -0.2056
  530TMC3    C8 7876   1.145   4.590   1.318  0.6203  0.6314  0.1426
  530TMC3    O1 7877   0.884   0.224   0.933  0.5090 -0.4964 -0.2017
  530TMC3    O2 7878   1.058   4.507   1.341  0.3264  0.5535 -0.1172
  531MPD2     C 7879   4.689   3.293  12.745 -0.9425  0.2251 -0.0034
  531MPD2    C1 7880   4.586   3.388  12.728 -0.3229  0.0940 -0.4237
  531MPD2    C2 7881   4.569   3.461  12.614 -0.0450  0.8715  0.0489
  531MPD2    C3 7882   4.658   3.436  12.511 -1.2286 -0.8087 -1.0311
  531MPD2    C4 7883   0.044   3.348  12.532 -0.1849 -0.0009 -0.3408
  531MPD2    C5 7884   0.058   3.279  12.650  0.3669 -0.6258  0.6807
  531MPD2     H 7885   4.490   3.535  12.609  0.6441  1.5667 -0.5100
  531MPD2    H1 7886   0.103   3.323  12.444 -1.5293  0.6324 -1.4155
  531MPD2    H2 7887   4.714   3.254  12.843  1.5493  1.3142 -0.2033
  531MPD2    H3 7888   0.136   3.207  12.673  0.6099 -1.0984 -1.6238
  531MPD2     N 7889   4.649   3.497  12.384  0.5296  0.1206  0.2112
  531MPD2    H5 7890   4.719   3.462  12.320  0.0543  1.2344 -0.9033
  531MPD2    N1 7891   4.502   3.407  12.841  0.2030  0.4665 -0.0477
  531MPD2    H7 7892   4.529   3.355  12.923 -0.3403 -0.0630 -0.2069
  532TMC3    C1 7893   4.347   3.526  12.977  0.5739  0.2345 -0.5861
  532TMC3    C2 7894   4.251   3.628  12.985 -0.2923 -0.7869 -0.0474
  532TMC3    C3 7895   4.272   3.732  13.072  0.5823 -0.3348 -0.7482
  532TMC3    C4 7896   4.446   3.532  13.072  0.2465  0.2108  0.4275
  532TMC3    C5 7897   4.445   3.629  13.164 -0.0920  0.1700 -0.3351
  532TMC3    C6 7898   4.365   3.735  13.166  0.2522  0.5630  0.2933
  532TMC3     C 7899   4.394   3.497  12.850  0.2224  0.3725  0.2592
  532TMC3     O 7900   4.327   3.544  12.759 -0.8681 -0.0019  0.4860
  532TMC3     H 7901   4.165   3.612  12.922  0.4653  1.2465 -1.5669
  532TMC3    H1 7902   4.508   3.443  13.079  0.3747  0.0706 -2.6093
  532TMC3    H2 7903   4.373   3.813  13.241  1.4512 -1.7117  2.5200
  532TMC3    C7 7904   4.537   3.625  13.278  0.0049 -0.9601 -0.4485
  532TMC3    C8 7905   4.262   3.861  13.001  0.1358 -0.4023  0.2337
  532TMC3    O1 7906   4.559   3.722  13.342 -0.1180  0.4219 -0.0843
  532TMC3    O2 7907   4.279   3.959  13.071  0.0876  0.2553  0.1360
  533TMC3    C1 7908   1.378   0.510  14.144  0.4706  0.0069 -0.1698
  533TMC3    C2 7909   1.497   0.564  14.173 -0.4381  0.2595  0.1198
  533TMC3    C3 7910   1.494   0.648  14.280 -0.3650 -0.3429 -0.5725
  533TMC3    C4 7911   1.264   0.544  14.214  0.5795 -0.5344 -0.0415
  533TMC3    C5 7912   1.267   0.620  14.328  0.3268  0.5371  0.3858
  533TMC3    C6 7913   1.384   0.672  14.358 -0.3623 -0.1606 -0.0005
  533TMC3     C 7914   1.371   0.365  14.133 -0.1292  0.8255 -0.1560
  533TMC3     O 7915   1.410   0.308  14.230  0.0516  0.4011  0.0264
  533TMC3     H 7916   1.586   0.518  14.131 -0.8960 -0.4836 -0.0384
  533TMC3    H1 7917   1.175   0.485  14.193  0.5819  0.4767 -2.8874
  533TMC3    H2 7918   1.395   0.739  14.443 -1.9444 -0.5157  0.4876
  533TMC3    C7 7919   1.169   0.596  14.430  0.2394  0.6131 -0.5627
  533TMC3    C8 7920   1.620   0.714  14.307  0.2470 -0.1124 -0.2409
  533TMC3    O1 7921   1.133   0.481  14.456  0.0358  0.5221  0.0476
  533TMC3    O2 7922   1.637   0.756  14.420 -0.0129 -0.6398  0.2015
  534MPD2     C 7923   1.851   1.525   1.358  0.5145  0.0474 -0.5517
  534MPD2    C1 7924   1.989   1.526   1.346 -0.0082 -0.5102  0.1219
  534MPD2    C2 7925   2.054   1.403   1.313 -0.3290  0.1430 -0.1199
  534MPD2    C3 7926   1.978   1.289   1.294  0.2637 -0.1171 -0.2158
  534MPD2    C4 7927   1.843   1.287   1.317  0.5808  0.5429 -0.0006
  534MPD2    C5 7928   1.787   1.406   1.349 -0.1283 -0.2212 -0.2025
  534MPD2     H 7929   2.161   1.407   1.298 -0.3334 -1.1022 -0.4827
  534MPD2    H1 7930   1.787   1.196   1.305 -1.0669  1.5712 -0.1761
  534MPD2    H2 7931   1.791   1.615   1.350  1.6380  0.6645 -2.2792
  534MPD2    H3 7932   1.680   1.418   1.357 -0.1622 -0.8534  0.3282
  534MPD2     N 7933   2.048   1.175   1.247 -0.4987  0.2667 -0.5682
  534MPD2    H5 7934   1.984   1.097   1.254 -0.3199  0.2855  1.0588
  534MPD2    N1 7935   2.069   1.650   1.343 -0.0909  0.2015  0.2400
  534MPD2    H7 7936   2.167   1.645   1.319 -0.3778 -3.1123 -0.2028
  535TMC3    C1 7937   2.216   1.044   1.120 -0.1934  0.3870  0.5175
  535TMC3    C2 7938   2.127   0.946   1.095  0.8081 -0.0865 -0.2654
  535TMC3    C3 7939   2.161   0.848   1.012 -0.4842  0.6016 -0.5782
  535TMC3    C4 7940   2.338   1.045   1.051  0.2031  0.6839  0.3285
  535TMC3    C5 7941   2.358   0.948   0.959  0.0899  0.5668 -0.0436
  535TMC3    C6 7942   2.271   0.847   0.934  0.4535  0.1848  0.3889
  535TMC3     C 7943   2.179   1.164   1.200 -0.1763  0.7087 -0.4833
  535TMC3     O 7944   2.267   1.251   1.206 -0.0943  0.1789 -1.0953
  535TMC3     H 7945   2.052   0.922   1.170  0.6470  0.3911 -0.2769
  535TMC3    H1 7946   2.403   1.128   1.072  3.3544 -1.4312 -1.1239
  535TMC3    H2 7947   2.300   0.771   0.863 -0.8282  1.1046 -1.1102
  535TMC3    C7 7948   2.464   0.964   0.857 -0.3651 -0.6859 -0.5755
  535TMC3    C8 7949   2.114   0.711   1.055 -0.8248 -0.2529 -0.6341
  535TMC3    O1 7950   2.495   0.860   0.798  0.2277  0.6603 -0.4967
  535TMC3    O2 7951   2.003   0.702   1.105 -0.0500  0.2520 -0.5620
  536MPD2     C 7952   2.344   4.219  16.580 -0.5638  0.4107 -1.2348
  536MPD2    C1 7953   2.230   4.273  16.636  0.4547  0.7900 -0.2395
  536MPD2    C2 7954   2.148   4.351  16.550  0.5191  0.3706  0.2183
  536MPD2    C3 7955   2.184   4.372  16.422  0.4905  0.3772  0.5247
  536MPD2    C4 7956   2.303   4.317  16.374 -0.2774 -0.8963  0.3001
  536MPD2    C5 7957   2.386   4.244  16.453  0.0976 -0.4519  0.0073
  536MPD2     H 7958   2.057   4.401  16.580  0.7567  0.9763 -0.0707
  536MPD2    H1 7959   2.334   4.349  16.275  0.2186 -0.2062  0.6783
  536MPD2    H2 7960   2.401   4.146  16.636  2.1148  3.3210 -0.1881
  536MPD2    H3 7961   2.483   4.214  16.416 -0.1724 -0.6996 -0.4923
  536MPD2     N 7962   2.107   4.432  16.316 -0.0072 -0.1100 -0.1437
  536MPD2    H5 7963   2.147   4.424  16.223 -0.3953 -1.6052 -0.1677
  536MPD2    N1 7964   2.196   4.236  16.768 -0.7134 -0.0429  0.5404
  536MPD2    H7 7965   2.259   4.171  16.814 -0.4961  1.1371  1.9235
  537TMC3    C1 7966   2.084   4.235  16.978  0.1139 -0.1588 -1.0154
  537TMC3    C2 7967   2.194   4.212  17.058  0.1198 -0.0050 -0.1404
  537TMC3    C3 7968   2.178   4.143  17.175  0.3821  0.6409  0.2140
  537TMC3    C4 7969   1.958   4.200  17.020  0.2882  0.6347 -0.5616
  537TMC3    C5 7970   1.948   4.131  17.137 -0.0218 -0.4536  0.1537
  537TMC3    C6 7971   2.058   4.101  17.221  0.1292  0.2014  0.8927
  537TMC3     C 7972   2.096   4.294  16.842 -0.0932 -0.0119  0.0303
  537TMC3     O 7973   2.003   4.369  16.807 -0.1089 -0.1249  0.1219
  537TMC3     H 7974   2.290   4.256  17.031  1.2938 -2.0347  0.7388
  537TMC3    H1 7975   1.870   4.209  16.957  0.1548 -2.7680 -0.8734
  537TMC3    H2 7976   2.042   4.048  17.313  0.0008 -3.4872 -1.2689
  537TMC3    C7 7977   1.822   4.065  17.163 -0.5752  0.4925  0.2684
  537TMC3    C8 7978   2.288   4.121  17.254  0.6888  0.5996 -0.0288
  537TMC3    O1 7979   1.718   4.120  17.120  0.4343  0.1649  0.2291
  537TMC3    O2 7980   2.280   4.024  17.328 -0.4452  0.0433 -0.5359
  538TMC3    C1 7981   3.915   2.367  10.837 -0.5308  0.5424 -0.1309
  538TMC3    C2 7982   4.031   2.362  10.768 -0.1259 -0.3758 -0.3160
  538TMC3    C3 7983   4.045   2.455  10.665 -0.1980 -0.3095 -0.1944
  538TMC3    C4 7984   3.821   2.464  10.804 -0.0492 -0.4454 -0.3812
  538TMC3    C5 7985   3.845   2.568  10.719  0.2124 -0.4339 -0.3727
  538TMC3    C6 7986   3.964   2.559  10.654  0.9616 -0.2679 -0.1711
  538TMC3     C 7987   3.894   2.286  10.960  0.0568  0.7566  0.1089
  538TMC3     O 7988   3.780   2.253  10.985  0.0118  0.1909  0.1168
  538TMC3     H 7989   4.092   2.276  10.791 -0.8055 -0.9914 -0.8261
  538TMC3    H1 7990   3.729   2.458  10.861 -0.0783 -0.4244 -0.4261
  538TMC3    H2 7991   3.996   2.647  10.598 -0.4816 -1.9731 -3.7107
  538TMC3    C7 7992   3.737   2.613  10.633 -0.1166 -0.1162  0.8607
  538TMC3    C8 7993   4.096   2.390  10.549  0.3036  0.1216  0.3853
  538TMC3    O1 7994   3.775   2.643  10.520  0.9429  0.1038  0.3650
  538TMC3    O2 7995   4.117   2.264  10.561 -0.2925  0.0230 -0.7323
  539MPD2     C 7996   3.422   1.982  11.745  0.3137  0.8625 -0.1824
  539MPD2    C1 7997   3.423   1.996  11.609  0.1401  0.9853  0.3128
  539MPD2    C2 7998   3.322   2.065  11.551 -0.0907  0.3144 -0.6759
  539MPD2    C3 7999   3.215   2.121  11.626  1.2022  0.3694 -0.0690
  539MPD2    C4 8000   3.214   2.103  11.763  0.0913 -0.0058  0.1771
  539MPD2    C5 8001   3.325   2.038  11.820 -0.3098 -0.0018 -0.8342
  539MPD2     H 8002   3.326   2.070  11.442 -2.0852  0.5738 -0.7347
  539MPD2    H1 8003   3.131   2.129  11.828  0.0733 -1.7431  0.8656
  539MPD2    H2 8004   3.501   1.935  11.803  0.0717 -0.0283 -0.5806
  539MPD2    H3 8005   3.324   2.014  11.925  0.4763 -2.2744 -1.3511
  539MPD2     N 8006   3.106   2.188  11.569 -0.6422 -0.3215  0.2276
  539MPD2    H5 8007   3.026   2.196  11.631 -0.4204 -0.2021  0.4978
  539MPD2    N1 8008   3.520   1.926  11.526 -0.1392 -0.5265 -0.3960
  539MPD2    H7 8009   3.515   1.952  11.427 -1.4535  0.8475  0.0267
  540TMC3    C1 8010   2.944   2.244  11.435  0.7125  0.4602 -0.0181
  540TMC3    C2 8011   2.885   2.235  11.309  0.1029  0.0928  0.2473
  540TMC3    C3 8012   2.758   2.292  11.302 -0.3117  0.3970 -0.3096
  540TMC3    C4 8013   2.879   2.308  11.540 -0.6895 -0.9905 -0.1467
  540TMC3    C5 8014   2.753   2.357  11.518 -0.1499  0.3443  0.3124
  540TMC3    C6 8015   2.692   2.353  11.400 -0.6758  0.5284  0.7989
  540TMC3     C 8016   3.086   2.225  11.443 -0.3401  0.0499 -0.2408
  540TMC3     O 8017   3.148   2.197  11.344 -0.3797  0.0057 -0.7018
  540TMC3     H 8018   2.931   2.182  11.226  0.7997 -0.8382  1.2452
  540TMC3    H1 8019   2.925   2.339  11.634  0.1872  1.8081 -1.5091
  540TMC3    H2 8020   2.605   2.416  11.387 -1.1468  0.0132  1.4399
  540TMC3    C7 8021   2.663   2.396  11.620  0.3934 -0.2577  0.6575
  540TMC3    C8 8022   2.692   2.288  11.173 -0.2612  0.4032 -0.0377
  540TMC3    O1 8023   2.569   2.470  11.596  0.1546 -0.9105 -0.6309
  540TMC3    O2 8024   2.565   2.300  11.182 -0.5354  0.6328  0.1556
  541MPD2     C 8025   0.512   4.101  13.099 -0.1172  0.3162 -0.1620
  541MPD2    C1 8026   0.625   4.027  13.066  0.4860  0.4345  0.8996
  541MPD2    C2 8027   0.725   4.090  12.992 -0.3328 -0.5333 -0.7244
  541MPD2    C3 8028   0.706   4.221  12.953 -0.5238 -0.7733 -0.6821
  541MPD2    C4 8029   0.588   4.289  12.983 -0.1525 -0.4317 -0.3689
  541MPD2    C5 8030   0.489   4.229  13.056 -0.0906  0.0701 -0.0106
  541MPD2     H 8031   0.809   4.031  12.957  0.7626 -0.7118  2.1726
  541MPD2    H1 8032   0.579   4.393  12.956  1.4769 -0.0787  0.4357
  541MPD2    H2 8033   0.426   4.058  13.149  0.8932 -0.2434  1.0797
  541MPD2    H3 8034   0.396   4.284  13.062 -0.5888 -0.4854 -2.3811
  541MPD2     N 8035   0.813   4.298  12.904 -0.0677 -0.5001  0.7107
  541MPD2    H5 8036   0.788   4.391  12.871 -0.3345 -1.4286 -1.7396
  541MPD2    N1 8037   0.634   3.890  13.103 -0.0006  0.5226  0.2034
  541MPD2    H7 8038   0.711   3.846  13.053  1.4632 -1.0111  3.8507
  542TMC3    C1 8039   1.025   4.351  12.830 -0.6716 -0.1257  0.0670
  542TMC3    C2 8040   1.092   4.312  12.723 -0.5460 -0.1039  0.5761
  542TMC3    C3 8041   1.139   4.409  12.640 -0.5570 -0.7758 -0.5128
  542TMC3    C4 8042   0.995   4.478  12.861  0.2946  0.5097  0.4408
  542TMC3    C5 8043   1.040   4.574  12.773  0.1036 -0.2773 -0.3296
  542TMC3    C6 8044   1.114   4.543  12.662  0.4908  0.5332 -1.0019
  542TMC3     C 8045   0.944   4.251  12.888  0.3928 -0.0906  0.0773
  542TMC3     O 8046   0.993   4.140  12.890  0.4462 -0.1261  0.3289
  542TMC3     H 8047   1.097   4.207  12.697 -0.6017 -0.0343  0.2803
  542TMC3    H1 8048   0.969   4.492  12.966 -1.3739  1.2952 -0.0777
  542TMC3    H2 8049   1.152   4.623  12.599  0.3653  0.6883 -0.8784
  542TMC3    C7 8050   1.003   4.708  12.799 -0.2647 -0.6799  0.6385
  542TMC3    C8 8051   1.169   4.366  12.505 -0.3848  0.0554  0.1853
  542TMC3    O1 8052   1.059   0.071  12.730 -0.2732 -0.1639 -0.2758
  542TMC3    O2 8053   1.153   4.249  12.473 -0.0903  0.4661  0.8556
  543TMC3    C1 8054   0.266   0.064  17.296 -0.8183 -0.4708 -0.2975
  543TMC3    C2 8055   0.280   4.662  17.344  0.3799 -0.1194  0.2587
  543TMC3    C3 8056   0.175   4.602  17.401  0.4582  0.1379 -1.0509
  543TMC3    C4 8057   0.155   0.137  17.320  0.0601 -0.6356 -0.8305
  543TMC3    C5 8058   0.063   0.076  17.400 -0.0062 -0.6231  0.4943
  543TMC3    C6 8059   0.065   4.665  17.422 -0.3685  0.4092 -0.1591
  543TMC3     C 8060   0.379   0.121  17.216 -0.3696  0.2529  0.4006
  543TMC3     O 8061   0.493   0.080  17.242 -0.2182  0.6802 -0.3523
  543TMC3     H 8062   0.372   4.605  17.331  0.1305 -1.2744  3.5389
  543TMC3    H1 8063   0.127   0.231  17.273  2.1348 -0.4137 -1.5942
  543TMC3    H2 8064   4.699   4.614  17.465 -1.3129  2.1348 -0.0230
  543TMC3    C7 8065   4.669   0.154  17.444 -0.1281  0.1919  0.1291
  543TMC3    C8 8066   0.197   4.467  17.448 -0.5989  0.2495  0.2790
  543TMC3    O1 8067   4.630   0.261  17.396  0.0654 -0.6859 -0.4959
  543TMC3    O2 8068   0.307   4.420  17.441 -0.4523  0.0145 -0.1859
  544MPD2     C 8069   0.046   3.987  17.535  0.5810  0.0074  0.4094
  544MPD2    C1 8070   0.165   4.056  17.561  0.6007  1.0757 -0.5819
  544MPD2    C2 8071   0.174   4.191  17.540  0.1496 -0.4157 -0.2625
  544MPD2    C3 8072   0.072   4.263  17.490 -0.0677  0.3682 -0.5700
  544MPD2    C4 8073   4.672   4.202  17.462  0.1006 -1.7948 -0.1413
  544MPD2    C5 8074   4.656   4.067  17.495  0.3428  0.1686  0.5938
  544MPD2     H 8075   0.264   4.247  17.563  1.0297 -1.8954 -0.1061
  544MPD2    H1 8076   4.586   4.261  17.433  0.2702 -1.4460  0.0634
  544MPD2    H2 8077   0.046   3.879  17.546 -1.5455 -0.1057 -0.6995
  544MPD2    H3 8078   4.554   4.030  17.486  0.3885 -0.0760  1.0895
  544MPD2     N 8079   0.083   4.394  17.453 -0.1625  0.1093  0.2370
  544MPD2    H5 8080   4.714   4.440  17.438  0.7147  2.3422  1.8793
  544MPD2    N1 8081   0.276   3.976  17.602  0.3497  0.2160 -0.7279
  544MPD2    H7 8082   0.257   3.878  17.618 -1.4263  0.6276 -0.2568
  545TMC3    C1 8083   0.479   3.886  17.608  0.4357 -0.5418  0.3181
  545TMC3    C2 8084   0.581   3.870  17.523  0.2704  0.0892 -0.5264
  545TMC3    C3 8085   0.644   3.752  17.508 -0.4130 -0.0854  0.0804
  545TMC3    C4 8086   0.439   3.784   0.004 -0.8650  0.2943  0.7974
  545TMC3    C5 8087   0.511   3.667  17.676 -0.8099 -0.0427  0.6703
  545TMC3    C6 8088   0.608   3.643  17.580  0.6436  0.2552  0.1439
  545TMC3     C 8089   0.404   4.007  17.589  0.4132 -0.1942  0.2198
  545TMC3     O 8090   0.456   4.107  17.536  0.1965 -0.1986  0.1987
  545TMC3     H 8091   0.609   3.956  17.463  1.2445 -0.1479 -0.4249
  545TMC3    H1 8092   0.371   3.801   0.087  1.0396  1.9201  2.0206
  545TMC3    H2 8093   0.650   3.546  17.554  0.3235  0.0070  0.5541
  545TMC3    C7 8094   0.475   3.565   0.085 -0.2042  0.0854 -1.0256
  545TMC3    C8 8095   0.739   3.738  17.393 -0.4301 -0.0914  0.1343
  545TMC3    O1 8096   0.377   3.583   0.158 -0.1298  0.2001 -0.0056
  545TMC3    O2 8097   0.759   3.839  17.327  0.5985  0.2583  0.5122
  546MPD2     C 8098   2.247   4.212  17.570 -0.9315 -0.3308  0.0490
  546MPD2    C1 8099   2.152   4.303  17.535  0.3535 -0.4630 -0.0148
  546MPD2    C2 8100   2.189   4.435  17.528 -0.1735 -0.6780 -0.2512
  546MPD2    C3 8101   2.310   4.470  17.578  0.3942 -0.1016  0.3635
  546MPD2    C4 8102   2.400   4.379  17.617 -0.0485  0.3390 -0.0010
  546MPD2    C5 8103   2.371   4.250  17.597  0.1422  0.4522  0.3283
  546MPD2     H 8104   2.127   4.513  17.485 -0.8150 -0.4901  1.0246
  546MPD2    H1 8105   2.500   4.403  17.651  0.0185  1.4490 -1.0124
  546MPD2    H2 8106   2.240   4.104  17.563  0.0609 -0.2914 -1.3941
  546MPD2    H3 8107   2.452   4.182  17.620 -0.3715 -0.0734  0.6024
  546MPD2     N 8108   2.360   4.599  17.559 -0.7732  0.8158 -0.0468
  546MPD2    H5 8109   2.441   4.611  17.619 -0.8039 -1.3983  0.4511
  546MPD2    N1 8110   2.023   4.251  17.507  0.6569 -0.1130  0.1362
  546MPD2    H7 8111   2.007   4.151  17.513 -0.2300  0.0676  0.7881
  547TMC3    C1 8112   1.788   4.260  17.443 -0.5081 -0.2500 -0.3662
  547TMC3    C2 8113   1.694   4.334  17.372 -0.2365  0.2545 -0.4562
  547TMC3    C3 8114   1.566   4.293  17.391 -0.4076 -0.3365  0.1471
  547TMC3    C4 8115   1.756   4.148  17.514 -0.0150  0.0264  0.1006
  547TMC3    C5 8116   1.627   4.125  17.541 -1.3799 -0.0233  0.1926
  547TMC3    C6 8117   1.529   4.203  17.481  0.5180 -0.2114  0.3500
  547TMC3     C 8118   1.920   4.330  17.457 -0.0616 -1.1833 -0.3960
  547TMC3     O 8119   1.920   4.449  17.431  0.5131 -0.4764  0.2595
  547TMC3     H 8120   1.720   4.427  17.322  1.3708 -0.6984 -1.3925
  547TMC3    H1 8121   1.836   4.100  17.569 -1.5246 -1.1372  1.2960
  547TMC3    H2 8122   1.428   4.167  17.494  0.4117 -0.3423 -0.8564
  547TMC3    C7 8123   1.594   4.022  17.629 -0.3632  0.2835 -0.5480
  547TMC3    C8 8124   1.470   4.372  17.312 -0.6139  0.1560  0.3939
  547TMC3    O1 8125   1.480   4.023  17.675  0.2228 -0.1445  1.1410
  547TMC3    O2 8126   1.513   4.467  17.249 -0.2539 -0.6526  0.0615
  548MPD2     C 8127   2.325   1.209  12.186 -0.7471  0.1943  0.3694
  548MPD2    C1 8128   2.276   1.083  12.215  0.8173 -0.3055  0.3502
  548MPD2    C2 8129   2.364   0.982  12.185 -0.3359  0.7137 -0.0822
  548MPD2    C3 8130   2.492   1.007  12.141 -0.8790 -0.0838 -0.2716
  548MPD2    C4 8131   2.540   1.132  12.126  0.2730  0.3465 -0.2021
  548MPD2    C5 8132   2.451   1.242  12.139 -0.3592 -0.4973 -0.7408
  548MPD2     H 8133   2.343   0.877  12.204 -0.5261  0.4336 -1.8670
  548MPD2    H1 8134   2.642   1.158  12.101  0.3934  0.7724  0.7418
  548MPD2    H2 8135   2.262   1.296  12.197 -1.1476 -0.0184 -0.2157
  548MPD2    H3 8136   2.488   1.344  12.135 -0.6231 -0.4356 -1.5590
  548MPD2     N 8137   2.572   0.891  12.136  0.2031 -0.5898 -0.6401
  548MPD2    H5 8138   2.533   0.807  12.176  0.0353  0.3580  1.2208
  548MPD2    N1 8139   2.147   1.066  12.277 -0.3635 -0.1012 -0.2356
  548MPD2    H7 8140   2.103   1.154  12.304 -0.4819 -0.5470  1.0709
  549TMC3    C1 8141   1.977   0.960  12.382  0.7666 -0.6426  0.4441
  549TMC3    C2 8142   1.926   1.088  12.396 -0.1083  0.1508  0.3339
  549TMC3    C3 8143   1.804   1.098  12.456 -0.4435  0.4601  0.2938
  549TMC3    C4 8144   1.912   0.852  12.414  0.3287 -0.1765 -0.2199
  549TMC3    C5 8145   1.789   0.870  12.470 -0.7433  0.5792 -0.0007
  549TMC3    C6 8146   1.740   0.989  12.506  0.2943 -0.0674 -0.1254
  549TMC3     C 8147   2.100   0.943  12.317 -0.0027  0.1747  0.3258
  549TMC3     O 8148   2.145   0.831  12.305  0.2357  0.4380  0.3162
  549TMC3     H 8149   1.962   1.178  12.347 -1.3314  0.5292  0.1265
  549TMC3    H1 8150   1.956   0.753  12.416  0.0879 -0.2555  0.8328
  549TMC3    H2 8151   1.644   1.001  12.554 -1.4373  0.2721 -3.6244
  549TMC3    C7 8152   1.692   0.770  12.438  0.6336 -0.3437  0.6392
  549TMC3    C8 8153   1.728   1.224  12.442  0.1594  0.0597  0.0725
  549TMC3    O1 8154   1.580   0.812  12.423  0.2592 -0.2127 -0.1189
  549TMC3    O2 8155   1.614   1.217  12.479 -0.2907 -0.0085 -0.2785
  550TMC3    C1 8156   0.393   3.312  11.906 -0.1331 -0.1044 -0.0572
  550TMC3    C2 8157   0.405   3.390  12.019 -0.1487 -0.4147  0.2480
  550TMC3    C3 8158   0.504   3.482  12.022  0.2251  0.5123 -0.1548
  550TMC3    C4 8159   0.468   3.330  11.790 -0.2116  0.6088 -0.2520
  550TMC3    C5 8160   0.566   3.420  11.796  0.1486 -0.4599  0.0895
  550TMC3    C6 8161   0.582   3.493  11.908 -0.3211 -0.7228 -0.0149
  550TMC3     C 8162   0.252   3.272  11.871  0.3018  0.5617 -0.1235
  550TMC3     O 8163   0.166   3.286  11.956  0.4797 -0.0118 -0.0320
  550TMC3     H 8164   0.336   3.380  12.101  0.7498 -1.2784  0.8939
  550TMC3    H1 8165   0.467   3.266  11.703  0.4862 -0.9638  0.8837
  550TMC3    H2 8166   0.642   3.582  11.897  0.5538 -0.9177  3.0863
  550TMC3    C7 8167   0.589   3.499  11.678 -0.0039  0.1135 -0.7388
  550TMC3    C8 8168   0.511   3.587  12.123 -0.6166  0.2722 -0.1646
  550TMC3    O1 8169   0.701   3.532  11.638 -0.1342  0.1253 -0.6198
  550TMC3    O2 8170   0.574   3.686  12.096 -0.0350 -0.1670 -0.7717
  551TMC3    C1 8171   3.129   1.288  13.351 -0.7485  0.5727 -1.2531
  551TMC3    C2 8172   3.249   1.328  13.292 -0.1542 -0.4718 -0.0931
  551TMC3    C3 8173   3.351   1.375  13.369 -0.3277 -0.3350 -0.0818
  551TMC3    C4 8174   3.116   1.298  13.492  0.3057 -0.0166 -0.7028
  551TMC3    C5 8175   3.217   1.361  13.558 -0.4171 -0.0476  0.4354
  551TMC3    C6 8176   3.336   1.401  13.503 -0.4094 -0.0689  0.8133
  551TMC3     C 8177   3.013   1.267  13.271 -0.3441  0.1373  0.4346
  551TMC3     O 8178   3.041   1.243  13.158 -0.0037 -0.1316  0.0616
  551TMC3     H 8179   3.272   1.295  13.191  0.5723 -0.1658 -0.0294
  551TMC3    H1 8180   3.040   1.241  13.543  0.4206 -0.3058 -0.8542
  551TMC3    H2 8181   3.410   1.444  13.570  2.0149 -1.3813 -1.0267
  551TMC3    C7 8182   3.219   1.354  13.706 -0.5225  0.2683 -0.5736
  551TMC3    C8 8183   3.450   1.451  13.285 -0.2953  0.3589 -0.2922
  551TMC3    O1 8184   3.321   1.382  13.766  0.4372 -0.1463 -0.2260
  551TMC3    O2 8185   3.435   1.464  13.168  0.4098 -0.0479  0.1754
  552MPD2     C 8186   0.229   3.820  13.631  0.9478 -0.2471  0.1026
  552MPD2    C1 8187   0.234   3.722  13.731 -0.2683 -0.0162 -0.3733
  552MPD2    C2 8188   0.356   3.694  13.792 -0.4074 -0.1727 -0.2061
  552MPD2    C3 8189   0.463   3.781  13.769  0.0525 -0.0866 -0.1318
  552MPD2    C4 8190   0.456   3.879  13.676 -0.1932 -0.8393 -0.5801
  552MPD2    C5 8191   0.342   3.898  13.604  0.3459  0.0932 -0.4536
  552MPD2     H 8192   0.357   3.622  13.872  1.7225 -1.1950 -1.1443
  552MPD2    H1 8193   0.541   3.941  13.650  0.2547 -0.7339  1.1595
  552MPD2    H2 8194   0.144   3.821  13.564  1.6320 -1.6326 -0.7852
  552MPD2    H3 8195   0.337   3.966  13.521  1.6147  0.7694  0.0270
  552MPD2     N 8196   0.592   3.756  13.821  0.5910 -0.3126 -0.1387
  552MPD2    H5 8197   0.667   3.822  13.801 -0.9034  0.4152 -3.4018
  552MPD2    N1 8198   0.124   3.646  13.760  0.4126 -0.0244 -0.6195
  552MPD2    H7 8199   0.132   3.573  13.831 -0.1581 -0.8780 -1.4237
  553TMC3    C1 8200   4.617   3.565  13.773  0.5282 -0.0832 -0.6547
  553TMC3    C2 8201   4.525   3.516  13.679  0.3905 -0.2557  0.6380
  553TMC3    C3 8202   4.449   3.403  13.721 -0.4511  0.3978 -0.1400
  553TMC3    C4 8203   4.634   3.515  13.897 -0.6709  0.8683  0.0059
  553TMC3    C5 8204   4.550   3.414  13.938 -0.1182 -0.4382 -0.3880
  553TMC3    C6 8205   4.458   3.357  13.846 -0.1848 -0.1325  0.0226
  553TMC3     C 8206   4.717   3.653  13.710  0.5666  0.3814 -0.2743
  553TMC3     O 8207   4.668   3.736  13.631  0.2996 -0.1289  0.1624
  553TMC3     H 8208   4.523   3.539  13.573  1.2015  1.9588  1.1024
  553TMC3    H1 8209   4.691   3.566  13.974 -1.0457  4.1830 -1.9565
  553TMC3    H2 8210   4.393   3.277  13.878  0.1167  0.3798  1.9115
  553TMC3    C7 8211   4.584   3.317  14.044  0.0883 -0.3936 -0.0862
  553TMC3    C8 8212   4.460   3.289  13.626  0.4298  0.2473  0.1925
  553TMC3    O1 8213   4.489   3.259  14.097  0.5595  0.2959  0.0753
  553TMC3    O2 8214   4.525   3.304  13.524  0.9596 -0.5058  0.0239
  554TMC3    C1 8215   1.989   2.604  11.614  0.5053  0.5784 -0.2839
  554TMC3    C2 8216   1.887   2.626  11.527 -0.1811 -0.5164  0.4960
  554TMC3    C3 8217   1.913   2.700  11.415  0.0950  0.1085  1.0276
  554TMC3    C4 8218   2.111   2.661  11.598  0.5606 -0.0515 -1.9200
  554TMC3    C5 8219   2.132   2.753  11.499 -0.2535  0.1925  0.5129
  554TMC3    C6 8220   2.032   2.774  11.403 -0.1850  0.3225  0.0549
  554TMC3     C 8221   1.974   2.493  11.701  0.0763  0.4173  0.1964
  554TMC3     O 8222   1.860   2.457  11.720  0.0728  0.0935 -0.0973
  554TMC3     H 8223   1.789   2.579  11.530 -1.3678  1.9599  0.8215
  554TMC3    H1 8224   2.198   2.640  11.659  0.8601 -3.3583 -3.4603
  554TMC3    H2 8225   2.042   2.838  11.316  0.1065 -0.1873 -0.2907
  554TMC3    C7 8226   2.263   2.747  11.443 -0.2215 -0.1061  0.5489
  554TMC3    C8 8227   1.875   2.640  11.289 -0.5021 -0.0445  0.3103
  554TMC3    O1 8228   2.267   2.749  11.323  0.1394  0.6258 -0.7943
  554TMC3    O2 8229   1.933   2.683  11.189 -0.3692 -0.7293  0.5662
  555TMC3    C1 8230   0.932   1.735  14.449  0.4682  0.1382  0.5190
  555TMC3    C2 8231   1.028   1.819  14.391 -0.0530 -0.3999  0.0418
  555TMC3    C3 8232   1.137   1.849  14.470  0.2177  0.2083  0.4472
  555TMC3    C4 8233   0.943   1.687  14.577  0.3659  0.1608  0.1115
  555TMC3    C5 8234   1.054   1.715  14.655 -0.0946 -0.6509 -0.8080
  555TMC3    C6 8235   1.151   1.799  14.599  0.2061 -0.5771  0.0495
  555TMC3     C 8236   0.816   1.693  14.374 -0.3095 -0.3269 -0.5288
  555TMC3     O 8237   0.768   1.580  14.385  0.4037 -0.2748  0.5480
  555TMC3     H 8238   1.020   1.845  14.287 -0.0921 -0.5406  0.0092
  555TMC3    H1 8239   0.851   1.646  14.617 -1.5443  2.7955 -1.5498
  555TMC3    H2 8240   1.236   1.830  14.658 -0.1836 -0.9321  0.7929
  555TMC3    C7 8241   1.043   1.701  14.803 -0.2544 -0.3682  0.1365
  555TMC3    C8 8242   1.256   1.898  14.401  0.4623  0.2240 -0.0462
  555TMC3    O1 8243   0.935   1.677  14.851 -0.0299  0.0491  0.0905
  555TMC3    O2 8244   1.239   1.982  14.311  0.0741  0.1721 -0.7894
  556MPD2     C 8245   3.989   3.588   9.972 -0.1419 -0.0780 -0.2515
  556MPD2    C1 8246   3.975   3.505  10.082  0.7542  0.2514  0.6629
  556MPD2    C2 8247   3.953   3.366  10.075 -0.2024  0.1448  0.2934
  556MPD2    C3 8248   3.917   3.318   9.953  0.1404 -0.2053 -0.5605
  556MPD2    C4 8249   3.921   3.402   9.837  0.5693  0.0706  0.4030
  556MPD2    C5 8250   3.957   3.533   9.845  0.5356 -0.2453 -0.1120
  556MPD2     H 8251   3.951   3.301  10.162  2.3251 -1.0228 -0.5404
  556MPD2    H1 8252   3.899   3.363   9.738  3.3394  0.3312 -0.3263
  556MPD2    H2 8253   4.011   3.694   9.972  1.5334 -0.4302 -0.9700
  556MPD2    H3 8254   3.951   3.589   9.752  0.6057  0.6633  0.4233
  556MPD2     N 8255   3.894   3.183   9.935 -0.1057 -0.1353  0.5638
  556MPD2    H5 8256   3.927   3.124  10.011 -0.9096 -0.2528  0.8242
  556MPD2    N1 8257   4.017   3.549  10.212  0.3010 -0.0817  0.0776
  556MPD2    H7 8258   4.019   3.488  10.293  1.0870 -0.4721 -0.2311
  557TMC3    C1 8259   3.848   2.982   9.827  0.1192 -0.2798  0.3640
  557TMC3    C2 8260   3.763   2.913   9.742 -0.4072  0.1324 -0.0212
  557TMC3    C3 8261   3.785   2.778   9.732 -0.3793  0.6792 -0.2387
  557TMC3    C4 8262   3.957   2.928   9.888 -0.4362  0.5761 -0.1810
  557TMC3    C5 8263   3.975   2.792   9.877  0.1049 -0.1554 -0.6454
  557TMC3    C6 8264   3.891   2.712   9.799 -0.5409  0.3053  0.2082
  557TMC3     C 8265   3.851   3.123   9.815  0.1661  0.2111 -0.1729
  557TMC3     O 8266   3.781   3.174   9.729  0.6104  0.3183 -0.3477
  557TMC3     H 8267   3.681   2.962   9.692 -1.3226 -0.7014  0.6571
  557TMC3    H1 8268   4.029   2.984   9.946 -0.3484  0.2389  0.0361
  557TMC3    H2 8269   3.903   2.605   9.794  3.0219  0.7540 -1.0113
  557TMC3    C7 8270   4.026   2.726   9.987  0.7584  0.5625 -0.3789
  557TMC3    C8 8271   3.674   2.702   9.674  0.3272  0.0513 -0.2926
  557TMC3    O1 8272   4.060   2.796  10.083 -0.6203 -0.1227 -0.4813
  557TMC3    O2 8273   3.561   2.745   9.669 -1.1294  0.0820  0.5321
  558TMC3    C1 8274   2.751   0.855   9.186 -0.6779 -0.2149  0.5375
  558TMC3    C2 8275   2.685   0.972   9.185  0.3422 -0.0332  0.0833
  558TMC3    C3 8276   2.559   0.976   9.137  0.3294 -0.4512 -0.5276
  558TMC3    C4 8277   2.694   0.741   9.132 -0.2313 -0.4909 -0.3365
  558TMC3    C5 8278   2.570   0.756   9.072  0.1532  0.4431  0.1088
  558TMC3    C6 8279   2.495   0.864   9.097 -0.8212  0.7690  0.4106
  558TMC3     C 8280   2.863   0.853   9.280 -0.1813  0.1122  0.4626
  558TMC3     O 8281   2.893   0.960   9.337  0.1532 -0.2291 -0.1286
  558TMC3     H 8282   2.739   1.065   9.202 -1.1577  1.0502 -1.2087
  558TMC3    H1 8283   2.746   0.647   9.129  1.1985  0.4136 -3.4203
  558TMC3    H2 8284   2.400   0.872   9.045 -0.5754  0.8886 -0.0157
  558TMC3    C7 8285   2.505   0.645   8.997  0.2178  0.4215 -0.1734
  558TMC3    C8 8286   2.476   1.086   9.186  0.6111  0.3209 -0.1587
  558TMC3    O1 8287   2.389   0.657   8.965 -0.0298 -0.2698 -0.1766
  558TMC3    O2 8288   2.385   1.140   9.117  0.9773 -0.0344 -0.8639
  559MPD2     C 8289   1.767   2.094  11.096 -0.1483  0.6982  0.5025
  559MPD2    C1 8290   1.791   1.993  11.004 -0.4936  0.1728  0.9372
  559MPD2    C2 8291   1.916   1.935  10.990 -0.1457  0.1900 -0.3680
  559MPD2    C3 8292   2.020   1.980  11.079  0.4688 -0.3898 -0.3070
  559MPD2    C4 8293   1.997   2.083  11.169  0.0300 -0.2204 -0.4506
  559MPD2    C5 8294   1.876   2.141  11.172  0.1994  0.1499  0.8141
  559MPD2     H 8295   1.933   1.862  10.912  0.7899  3.0551 -2.8361
  559MPD2    H1 8296   2.070   2.113  11.242  1.4156 -0.6181 -1.6633
  559MPD2    H2 8297   1.672   2.146  11.103  0.0705  1.2662 -0.6189
  559MPD2    H3 8298   1.861   2.214  11.251 -2.6201 -1.7799  2.0394
  559MPD2     N 8299   2.150   1.921  11.061  0.1064 -0.0172  0.6330
  559MPD2    H5 8300   2.149   1.845  10.993 -2.5353 -0.5199  1.2321
  559MPD2    N1 8301   1.679   1.956  10.925  0.5333  0.2442  0.1135
  559MPD2    H7 8302   1.590   1.999  10.945  0.7830  1.1902 -0.7831
  560TMC3    C1 8303   2.391   1.904  11.084  0.4093 -0.1545  0.3598
  560TMC3    C2 8304   2.397   1.855  10.957 -0.0430  0.3142 -0.0602
  560TMC3    C3 8305   2.522   1.847  10.900  0.1685  0.6249  0.5209
  560TMC3    C4 8306   2.503   1.935  11.153  0.0544 -0.0528  0.2161
  560TMC3    C5 8307   2.627   1.923  11.092  0.0202 -0.0842 -0.2643
  560TMC3    C6 8308   2.637   1.875  10.964 -0.0591  0.3995  0.1061
  560TMC3     C 8309   2.263   1.941  11.141 -0.2777  0.1768 -0.0593
  560TMC3     O 8310   2.271   1.995  11.248 -0.0978 -0.5962  0.6241
  560TMC3     H 8311   2.310   1.854  10.893 -0.9192 -0.9900  1.1407
  560TMC3    H1 8312   2.498   1.976  11.254 -0.0343  1.0505 -0.2357
  560TMC3    H2 8313   2.727   1.849  10.911 -0.8833 -0.6779 -0.7742
  560TMC3    C7 8314   2.740   1.924  11.184  0.2895 -0.0645  0.6902
  560TMC3    C8 8315   2.530   1.818  10.757 -0.5563  0.1057  0.3016
  560TMC3    O1 8316   2.717   1.931  11.304 -0.2048 -0.7015 -0.1035
  560TMC3    O2 8317   2.627   1.752  10.721 -0.0523  0.7512  0.3884
  561TMC3    C1 8318   4.636   0.559  11.388 -0.2053 -0.1572 -0.6820
  561TMC3    C2 8319   4.564   0.507  11.497  0.3135 -0.6623 -0.0189
  561TMC3    C3 8320   4.500   0.589  11.580 -0.5932 -0.1898 -0.0158
  561TMC3    C4 8321   4.630   0.699  11.360 -0.0618  0.2168  0.1247
  561TMC3    C5 8322   4.551   0.776  11.450 -0.9065  0.2801  0.6015
  561TMC3    C6 8323   4.496   0.721  11.563 -0.2528 -0.2647 -0.3355
  561TMC3     C 8324   4.697   0.458  11.298 -0.4484 -0.0489  1.0987
  561TMC3     O 8325   4.662   0.345  11.315  0.0534 -0.6091 -0.6250
  561TMC3     H 8326   4.566   0.401  11.521  0.9119 -0.4447  0.8825
  561TMC3    H1 8327   4.662   0.747  11.268 -0.2344  0.9485  0.4410
  561TMC3    H2 8328   4.462   0.781  11.647  0.3792 -1.3864  0.7246
  561TMC3    C7 8329   4.576   0.919  11.466 -0.5013 -0.0549 -0.1452
  561TMC3    C8 8330   4.435   0.540  11.710 -0.3812  0.9666  0.2433
  561TMC3    O1 8331   4.492   0.985  11.526 -0.1430 -0.0751  0.3221
  561TMC3    O2 8332   4.490   0.443  11.756 -0.2681  0.0342  0.4583
  562TMC3    C1 8333   0.827   2.535  15.324  0.1683 -0.1950 -0.0918
  562TMC3    C2 8334   0.698   2.575  15.317 -0.8389 -0.0017 -0.0133
  562TMC3    C3 8335   0.626   2.567  15.433 -0.2321  0.2243 -0.3354
  562TMC3    C4 8336   0.889   2.489  15.438  0.3369 -0.0880 -0.1650
  562TMC3    C5 8337   0.816   2.480  15.553 -0.3092 -0.6656  0.5300
  562TMC3    C6 8338   0.687   2.522  15.551  0.2159 -0.4508 -0.1215
  562TMC3     C 8339   0.898   2.544  15.194 -0.9666 -0.4265  0.5811
  562TMC3     O 8340   0.859   2.635  15.119 -0.1318 -0.3323  0.0294
  562TMC3     H 8341   0.658   2.603  15.220  1.9486  0.1914 -1.1120
  562TMC3    H1 8342   0.997   2.482  15.441  0.4513  1.3537 -0.5259
  562TMC3    H2 8343   0.625   2.516  15.639  0.1155  0.2123 -0.1435
  562TMC3    C7 8344   0.865   2.409  15.675 -0.2269 -0.1851 -0.3054
  562TMC3    C8 8345   0.498   2.638  15.454  0.1173 -0.4872 -0.2931
  562TMC3    O1 8346   0.797   2.411  15.779 -0.6999  0.3080 -0.1834
  562TMC3    O2 8347   0.439   2.615  15.558 -0.1532  0.2004 -0.4883
  563MPD2     C 8348   2.977   3.549  15.367 -0.9641 -0.0565  0.0196
  563MPD2    C1 8349   2.982   3.586  15.501 -0.2096 -0.6393 -0.1467
  563MPD2    C2 8350   3.089   3.671  15.541  0.1699 -1.0416 -0.1071
  563MPD2    C3 8351   3.198   3.707  15.465 -0.2502  0.6679 -0.6491
  563MPD2    C4 8352   3.179   3.678  15.329  0.3692 -0.4873 -0.9654
  563MPD2    C5 8353   3.071   3.606  15.280  0.3344 -0.5660 -0.7185
  563MPD2     H 8354   3.098   3.704  15.644 -0.3481  1.1443 -0.7724
  563MPD2    H1 8355   3.255   3.713  15.260  1.2255  1.5091  0.9961
  563MPD2    H2 8356   2.901   3.483  15.326 -0.1858 -0.0871 -1.4121
  563MPD2    H3 8357   3.059   3.586  15.174 -0.4975  0.2467 -0.7808
  563MPD2     N 8358   3.304   3.768  15.525  0.6116 -0.3914 -0.7226
  563MPD2    H5 8359   3.310   3.767  15.626 -0.6505  2.4852 -0.6387
  563MPD2    N1 8360   2.884   3.548  15.591  0.2937  0.3905 -0.6321
  563MPD2    H7 8361   2.812   3.487  15.555  0.5958  0.6976 -1.7346
  564TMC3    C1 8362   2.773   3.530  15.798  0.0737 -0.4915  0.2009
  564TMC3    C2 8363   2.678   3.456  15.738  0.4124  0.5389  0.2060
  564TMC3    C3 8364   2.609   3.366  15.813  0.5224  0.2784  0.3739
  564TMC3    C4 8365   2.796   3.526  15.934 -0.0170  0.1335  0.7334
  564TMC3    C5 8366   2.736   3.428  15.999 -0.2912 -0.4506  0.2369
  564TMC3    C6 8367   2.636   3.351  15.944 -0.5160  0.3213 -0.9699
  564TMC3     C 8368   2.878   3.578  15.729 -1.0513  0.2027  1.0123
  564TMC3     O 8369   2.941   3.657  15.794  0.4016 -0.4708  0.5910
  564TMC3     H 8370   2.648   3.476  15.636 -1.4173 -0.5252  0.5273
  564TMC3    H1 8371   2.864   3.595  15.983  2.5283 -1.3166 -0.7401
  564TMC3    H2 8372   2.587   3.277  16.006  2.4054  0.2601  1.2664
  564TMC3    C7 8373   2.827   3.373  16.097 -0.0199  1.1621  0.1832
  564TMC3    C8 8374   2.515   3.278  15.752 -0.0857  0.2717 -0.2672
  564TMC3    O1 8375   2.930   3.437  16.120  0.2154 -0.7113 -0.3967
  564TMC3    O2 8376   2.431   3.227  15.828  0.3856  0.1038 -0.6330
  565TMC3    C1 8377   4.035   0.042  10.068 -0.3683 -0.1198  0.5759
  565TMC3    C2 8378   4.048   4.696  10.182 -0.5742 -0.3540  0.2028
  565TMC3    C3 8379   3.929   4.646  10.236  0.4944 -0.1416 -0.2576
  565TMC3    C4 8380   3.919   0.076  10.009 -0.6305  0.0136  0.2513
  565TMC3    C5 8381   3.801   0.030  10.065  0.1332 -0.1142 -0.0476
  565TMC3    C6 8382   3.807   4.661  10.173  0.4289 -0.7623  0.1285
  565TMC3     C 8383   4.158   0.089  10.012 -0.5474 -0.0579  0.1224
  565TMC3     O 8384   4.172   0.194   9.952  0.2847  0.2965 -0.5272
  565TMC3     H 8385   4.143   4.687  10.233 -0.6673  2.3527  0.8421
  565TMC3    H1 8386   3.914   0.125   9.913 -3.2256 -0.4741  0.1371
  565TMC3    H2 8387   3.722   4.651  10.239 -0.0859 -0.6591 -0.5160
  565TMC3    C7 8388   3.666   0.037  10.009  0.8774 -0.4669 -0.1553
  565TMC3    C8 8389   3.928   4.599  10.376  0.1290  0.1491 -0.2190
  565TMC3    O1 8390   3.582   4.670  10.043  0.7502  0.1863 -0.3515
  565TMC3    O2 8391   3.836   4.635  10.448  0.2789  0.3309 -0.1400
  566MPD2     C 8392   0.366   1.316  14.223 -0.3720 -0.5327  0.1389
  566MPD2    C1 8393   0.447   1.313  14.113  0.4566  0.6640  0.3567
  566MPD2    C2 8394   0.393   1.357  13.993 -0.3030 -0.3319  0.0840
  566MPD2    C3 8395   0.272   1.416  13.988 -1.0958 -0.6877  0.3610
  566MPD2    C4 8396   0.187   1.406  14.096  0.2680 -0.2689 -0.5764
  566MPD2    C5 8397   0.239   1.366  14.212 -0.5623  0.2382  0.2508
  566MPD2     H 8398   0.447   1.367  13.900  1.7749  1.5813  1.5050
  566MPD2    H1 8399   0.088   1.448  14.102  0.5009  0.0763  0.7251
  566MPD2    H2 8400   0.390   1.278  14.322  0.6828 -0.1051  0.0421
  566MPD2    H3 8401   0.170   1.355  14.294 -0.6950 -0.6872  0.0258
  566MPD2     N 8402   0.241   1.482  13.868 -0.4327 -0.6796  0.3148
  566MPD2    H5 8403   0.312   1.495  13.796 -1.8800 -1.9016 -1.3243
  566MPD2    N1 8404   0.583   1.277  14.123 -0.1887 -0.2129  0.4150
  566MPD2    H7 8405   0.611   1.250  14.217 -0.0502  1.1025  0.7468
  567TMC3    C1 8406   0.795   1.347  14.088 -0.1264  0.1774 -0.6555
  567TMC3    C2 8407   0.845   1.470  14.047  0.2021 -0.5240  0.1864
  567TMC3    C3 8408   0.973   1.506  14.086  0.3244  0.5126  0.0599
  567TMC3    C4 8409   0.859   1.267  14.174 -0.3619  0.3236 -0.0382
  567TMC3    C5 8410   0.975   1.315  14.223 -0.7197 -0.3804  0.5945
  567TMC3    C6 8411   1.033   1.432  14.182  0.9234  0.8461  0.1922
  567TMC3     C 8412   0.672   1.312  14.028  0.1283  0.6274 -0.6317
  567TMC3     O 8413   0.660   1.348  13.914 -0.1217 -0.5279 -0.3044
  567TMC3     H 8414   0.797   1.524  13.967 -0.4576 -1.5685 -0.1204
  567TMC3    H1 8415   0.819   1.178  14.221  2.3145 -0.9843 -0.2203
  567TMC3    H2 8416   1.128   1.455  14.230  0.4591 -0.9126  1.9945
  567TMC3    C7 8417   1.025   1.273  14.355 -0.7515 -0.5273  0.2736
  567TMC3    C8 8418   1.017   1.637  14.039  0.9833 -0.2679  0.0639
  567TMC3    O1 8419   1.145   1.276  14.371 -0.1692  0.6017  0.2828
  567TMC3    O2 8420   0.937   1.706  13.973 -0.0427 -0.1055  0.1163
  568MPD2     C 8421   2.249   2.001  16.291  0.2078 -0.2078  0.1452
  568MPD2    C1 8422   2.378   2.035  16.300 -0.1354  0.2046 -0.4786
  568MPD2    C2 8423   2.425   2.129  16.212  0.3173  0.3281 -0.0783
  568MPD2    C3 8424   2.335   2.195  16.134 -0.2722  0.3485 -0.0385
  568MPD2    C4 8425   2.205   2.155  16.127  0.1218 -0.1608  0.6049
  568MPD2    C5 8426   2.155   2.060  16.213 -0.6400 -0.4269  0.1267
  568MPD2     H 8427   2.526   2.167  16.206 -0.2849  1.7328 -1.4086
  568MPD2    H1 8428   2.134   2.200  16.060 -0.0315 -0.0841  0.8203
  568MPD2    H2 8429   2.216   1.923  16.358 -0.4675 -0.7697 -0.8415
  568MPD2    H3 8430   2.055   2.021  16.207 -0.4178 -1.1379  1.1217
  568MPD2     N 8431   2.390   2.284  16.040 -0.4459  0.2105 -0.4982
  568MPD2    H5 8432   2.491   2.291  16.035 -0.5029  0.5072 -1.2792
  568MPD2    N1 8433   2.455   1.974  16.399  0.1198 -0.3685  0.6571
  568MPD2    H7 8434   2.404   1.910  16.459 -0.0055 -2.6799 -1.9033
  569TMC3    C1 8435   2.407   2.453  15.883 -0.0952  1.1377 -0.4945
  569TMC3    C2 8436   2.497   2.513  15.970 -0.2959 -0.2152  0.7134
  569TMC3    C3 8437   2.557   2.623  15.906  0.0011  0.8695  0.6064
  569TMC3    C4 8438   2.376   2.492  15.754 -0.1721 -0.4987  0.7608
  569TMC3    C5 8439   2.457   2.584  15.692 -0.2750  0.6760  0.2341
  569TMC3    C6 8440   2.555   2.644  15.766  0.9412  0.2206  0.2049
  569TMC3     C 8441   2.327   2.347  15.936 -0.1950 -0.5126  0.1474
  569TMC3     O 8442   2.210   2.350  15.905  0.4880  0.1211  0.4659
  569TMC3     H 8443   2.478   2.510  16.076 -1.6102 -1.5189  0.4382
  569TMC3    H1 8444   2.293   2.446  15.704 -1.6849  2.3970  0.5964
  569TMC3    H2 8445   2.614   2.722  15.720  4.1144 -1.4908  1.3622
  569TMC3    C7 8446   2.397   2.667  15.587 -0.0776  0.7996 -0.6207
  569TMC3    C8 8447   2.535   2.745  15.982  0.4107 -0.7938 -0.0560
  569TMC3    O1 8448   2.387   2.614  15.475 -0.2125 -0.1847 -0.6169
  569TMC3    O2 8449   2.491   2.831  15.909  0.4012  0.1742  0.1561
  570TMC3    C1 8450   2.327   1.202  16.302  0.2201  0.1478 -0.2134
  570TMC3    C2 8451   2.402   1.248  16.197  0.1988  0.4596  0.2728
  570TMC3    C3 8452   2.368   1.364  16.126 -0.5095  1.1841  0.5277
  570TMC3    C4 8453   2.209   1.267  16.330 -0.3497  0.4771 -0.0974
  570TMC3    C5 8454   2.180   1.384  16.266  0.4994 -0.0793 -0.1549
  570TMC3    C6 8455   2.259   1.434  16.159 -0.0235 -0.1182 -0.1318
  570TMC3     C 8456   2.360   1.069  16.347 -0.0047 -0.8990  0.6651
  570TMC3     O 8457   2.432   1.000  16.277  0.2462  0.1702  0.3191
  570TMC3     H 8458   2.501   1.205  16.187 -1.3682 -3.0655 -0.2205
  570TMC3    H1 8459   2.137   1.232  16.403 -2.8448 -0.1778 -2.8710
  570TMC3    H2 8460   2.237   1.530  16.114  1.4126  0.8687  1.2848
  570TMC3    C7 8461   2.073   1.468  16.321 -0.0705  0.0672 -0.4400
  570TMC3    C8 8462   2.442   1.412  16.016  0.8013 -0.6253 -0.5047
  570TMC3    O1 8463   2.036   1.440  16.431  0.6079 -0.2165  0.0581
  570TMC3    O2 8464   2.413   1.517  15.962 -0.2121  0.1863 -0.5344
  571MPD2     C 8465   0.844   2.678  17.570  0.1735 -0.5885 -0.3094
  571MPD2    C1 8466   0.764   2.756  17.487 -0.1534  0.1737 -0.0680
  571MPD2    C2 8467   0.682   2.858  17.543  0.9366 -0.4749 -0.2124
  571MPD2    C3 8468   0.685   2.875  17.681  0.1460  0.3101 -0.7430
  571MPD2    C4 8469   0.748   2.788   0.080  0.6690 -0.4170 -0.2404
  571MPD2    C5 8470   0.817   2.688   0.024 -0.0341 -0.1468 -0.8424
  571MPD2     H 8471   0.617   2.913  17.476  0.1008 -0.0783  0.9291
  571MPD2    H1 8472   0.716   2.791   0.183  0.1984  3.5102 -0.5093
  571MPD2    H2 8473   0.909   2.605  17.524  4.5446  3.3439 -0.3397
  571MPD2    H3 8474   0.856   2.613   0.092  0.7622 -0.1936 -1.3480
  571MPD2     N 8475   0.597   2.963   0.057  0.0917  0.6471 -0.3315
  571MPD2    H5 8476   0.564   2.942   0.151  3.1990  2.5980  1.2135
  571MPD2    N1 8477   0.773   2.731  17.352  0.7227  0.1676  0.5039
  571MPD2    H7 8478   0.841   2.662  17.321 -0.4212 -2.2001  3.2995
  572TMC3    C1 8479   0.409   3.091   0.077  0.7649  0.0094  0.4233
  572TMC3    C2 8480   0.356   3.007   0.177 -0.1931  0.4918  0.4750
  572TMC3    C3 8481   0.252   3.049   0.248  0.3368  0.1471  0.4177
  572TMC3    C4 8482   0.338   3.197   0.042  0.0088  0.4871 -0.0886
  572TMC3    C5 8483   0.228   3.236   0.114  0.3107  0.1198  0.1304
  572TMC3    C6 8484   0.181   3.161   0.216  0.1787  0.0718 -0.2042
  572TMC3     C 8485   0.523   3.057  17.676  0.2260  0.2352  0.1023
  572TMC3     O 8486   0.539   3.112  17.567  0.0031 -0.6747  0.3970
  572TMC3     H 8487   0.404   2.919   0.220  0.9924  0.0809 -1.6789
  572TMC3    H1 8488   0.376   3.251  17.640 -3.7253  1.2539 -1.2825
  572TMC3    H2 8489   0.100   3.203   0.275  0.5639  0.7242 -0.1356
  572TMC3    C7 8490   0.142   3.328   0.044  0.6249  0.1363 -0.4584
  572TMC3    C8 8491   0.231   2.991   0.380  0.3783  0.3402  0.2009
  572TMC3    O1 8492   0.195   3.391  17.637  0.1400  0.1263 -0.3033
  572TMC3    O2 8493   0.325   2.937   0.435 -0.2862  0.0050 -0.1855
  573MPD2     C 8494   0.913   2.827   1.233 -0.0973 -0.3649  0.0185
  573MPD2    C1 8495   1.041   2.877   1.206 -0.8521  0.6601  0.4098
  573MPD2    C2 8496   1.086   2.881   1.075  0.0156 -0.3847  0.0232
  573MPD2    C3 8497   0.999   2.843   0.974 -0.0690  0.9443 -0.0720
  573MPD2    C4 8498   0.872   2.795   1.005 -0.0592 -0.2375 -0.0963
  573MPD2    C5 8499   0.827   2.787   1.136 -0.7105  0.6134  0.1473
  573MPD2     H 8500   1.187   2.913   1.050 -0.1727 -0.2024 -0.4994
  573MPD2    H1 8501   0.804   2.756   0.930 -2.1194 -0.7003  2.0336
  573MPD2    H2 8502   0.869   2.838   1.332 -0.8453 -1.4938 -0.1803
  573MPD2    H3 8503   0.727   2.747   1.151 -0.6587  0.7921  0.9921
  573MPD2     N 8504   1.036   2.842   0.832 -0.1730  0.0316 -0.7818
  573MPD2    H5 8505   0.969   2.807   0.764 -2.0080  1.9156  0.0895
  573MPD2    N1 8506   1.103   2.948   1.317 -0.3919 -0.5135  0.6247
  573MPD2    H7 8507   1.053   2.939   1.405  1.1253 -1.1104  1.4358
  574TMC3    C1 8508   1.118   2.931   0.632 -0.2070 -0.2886 -0.3387
  574TMC3    C2 8509   0.992   2.953   0.583 -0.1941  0.4525  0.0214
  574TMC3    C3 8510   0.975   2.989   0.453 -0.0440 -0.3823 -0.4919
  574TMC3    C4 8511   1.225   2.959   0.553  0.0799  0.7433  0.6755
  574TMC3    C5 8512   1.199   2.987   0.419  0.4114 -0.6082 -0.3750
  574TMC3    C6 8513   1.075   3.008   0.366 -0.5988  0.4248 -0.4412
  574TMC3     C 8514   1.142   2.911   0.775  0.2709 -0.7572 -1.2821
  574TMC3     O 8515   1.240   2.955   0.823  0.1953 -0.3938 -0.1859
  574TMC3     H 8516   0.910   2.938   0.652 -0.4697  0.2296 -0.3578
  574TMC3    H1 8517   1.326   2.952   0.593  0.7814 -0.8242 -1.4399
  574TMC3    H2 8518   1.057   3.034   0.262 -2.1843 -0.6443 -0.4281
  574TMC3    C7 8519   1.322   3.013   0.348 -0.9561  0.7729  0.6248
  574TMC3    C8 8520   0.842   3.019   0.420 -0.2696  0.8416 -0.5657
  574TMC3    O1 8521   1.421   2.950   0.387 -0.3375  0.3883 -0.7273
  574TMC3    O2 8522   0.751   2.960   0.476  0.7217 -0.2351 -0.0397
  575TMC3    C1 8523   3.809   4.591  11.247  0.1913 -0.6737 -1.4257
  575TMC3    C2 8524   3.797   4.473  11.304  0.4986 -0.3532  0.8858
  575TMC3    C3 8525   3.808   4.353  11.233  0.7678 -0.1809 -0.0900
  575TMC3    C4 8526   3.810   4.604  11.112  0.1215  0.0092 -0.3074
  575TMC3    C5 8527   3.814   4.489  11.042 -0.9104  0.1906  0.8502
  575TMC3    C6 8528   3.820   4.364  11.099  0.0391  0.4810  0.6378
  575TMC3     C 8529   3.804   4.720  11.320 -0.2908  0.5852 -0.3865
  575TMC3     O 8530   3.839   4.710  11.440 -0.2988 -0.4836  0.2575
  575TMC3     H 8531   3.807   4.477  11.411  1.7777  1.3804  0.6899
  575TMC3    H1 8532   3.817   4.697  11.056 -1.6628 -0.0179 -0.5630
  575TMC3    H2 8533   3.822   4.272  11.042 -0.5406  0.9164 -0.0794
  575TMC3    C7 8534   3.851   4.496  10.901 -0.4328  0.5584 -1.0745
  575TMC3    C8 8535   3.788   4.224  11.296  0.0161 -0.1915 -0.5775
  575TMC3    O1 8536   3.806   4.591  10.837  0.1328  0.3324  0.0666
  575TMC3    O2 8537   3.814   4.120  11.236  0.0007  0.0293  0.7288
  576MPD2     C 8538   3.658   1.256  12.735 -0.7559  0.1574 -0.0741
  576MPD2    C1 8539   3.650   1.323  12.619  0.3490  0.2552 -0.0487
  576MPD2    C2 8540   3.570   1.429  12.610  0.0389 -0.2828  0.6322
  576MPD2    C3 8541   3.493   1.468  12.718 -0.4706 -0.7378  0.0907
  576MPD2    C4 8542   3.497   1.395  12.836 -0.1497 -0.0714 -0.2817
  576MPD2    C5 8543   3.576   1.288  12.848  0.1420 -0.0840  0.4845
  576MPD2     H 8544   3.565   1.492  12.522  1.5428  2.4398  2.5231
  576MPD2    H1 8545   3.440   1.428  12.922 -1.7361 -2.7086 -0.3139
  576MPD2    H2 8546   3.738   1.184  12.745  1.6971  2.7576 -0.9254
  576MPD2    H3 8547   3.591   1.239  12.943 -2.3602 -0.3993  0.7305
  576MPD2     N 8548   3.406   1.583  12.707 -0.4808  0.2401  0.6165
  576MPD2    H5 8549   3.414   1.643  12.626 -2.2396 -0.8327 -0.3550
  576MPD2    N1 8550   3.714   1.286  12.499 -0.6324 -0.3524 -0.3717
  576MPD2    H7 8551   3.710   1.352  12.422  1.8613  0.1714 -0.0475
  577TMC3    C1 8552   3.861   1.154  12.361 -0.8287  0.9165 -0.1217
  577TMC3    C2 8553   3.873   1.019  12.326 -0.1288 -0.2926 -0.4203
  577TMC3    C3 8554   3.966   0.990  12.227  0.4754 -0.0276 -0.5358
  577TMC3    C4 8555   3.945   1.254  12.309 -0.3880 -0.1243  0.0861
  577TMC3    C5 8556   4.025   1.218  12.208  0.4251 -0.4386 -1.0411
  577TMC3    C6 8557   4.037   1.089  12.166  0.4057 -0.6624  0.1091
  577TMC3     C 8558   3.783   1.169  12.483 -0.0448  0.9664  0.6133
  577TMC3     O 8559   3.777   1.069  12.551  0.4150  0.0287 -0.2214
  577TMC3     H 8560   3.821   0.936  12.373  0.6437 -0.2462  0.5257
  577TMC3    H1 8561   3.928   1.358  12.335  0.0651 -0.4235  1.5867
  577TMC3    H2 8562   4.108   1.065  12.088  0.0694  2.9146 -1.2823
  577TMC3    C7 8563   4.114   1.309  12.148  0.2472  0.0757 -0.9526
  577TMC3    C8 8564   3.986   0.847  12.202 -0.8740  0.4997  0.7363
  577TMC3    O1 8565   4.121   1.411  12.217 -0.4696  0.2561  0.0898
  577TMC3    O2 8566   3.939   0.764  12.279 -0.3303 -0.4313  0.7534
  578MPD2     C 8567   1.222   0.527   1.034 -0.9253 -0.1309 -0.4573
  578MPD2    C1 8568   1.349   0.532   0.989  0.1777  0.3441  0.3274
  578MPD2    C2 8569   1.449   0.457   1.041  0.0943  0.1643 -0.0418
  578MPD2    C3 8570   1.420   0.382   1.158  0.3907  0.4372 -1.2137
  578MPD2    C4 8571   1.292   0.381   1.207 -0.3011  0.9341 -0.2195
  578MPD2    C5 8572   1.190   0.442   1.137 -0.0286 -0.2929 -0.8265
  578MPD2     H 8573   1.552   0.450   1.007 -1.0512 -0.1276 -3.4210
  578MPD2    H1 8574   1.256   0.322   1.291  2.1990  1.3327  1.1230
  578MPD2    H2 8575   1.143   0.590   0.995 -1.9968 -1.8443 -1.0713
  578MPD2    H3 8576   1.085   0.436   1.164  0.0134  1.0879 -0.3474
  578MPD2     N 8577   1.522   0.307   1.208 -0.1667 -0.2433  0.0727
  578MPD2    H5 8578   1.612   0.313   1.161 -0.2995 -2.2747 -0.4157
  578MPD2    N1 8579   1.363   0.615   0.877 -0.1183 -0.2638  0.1417
  578MPD2    H7 8580   1.276   0.658   0.848 -0.0745  0.4806  1.1359
  579TMC3    C1 8581   1.625   0.124   1.302 -0.2368 -0.1650  0.0502
  579TMC3    C2 8582   1.752   0.170   1.329 -0.1374 -0.1699 -0.3412
  579TMC3    C3 8583   1.845   0.077   1.348 -1.0024  0.3307  0.7076
  579TMC3    C4 8584   1.596   4.712   1.319 -0.1204 -0.2350 -0.1453
  579TMC3    C5 8585   1.691   4.620   1.358  0.5965  0.3904  0.2571
  579TMC3    C6 8586   1.824   4.660   1.360  0.3962  0.0712 -0.4424
  579TMC3     C 8587   1.508   0.203   1.297 -0.1301  0.1637  0.0124
  579TMC3     O 8588   1.405   0.155   1.336  0.1122 -0.4064  0.9741
  579TMC3     H 8589   1.774   0.276   1.336  0.6592 -0.3371 -0.3226
  579TMC3    H1 8590   1.492   4.685   1.306 -0.3337  0.4911  0.0255
  579TMC3    H2 8591   1.905   4.589   1.375  1.3710  0.7872 -2.2581
  579TMC3    C7 8592   1.663   4.484   1.330 -0.2199  0.7084 -0.3161
  579TMC3    C8 8593   1.982   0.113   1.329  0.0839 -0.8748 -0.6788
  579TMC3    O1 8594   1.702   4.406   1.411 -0.2649  0.2436 -0.0521
  579TMC3    O2 8595   2.069   0.033   1.356  0.2168 -0.3739  0.1224
  580TMC3    C1 8596   1.485   0.259  11.793  0.0131 -0.2140  0.2596
  580TMC3    C2 8597   1.504   0.230  11.660  0.3826  0.1189 -0.5128
  580TMC3    C3 8598   1.517   0.095  11.624  0.1032  0.5032 -0.8438
  580TMC3    C4 8599   1.498   0.169  11.891  0.2585 -0.2137  0.3602
  580TMC3    C5 8600   1.515   0.036  11.850  0.6509 -0.1313  0.1826
  580TMC3    C6 8601   1.523   4.713  11.716  0.2639  0.5741 -0.1183
  580TMC3     C 8602   1.509   0.397  11.822  0.7990 -0.8588  0.0468
  580TMC3     O 8603   1.611   0.442  11.768  0.2351  0.5640 -0.3082
  580TMC3     H 8604   1.488   0.299  11.578  1.8670 -1.1703 -1.9082
  580TMC3    H1 8605   1.482   0.197  11.995  1.4107 -1.2910  0.8214
  580TMC3    H2 8606   1.527   4.614  11.671 -0.9405  0.6011 -0.2941
  580TMC3    C7 8607   1.575   4.674  11.949 -0.1442 -0.9272 -0.3479
  580TMC3    C8 8608   1.556   0.070  11.489 -0.9304  0.1653  0.0202
  580TMC3    O1 8609   1.613   0.017  12.045 -0.1142 -0.4577  0.7319
  580TMC3    O2 8610   1.513   4.687  11.440  0.8030 -0.3080  0.4270
  581MPD2     C 8611   4.632   0.329  15.026 -0.8463 -0.3250  0.2830
  581MPD2    C1 8612   4.549   0.401  15.114  0.5380 -1.4007  0.1385
  581MPD2    C2 8613   4.421   0.430  15.073  0.3159  0.0650 -0.8181
  581MPD2    C3 8614   4.380   0.386  14.949  1.0520  0.5042  0.4645
  581MPD2    C4 8615   4.467   0.324  14.860 -0.6563 -0.0071  0.2407
  581MPD2    C5 8616   4.596   0.298  14.899  0.2972 -0.5508  0.0919
  581MPD2     H 8617   4.362   0.485  15.145 -1.4781 -2.3961 -0.4035
  581MPD2    H1 8618   4.429   0.311  14.759  0.7627 -2.2754  0.0244
  581MPD2    H2 8619   0.017   0.325  15.050 -0.8659 -0.1175  0.4051
  581MPD2    H3 8620   4.665   0.262  14.823 -2.3858 -2.1858 -1.5680
  581MPD2     N 8621   4.255   0.421  14.909 -0.9733  0.1337  0.5981
  581MPD2    H5 8622   4.212   0.492  14.967 -1.1020  0.4920  0.0672
  581MPD2    N1 8623   4.615   0.433  15.240  0.2801 -0.0326 -0.7797
  581MPD2    H7 8624   4.710   0.399  15.249 -0.0259 -0.3576  1.2068
  582TMC3    C1 8625   4.667   0.497  15.465 -0.0070 -0.8134 -0.2025
  582TMC3    C2 8626   4.629   0.450  15.583  0.4459 -0.6617 -0.5188
  582TMC3    C3 8627   4.713   0.377  15.657 -1.0582 -0.4239 -0.8985
  582TMC3    C4 8628   0.067   0.462  15.412  0.0039  0.2132  0.0164
  582TMC3    C5 8629   0.143   0.375  15.477  0.0017  0.0715 -0.5733
  582TMC3    C6 8630   0.117   0.333  15.600 -0.1110 -0.5744 -0.6630
  582TMC3     C 8631   4.562   0.490  15.361 -0.6796  0.4982  0.0095
  582TMC3     O 8632   4.445   0.509  15.392 -0.4162  0.1687  0.1379
  582TMC3     H 8633   4.538   0.487  15.628  0.1117  1.1717 -2.7017
  582TMC3    H1 8634   0.107   0.514  15.326 -1.8411  1.1245 -0.2879
  582TMC3    H2 8635   0.179   0.254  15.641 -0.2066  0.2552  1.0925
  582TMC3    C7 8636   0.185   0.268  15.391  0.3693  0.4419  0.2825
  582TMC3    C8 8637   4.688   0.378  15.802  0.8173 -0.2018 -0.3392
  582TMC3    O1 8638   0.269   0.297  15.310  0.0696  0.0792 -0.3022
  582TMC3    O2 8639   4.586   0.410  15.854 -0.0242  0.1341  0.7865
  583MPD2     C 8640   3.992   1.896  16.362  1.0747  0.5902  0.5847
  583MPD2    C1 8641   4.069   1.975  16.446 -0.0811  0.5043  0.2204
  583MPD2    C2 8642   4.012   2.062  16.541  0.3180  0.9167  0.7667
  583MPD2    C3 8643   3.876   2.069  16.557 -0.8956 -0.3633 -0.2380
  583MPD2    C4 8644   3.800   1.997  16.465  0.3859 -0.8677 -0.5205
  583MPD2    C5 8645   3.855   1.914  16.374  0.3443 -0.1062 -0.1535
  583MPD2     H 8646   4.086   2.119  16.597  0.5435  0.6887  0.7007
  583MPD2    H1 8647   3.692   1.999  16.471  0.4079 -0.5895 -0.2157
  583MPD2    H2 8648   4.023   1.831  16.281 -0.1041 -0.2656  0.8111
  583MPD2    H3 8649   3.787   1.860  16.310 -3.1706  1.0125  2.6436
  583MPD2     N 8650   3.825   2.147  16.668 -0.9359  0.9216 -0.0597
  583MPD2    H5 8651   3.887   2.203  16.726 -0.5462 -2.6850  2.9937
  583MPD2    N1 8652   4.213   1.983  16.433 -0.3217  0.8780  0.0328
  583MPD2    H7 8653   4.266   2.027  16.508 -1.4807  2.2490  0.0456
  584TMC3    C1 8654   3.681   2.210  16.841 -0.1798  0.8028 -0.1968
  584TMC3    C2 8655   3.751   2.327  16.852  0.9195 -0.8529  0.2698
  584TMC3    C3 8656   3.733   2.399  16.967  0.2628  0.0794 -0.2243
  584TMC3    C4 8657   3.599   2.171  16.938  0.1297 -0.0416 -0.7925
  584TMC3    C5 8658   3.596   2.242  17.055  0.1929  0.4489 -0.2858
  584TMC3    C6 8659   3.656   2.361  17.072 -1.3129 -0.1334 -0.0204
  584TMC3     C 8660   3.699   2.126  16.721 -0.8805  0.0890  0.1474
  584TMC3     O 8661   3.611   2.044  16.697 -0.1534 -0.1067 -0.2603
  584TMC3     H 8662   3.818   2.363  16.775 -0.3364 -0.0682 -0.4608
  584TMC3    H1 8663   3.533   2.085  16.925  0.8784 -1.0340  1.8173
  584TMC3    H2 8664   3.633   2.427  17.155 -0.2633  0.7080 -0.3993
  584TMC3    C7 8665   3.522   2.180  17.163 -0.1194 -0.5983 -0.2264
  584TMC3    C8 8666   3.769   2.538  16.962 -0.4458 -0.3322 -0.4940
  584TMC3    O1 8667   3.477   2.248  17.251 -0.0599  0.0820  0.0808
  584TMC3    O2 8668   3.755   2.597  16.853 -0.1160 -0.2861 -0.1690
  585MPD2     C 8669   2.788   0.394   0.439  0.2146  0.3855 -1.0813
  585MPD2    C1 8670   2.920   0.417   0.440  0.4742  0.0550 -0.0510
  585MPD2    C2 8671   3.008   0.310   0.444  0.4553 -0.1464  0.2583
  585MPD2    C3 8672   2.971   0.175   0.446 -0.0253  0.2380  0.2504
  585MPD2    C4 8673   2.834   0.158   0.445  0.2284  0.0837 -0.1116
  585MPD2    C5 8674   2.751   0.262   0.449  0.6467 -0.0758 -0.7838
  585MPD2     H 8675   3.115   0.324   0.438  0.4947 -0.8387 -0.6809
  585MPD2    H1 8676   2.789   0.059   0.446 -0.6226  0.4613 -0.4089
  585MPD2    H2 8677   2.710   0.469   0.430  0.6494  1.1044  1.4361
  585MPD2    H3 8678   2.644   0.251   0.463  0.6701 -0.9639 -1.3214
  585MPD2     N 8679   3.058   0.065   0.458 -0.3685 -0.1289 -0.0495
  585MPD2    H5 8680   3.015   4.693   0.466 -2.1086  0.7752  1.0651
  585MPD2    N1 8681   2.964   0.552   0.433 -0.3092 -0.2118 -0.2064
  585MPD2    H7 8682   2.898   0.622   0.402  1.1458  1.4819  0.4902
  586TMC3    C1 8683   3.252   4.656   0.471  0.5796  0.3441 -0.4055
  586TMC3    C2 8684   3.386   4.643   0.434 -0.4719 -0.1788 -0.1702
  586TMC3    C3 8685   3.445   4.527   0.463 -0.4813 -0.5887  0.2848
  586TMC3    C4 8686   3.184   4.549   0.520 -0.5402 -0.4520 -0.1224
  586TMC3    C5 8687   3.256   4.433   0.544  0.3472  0.6405 -0.5888
  586TMC3    C6 8688   3.384   4.413   0.506 -0.0379  0.1761 -0.2917
  586TMC3     C 8689   3.195   0.069   0.468 -0.5002 -0.1067  0.0530
  586TMC3     O 8690   3.271   0.160   0.447  0.1797 -0.6342 -0.3317
  586TMC3     H 8691   3.439   0.013   0.406 -0.3573 -0.8896 -2.1792
  586TMC3    H1 8692   3.083   4.543   0.560 -0.4383  1.1680  0.3704
  586TMC3    H2 8693   3.431   4.317   0.495 -0.7930 -0.4380  1.7182
  586TMC3    C7 8694   3.184   4.310   0.527  0.4636 -0.3064 -0.8853
  586TMC3    C8 8695   3.563   4.518   0.375  0.1187 -0.3712  0.0296
  586TMC3    O1 8696   3.109   4.306   0.428 -0.1903 -0.0536 -0.3601
  586TMC3    O2 8697   3.643   4.430   0.411 -0.0460  0.0385  0.1093
  587TMC3    C1 8698   1.263   4.080  16.630 -0.0313 -0.2857 -0.4777
  587TMC3    C2 8699   1.208   4.203  16.615  0.0072 -0.6217 -0.6083
  587TMC3    C3 8700   1.302   4.301  16.611 -0.4983 -0.0073  0.3108
  587TMC3    C4 8701   1.395   4.061  16.672  0.1497  0.0526 -0.3594
  587TMC3    C5 8702   1.484   4.164  16.684 -0.4750  0.0518  0.0907
  587TMC3    C6 8703   1.440   4.291  16.640  0.1537  0.2226  0.4344
  587TMC3     C 8704   1.180   3.964  16.653 -0.9768 -0.0171 -0.2304
  587TMC3     O 8705   1.221   3.851  16.645  0.5468 -0.1330 -0.3767
  587TMC3     H 8706   1.116   4.210  16.557  0.8565  0.4534 -1.8321
  587TMC3    H1 8707   1.427   3.958  16.679 -0.7799 -0.2062  0.0900
  587TMC3    H2 8708   1.508   4.370  16.613  1.3347 -1.1356 -0.5434
  587TMC3    C7 8709   1.625   4.137  16.701 -0.3331 -0.6213  0.0735
  587TMC3    C8 8710   1.258   4.431  16.561 -0.1626  0.0706 -0.1161
  587TMC3    O1 8711   1.707   4.221  16.666 -0.5045  0.3325  0.3207
  587TMC3    O2 8712   1.347   4.501  16.516  0.1080 -0.0330  0.3437
  588TMC3    C1 8713   3.576   1.597   9.334 -0.0174 -0.4679 -0.0908
  588TMC3    C2 8714   3.594   1.479   9.263 -0.0379 -0.9224  0.0557
  588TMC3    C3 8715   3.724   1.444   9.237 -0.3309  0.3662 -0.0022
  588TMC3    C4 8716   3.682   1.676   9.373  0.5366 -0.7618 -0.0508
  588TMC3    C5 8717   3.812   1.626   9.352 -0.0453  0.0659 -0.7119
  588TMC3    C6 8718   3.839   1.516   9.273  0.0498 -0.1220 -0.2830
  588TMC3     C 8719   3.453   1.668   9.336 -0.1480  0.0004  0.3785
  588TMC3     O 8720   3.363   1.651   9.253 -0.5723  0.0246 -0.0641
  588TMC3     H 8721   3.516   1.437   9.201  0.2892  0.8364 -1.5584
  588TMC3    H1 8722   3.676   1.773   9.422 -0.6530 -0.2135 -1.2755
  588TMC3    H2 8723   3.940   1.501   9.238  0.3133 -0.4633  0.6115
  588TMC3    C7 8724   3.921   1.700   9.412 -0.3026  0.2305 -0.8994
  588TMC3    C8 8725   3.750   1.303   9.208 -0.8908 -0.2556 -0.4776
  588TMC3    O1 8726   4.023   1.717   9.347  0.0383  0.1751 -0.2038
  588TMC3    O2 8727   3.652   1.233   9.182  0.9036 -0.2444 -0.5591
  589TMC3    C1 8728   1.759   3.647   1.096  0.1015  1.2083  0.3331
  589TMC3    C2 8729   1.815   3.738   1.184  0.2246 -0.5674 -0.3552
  589TMC3    C3 8730   1.949   3.766   1.167  0.4636  0.0454  0.2455
  589TMC3    C4 8731   1.829   3.597   0.987 -0.7666  0.0698 -0.3264
  589TMC3    C5 8732   1.952   3.652   0.957  0.3623  0.1108  0.0650
  589TMC3    C6 8733   2.017   3.724   1.056 -0.2121  0.7549  0.3943
  589TMC3     C 8734   1.610   3.637   1.086  0.6664 -0.2830  0.0585
  589TMC3     O 8735   1.572   3.535   1.029 -0.1817 -0.2046 -0.4226
  589TMC3     H 8736   1.765   3.768   1.276  1.6046 -0.9635  0.5272
  589TMC3    H1 8737   1.768   3.532   0.925  1.3496 -0.9361 -1.3771
  589TMC3    H2 8738   2.125   3.734   1.043 -0.2446  1.2927  0.5160
  589TMC3    C7 8739   2.022   3.566   0.862  0.1466 -0.4269  0.2925
  589TMC3    C8 8740   2.010   3.846   1.269  0.4679 -0.6207  0.4311
  589TMC3    O1 8741   1.997   3.447   0.842 -0.6722  0.6660 -0.4263
  589TMC3    O2 8742   1.937   3.889   1.355  0.5379 -1.1238  0.2702
  590MPD2     C 8743   1.804   2.670  16.588 -0.6981 -0.3489 -0.1221
  590MPD2    C1 8744   1.733   2.710  16.477 -1.1440 -0.1435  0.1789
  590MPD2    C2 8745   1.804   2.762  16.369  0.5314 -0.1993 -0.8609
  590MPD2    C3 8746   1.945   2.788  16.373  0.2319  0.1098 -0.7847
  590MPD2    C4 8747   2.014   2.753  16.487  0.1370  0.6562  0.7656
  590MPD2    C5 8748   1.944   2.690  16.590 -0.0495  0.0370 -0.0989
  590MPD2     H 8749   1.745   2.799  16.286 -2.3017  1.8074  2.0512
  590MPD2    H1 8750   2.122   2.767  16.493  0.3836 -1.9180  2.4279
  590MPD2    H2 8751   1.756   2.626  16.675 -1.5288  3.1221  1.1717
  590MPD2    H3 8752   2.001   2.653  16.674  1.0643 -0.9865 -1.3129
  590MPD2     N 8753   2.002   2.855  16.260  0.8182 -0.3049 -0.0400
  590MPD2    H5 8754   1.941   2.876  16.182  0.4392  0.5647  0.4874
  590MPD2    N1 8755   1.592   2.706  16.488  0.4338  0.5580  0.4938
  590MPD2    H7 8756   1.543   2.668  16.569 -2.1576 -0.2998 -1.4587
  591TMC3    C1 8757   2.157   2.966  16.134  0.5932  0.3643 -0.0808
  591TMC3    C2 8758   2.131   2.898  16.015 -0.5281 -0.0074 -0.0116
  591TMC3    C3 8759   2.129   2.965  15.894  0.5477  0.3493 -0.7228
  591TMC3    C4 8760   2.172   3.099  16.131 -0.1264 -0.2388 -0.3403
  591TMC3    C5 8761   2.167   3.162  16.014  0.8311  0.7090  0.2524
  591TMC3    C6 8762   2.147   3.101  15.893  0.4606  0.1046 -0.0263
  591TMC3     C 8763   2.120   2.922  16.264 -0.0133 -0.1819  0.3012
  591TMC3     O 8764   2.207   2.949  16.341  0.0862  0.3771 -0.1830
  591TMC3     H 8765   2.112   2.791  16.016 -1.3115  0.1227 -0.5849
  591TMC3    H1 8766   2.176   3.150  16.227  2.9255  1.6142 -1.4897
  591TMC3    H2 8767   2.124   3.159  15.805 -0.3190 -2.7619 -1.6983
  591TMC3    C7 8768   2.124   3.297  16.016 -0.6419  0.1702 -1.0834
  591TMC3    C8 8769   2.102   2.886  15.779 -0.2718  0.3096 -0.0172
  591TMC3    O1 8770   2.039   3.324  16.102  0.0063 -0.8237  0.2251
  591TMC3    O2 8771   2.129   2.762  15.784  0.0804  0.1404  0.7873
  592MPD2     C 8772   2.624   0.231  11.128 -0.1101  0.0891 -0.4711
  592MPD2    C1 8773   2.671   0.270  11.254  0.4241  0.0542 -0.0985
  592MPD2    C2 8774   2.651   0.187  11.364  0.0521  0.1179  0.0269
  592MPD2    C3 8775   2.576   0.073  11.339 -0.1884  0.0555 -0.1319
  592MPD2    C4 8776   2.518   0.038  11.218  0.0328  0.0555 -0.4564
  592MPD2    C5 8777   2.541   0.127  11.116  0.3147  0.3151  0.3509
  592MPD2     H 8778   2.694   0.200  11.463 -2.0763 -0.3723  1.0209
  592MPD2    H1 8779   2.444   4.680  11.203 -0.2355  0.2124  0.0586
  592MPD2    H2 8780   2.634   0.300  11.046  0.2105 -0.4315 -0.8625
  592MPD2    H3 8781   2.493   0.128  11.019  1.4807 -0.7134 -0.2334
  592MPD2     N 8782   2.568   4.702  11.446  0.2448  0.3066  0.9824
  592MPD2    H5 8783   2.580   0.023  11.538  1.1459 -0.3755  1.1750
  592MPD2    N1 8784   2.737   0.388  11.268 -0.0870 -0.0783  0.2385
  592MPD2    H7 8785   2.759   0.439  11.183  1.1054  0.7531  1.0360
  593TMC3    C1 8786   2.841   0.576  11.392 -0.4610 -0.4605 -0.0576
  593TMC3    C2 8787   2.847   0.650  11.512  0.0660 -0.0617 -0.2816
  593TMC3    C3 8788   2.942   0.747  11.520  0.0339 -0.0913 -0.7421
  593TMC3    C4 8789   2.919   0.613  11.286  0.4273  0.3120  0.1523
  593TMC3    C5 8790   3.019   0.710  11.306 -0.5080 -0.2747 -0.0333
  593TMC3    C6 8791   3.030   0.780  11.420  0.2943  0.3545 -0.3397
  593TMC3     C 8792   2.759   0.456  11.387 -0.4429  0.2331  0.5055
  593TMC3     O 8793   2.713   0.435  11.496 -0.5527  0.1559 -0.1164
  593TMC3     H 8794   2.771   0.637  11.588  0.2111  0.8584  0.0239
  593TMC3    H1 8795   2.916   0.549  11.199 -0.8760 -0.9901  1.1586
  593TMC3    H2 8796   3.105   0.858  11.425 -0.6303  1.2087  0.1940
  593TMC3    C7 8797   3.122   0.723  11.202 -0.1304 -0.5833 -0.8609
  593TMC3    C8 8798   2.969   0.792  11.653  0.2517 -0.7310  0.6358
  593TMC3    O1 8799   3.169   0.837  11.194  0.4686  0.0876  0.0057
  593TMC3    O2 8800   2.871   0.811  11.721 -0.1118 -0.2484 -0.0346
  594MPD2     C 8801   1.175   3.847  13.563  0.1955 -0.3233 -0.4719
  594MPD2    C1 8802   1.189   3.870  13.696  0.1647 -0.9730  0.1483
  594MPD2    C2 8803   1.310   3.916  13.738 -0.9394  0.3372 -0.1001
  594MPD2    C3 8804   1.412   3.942  13.655 -0.1477  0.4298 -0.2272
  594MPD2    C4 8805   1.402   3.919  13.519  0.4603  0.1987 -0.8569
  594MPD2    C5 8806   1.281   3.870  13.480 -0.1894 -0.7592  0.5057
  594MPD2     H 8807   1.332   3.944  13.840 -0.6607 -0.3093  0.0224
  594MPD2    H1 8808   1.479   3.944  13.447  2.5182 -0.8593  0.9572
  594MPD2    H2 8809   1.095   3.784  13.526 -0.3455  0.3242 -0.3972
  594MPD2    H3 8810   1.269   3.844  13.376 -1.3563  1.6522  0.0335
  594MPD2     N 8811   1.522   4.007  13.714  0.3604 -0.0782  0.2755
  594MPD2    H5 8812   1.514   4.019  13.814  1.3501  1.9584  0.1065
  594MPD2    N1 8813   1.073   3.845  13.778  0.3076  0.0564  0.0209
  594MPD2    H7 8814   0.985   3.822  13.733  0.2329  0.3378  0.0228
  595TMC3    C1 8815   1.950   4.107  13.835 -0.1257  0.6069 -0.1006
  595TMC3    C2 8816   1.871   4.046  13.739 -0.4712 -0.0290 -0.7921
  595TMC3    C3 8817   1.741   4.098  13.719  0.3288 -0.2825 -0.4669
  595TMC3    C4 8818   1.897   4.210  13.910  0.2688  0.5900 -0.6622
  595TMC3    C5 8819   1.770   4.248  13.896 -0.2400  0.9259  0.0159
  595TMC3    C6 8820   1.694   4.202  13.796  0.9827 -0.3096 -0.2645
  595TMC3     C 8821   2.083   4.062  13.884 -0.0265 -0.2187  0.0792
  595TMC3     O 8822   2.119   4.107  13.990 -0.1803  0.2643  0.4461
  595TMC3     H 8823   1.903   3.957  13.687  1.4586  1.3515 -1.9452
  595TMC3    H1 8824   1.958   4.261  13.984 -3.0408  1.6511  1.3208
  595TMC3    H2 8825   1.590   4.233  13.794  0.8211 -0.8461 -0.2370
  595TMC3    C7 8826   1.695   4.295  14.014  0.0498 -0.6603 -0.6886
  595TMC3    C8 8827   1.638   4.022  13.647  0.2441  0.0208 -0.0001
  595TMC3    O1 8828   1.590   4.358  13.997  0.1841 -0.1109  0.3193
  595TMC3    O2 8829   1.675   3.975  13.541  0.0189  0.3185  0.2958
  596MPD2     C 8830   0.125   1.629  16.822 -0.0342  0.5220 -0.4706
  596MPD2    C1 8831   0.168   1.752  16.770  0.1289 -0.1318  0.4621
  596MPD2    C2 8832   0.223   1.752  16.647  0.5056 -0.5883  0.3621
  596MPD2    C3 8833   0.220   1.642  16.564  0.4225  0.2016  0.2414
  596MPD2    C4 8834   0.168   1.519  16.615 -0.5040 -0.3984  0.5671
  596MPD2    C5 8835   0.125   1.510  16.745  0.0298  0.1709  0.6265
  596MPD2     H 8836   0.267   1.846  16.616 -0.4241 -0.3003 -0.0936
  596MPD2    H1 8837   0.167   1.431  16.552  2.2047  0.3227 -0.4926
  596MPD2    H2 8838   0.086   1.611  16.922  4.2182 -0.5899  0.9779
  596MPD2    H3 8839   0.085   1.418  16.785 -0.6800  0.2064 -0.0126
  596MPD2     N 8840   0.271   1.641  16.431 -0.2865  0.1549  0.8354
  596MPD2    H5 8841   0.269   1.552  16.382  2.0041  0.9529 -0.6845
  596MPD2    N1 8842   0.156   1.873  16.844  0.1791  0.0061 -0.2887
  596MPD2    H7 8843   0.209   1.955  16.817  0.3707 -0.8585 -2.5411
  597TMC3    C1 8844   0.098   2.025  17.027  0.3907 -0.0912  0.4568
  597TMC3    C2 8845   0.147   2.127  16.954 -0.2670 -0.0546  0.8351
  597TMC3    C3 8846   0.109   2.255  16.987 -0.0058  0.3048 -0.4083
  597TMC3    C4 8847   4.719   2.046  17.123  0.0651 -0.1383 -0.4195
  597TMC3    C5 8848   4.693   2.175  17.157  0.1216 -0.6860 -0.8636
  597TMC3    C6 8849   0.025   2.280  17.086  0.6083 -0.0044 -0.1101
  597TMC3     C 8850   0.091   1.890  16.964  0.1476 -0.0969 -0.0759
  597TMC3     O 8851   0.013   1.808  17.018  0.5880 -0.0999  0.9161
  597TMC3     H 8852   0.228   2.108  16.885 -0.1540  1.2900  0.5922
  597TMC3    H1 8853   4.676   1.964  17.180 -1.8982  0.1830 -1.4363
  597TMC3    H2 8854   4.710   2.382  17.100 -0.0578 -0.2526  0.0566
  597TMC3    C7 8855   4.572   2.189  17.238  0.6970  0.3282 -0.6530
  597TMC3    C8 8856   0.120   2.340  16.878  0.2453  0.3401  0.6600
  597TMC3    O1 8857   4.504   2.088  17.245 -0.8117 -0.0866 -0.7605
  597TMC3    O2 8858   0.221   2.338  16.811 -0.2820  0.1710  0.4525
  598TMC3    C1 8859   3.752   3.459  15.426 -0.7138 -0.2413  0.3374
  598TMC3    C2 8860   3.659   3.410  15.510  0.3649 -0.2046 -0.7379
  598TMC3    C3 8861   3.531   3.398  15.460  0.8938 -0.1872 -0.0946
  598TMC3    C4 8862   3.723   3.515  15.302  0.1094 -0.5253  0.1645
  598TMC3    C5 8863   3.590   3.506  15.257  0.0943  1.0213  0.3847
  598TMC3    C6 8864   3.499   3.445  15.337 -0.5841  0.0030  0.1527
  598TMC3     C 8865   3.889   3.445  15.470 -0.0365  0.6964  0.1741
  598TMC3     O 8866   3.925   3.368  15.555 -0.4458 -0.2096  0.7504
  598TMC3     H 8867   3.678   3.387  15.614  0.6695 -0.6957 -0.9003
  598TMC3    H1 8868   3.802   3.514  15.228 -1.0443 -2.1007 -1.0069
  598TMC3    H2 8869   3.396   3.455  15.302 -0.0481 -0.1463 -1.4699
  598TMC3    C7 8870   3.562   3.526  15.124 -0.1195 -0.1178  0.3289
  598TMC3    C8 8871   3.428   3.371  15.553 -0.0887  0.3218 -0.0005
  598TMC3    O1 8872   3.479   3.458  15.068  0.2006  0.1432 -0.7587
  598TMC3    O2 8873   3.464   3.399  15.669 -0.1096 -0.0867 -0.0375
  599MPD2     C 8874   2.986   0.501  15.928  0.2858 -0.3266  0.0803
  599MPD2    C1 8875   2.970   0.640  15.916 -0.0479  0.5835 -0.6851
  599MPD2    C2 8876   2.918   0.703  16.031 -1.1273 -0.3104 -0.0577
  599MPD2    C3 8877   2.871   0.633  16.145  0.3586  0.1154  0.4003
  599MPD2    C4 8878   2.895   0.502  16.146  0.1526  0.2691  0.7194
  599MPD2    C5 8879   2.960   0.435  16.041  0.2108  0.1898  0.1724
  599MPD2     H 8880   2.909   0.811  16.023 -1.0661 -0.2138  1.2220
  599MPD2    H1 8881   2.890   0.443  16.237 -0.5228  0.6885  0.9514
  599MPD2    H2 8882   3.033   0.452  15.843  1.1990  0.1057  0.3367
  599MPD2    H3 8883   2.985   0.329  16.035  1.9803  0.7781 -2.7742
  599MPD2     N 8884   2.817   0.695  16.267  0.2779 -0.7964 -0.3263
  599MPD2    H5 8885   2.791   0.635  16.344  1.4582 -2.6830 -1.3878
  599MPD2    N1 8886   3.019   0.709  15.795 -0.1896  0.5327 -0.4106
  599MPD2    H7 8887   3.059   0.651  15.722 -1.4180 -0.0249 -0.6290
  600TMC3    C1 8888   2.747   0.871  16.408 -0.1005 -0.6531  0.8269
  600TMC3    C2 8889   2.769   0.783  16.507 -0.1886  0.4511  0.4162
  600TMC3    C3 8890   2.744   0.828  16.634  0.1588 -0.1641  0.0018
  600TMC3    C4 8891   2.689   0.993  16.427 -0.3593  1.0804  0.0946
  600TMC3    C5 8892   2.669   1.032  16.555  0.5901  0.1777 -0.8296
  600TMC3    C6 8893   2.690   0.944  16.655  0.0854  0.1991 -0.3445
  600TMC3     C 8894   2.789   0.829  16.281 -0.0485  0.1076 -0.4085
  600TMC3     O 8895   2.790   0.906  16.190 -0.0230 -0.6432 -0.0095
  600TMC3     H 8896   2.852   0.714  16.504 -0.4060  0.2764 -1.2606
  600TMC3    H1 8897   2.669   1.063  16.346 -1.6917  1.1236  0.4635
  600TMC3    H2 8898   2.664   0.976  16.756 -2.1884 -0.1244 -0.8343
  600TMC3    C7 8899   2.618   1.165  16.589  0.5543 -0.0344  0.2626
  600TMC3    C8 8900   2.740   0.730  16.743  0.0113 -0.3854  0.0232
  600TMC3    O1 8901   2.561   1.176  16.695  0.1065  0.6519  0.7473
  600TMC3    O2 8902   2.755   0.771  16.859  0.5208 -0.3613  0.6617
  601MPD2     C 8903   4.388   3.415  17.542 -0.4209 -0.8107  0.5023
  601MPD2    C1 8904   4.507   3.466  17.506  0.1696 -0.1747  0.1008
  601MPD2    C2 8905   4.627   3.422  17.565 -0.5347 -0.5316 -0.1779
  601MPD2    C3 8906   4.616   3.335  17.670  0.5114 -0.2912 -0.3804
  601MPD2    C4 8907   4.494   3.279   0.021 -0.6420  0.1933 -0.3130
  601MPD2    C5 8908   4.380   3.318  17.640  0.0599  0.3279 -0.6020
  601MPD2     H 8909   0.001   3.467  17.535 -0.7715 -0.5759 -0.9757
  601MPD2    H1 8910   4.488   3.216   0.109 -1.1745  0.7961  0.0806
  601MPD2    H2 8911   4.289   3.439  17.504  0.4205  2.4486  0.4069
  601MPD2    H3 8912   4.292   3.262  17.670 -0.0169  0.8589  0.1356
  601MPD2     N 8913   0.012   3.297   0.069 -0.6158  0.6468 -0.5648
  601MPD2    H5 8914   4.717   3.224   0.139 -1.1725  0.6060 -0.7229
  601MPD2    N1 8915   4.513   3.565  17.405 -0.2671  0.6667 -0.1108
  601MPD2    H7 8916   4.607   3.597  17.381 -0.6511  0.0114 -2.5079
  602TMC3    C1 8917   4.439   3.744  17.264 -0.1899  0.2300 -0.1394
  602TMC3    C2 8918   4.562   3.794  17.249 -0.8287  0.0159  0.0901
  602TMC3    C3 8919   4.579   3.880  17.141  0.2851 -0.0968 -0.8500
  602TMC3    C4 8920   4.337   3.776  17.182 -0.1970 -0.6506 -0.5175
  602TMC3    C5 8921   4.368   3.849  17.067 -0.7652 -0.2052  0.5832
  602TMC3    C6 8922   4.493   3.892  17.040  0.1811 -0.3432  0.0143
  602TMC3     C 8923   4.405   3.644  17.365 -0.2409  0.7600 -0.6299
  602TMC3     O 8924   4.294   3.647  17.416 -0.6189  0.0155  0.2874
  602TMC3     H 8925   4.640   3.772  17.321  1.7741  0.0377 -2.7703
  602TMC3    H1 8926   4.233   3.763  17.208 -0.4434  0.9055 -0.6952
  602TMC3    H2 8927   4.517   3.935  16.943 -0.2841  0.2577  0.1728
  602TMC3    C7 8928   4.261   3.889  16.984  0.4810 -0.0833 -0.8448
  602TMC3    C8 8929   4.706   3.941  17.125 -1.0041 -0.6659  0.2853
  602TMC3    O1 8930   4.149   3.846  16.998 -0.4893 -0.4995 -0.9416
  602TMC3    O2 8931   0.082   3.896  17.190  0.4313 -0.6267 -0.0509
  603TMC3    C1 8932   3.742   4.289  10.295 -0.2569  0.0954  0.1766
  603TMC3    C2 8933   3.764   4.263  10.426 -0.2687 -0.6853 -0.0142
  603TMC3    C3 8934   3.672   4.301  10.512 -0.2981  0.0053  0.3552
  603TMC3    C4 8935   3.623   4.349  10.254 -0.1666 -1.0733 -0.1460
  603TMC3    C5 8936   3.523   4.358  10.348  0.2778  0.0261  0.7305
  603TMC3    C6 8937   3.546   4.331  10.479  0.2990  1.0285  0.0038
  603TMC3     C 8938   3.840   4.256  10.194  0.0942 -0.0802  0.4259
  603TMC3     O 8939   3.939   4.206  10.241  0.5404 -0.0196 -0.2488
  603TMC3     H 8940   3.860   4.227  10.462 -0.2571  1.9909  2.6369
  603TMC3    H1 8941   3.594   4.369  10.151 -1.4363 -2.4683 -0.0660
  603TMC3    H2 8942   3.474   4.369  10.552  1.0197  2.1598  0.1279
  603TMC3    C7 8943   3.410   4.436  10.319 -0.2619  0.2302 -0.6481
  603TMC3    C8 8944   3.691   4.259  10.649  0.3871 -0.4891  0.2085
  603TMC3    O1 8945   3.387   4.530  10.397  0.5338 -0.3854  0.1092
  603TMC3    O2 8946   3.729   4.143  10.659  0.4187 -0.0636 -0.0452
  604MPD2     C 8947   3.609   3.148  15.812 -1.1645 -0.3165 -0.4855
  604MPD2    C1 8948   3.681   3.106  15.921 -0.3543  0.2548  0.4853
  604MPD2    C2 8949   3.774   3.009  15.887 -0.0765 -0.0442 -0.1535
  604MPD2    C3 8950   3.812   2.964  15.760 -0.2569 -0.0562 -0.2588
  604MPD2    C4 8951   3.733   3.007  15.658 -0.7184  0.1891  0.0767
  604MPD2    C5 8952   3.635   3.098  15.684 -0.5320  0.7932 -0.6015
  604MPD2     H 8953   3.840   2.963  15.960 -0.8128  0.8981  1.0901
  604MPD2    H1 8954   3.757   2.977  15.557 -0.0558 -0.7059  0.4998
  604MPD2    H2 8955   3.523   3.212  15.825 -0.0846  0.4889  2.7200
  604MPD2    H3 8956   3.584   3.144  15.600 -0.7975  0.9539 -0.3511
  604MPD2     N 8957   3.914   2.862  15.750  0.4754 -0.7947  0.3795
  604MPD2    H5 8958   3.973   2.835  15.828 -0.1634  0.3660  1.2538
  604MPD2    N1 8959   3.644   3.154  16.051  0.6613 -0.3273  0.2971
  604MPD2    H7 8960   3.562   3.214  16.048  0.9123 -0.0313 -0.5505
  605TMC3    C1 8961   3.624   3.176  16.288  0.3319  0.2459  0.0280
  605TMC3    C2 8962   3.693   3.197  16.403  0.4655  0.1501 -0.0258
  605TMC3    C3 8963   3.625   3.254  16.509 -0.2654 -0.6645 -0.0237
  605TMC3    C4 8964   3.496   3.216  16.263 -0.2319  0.4840 -0.5978
  605TMC3    C5 8965   3.433   3.272  16.373 -0.0396  0.5950  0.0194
  605TMC3    C6 8966   3.493   3.290  16.495  0.2702 -0.3990 -0.9681
  605TMC3     C 8967   3.701   3.123  16.175 -0.6044 -0.3113 -0.5423
  605TMC3     O 8968   3.816   3.085  16.189  0.6362 -0.0096 -0.6252
  605TMC3     H 8969   3.793   3.159  16.413  0.0633 -1.4634 -2.0594
  605TMC3    H1 8970   3.444   3.199  16.170 -1.3681 -0.8506  0.2822
  605TMC3    H2 8971   3.438   3.316  16.584  2.0457 -1.0594  0.3163
  605TMC3    C7 8972   3.286   3.275  16.368  0.1259 -0.1411  0.3870
  605TMC3    C8 8973   3.709   3.323  16.596 -0.4191  0.3648  0.1591
  605TMC3    O1 8974   3.227   3.381  16.396  0.1458  0.0658 -0.1719
  605TMC3    O2 8975   3.738   3.441  16.567  0.1932  0.4222 -0.6214
  606TMC3    C1 8976   0.292   0.846  17.498 -0.1188 -0.2996 -0.3229
  606TMC3    C2 8977   0.398   0.763  17.493  0.0260 -0.5874  0.1685
  606TMC3    C3 8978   0.418   0.693  17.610 -0.4900 -0.0236 -0.3654
  606TMC3    C4 8979   0.204   0.847  17.603  0.1150  1.0742  0.0556
  606TMC3    C5 8980   0.235   0.767   0.028  0.3430  0.0268  0.1060
  606TMC3    C6 8981   0.341   0.688   0.040  0.1993  0.3915 -0.1114
  606TMC3     C 8982   0.266   0.911  17.373  0.0784  0.1757 -0.1814
  606TMC3     O 8983   0.363   0.929  17.297  0.0251 -0.3489 -0.4652
  606TMC3     H 8984   0.471   0.758  17.413  1.4013  0.6092  1.3492
  606TMC3    H1 8985   0.119   0.913  17.610 -0.8753 -0.0918 -1.0263
  606TMC3    H2 8986   0.370   0.637   0.131  1.4080  1.4485  0.0984
  606TMC3    C7 8987   0.138   0.754   0.133  0.2195 -0.1770 -0.2798
  606TMC3    C8 8988   0.545   0.636  17.626  0.5374 -0.6490 -0.0489
  606TMC3    O1 8989   0.166   0.679   0.226 -0.3283  0.1986 -0.3102
  606TMC3    O2 8990   0.639   0.699  17.580  0.1265 -0.4197  0.4502
  607MPD2     C 8991   2.792   4.291  11.688  0.2975 -0.4914 -0.3065
  607MPD2    C1 8992   2.912   4.346  11.732 -0.5972 -0.0486  0.5288
  607MPD2    C2 8993   2.967   4.308  11.853 -0.0909 -0.1981 -1.3277
  607MPD2    C3 8994   2.913   4.213  11.932 -0.1852 -0.7417  0.3072
  607MPD2    C4 8995   2.792   4.158  11.890 -0.0460  0.6787 -0.2429
  607MPD2    C5 8996   2.736   4.197  11.775 -0.3198 -0.0942  0.2087
  607MPD2     H 8997   3.064   4.347  11.880 -0.1662 -1.6271  0.9703
  607MPD2    H1 8998   2.735   4.091  11.953 -2.6642  3.3813  0.2734
  607MPD2    H2 8999   2.739   4.328  11.601  1.1639  1.3018 -0.0816
  607MPD2    H3 9000   2.648   4.137  11.752  1.6464 -2.4498 -1.1907
  607MPD2     N 9001   2.992   4.175  12.038 -0.8166  0.2865 -1.0021
  607MPD2    H5 9002   3.075   4.232  12.055 -1.3653  0.0375  2.6375
  607MPD2    N1 9003   2.982   4.437  11.648 -0.0839 -0.3562  0.5816
  607MPD2    H7 9004   3.066   4.475  11.690 -1.2458  0.6885  1.9646
  608TMC3    C1 9005   3.091   4.520  11.464  0.8705 -0.3464 -0.2475
  608TMC3    C2 9006   3.203   4.516  11.537 -0.3585  0.7075  0.2949
  608TMC3    C3 9007   3.310   4.590  11.491 -0.2064  0.6526 -0.0892
  608TMC3    C4 9008   3.081   4.580  11.342 -0.2886 -0.0569 -0.1050
  608TMC3    C5 9009   3.186   4.656  11.298 -0.4708 -0.0116 -0.2804
  608TMC3    C6 9010   3.304   4.654  11.365 -0.1453  0.7083  0.2997
  608TMC3     C 9011   2.970   4.452  11.510  0.0084 -0.3431  0.3088
  608TMC3     O 9012   2.881   4.415  11.433  0.1571  0.1799 -0.1097
  608TMC3     H 9013   3.216   4.468  11.634 -1.5597 -1.5721 -0.6925
  608TMC3    H1 9014   2.990   4.574  11.283 -0.4351  0.5027  0.0742
  608TMC3    H2 9015   3.384   0.002  11.336  0.0235  0.5797  0.4596
  608TMC3    C7 9016   3.202   4.686  11.156 -0.0830  0.9499  0.0571
  608TMC3    C8 9017   3.440   4.558  11.551  0.4795 -0.0795 -0.3935
  608TMC3    O1 9018   3.279   0.058  11.125  0.2398  0.0978 -0.1746
  608TMC3    O2 9019   3.534   4.517  11.477 -0.1057 -0.2307  0.1475
  609TMC3    C1 9020   1.488   3.354   9.195 -0.0667  0.3528  0.1340
  609TMC3    C2 9021   1.557   3.447   9.123  0.0332  0.1023 -0.0321
  609TMC3    C3 9022   1.690   3.418   9.097 -0.7542  0.2952  0.4860
  609TMC3    C4 9023   1.549   3.238   9.239  0.2045  0.9524 -0.0259
  609TMC3    C5 9024   1.673   3.213   9.208  0.3834 -0.1194 -0.0484
  609TMC3    C6 9025   1.752   3.302   9.143  1.0238 -0.3145 -0.5248
  609TMC3     C 9026   1.346   3.359   9.204 -0.1272 -0.7373  0.6352
  609TMC3     O 9027   1.290   3.265   9.256  0.5462 -0.5061 -0.0085
  609TMC3     H 9028   1.512   3.536   9.080 -1.2444  0.6448  2.4738
  609TMC3    H1 9029   1.481   3.163   9.278  0.9490  0.8486  1.0598
  609TMC3    H2 9030   1.860   3.301   9.152  0.8698 -2.8592  1.0254
  609TMC3    C7 9031   1.735   3.095   9.261 -0.1183 -0.0415  0.1136
  609TMC3    C8 9032   1.781   3.521   9.042  0.2503  0.2773 -0.3028
  609TMC3    O1 9033   1.698   3.038   9.364 -0.3713 -0.1568  0.0857
  609TMC3    O2 9034   1.886   3.471   9.011  0.3564  0.5947  0.2669
  610TMC3    C1 9035   3.891   3.696  11.757 -0.2008 -0.9296  0.1920
  610TMC3    C2 9036   3.838   3.590  11.689 -0.4374 -0.0091 -0.6749
  610TMC3    C3 9037   3.743   3.519  11.766  0.4604 -1.0605 -0.1843
  610TMC3    C4 9038   3.857   3.730  11.887 -0.7998 -1.1905 -0.1882
  610TMC3    C5 9039   3.751   3.664  11.953  0.0209  0.0194  0.6764
  610TMC3    C6 9040   3.705   3.554  11.893  0.1817 -0.0562  0.1493
  610TMC3     C 9041   3.991   3.776  11.696 -0.7267 -0.0094  0.6003
  610TMC3     O 9042   4.071   3.831  11.769  0.6926  0.1855 -0.0551
  610TMC3     H 9043   3.890   3.551  11.602  0.9777  0.8373 -0.1971
  610TMC3    H1 9044   3.896   3.821  11.930  1.1509 -0.6401 -3.1105
  610TMC3    H2 9045   3.631   3.490  11.940 -0.7276  0.2812 -0.8058
  610TMC3    C7 9046   3.698   3.707  12.075 -0.4953  0.7362 -0.4341
  610TMC3    C8 9047   3.684   3.395  11.707 -0.5662  0.0787 -0.0595
  610TMC3    O1 9048   3.648   3.618  12.144  0.4741  0.2432 -0.3984
  610TMC3    O2 9049   3.618   3.323  11.786 -0.1535  0.0016 -0.2173
  611MPD2     C 9050   2.624   3.953  10.127  0.3334 -0.6839  0.3159
  611MPD2    C1 9051   2.549   4.035  10.050 -0.1403  0.0323 -0.0432
  611MPD2    C2 9052   2.596   4.094   9.933 -0.1217  0.2633 -0.2798
  611MPD2    C3 9053   2.722   4.063   9.889 -0.6707  0.2630  0.0358
  611MPD2    C4 9054   2.803   3.987   9.966 -0.3041  0.6922  0.9563
  611MPD2    C5 9055   2.756   3.936  10.088 -0.2012 -0.1603 -0.1010
  611MPD2     H 9056   2.538   4.148   9.858  0.2516 -0.1925 -0.8926
  611MPD2    H1 9057   2.906   3.964   9.939 -1.0719  0.7726 -1.9930
  611MPD2    H2 9058   2.577   3.904  10.211  1.0809 -1.2133  0.4153
  611MPD2    H3 9059   2.817   3.872  10.149  2.5940 -0.0955 -2.8204
  611MPD2     N 9060   2.778   4.126   9.776  0.8525  0.4583  0.1446
  611MPD2    H5 9061   2.878   4.129   9.764  1.0779  0.8305  2.1259
  611MPD2    N1 9062   2.409   4.033  10.088 -0.4860 -0.0209  0.7362
  611MPD2    H7 9063   2.376   3.969  10.159 -1.5392 -0.5667 -0.2481
  612TMC3    C1 9064   2.785   4.292   9.607 -0.3475  0.0340  0.6071
  612TMC3    C2 9065   2.880   4.355   9.685 -0.4516 -0.8996 -0.6128
  612TMC3    C3 9066   2.933   4.471   9.636 -0.5588 -0.2578 -0.3809
  612TMC3    C4 9067   2.728   4.360   9.497 -0.3605 -0.0318 -1.0346
  612TMC3    C5 9068   2.782   4.481   9.464  0.8620  0.2306 -0.0325
  612TMC3    C6 9069   2.901   4.526   9.517  0.0862  0.1648  0.0863
  612TMC3     C 9070   2.714   4.191   9.675 -0.0037 -0.3493  0.9300
  612TMC3     O 9071   2.605   4.163   9.628  0.2555  0.1313  0.1395
  612TMC3     H 9072   2.900   4.325   9.787  1.4554  0.1888 -0.6701
  612TMC3    H1 9073   2.639   4.320   9.448 -1.7449  0.1200  1.3676
  612TMC3    H2 9074   2.948   4.617   9.482 -0.5242  0.2591 -0.4915
  612TMC3    C7 9075   2.692   4.568   9.384  0.3794  0.2948 -0.5865
  612TMC3    C8 9076   2.992   4.562   9.731  0.3341 -0.1754  0.7201
  612TMC3    O1 9077   2.610   4.515   9.305 -0.0234  0.8378 -0.5410
  612TMC3    O2 9078   2.961   4.681   9.720  0.4383 -0.7027 -0.3593
  613MPD2     C 9079   1.743   2.571  15.113  0.3744 -0.4487  0.0356
  613MPD2    C1 9080   1.825   2.462  15.145  0.9412  0.3925 -0.3899
  613MPD2    C2 9081   1.834   2.426  15.274  0.2999  0.1523  0.0891
  613MPD2    C3 9082   1.758   2.486  15.377  0.1640 -0.2131 -0.7747
  613MPD2    C4 9083   1.671   2.588  15.337  0.5728 -0.0718 -0.0111
  613MPD2    C5 9084   1.670   2.632  15.212  0.1841 -0.5937  0.5609
  613MPD2     H 9085   1.917   2.361  15.301  1.0845  1.1835  0.1226
  613MPD2    H1 9086   1.594   2.632  15.399 -1.8518  0.2994 -3.3052
  613MPD2    H2 9087   1.717   2.605  15.014 -0.4745  1.2647  0.8357
  613MPD2    H3 9088   1.608   2.719  15.196  1.2389 -0.1875 -1.3753
  613MPD2     N 9089   1.768   2.443  15.511 -0.4157  0.0669  0.1919
  613MPD2    H5 9090   1.729   2.502  15.583 -1.3980  1.2328 -1.2912
  613MPD2    N1 9091   1.895   2.401  15.045  0.3022  0.1841 -0.0787
  613MPD2    H7 9092   1.902   2.451  14.957  2.3959  2.6420  1.4872
  614TMC3    C1 9093   2.017   2.218  14.943 -0.3046 -0.0553  0.2289
  614TMC3    C2 9094   2.104   2.120  14.980 -0.0881  0.9003  0.2589
  614TMC3    C3 9095   2.108   1.996  14.925 -0.1939 -0.7897  0.0720
  614TMC3    C4 9096   1.935   2.196  14.834  0.0390 -0.6429  0.6296
  614TMC3    C5 9097   1.947   2.075  14.770  0.0876 -0.1673 -0.3116
  614TMC3    C6 9098   2.018   1.973  14.824 -0.4115 -0.3624 -0.1270
  614TMC3     C 9099   1.956   2.277  15.060  0.3444  0.1309 -0.4631
  614TMC3     O 9100   1.934   2.191  15.139  0.1141 -0.2184 -0.1316
  614TMC3     H 9101   2.164   2.133  15.069 -1.2361 -1.3956  1.3720
  614TMC3    H1 9102   1.870   2.279  14.808  0.6000 -0.1992  0.6440
  614TMC3    H2 9103   2.025   1.880  14.767  0.4424 -1.3854  1.6293
  614TMC3    C7 9104   1.866   2.066  14.651  0.3050 -0.3521  0.6038
  614TMC3    C8 9105   2.107   1.891  15.029 -0.1963 -0.5691  0.0205
  614TMC3    O1 9106   1.854   2.172  14.593 -0.4949  0.6708  0.2909
  614TMC3    O2 9107   2.104   1.773  14.995  0.2902 -0.2816  0.2038
  615MPD2     C 9108   0.846   3.317  16.260 -0.8769 -0.2620 -0.1705
  615MPD2    C1 9109   0.761   3.387  16.178 -0.3564 -0.0662 -1.3048
  615MPD2    C2 9110   0.681   3.314  16.084  0.5961  0.1730  0.6759
  615MPD2    C3 9111   0.685   3.175  16.081 -0.7724  0.5417 -0.5100
  615MPD2    C4 9112   0.774   3.110  16.170  0.0519  0.7660  0.2912
  615MPD2    C5 9113   0.858   3.181  16.252  0.5347  0.5671 -0.0123
  615MPD2     H 9114   0.614   3.371  16.021 -0.2097  0.9073  2.1741
  615MPD2    H1 9115   0.788   3.003  16.177  2.1521  0.8183 -2.9323
  615MPD2    H2 9116   0.906   3.374  16.330  1.7556 -2.4013 -0.6595
  615MPD2    H3 9117   0.918   3.130  16.326  0.4629 -1.1919 -1.1508
  615MPD2     N 9118   0.608   3.108  15.988  0.1383  0.1132  0.5664
  615MPD2    H5 9119   0.561   3.166  15.919  1.8350 -1.1891 -1.6855
  615MPD2    N1 9120   0.758   3.532  16.190 -0.1595 -0.3444  0.0866
  615MPD2    H7 9121   0.703   3.583  16.122 -0.0622  0.5592  0.6889
  616TMC3    C1 9122   0.822   3.752  16.250  0.6368 -0.1642 -0.4605
  616TMC3    C2 9123   0.937   3.825  16.237  0.1982  0.5135  0.4921
  616TMC3    C3 9124   0.917   3.962  16.220 -0.3756  0.5020 -0.0310
  616TMC3    C4 9125   0.693   3.801  16.237  0.2235 -0.5374  0.6636
  616TMC3    C5 9126   0.688   3.930  16.205  0.1257  0.7508 -0.1182
  616TMC3    C6 9127   0.794   4.019  16.204  0.0780  0.4976 -0.0205
  616TMC3     C 9128   0.840   3.615  16.276  0.4863 -0.2914 -0.0224
  616TMC3     O 9129   0.937   3.589  16.344 -0.5810  0.4108  0.1916
  616TMC3     H 9130   1.028   3.768  16.222 -0.9156 -0.8114 -1.2462
  616TMC3    H1 9131   0.604   3.743  16.258  0.6921 -2.5466 -2.8990
  616TMC3    H2 9132   0.775   4.123  16.180 -2.9856 -0.1137 -0.1807
  616TMC3    C7 9133   0.558   3.990  16.171  0.1196  0.1285 -0.3504
  616TMC3    C8 9134   1.022   4.057  16.227 -0.2280  0.0109 -0.2694
  616TMC3    O1 9135   0.562   4.100  16.116  0.4884  0.4595 -0.6080
  616TMC3    O2 9136   0.991   4.167  16.181  0.1687 -0.5635  0.1194
  617MPD2     C 9137   3.685   1.792  13.702  0.1613  0.3726  0.2193
  617MPD2    C1 9138   3.779   1.713  13.759  0.2639  0.2374 -0.2419
  617MPD2    C2 9139   3.745   1.610  13.851 -0.1450 -0.6684 -0.0466
  617MPD2    C3 9140   3.604   1.571  13.849 -0.3417  0.0675  0.4321
  617MPD2    C4 9141   3.511   1.651  13.781  0.4422 -1.3581  0.4033
  617MPD2    C5 9142   3.553   1.754  13.707 -0.7016 -0.5492  0.8028
  617MPD2     H 9143   3.819   1.557  13.909  2.0119  1.4354 -0.8774
  617MPD2    H1 9144   3.407   1.627  13.802  0.3119  0.0824  1.3604
  617MPD2    H2 9145   3.710   1.870  13.630  2.3091  0.2133  0.7857
  617MPD2    H3 9146   3.485   1.823  13.658  1.4461  0.2186 -1.0705
  617MPD2     N 9147   3.562   1.457  13.928  0.2379  0.1201  0.5697
  617MPD2    H5 9148   3.465   1.429  13.912 -0.2734  1.1999  1.6941
  617MPD2    N1 9149   3.913   1.744  13.721  0.6676 -0.2068 -0.1143
  617MPD2    H7 9150   3.931   1.826  13.664 -1.0951  0.4307  0.2231
  618TMC3    C1 9151   4.150   1.730  13.706  0.0297 -0.0154 -0.3435
  618TMC3    C2 9152   4.263   1.678  13.766 -0.4839  0.6412 -0.6399
  618TMC3    C3 9153   4.377   1.654  13.690  0.0715 -0.0657 -0.6799
  618TMC3    C4 9154   4.138   1.744  13.569  0.4841 -0.3939  0.0753
  618TMC3    C5 9155   4.249   1.713  13.497 -0.1570 -0.6429  0.1635
  618TMC3    C6 9156   4.370   1.678  13.555 -0.2655  0.0113 -0.2810
  618TMC3     C 9157   4.031   1.686  13.770  0.2582  0.2268 -0.1350
  618TMC3     O 9158   4.039   1.585  13.844  0.0407  0.3823 -0.1213
  618TMC3     H 9159   4.260   1.643  13.869  2.8869  0.5478 -0.5561
  618TMC3    H1 9160   4.043   1.768  13.524  1.3898  1.3731 -0.9211
  618TMC3    H2 9161   4.461   1.684  13.497 -0.5029  2.6779 -0.3713
  618TMC3    C7 9162   4.233   1.619  13.392 -0.2780  0.1992  0.0859
  618TMC3    C8 9163   4.448   1.540  13.727 -0.8859 -1.2121 -0.1155
  618TMC3    O1 9164   4.313   1.529  13.386 -0.4860 -0.2638 -0.0728
  618TMC3    O2 9165   4.458   1.503  13.845  0.4610  0.0362  0.0023
  619MPD2     C 9166   0.179   2.670  13.930  0.1435 -0.1335  0.3800
  619MPD2    C1 9167   0.090   2.727  13.843 -0.7919 -0.5440  0.7064
  619MPD2    C2 9168   4.681   2.756  13.886 -0.2173 -0.6145 -0.5597
  619MPD2    C3 9169   4.638   2.731  14.015  0.0719  0.3482 -0.4323
  619MPD2    C4 9170   0.010   2.675  14.100 -0.4735 -0.6603 -0.0593
  619MPD2    C5 9171   0.141   2.648  14.059 -0.1273 -0.5836  0.3162
  619MPD2     H 9172   4.609   2.801  13.819  0.2816  2.1093  0.7275
  619MPD2    H1 9173   4.698   2.667  14.203  0.9983 -1.1784  0.3637
  619MPD2    H2 9174   0.282   2.643  13.907 -0.5085  0.2926 -2.9236
  619MPD2    H3 9175   0.211   2.609  14.132  1.1312  0.7959 -0.1522
  619MPD2     N 9176   4.509   2.771  14.061 -0.0094  0.3721 -0.2637
  619MPD2    H5 9177   4.474   2.723  14.144  2.6464  2.2372  1.9201
  619MPD2    N1 9178   0.120   2.754  13.707 -0.6142  0.2622 -0.2716
  619MPD2    H7 9179   0.042   2.793  13.655  0.9754  1.6054 -1.6358
  620TMC3    C1 9180   0.245   2.797  13.515 -0.1064  0.2629  0.2627
  620TMC3    C2 9181   0.141   2.780  13.432 -0.4838  0.0151 -0.1343
  620TMC3    C3 9182   0.123   2.863  13.324 -0.3904  0.1678 -0.0408
  620TMC3    C4 9183   0.333   2.897  13.488 -0.1301 -0.2418  0.0548
  620TMC3    C5 9184   0.315   2.978  13.377  0.0622  0.4914 -0.9181
  620TMC3    C6 9185   0.218   2.952  13.285  0.0480 -0.3124  0.7832
  620TMC3     C 9186   0.247   2.743  13.647 -0.1384  0.3701  0.2287
  620TMC3     O 9187   0.350   2.705  13.696 -0.8280  0.8353  0.1975
  620TMC3     H 9188   0.067   2.707  13.460 -2.4515  1.2264 -2.1885
  620TMC3    H1 9189   0.414   2.924  13.555  0.8162 -1.5817 -0.5386
  620TMC3    H2 9190   0.208   3.008  13.193 -1.7467 -1.1120  0.4944
  620TMC3    C7 9191   0.316   3.123  13.401  0.7653  0.0217 -0.1688
  620TMC3    C8 9192   4.707   2.923  13.314 -0.0014  0.4913  0.0319
  620TMC3    O1 9193   0.415   3.174  13.448  0.5542  0.1020 -0.0595
  620TMC3    O2 9194   4.688   3.038  13.282  0.2397 -0.3895  0.7351
  621MPD2     C 9195   1.161   2.539   9.596  0.2583 -0.7060  0.2403
  621MPD2    C1 9196   1.169   2.673   9.640  0.0307 -0.3075 -0.5832
  621MPD2    C2 9197   1.288   2.724   9.693 -0.4808 -0.5252 -0.0453
  621MPD2    C3 9198   1.390   2.637   9.711 -0.2549  0.3040 -0.5199
  621MPD2    C4 9199   1.387   2.514   9.654 -0.2983  0.6740 -0.1802
  621MPD2    C5 9200   1.273   2.462   9.600  0.3222  0.1927 -0.3360
  621MPD2     H 9201   1.287   2.825   9.732  0.1718 -0.7728  0.6009
  621MPD2    H1 9202   1.466   2.440   9.662 -0.5868  0.0612 -2.9116
  621MPD2    H2 9203   1.070   2.493   9.559 -2.1123  3.4385  0.9377
  621MPD2    H3 9204   1.278   2.363   9.556 -0.6943 -0.9230  2.0455
  621MPD2     N 9205   1.509   2.693   9.764  0.1519 -0.5411  0.2081
  621MPD2    H5 9206   1.518   2.793   9.775  3.3950 -0.8710  0.4613
  621MPD2    N1 9207   1.057   2.754   9.645  0.1194  0.4903  0.3478
  621MPD2    H7 9208   1.066   2.847   9.687 -0.1913  1.0085 -0.7378
  622TMC3    C1 9209   0.831   2.812   9.655 -0.5776  0.3447 -0.5894
  622TMC3    C2 9210   0.830   2.831   9.793  0.2763  0.2175 -0.2380
  622TMC3    C3 9211   0.713   2.888   9.849  0.2659  0.4674  0.0617
  622TMC3    C4 9212   0.721   2.841   9.575 -0.0153 -0.6740  0.2684
  622TMC3    C5 9213   0.618   2.909   9.633 -0.4469  0.9651  0.2366
  622TMC3    C6 9214   0.612   2.931   9.766  0.2106  0.6367  0.5348
  622TMC3     C 9215   0.933   2.726   9.591 -0.3644 -0.5182  0.2750
  622TMC3     O 9216   0.890   2.652   9.506 -0.1735 -0.1881  0.4063
  622TMC3     H 9217   0.914   2.806   9.856 -0.2735 -0.8375  0.0702
  622TMC3    H1 9218   0.730   2.820   9.469  0.3812 -0.3315  0.2356
  622TMC3    H2 9219   0.530   2.985   9.811 -1.2563 -2.9767  2.2198
  622TMC3    C7 9220   0.485   2.899   9.580 -0.1594  0.7082 -0.2577
  622TMC3    C8 9221   0.679   2.861   9.990  0.3144 -0.4189 -0.2413
  622TMC3    O1 9222   0.401   2.888   9.666 -0.5678 -0.5964  0.4626
  622TMC3    O2 9223   0.758   2.849  10.080  0.2327  0.1202  0.1600
  623MPD2     C 9224   4.136   3.720  15.613  0.9418 -0.4224 -0.1157
  623MPD2    C1 9225   4.051   3.747  15.715 -0.6114  0.1734 -0.2436
  623MPD2    C2 9226   4.098   3.737  15.845  0.5944  0.5640  0.6964
  623MPD2    C3 9227   4.225   3.696  15.866 -0.4491 -0.2322  0.0696
  623MPD2    C4 9228   4.310   3.664  15.765  0.1125  0.6295 -0.1045
  623MPD2    C5 9229   4.264   3.690  15.637  0.0541  0.1129  0.1608
  623MPD2     H 9230   4.036   3.756  15.932  0.3538  0.4139  0.5551
  623MPD2    H1 9231   4.416   3.640  15.775 -0.2442 -1.7218 -1.8788
  623MPD2    H2 9232   4.103   3.731  15.510  4.1610  0.0803 -1.0865
  623MPD2    H3 9233   4.336   3.668  15.559  1.2122  0.9777  0.9881
  623MPD2     N 9234   4.266   3.681  15.999 -0.2543  0.5011 -0.1970
  623MPD2    H5 9235   4.192   3.698  16.067  0.9003 -0.2579  1.2267
  623MPD2    N1 9236   3.921   3.792  15.697 -0.9548 -0.2525 -0.4223
  623MPD2    H7 9237   3.868   3.812  15.782 -1.1723 -1.4227 -0.2812
  624TMC3    C1 9238   4.545   3.547  16.354  0.2136  0.3054 -0.8435
  624TMC3    C2 9239   4.444   3.485  16.420  0.0454 -0.3167 -0.2828
  624TMC3    C3 9240   4.314   3.502  16.367  0.5170 -0.3514 -0.2302
  624TMC3    C4 9241   4.526   3.622  16.244  0.0533  0.0566 -0.1073
  624TMC3    C5 9242   4.400   3.627  16.191  0.5269 -0.2275 -0.3323
  624TMC3    C6 9243   4.295   3.563  16.249 -0.4611 -0.2973  0.1105
  624TMC3     C 9244   4.678   3.518  16.406  0.1228  0.0003  0.3485
  624TMC3     O 9245   4.694   3.477  16.520  0.8361 -0.5349 -0.0051
  624TMC3     H 9246   4.468   3.419  16.504 -1.1767 -1.1646 -0.6006
  624TMC3    H1 9247   4.608   3.678  16.201 -1.0464  1.1496 -0.7901
  624TMC3    H2 9248   4.197   3.565  16.203 -0.6343  2.6458  0.6275
  624TMC3    C7 9249   4.393   3.662  16.043 -0.1290  0.3850 -0.3739
  624TMC3    C8 9250   4.209   3.415  16.426 -0.2536  0.4779  0.4875
  624TMC3    O1 9251   4.500   3.648  15.984  0.0484  0.2201 -0.7349
  624TMC3    O2 9252   4.129   3.379  16.341  1.1596 -0.0165 -0.1925
  625MPD2     C 9253   4.080   3.802   0.368  0.4221 -0.3482 -0.3591
  625MPD2    C1 9254   4.187   3.881   0.395  0.1040  0.6678 -0.6641
  625MPD2    C2 9255   4.282   3.828   0.484  0.1312 -0.3377  0.1137
  625MPD2    C3 9256   4.267   3.711   0.553  0.2457 -0.3251 -0.0867
  625MPD2    C4 9257   4.155   3.642   0.527 -0.6011  0.3134 -0.2365
  625MPD2    C5 9258   4.062   3.681   0.434 -0.0290  0.0415 -0.3660
  625MPD2     H 9259   4.368   3.889   0.510  0.3822  1.1077 -4.1011
  625MPD2    H1 9260   4.136   3.553   0.584 -0.7601  0.2418 -0.4019
  625MPD2    H2 9261   4.008   3.829   0.292  0.4854 -0.5002 -0.4730
  625MPD2    H3 9262   3.979   3.613   0.419  0.4750 -0.7867  0.6221
  625MPD2     N 9263   4.361   3.688   0.655 -0.1952  0.2070 -0.6828
  625MPD2    H5 9264   4.440   3.751   0.666 -1.2036  1.4725 -0.6359
  625MPD2    N1 9265   4.202   4.015   0.351  0.1213  0.4556  0.3750
  625MPD2    H7 9266   4.270   4.078   0.394  0.0360  0.2307  0.8402
  626TMC3    C1 9267   4.150   4.208   0.251 -0.3562 -0.1474  0.0383
  626TMC3    C2 9268   4.109   4.272   0.138  0.0943 -0.3039  0.1863
  626TMC3    C3 9269   4.155   4.399   0.122  0.7384 -0.2860  0.4315
  626TMC3    C4 9270   4.216   4.276   0.355 -0.3008  0.3034 -1.0626
  626TMC3    C5 9271   4.252   4.408   0.334  0.1383 -0.1716 -0.3380
  626TMC3    C6 9272   4.226   4.465   0.209 -0.0603 -0.7751  0.1115
  626TMC3     C 9273   4.109   4.077   0.271 -0.0210 -0.1043 -0.2568
  626TMC3     O 9274   3.999   4.047   0.220 -0.0334 -0.7202  0.2538
  626TMC3     H 9275   4.028   4.239   0.073  1.4437 -0.7735 -1.2491
  626TMC3    H1 9276   4.250   4.230   0.447 -0.8954  2.7101  0.3687
  626TMC3    H2 9277   4.253   4.567   0.184  0.1646 -1.4261 -2.2924
  626TMC3    C7 9278   4.366   4.450   0.411  0.0673 -1.6538  0.4190
  626TMC3    C8 9279   4.089   4.478   0.018 -0.1306 -0.4991 -0.2245
  626TMC3    O1 9280   4.458   4.505   0.350 -0.2072 -0.4093 -0.3212
  626TMC3    O2 9281   4.071   4.421  17.592  0.4666 -0.1390 -0.9716
  627MPD2     C 9282   3.532   0.287  14.409 -0.2757 -0.2736 -0.1897
  627MPD2    C1 9283   3.563   0.226  14.531  0.6818 -0.1248 -0.6171
  627MPD2    C2 9284   3.477   0.124  14.575  0.2330 -0.8030 -0.1393
  627MPD2    C3 9285   3.368   0.076  14.501 -0.2944 -0.1454 -0.9486
  627MPD2    C4 9286   3.338   0.137  14.384  0.2364  0.0798  0.8838
  627MPD2    C5 9287   3.422   0.241  14.340 -0.0186 -0.1261  0.4092
  627MPD2     H 9288   3.496   0.074  14.669  1.5377  0.5653  0.3329
  627MPD2    H1 9289   3.259   0.111  14.314 -0.1711  1.9322  0.6618
  627MPD2    H2 9290   3.575   0.378  14.369 -1.4423  0.0777 -0.6381
  627MPD2    H3 9291   3.403   0.282  14.242  1.1992 -3.4613 -1.2175
  627MPD2     N 9292   3.292   4.688  14.549 -1.0058 -0.1855  0.4978
  627MPD2    H5 9293   3.331   4.652  14.636  2.2736  0.1278 -0.8264
  627MPD2    N1 9294   3.670   0.269  14.611 -0.0572  0.0096 -0.0129
  627MPD2    H7 9295   3.691   0.224  14.699  1.8361 -1.0041 -0.9551
  628TMC3    C1 9296   3.840   0.401  14.689  0.1010 -0.3953  0.4905
  628TMC3    C2 9297   3.966   0.355  14.711  0.1450  0.6897  0.6814
  628TMC3    C3 9298   4.060   0.423  14.773 -0.3672 -0.5077  0.1942
  628TMC3    C4 9299   3.808   0.527  14.731 -0.3637 -0.1681  0.1080
  628TMC3    C5 9300   3.903   0.595  14.802 -0.1085 -0.8528  0.5241
  628TMC3    C6 9301   4.028   0.549  14.831  0.4385  0.5534  0.0856
  628TMC3     C 9302   3.762   0.368  14.574  0.3943 -0.0017  0.4328
  628TMC3     O 9303   3.752   0.463  14.498 -0.7500 -0.4998  0.6881
  628TMC3     H 9304   3.989   0.262  14.660  1.2749  1.9734 -1.1539
  628TMC3    H1 9305   3.711   0.572  14.715 -0.3105 -0.2638 -0.4808
  628TMC3    H2 9306   4.095   0.628  14.863 -0.0119  0.7100  0.6335
  628TMC3    C7 9307   3.882   0.736  14.826  0.3387 -0.3270 -0.4838
  628TMC3    C8 9308   4.188   0.363  14.802  0.8126  0.1147  0.2207
  628TMC3    O1 9309   3.942   0.800  14.913  0.1288 -0.2068 -0.1416
  628TMC3    O2 9310   4.199   0.256  14.749 -0.0428 -0.0831  0.0223
  629MPD2     C 9311   1.524   4.148  16.278  0.1083  0.8616  0.9614
  629MPD2    C1 9312   1.504   4.018  16.325  0.1406 -0.6381 -0.3577
  629MPD2    C2 9313   1.368   3.971  16.320 -0.3340 -0.6119  0.3141
  629MPD2    C3 9314   1.263   4.056  16.276 -0.4501  0.1454  0.1004
  629MPD2    C4 9315   1.287   4.184  16.238 -0.6192 -0.1380 -0.1186
  629MPD2    C5 9316   1.416   4.225  16.233 -0.3085 -0.0374  0.4296
  629MPD2     H 9317   1.344   3.869  16.349 -1.4005 -1.2658 -2.8962
  629MPD2    H1 9318   1.209   4.244  16.192 -0.9873 -0.5732 -0.0591
  629MPD2    H2 9319   1.627   4.180  16.262 -0.0147  1.5142  1.4688
  629MPD2    H3 9320   1.439   4.325  16.198 -1.9934  0.4964  0.8742
  629MPD2     N 9321   1.132   4.004  16.285 -0.4308  0.6533 -0.1496
  629MPD2    H5 9322   1.122   3.908  16.315  1.3589  0.3125 -0.6165
  629MPD2    N1 9323   1.617   3.953  16.383 -0.0510  0.4134 -0.6083
  629MPD2    H7 9324   1.710   3.990  16.367 -0.2432  0.5158 -1.4834
  630TMC3    C1 9325   1.748   3.788  16.474  0.8769  0.4421  0.3787
  630TMC3    C2 9326   1.851   3.841  16.403 -0.3718  1.1542  1.6299
  630TMC3    C3 9327   1.974   3.795  16.427  0.8385  0.8024  1.0137
  630TMC3    C4 9328   1.770   3.697  16.573  0.4025 -0.9079 -0.7460
  630TMC3    C5 9329   1.894   3.643  16.582 -0.0321 -0.4240  0.1358
  630TMC3    C6 9330   2.001   3.689  16.511 -0.5241 -0.0551 -0.0230
  630TMC3     C 9331   1.611   3.834  16.447 -0.6960 -0.9908 -0.1131
  630TMC3     O 9332   1.515   3.784  16.506 -0.0085 -0.2204 -0.3617
  630TMC3     H 9333   1.833   3.924  16.336  0.0155 -0.4429 -0.4563
  630TMC3    H1 9334   1.690   3.638  16.617 -0.2832  1.0238  0.5815
  630TMC3    H2 9335   2.103   3.658  16.529 -0.7970 -1.5332 -1.0151
  630TMC3    C7 9336   1.911   3.518  16.660  0.3621  0.0054  0.1892
  630TMC3    C8 9337   2.091   3.855  16.366 -0.2309 -0.7865 -0.4802
  630TMC3    O1 9338   1.808   3.463  16.696 -0.0010 -0.2475  0.0812
  630TMC3    O2 9339   2.200   3.840  16.421  0.0834 -0.2098  0.1351
  631MPD2     C 9340   4.658   3.446  15.523 -0.3591 -0.6951  0.1231
  631MPD2    C1 9341   0.059   3.452  15.463 -0.5386  0.5188 -0.4016
  631MPD2    C2 9342   0.158   3.356  15.478 -0.1658 -0.4449 -0.4969
  631MPD2    C3 9343   0.131   3.250  15.563  1.0013 -0.1482 -0.3564
  631MPD2    C4 9344   0.003   3.236  15.612 -0.5708 -0.3145 -0.4242
  631MPD2    C5 9345   4.627   3.329  15.582  0.0033 -1.0516 -0.0564
  631MPD2     H 9346   0.253   3.377  15.429  0.3619 -0.4453  0.5370
  631MPD2    H1 9347   4.685   3.143  15.653  0.9298  0.4902  2.7848
  631MPD2    H2 9348   4.580   3.519  15.503 -0.3141 -1.0770 -1.4181
  631MPD2    H3 9349   4.530   3.317  15.629  0.5406 -0.1669  1.2892
  631MPD2     N 9350   0.233   3.159  15.581  0.8788 -0.2668 -0.9922
  631MPD2    H5 9351   0.323   3.178  15.539  1.6214 -6.1039 -1.9970
  631MPD2    N1 9352   0.084   3.567  15.386  0.2064 -0.6578  0.1721
  631MPD2    H7 9353   0.017   3.642  15.397  2.2509  1.1208  0.5003
  632TMC3    C1 9354   0.192   3.714  15.226 -0.5346 -0.1327 -0.2797
  632TMC3    C2 9355   0.128   3.820  15.282 -0.0672 -1.1191  0.5758
  632TMC3    C3 9356   0.177   3.945  15.239 -0.2063  0.0211  0.1316
  632TMC3    C4 9357   0.283   3.728  15.129  0.0956  0.1799 -1.0813
  632TMC3    C5 9358   0.322   3.858  15.084 -0.7296  1.2872 -0.1200
  632TMC3    C6 9359   0.267   3.965  15.141 -0.2902  0.2470  0.4523
  632TMC3     C 9360   0.186   3.582  15.294 -0.0212 -0.0254 -0.4938
  632TMC3     O 9361   0.248   3.491  15.239  0.2958 -0.3552  0.3080
  632TMC3     H 9362   0.052   3.812  15.359  0.7029 -3.0252  1.1270
  632TMC3    H1 9363   0.327   3.636  15.094 -0.6761 -1.3404  1.8777
  632TMC3    H2 9364   0.298   4.059  15.097 -0.6057 -0.5378 -1.4751
  632TMC3    C7 9365   0.356   3.867  14.945  0.5858 -0.4486 -0.2512
  632TMC3    C8 9366   0.121   4.053  15.318  0.2450 -0.0360  0.1588
  632TMC3    O1 9367   0.287   3.942  14.876  0.3100  0.0468  0.7453
  632TMC3    O2 9368   0.025   4.027  15.388 -0.3853  0.0105  0.3952
  633MPD2     C 9369   4.107   1.803  17.577 -0.1622  0.2845 -0.2875
  633MPD2    C1 9370   4.130   1.712  17.474  0.6954 -0.3076 -0.0436
  633MPD2    C2 9371   4.117   1.574  17.493  0.1654  0.3107  1.0666
  633MPD2    C3 9372   4.074   1.530  17.621  0.0815 -0.4388 -0.4430
  633MPD2    C4 9373   4.041   1.622   0.036 -0.1818  0.5162  0.6684
  633MPD2    C5 9374   4.061   1.756   0.013  0.2656 -0.6899 -0.6289
  633MPD2     H 9375   4.141   1.500  17.417 -0.7511 -0.8312  1.8832
  633MPD2    H1 9376   4.031   1.594   0.140  1.1750 -0.3644  0.5787
  633MPD2    H2 9377   4.134   1.907  17.566 -0.7970  0.4304 -0.4690
  633MPD2    H3 9378   4.045   1.826   0.094  0.7060 -0.6494 -0.5747
  633MPD2     N 9379   4.065   1.396  17.641  0.0004  0.1489  0.1992
  633MPD2    H5 9380   4.108   1.334  17.573  1.7955  0.1584  1.3345
  633MPD2    N1 9381   4.176   1.748  17.344  0.3097  0.2249  0.4262
  633MPD2    H7 9382   4.167   1.675  17.274 -1.9199 -0.8355  1.8099
  634TMC3    C1 9383   4.252   1.861  17.153  0.5053 -0.3736  0.3549
  634TMC3    C2 9384   4.283   1.736  17.098 -0.2129 -0.3916 -0.0876
  634TMC3    C3 9385   4.292   1.723  16.963 -0.1609 -0.0097 -0.3849
  634TMC3    C4 9386   4.235   1.968  17.076 -0.0999 -0.5108 -0.7847
  634TMC3    C5 9387   4.246   1.949  16.940 -0.2244  0.1386  0.8412
  634TMC3    C6 9388   4.274   1.830  16.879 -0.2757 -0.1694  0.0308
  634TMC3     C 9389   4.212   1.873  17.295  0.1300  0.0791  0.5824
  634TMC3     O 9390   4.193   1.988  17.334  0.1375  0.0658 -0.3196
  634TMC3     H 9391   4.313   1.651  17.159 -0.7268  1.2027  2.3999
  634TMC3    H1 9392   4.212   2.062  17.125  3.1256 -0.2852  0.2837
  634TMC3    H2 9393   4.283   1.806  16.774 -0.9641  0.6325 -0.2159
  634TMC3    C7 9394   4.239   2.056  16.843  0.4676 -0.6498  1.1941
  634TMC3    C8 9395   4.335   1.597  16.912  0.3308 -0.3588 -0.3618
  634TMC3    O1 9396   4.280   2.028  16.734 -0.5981  0.1806 -0.3003
  634TMC3    O2 9397   4.269   1.502  16.955  0.2474 -0.2570  0.0295
  635TMC3    C1 9398   0.767   2.779  17.117  0.1790 -0.7068 -0.5326
  635TMC3    C2 9399   0.874   2.692  17.095  0.0475  0.6524  0.4880
  635TMC3    C3 9400   0.911   2.671  16.969 -0.2289 -0.8607 -0.6943
  635TMC3    C4 9401   0.699   2.840  17.017  0.3704  0.0354 -0.0872
  635TMC3    C5 9402   0.742   2.806  16.892 -0.2922  0.0001 -0.3656
  635TMC3    C6 9403   0.843   2.721  16.861 -0.3609 -0.3684 -0.5548
  635TMC3     C 9404   0.708   2.798  17.248 -0.7525 -0.2205 -0.0293
  635TMC3     O 9405   0.612   2.876  17.253  0.5273  0.4070  0.4149
  635TMC3     H 9406   0.931   2.649  17.177  2.0835  0.8664 -0.8152
  635TMC3    H1 9407   0.601   2.884  17.033  0.5242  0.8277 -1.3406
  635TMC3    H2 9408   0.881   2.696  16.763  0.3627  0.3849 -0.4581
  635TMC3    C7 9409   0.667   2.870  16.784  0.1163  0.1623  0.0651
  635TMC3    C8 9410   1.038   2.606  16.938  0.2748 -0.2687 -0.5523
  635TMC3    O1 9411   0.692   2.821  16.679  0.2453 -0.2890 -0.1678
  635TMC3    O2 9412   1.127   2.608  17.027 -0.2161 -0.6759  0.4675
  636MPD2     C 9413   1.016   2.251  15.861  0.7796  0.2739  0.2985
  636MPD2    C1 9414   1.074   2.315  15.757  0.0497  0.4426  0.0366
  636MPD2    C2 9415   1.215   2.313  15.735 -0.1145  0.8416  1.1859
  636MPD2    C3 9416   1.292   2.255  15.832 -0.4007 -0.2709 -0.5666
  636MPD2    C4 9417   1.233   2.193  15.943  0.5316  0.9670  0.1543
  636MPD2    C5 9418   1.097   2.193  15.958  0.2231 -0.2843  0.6629
  636MPD2     H 9419   1.257   2.372  15.654 -2.0853  0.7852  0.1382
  636MPD2    H1 9420   1.295   2.151  16.021  0.8061  0.0281 -0.5602
  636MPD2    H2 9421   0.908   2.240  15.867  0.7381  1.5294  1.9524
  636MPD2    H3 9422   1.049   2.149  16.044 -0.4517 -0.1768  0.3472
  636MPD2     N 9423   1.435   2.235  15.804  0.5050 -0.4713  0.5308
  636MPD2    H5 9424   1.456   2.277  15.714 -0.5221  0.8921  0.9352
  636MPD2    N1 9425   0.993   2.375  15.659 -0.0891 -0.0323 -0.0116
  636MPD2    H7 9426   1.040   2.391  15.570 -0.4193  0.6021 -0.0754
  637TMC3    C1 9427   1.668   2.193  15.812  1.0620  0.7232  0.0349
  637TMC3    C2 9428   1.703   2.307  15.746 -0.4720 -0.0429 -0.3184
  637TMC3    C3 9429   1.832   2.310  15.694 -0.2919 -0.6927 -0.2779
  637TMC3    C4 9430   1.754   2.094  15.841  0.4152 -0.2628 -0.3816
  637TMC3    C5 9431   1.881   2.096  15.797  0.0131  0.1237 -0.6694
  637TMC3    C6 9432   1.919   2.210  15.733 -0.2978 -0.4157 -0.1344
  637TMC3     C 9433   1.538   2.188  15.880 -0.0678  0.8134  0.4873
  637TMC3     O 9434   1.534   2.122  15.986  0.1607 -0.8728  0.2805
  637TMC3     H 9435   1.628   2.382  15.725  0.9038  1.2482 -0.5854
  637TMC3    H1 9436   1.707   2.004  15.879 -0.6696 -0.2893 -1.7536
  637TMC3    H2 9437   2.026   2.221  15.715 -0.0867 -0.0024  1.3577
  637TMC3    C7 9438   1.930   1.970  15.739 -0.5419  0.3196  0.1936
  637TMC3    C8 9439   1.860   2.348  15.559 -0.0676 -0.4421 -0.6516
  637TMC3    O1 9440   1.896   1.868  15.795 -0.3429  1.0626 -0.5404
  637TMC3    O2 9441   1.933   2.268  15.501  0.2012  0.6522 -0.4235
  638MPD2     C 9442   1.038   0.862  14.648 -0.6887 -0.6744  1.0014
  638MPD2    C1 9443   1.063   0.728  14.611 -0.7317 -0.1983 -0.1996
  638MPD2    C2 9444   1.042   0.622  14.694  0.1280 -0.2525 -0.2707
  638MPD2    C3 9445   0.968   0.645  14.810 -0.2062 -0.5959  0.0356
  638MPD2    C4 9446   0.943   0.778  14.847 -0.0073  0.8147 -0.2253
  638MPD2    C5 9447   0.974   0.884  14.768  1.1659 -0.3942 -0.5540
  638MPD2     H 9448   1.089   0.525  14.683  2.3570  0.5766  1.9013
  638MPD2    H1 9449   0.911   0.806  14.946  0.1805  1.5896 -0.3794
  638MPD2    H2 9450   1.067   0.945  14.584 -1.4579 -0.7051  0.6092
  638MPD2    H3 9451   0.960   0.984  14.807 -1.1348 -1.7873  2.1860
  638MPD2     N 9452   0.946   0.537  14.897 -0.2933 -0.0433  0.4615
  638MPD2    H5 9453   0.992   0.448  14.880 -0.9983 -0.5266  1.0845
  638MPD2    N1 9454   1.135   0.718  14.490 -0.3256 -0.0892 -0.0912
  638MPD2    H7 9455   1.154   0.799  14.432  2.3075 -0.5675  0.0799
  639TMC3    C1 9456   0.839   0.410  15.064 -0.8900  0.2751 -0.5582
  639TMC3    C2 9457   0.714   0.370  15.074  0.0546  0.2305  0.2186
  639TMC3    C3 9458   0.682   0.234  15.049  0.4796  0.1960  0.6364
  639TMC3    C4 9459   0.945   0.326  15.047  0.6600 -0.4788  0.1614
  639TMC3    C5 9460   0.914   0.198  15.028 -0.2514 -0.2414 -1.0457
  639TMC3    C6 9461   0.782   0.153  15.022 -0.1025 -0.3848  0.2353
  639TMC3     C 9462   0.853   0.543  14.998 -0.6234  0.3711 -0.3405
  639TMC3     O 9463   0.763   0.625  15.015 -0.2519  0.2412 -0.0897
  639TMC3     H 9464   0.630   0.437  15.085 -0.5408 -0.5458  0.4331
  639TMC3    H1 9465   1.042   0.373  15.055  0.2612  0.6400 -1.5890
  639TMC3    H2 9466   0.765   0.048  15.000 -0.0592  0.1141 -2.1452
  639TMC3    C7 9467   1.023   0.104  15.039  0.6666  0.2294  0.1949
  639TMC3    C8 9468   0.550   0.218  14.988  0.6187  0.6849 -0.8361
  639TMC3    O1 9469   1.001   4.705  15.045  0.2800  0.1201  0.1651
  639TMC3    O2 9470   0.465   0.299  15.023  0.0436 -0.2061 -0.1871
  640MPD2     C 9471   1.805   3.793  10.061 -0.4945 -0.1613  0.2153
  640MPD2    C1 9472   1.849   3.838   9.940 -0.3556 -0.3579  0.1007
  640MPD2    C2 9473   1.802   3.962   9.905 -0.2600  0.2647 -0.2846
  640MPD2    C3 9474   1.710   4.031   9.979  0.1080  0.0588  0.1352
  640MPD2    C4 9475   1.677   3.986  10.104  0.1393 -0.1619 -0.0580
  640MPD2    C5 9476   1.733   3.869  10.149  0.1920  0.0561 -0.6759
  640MPD2     H 9477   1.822   4.005   9.807 -2.1030 -2.1341 -1.7038
  640MPD2    H1 9478   1.610   4.041  10.168 -3.3407 -0.4560 -3.4719
  640MPD2    H2 9479   1.835   3.695  10.096  1.1235  0.7906  1.4996
  640MPD2    H3 9480   1.712   3.830  10.248 -1.0045  0.4758 -0.7638
  640MPD2     N 9481   1.649   4.150   9.939  0.1665  0.2030  0.6063
  640MPD2    H5 9482   1.589   4.191  10.010 -0.9678  0.4325 -0.4936
  640MPD2    N1 9483   1.938   3.755   9.864 -0.2590 -0.5929 -0.0912
  640MPD2    H7 9484   1.971   3.670   9.909 -0.6149 -0.5418  0.2704
  641TMC3    C1 9485   2.076   3.693   9.686  0.4159 -0.1886  0.3801
  641TMC3    C2 9486   2.089   3.576   9.747 -0.1432  0.8263 -0.0125
  641TMC3    C3 9487   2.183   3.490   9.704  0.3631 -0.3175  0.0779
  641TMC3    C4 9488   2.156   3.733   9.580  0.6199  0.0813  0.4861
  641TMC3    C5 9489   2.252   3.639   9.534  0.5176 -0.0008 -0.5104
  641TMC3    C6 9490   2.267   3.525   9.599 -0.2591  0.0654 -0.6723
  641TMC3     C 9491   1.974   3.784   9.738  0.2294  0.1903  0.2045
  641TMC3     O 9492   1.940   3.873   9.661 -0.3848 -0.0231  0.7668
  641TMC3     H 9493   2.011   3.537   9.811 -1.1044  1.6741 -0.6629
  641TMC3    H1 9494   2.150   3.834   9.542 -1.7144  0.3810  1.6463
  641TMC3    H2 9495   2.351   3.458   9.582  1.1271  1.8421 -0.9307
  641TMC3    C7 9496   2.357   3.677   9.442 -0.2865  0.0145  0.1958
  641TMC3    C8 9497   2.192   3.359   9.762 -0.4048 -0.8358 -0.2188
  641TMC3    O1 9498   2.448   3.598   9.427 -0.9260  0.0809  0.0686
  641TMC3    O2 9499   2.227   3.278   9.678 -0.1652  0.5189  0.1604
  642TMC3    C1 9500   2.777   0.769  12.118  0.0450 -0.3745  0.2072
  642TMC3    C2 9501   2.893   0.802  12.179 -0.0661  0.5870  0.5442
  642TMC3    C3 9502   2.967   0.699  12.237 -0.4811  0.6325 -0.3493
  642TMC3    C4 9503   2.731   0.645  12.113 -0.6336  0.6442 -0.1956
  642TMC3    C5 9504   2.809   0.544  12.159 -0.1465  0.1663 -0.3455
  642TMC3    C6 9505   2.928   0.570  12.217  0.2804 -0.1056 -0.2831
  642TMC3     C 9506   2.699   0.888  12.089 -0.3381  0.5230 -0.6027
  642TMC3     O 9507   2.763   0.984  12.056  0.0851 -0.1349 -0.0948
  642TMC3     H 9508   2.918   0.907  12.191  0.5098  0.7028 -1.7229
  642TMC3    H1 9509   2.636   0.631  12.062 -0.5105  0.2145 -0.3089
  642TMC3    H2 9510   2.993   0.495  12.260  0.4582  0.9731  1.3531
  642TMC3    C7 9511   2.776   0.410  12.116 -0.0840 -0.1494  0.4367
  642TMC3    C8 9512   3.089   0.728  12.318  0.2162  0.5582 -0.1979
  642TMC3    O1 9513   2.668   0.392  12.055 -0.3475  0.1973 -0.5016
  642TMC3    O2 9514   3.179   0.647  12.342 -0.6419  0.3171 -0.6034
  643TMC3    C1 9515   1.341   3.803   0.726  0.1778 -0.2379 -0.1618
  643TMC3    C2 9516   1.210   3.762   0.740 -0.8102 -0.0238  0.3216
  643TMC3    C3 9517   1.138   3.727   0.635  0.1491  0.7800  0.0294
  643TMC3    C4 9518   1.406   3.768   0.611  0.3086 -0.8017  0.1252
  643TMC3    C5 9519   1.332   3.720   0.508 -0.1074  0.3088  0.6881
  643TMC3    C6 9520   1.197   3.720   0.515 -0.3191  0.6976 -0.2736
  643TMC3     C 9521   1.393   3.879   0.838  0.1356  0.6708 -0.1373
  643TMC3     O 9522   1.313   3.934   0.910  0.4095 -0.9291 -0.1352
  643TMC3     H 9523   1.152   3.789   0.828  0.0972  1.7528  0.3799
  643TMC3    H1 9524   1.499   3.819   0.588  0.8139 -2.8966 -2.3887
  643TMC3    H2 9525   1.142   3.686   0.427 -1.6047 -0.1317  0.8336
  643TMC3    C7 9526   1.384   3.748   0.377 -0.3403 -0.1256 -0.8398
  643TMC3    C8 9527   1.021   3.815   0.611  0.0109 -0.2491 -0.8612
  643TMC3    O1 9528   1.315   3.820   0.308  0.1588  0.2331  0.4578
  643TMC3    O2 9529   0.940   3.807   0.701  0.0832 -0.7126 -0.3297
  644MPD2     C 9530   2.273   4.261   9.447 -1.1195 -0.8249  0.3394
  644MPD2    C1 9531   2.235   4.166   9.541  0.0785  0.0614 -0.2252
  644MPD2    C2 9532   2.102   4.123   9.548  0.1335  0.2044 -0.2518
  644MPD2    C3 9533   2.014   4.172   9.458  0.1190  0.2046 -0.4288
  644MPD2    C4 9534   2.051   4.263   9.356 -0.2438  0.2744  0.5448
  644MPD2    C5 9535   2.181   4.310   9.361  0.2049 -0.1568 -0.3612
  644MPD2     H 9536   2.079   4.050   9.626  1.7435  0.5728  0.5755
  644MPD2    H1 9537   1.981   4.323   9.299  0.2512  0.4064  0.0698
  644MPD2    H2 9538   2.372   4.302   9.437 -0.0125 -3.2964  1.0888
  644MPD2    H3 9539   2.204   4.383   9.284  1.6858  0.4012  0.6125
  644MPD2     N 9540   1.888   4.104   9.461 -0.0073  0.2241  0.2445
  644MPD2    H5 9541   1.874   4.035   9.534  0.5713 -0.1646 -0.0089
  644MPD2    N1 9542   2.333   4.102   9.628  0.2628  0.6892 -0.3898
  644MPD2    H7 9543   2.429   4.134   9.633  0.0947  1.1960 -0.3644
  645TMC3    C1 9544   1.701   4.012   9.342 -0.5528 -0.4240  0.8590
  645TMC3    C2 9545   1.577   4.031   9.283  1.0610  0.2523 -0.0983
  645TMC3    C3 9546   1.490   3.923   9.292  0.2310 -0.3634 -0.1954
  645TMC3    C4 9547   1.750   3.891   9.385  0.2489 -0.4911 -0.0104
  645TMC3    C5 9548   1.660   3.789   9.378  0.9730 -0.4437  0.3066
  645TMC3    C6 9549   1.529   3.800   9.337  0.1315  0.0347  0.6048
  645TMC3     C 9550   1.787   4.122   9.370  0.1453 -1.0148  0.3668
  645TMC3     O 9551   1.757   4.220   9.301 -0.1921  0.4937 -0.4240
  645TMC3     H 9552   1.546   4.128   9.247  1.2358 -0.9618 -3.5370
  645TMC3    H1 9553   1.847   3.877   9.432  0.2395  0.6718  0.3519
  645TMC3    H2 9554   1.466   3.711   9.338  0.4888 -0.2262  0.2618
  645TMC3    C7 9555   1.705   3.650   9.400 -0.5241 -0.0887 -0.0286
  645TMC3    C8 9556   1.351   3.935   9.250 -0.6037 -0.4941  0.0921
  645TMC3    O1 9557   1.623   3.575   9.450 -0.2645 -0.4639  0.3067
  645TMC3    O2 9558   1.273   3.848   9.287  0.1404 -0.3538 -0.3016
  646MPD2     C 9559   1.117   4.006  14.294 -0.2551 -0.4940 -0.7473
  646MPD2    C1 9560   1.030   4.025  14.391  0.2335  0.3012 -0.1208
  646MPD2    C2 9561   0.907   4.084  14.374  0.1040 -0.3624 -0.1275
  646MPD2    C3 9562   0.873   4.143  14.258  0.0049  0.8079 -0.0656
  646MPD2    C4 9563   0.976   4.146  14.164  0.2955 -0.0403  0.3415
  646MPD2    C5 9564   1.094   4.075  14.181  1.0786  0.4916  0.0110
  646MPD2     H 9565   0.833   4.087  14.453 -0.2546 -0.5678 -0.4569
  646MPD2    H1 9566   0.967   4.198  14.070 -0.0026 -0.3186  0.2148
  646MPD2    H2 9567   1.213   3.959  14.314 -0.3260 -0.4985 -0.4199
  646MPD2    H3 9568   1.172   4.083  14.106  0.5509  0.1202 -0.5702
  646MPD2     N 9569   0.747   4.216  14.248 -0.0480  0.3147 -0.0175
  646MPD2    H5 9570   0.690   4.211  14.332  0.9755 -1.3976  0.5897
  646MPD2    N1 9571   1.067   3.968  14.516  0.4999 -0.0044  0.1692
  646MPD2    H7 9572   1.150   3.910  14.514 -1.7759 -3.2179 -0.4132
  647TMC3    C1 9573   1.094   3.942  14.754  0.1978  0.4815 -0.7860
  647TMC3    C2 9574   1.030   3.900  14.862  0.7367 -0.0272 -0.3301
  647TMC3    C3 9575   1.102   3.832  14.953 -0.3640 -0.5539  0.2647
  647TMC3    C4 9576   1.223   3.919  14.727 -0.9995  0.3786  0.5256
  647TMC3    C5 9577   1.299   3.854  14.827 -0.2045  0.1712  0.1217
  647TMC3    C6 9578   1.236   3.809  14.940 -0.3118 -0.1744 -0.7508
  647TMC3     C 9579   1.015   4.004  14.641  0.3479 -0.0153 -0.7590
  647TMC3     O 9580   0.908   4.058  14.673 -0.9565  0.0859 -0.0588
  647TMC3     H 9581   0.927   3.932  14.872 -0.3576 -2.9955 -2.0577
  647TMC3    H1 9582   1.275   3.968  14.645 -1.8411 -0.4269 -0.4881
  647TMC3    H2 9583   1.299   3.762  15.014 -1.3859 -0.1869  0.1592
  647TMC3    C7 9584   1.446   3.826  14.811  0.2706 -0.4230 -0.5788
  647TMC3    C8 9585   1.034   3.774  15.066  0.1639 -0.2156 -0.0511
  647TMC3    O1 9586   1.494   3.766  14.906  0.3919 -0.1505  0.0192
  647TMC3    O2 9587   1.060   3.657  15.095 -0.0424  0.4301  0.0086
  648TMC3    C1 9588   0.368   1.713  16.237  0.0940 -0.6116  0.2207
  648TMC3    C2 9589   0.377   1.586  16.190 -0.3362 -0.1772 -0.0044
  648TMC3    C3 9590   0.396   1.564  16.057 -0.1389  0.1830  0.3751
  648TMC3    C4 9591   0.390   1.820  16.146  0.4330  0.7714 -0.2094
  648TMC3    C5 9592   0.413   1.791  16.013  0.0509  0.0317  0.0856
  648TMC3    C6 9593   0.422   1.665  15.969 -0.4753 -0.0038  0.3138
  648TMC3     C 9594   0.316   1.752  16.363  0.5939 -0.7834 -0.1232
  648TMC3     O 9595   0.323   1.870  16.387  0.0333  0.2204  0.0154
  648TMC3     H 9596   0.379   1.500  16.256  0.7313 -0.9448 -1.0414
  648TMC3    H1 9597   0.387   1.921  16.185 -1.2196  0.2030  1.1106
  648TMC3    H2 9598   0.430   1.651  15.862 -0.8543 -2.0879  0.5575
  648TMC3    C7 9599   0.355   1.886  15.913 -0.3761  0.2849  0.6580
  648TMC3    C8 9600   0.354   1.431  16.013  0.1416 -0.0407 -0.0010
  648TMC3    O1 9601   0.391   1.881  15.795  0.6481  0.3694  0.0986
  648TMC3    O2 9602   0.317   1.342  16.089 -0.4002  0.3521 -0.2517
  649TMC3    C1 9603   3.410   2.907  13.043 -0.5726  0.9868 -0.3520
  649TMC3    C2 9604   3.525   2.971  13.049  0.1106 -0.5736  0.3167
  649TMC3    C3 9605   3.615   2.929  13.135  0.5254 -0.0664  0.6253
  649TMC3    C4 9606   3.379   2.796  13.118 -0.5571  0.5436  0.5576
  649TMC3    C5 9607   3.479   2.759  13.206 -0.0597 -1.0985  0.0667
  649TMC3    C6 9608   3.598   2.816  13.207 -0.8915  0.7687  0.0294
  649TMC3     C 9609   3.314   2.947  12.942  0.0625 -0.1314 -0.6452
  649TMC3     O 9610   3.309   3.065  12.915 -0.6827 -0.0678 -0.3571
  649TMC3     H 9611   3.536   3.052  12.978  0.7169  0.9679  2.1703
  649TMC3    H1 9612   3.275   2.770  13.129 -0.1750 -0.9809  0.4711
  649TMC3    H2 9613   3.668   2.782  13.282  0.7451  1.4556 -1.1932
  649TMC3    C7 9614   3.442   2.681  13.321 -0.2121  0.2623  0.0487
  649TMC3    C8 9615   3.752   2.986  13.140 -0.0915  0.5449  0.8948
  649TMC3    O1 9616   3.509   2.689  13.423  0.2309 -0.0756 -0.1100
  649TMC3    O2 9617   3.825   2.957  13.236  0.2598 -0.0089  0.2474
  650TMC3    C1 9618   1.805   4.555  12.795  0.5254  0.2440  0.7821
  650TMC3    C2 9619   1.813   4.687  12.765  0.5423  0.1300 -0.0636
  650TMC3    C3 9620   1.816   4.718  12.636 -0.0641 -0.3405 -1.0955
  650TMC3    C4 9621   1.812   4.456  12.699  0.2304  1.0107  0.9332
  650TMC3    C5 9622   1.806   4.488  12.568 -0.0061  0.1823  0.5978
  650TMC3    C6 9623   1.809   4.624  12.536  0.1135  0.3763 -0.1512
  650TMC3     C 9624   1.793   4.520  12.937  0.5224  0.0786 -0.1476
  650TMC3     O 9625   1.787   4.611  13.021 -0.6250  0.4330 -0.5188
  650TMC3     H 9626   1.817   0.046  12.839  0.1232  2.1520 -2.1968
  650TMC3    H1 9627   1.805   4.355  12.737 -3.5800  0.0325 -2.2720
  650TMC3    H2 9628   1.821   4.653  12.432  0.7018  0.7844  0.0248
  650TMC3    C7 9629   1.768   4.384  12.474  0.2333 -0.3817 -0.1448
  650TMC3    C8 9630   1.813   0.137  12.598  0.6002  0.3260 -0.4966
  650TMC3    O1 9631   1.739   4.273  12.512 -0.0740 -0.3979 -0.4884
  650TMC3    O2 9632   1.849   0.225  12.675  0.3308 -0.2553 -0.5446
  651MPD2     C 9633   0.998   1.138  10.741 -0.2884 -0.3876 -0.0189
  651MPD2    C1 9634   0.932   1.261  10.743  0.0817 -0.1990  0.6435
  651MPD2    C2 9635   1.010   1.372  10.724  0.4001 -0.0142  0.0426
  651MPD2    C3 9636   1.146   1.373  10.717 -0.5804  0.6830  0.0542
  651MPD2    C4 9637   1.211   1.252  10.729  0.4251  0.0471 -0.6382
  651MPD2    C5 9638   1.136   1.136  10.741 -0.6208 -0.5530 -0.9157
  651MPD2     H 9639   0.952   1.462  10.708 -0.9636 -1.1588 -1.4873
  651MPD2    H1 9640   1.319   1.239  10.725  0.6199  1.1825  0.8065
  651MPD2    H2 9641   0.939   1.047  10.744  1.2860 -1.3997  0.2723
  651MPD2    H3 9642   1.181   1.038  10.750  0.9710  0.1543 -1.3074
  651MPD2     N 9643   1.210   1.500  10.709 -0.1611 -0.0673 -0.3466
  651MPD2    H5 9644   1.154   1.584  10.699  2.1898  1.3161 -2.0233
  651MPD2    N1 9645   0.796   1.271  10.781 -0.1456 -0.3356  0.2601
  651MPD2    H7 9646   0.759   1.366  10.782  0.7059  0.0038 -0.5277
  652TMC3    C1 9647   1.538   1.819  10.791 -0.1230 -0.7757 -0.1485
  652TMC3    C2 9648   1.503   1.692  10.762  0.3924 -0.2894  0.6250
  652TMC3    C3 9649   1.380   1.659  10.735 -0.9632 -0.0568 -0.5201
  652TMC3    C4 9650   1.456   1.925  10.783  0.2812 -0.4580  0.1452
  652TMC3    C5 9651   1.318   1.890  10.763  0.1743 -0.2388  0.0490
  652TMC3    C6 9652   1.279   1.759  10.738 -0.3941  0.2350 -0.2202
  652TMC3     C 9653   1.675   1.851  10.837  0.0256  0.1065 -0.2617
  652TMC3     O 9654   1.759   1.768  10.804 -0.4756 -0.4070  0.2936
  652TMC3     H 9655   1.582   1.618  10.754 -2.5083 -3.5130  1.4647
  652TMC3    H1 9656   1.492   2.027  10.780  1.3298 -0.7910  1.4312
  652TMC3    H2 9657   1.173   1.740  10.730  0.0180 -1.7148 -1.0447
  652TMC3    C7 9658   1.219   1.992  10.760 -0.8518  0.1998  0.4044
  652TMC3    C8 9659   1.342   1.523  10.734 -0.0512  0.1379 -0.8298
  652TMC3    O1 9660   1.104   1.963  10.785 -0.5899 -0.8383  0.2687
  652TMC3    O2 9661   1.430   1.437  10.760 -0.1257  0.7437  0.1127
  653MPD2     C 9662   3.867   1.661  17.099  0.1641 -0.9292  0.2829
  653MPD2    C1 9663   3.761   1.661  17.186  1.0248  0.3799  0.1234
  653MPD2    C2 9664   3.677   1.554  17.191  0.2341  0.3655 -0.3996
  653MPD2    C3 9665   3.694   1.452  17.099 -0.1693  0.3781  0.0285
  653MPD2    C4 9666   3.783   1.465  17.000  0.3791 -0.3098  0.3717
  653MPD2    C5 9667   3.875   1.565  17.006 -0.6313  0.2790 -0.0981
  653MPD2     H 9668   3.585   1.553  17.249 -0.3904 -0.3694 -1.3991
  653MPD2    H1 9669   3.793   1.387  16.926 -0.2872 -1.4304  1.4618
  653MPD2    H2 9670   3.950   1.731  17.099 -1.4609  0.9947  1.7551
  653MPD2    H3 9671   3.959   1.576  16.937 -1.5039  0.3818 -1.1477
  653MPD2     N 9672   3.602   1.344  17.089 -0.1034  0.0055 -0.2286
  653MPD2    H5 9673   3.512   1.364  17.132 -0.5388 -2.0065 -0.1650
  653MPD2    N1 9674   3.753   1.760  17.285  0.6697  0.0700 -0.0582
  653MPD2    H7 9675   3.704   1.729  17.368 -0.3802 -1.7760 -1.3555
  654TMC3    C1 9676   3.483   1.174  16.977 -0.7741  0.5224 -0.5767
  654TMC3    C2 9677   3.398   1.266  16.915 -0.2142  0.8014 -0.5028
  654TMC3    C3 9678   3.339   1.232  16.794  0.0016 -0.3195 -0.4261
  654TMC3    C4 9679   3.504   1.051  16.915 -0.1030 -0.0258 -0.4478
  654TMC3    C5 9680   3.455   1.031  16.783  0.4319  0.2384  0.5380
  654TMC3    C6 9681   3.369   1.116  16.723 -0.4636  0.0227 -0.4692
  654TMC3     C 9682   3.615   1.231  17.010 -0.0829 -0.0733  0.3539
  654TMC3     O 9683   3.707   1.181  16.940 -0.4182  0.5878  0.3937
  654TMC3     H 9684   3.376   1.362  16.959 -0.6129  0.7900 -0.6793
  654TMC3    H1 9685   3.570   0.978  16.960  2.5126  2.2692 -0.5108
  654TMC3    H2 9686   3.332   1.100  16.623  1.2891  0.4263 -1.1931
  654TMC3    C7 9687   3.539   0.947  16.696 -0.5678  0.2404 -0.6516
  654TMC3    C8 9688   3.261   1.338  16.740 -0.7188 -0.2908  0.9730
  654TMC3    O1 9689   3.549   0.977  16.580  0.0233  0.5568  0.3708
  654TMC3    O2 9690   3.197   1.404  16.824  0.4058 -0.3903 -0.0333
  655MPD2     C 9691   0.921   1.883  15.568 -0.3074 -0.3446 -0.3953
  655MPD2    C1 9692   0.810   1.947  15.517 -0.1629  0.3567  0.3023
  655MPD2    C2 9693   0.768   1.914  15.392  0.0580  0.4298  1.0830
  655MPD2    C3 9694   0.842   1.833  15.306 -0.0462 -0.0980  0.6014
  655MPD2    C4 9695   0.957   1.772  15.357 -0.0754  0.0140  0.2814
  655MPD2    C5 9696   0.991   1.803  15.487 -0.1318 -0.0857  0.5656
  655MPD2     H 9697   0.669   1.942  15.358  0.7298  3.1828  1.3609
  655MPD2    H1 9698   1.027   1.707  15.306  0.2351  0.4270  0.1773
  655MPD2    H2 9699   0.950   1.890  15.672  1.2245 -4.0757 -0.5864
  655MPD2    H3 9700   1.078   1.755  15.529  0.4004  0.5157  0.1405
  655MPD2     N 9701   0.793   1.793  15.181 -0.5830  0.0945 -0.0372
  655MPD2    H5 9702   0.838   1.708  15.146  1.6187  1.1087  0.3072
  655MPD2    N1 9703   0.728   2.034  15.592  0.0667 -0.3377 -0.8028
  655MPD2    H7 9704   0.643   2.065  15.546 -0.1926  0.0097 -0.0904
  656TMC3    C1 9705   0.636   2.157  15.754  0.0430 -0.1816 -0.0528
  656TMC3    C2 9706   0.597   2.163  15.882 -0.6081 -0.5342  0.0702
  656TMC3    C3 9707   0.482   2.231  15.909  0.3676  0.5631  0.1142
  656TMC3    C4 9708   0.561   2.224  15.655  0.8518 -0.4214 -0.2731
  656TMC3    C5 9709   0.444   2.289  15.683  0.6383 -0.1566 -0.5676
  656TMC3    C6 9710   0.409   2.299  15.814 -0.4764  0.3717  0.1174
  656TMC3     C 9711   0.743   2.068  15.724  0.4094  0.0715 -0.0365
  656TMC3     O 9712   0.808   2.020  15.818  0.5755 -0.5852  0.3909
  656TMC3     H 9713   0.654   2.112  15.959 -0.2523  0.8082  0.7039
  656TMC3    H1 9714   0.594   2.222  15.552 -0.4292  0.0098 -0.6845
  656TMC3    H2 9715   0.313   2.337  15.848 -1.4162 -0.2833 -1.7912
  656TMC3    C7 9716   0.351   2.323  15.576  0.1924  0.6824  0.7806
  656TMC3    C8 9717   0.429   2.241  16.045  0.0374 -0.0148 -0.0900
  656TMC3    O1 9718   0.392   2.285  15.466 -0.1735 -0.2655 -0.0355
  656TMC3    O2 9719   0.466   2.158  16.127  0.4741  0.2116 -0.3324
  657TMC3    C1 9720   4.237   1.577  14.543  1.0497  0.5426  0.2480
  657TMC3    C2 9721   4.275   1.658  14.647  0.3974 -0.5253  0.0773
  657TMC3    C3 9722   4.204   1.776  14.667 -0.7441 -0.0726 -0.8093
  657TMC3    C4 9723   4.141   1.618  14.457 -0.2840 -0.0525 -0.6212
  657TMC3    C5 9724   4.083   1.743  14.469 -0.2975  1.1388  0.0000
  657TMC3    C6 9725   4.107   1.822  14.581 -0.6018 -0.4548 -0.2979
  657TMC3     C 9726   4.340   1.482  14.500 -0.0055  0.1757 -0.3857
  657TMC3     O 9727   4.319   1.441  14.389  0.1361  0.0876  0.0502
  657TMC3     H 9728   4.369   1.650  14.699 -0.0288 -1.1764  0.7644
  657TMC3    H1 9729   4.115   1.541  14.384 -1.7038  0.6709 -0.8849
  657TMC3    H2 9730   4.055   1.916  14.599 -3.0647 -2.0433  0.8476
  657TMC3    C7 9731   3.971   1.764  14.381 -0.2158 -0.1432 -0.2285
  657TMC3    C8 9732   4.219   1.847  14.793  0.4924  0.4027  0.0592
  657TMC3    O1 9733   3.959   1.690  14.289 -0.3865  0.2041  0.4917
  657TMC3    O2 9734   4.162   1.956  14.789  0.4477 -0.8357  0.5078
  658MPD2     C 9735   0.925   1.288  14.873  0.1342 -0.1848  0.3706
  658MPD2    C1 9736   0.817   1.332  14.802  0.3948  0.8390 -0.3480
  658MPD2    C2 9737   0.818   1.338  14.667  0.2822 -0.2580 -1.3508
  658MPD2    C3 9738   0.921   1.296  14.590 -0.5998 -0.2287  0.5004
  658MPD2    C4 9739   1.031   1.249  14.660 -0.0614 -0.1715  1.1420
  658MPD2    C5 9740   1.029   1.241  14.797 -0.2048 -0.1802 -0.2865
  658MPD2     H 9741   0.732   1.373  14.610 -2.8189 -1.9181  2.3239
  658MPD2    H1 9742   1.123   1.229  14.606 -0.4571 -0.8255  0.7000
  658MPD2    H2 9743   0.932   1.276  14.980  3.3410 -2.2893 -0.1048
  658MPD2    H3 9744   1.109   1.189  14.848  1.7316  1.0194 -2.0779
  658MPD2     N 9745   0.917   1.297  14.446  0.5523  0.0192 -0.4432
  658MPD2    H5 9746   0.822   1.320  14.416  0.3847  0.8524  0.7032
  658MPD2    N1 9747   0.720   1.400  14.881  0.3066  0.3470 -0.3073
  658MPD2    H7 9748   0.740   1.418  14.979 -1.0808 -0.5040  0.1306
  659TMC3    C1 9749   0.567   1.579  14.910 -0.1531  0.5328  0.5285
  659TMC3    C2 9750   0.658   1.659  14.978 -0.2787 -0.2036 -0.1342
  659TMC3    C3 9751   0.636   1.795  14.994  0.5190 -0.0775  0.5700
  659TMC3    C4 9752   0.456   1.633  14.857  0.1866  0.0056 -0.4134
  659TMC3    C5 9753   0.430   1.772  14.883  0.6991 -0.3387 -0.5938
  659TMC3    C6 9754   0.521   1.854  14.946  0.8776  0.6481  0.2863
  659TMC3     C 9755   0.605   1.464  14.831 -0.1571 -0.1016  0.4761
  659TMC3     O 9756   0.545   1.432  14.731  0.0951  0.4697 -0.3055
  659TMC3     H 9757   0.750   1.624  15.024 -1.4193 -0.2933  2.0827
  659TMC3    H1 9758   0.388   1.564  14.808  1.3098 -0.2190 -1.6585
  659TMC3    H2 9759   0.486   1.954  14.969 -3.3338  0.1693 -3.7745
  659TMC3    C7 9760   0.300   1.829  14.873 -0.3762  0.7005 -0.0057
  659TMC3    C8 9761   0.716   1.866  15.098 -0.8655  0.7288  0.0954
  659TMC3    O1 9762   0.288   1.949  14.906 -0.3970 -0.1693  0.1858
  659TMC3    O2 9763   0.693   1.987  15.116 -1.1022 -0.0500  0.5602
  660MPD2     C 9764   3.781   0.126  12.419 -0.1769 -0.4276  0.2793
  660MPD2    C1 9765   3.680   0.218  12.385  0.4976 -0.2285  0.5547
  660MPD2    C2 9766   3.562   0.213  12.461  0.5399  0.1822  0.8669
  660MPD2    C3 9767   3.540   0.118  12.567 -0.1112  0.0942  0.1009
  660MPD2    C4 9768   3.649   0.040  12.606  0.8367 -0.0421  0.6211
  660MPD2    C5 9769   3.765   0.040  12.528 -0.2462  0.0613 -0.2953
  660MPD2     H 9770   3.475   0.266  12.425  0.5044 -0.1885  0.4066
  660MPD2    H1 9771   3.648   4.690  12.689 -0.6190 -1.7009 -0.7849
  660MPD2    H2 9772   3.875   0.115  12.367  0.7470  3.3454  1.1514
  660MPD2    H3 9773   3.851   4.695  12.531 -1.3765 -1.5332 -2.3314
  660MPD2     N 9774   3.421   0.102  12.643 -0.5129 -0.1636  0.4347
  660MPD2    H5 9775   3.430   0.042  12.724  1.0543 -0.2172  0.2194
  660MPD2    N1 9776   3.703   0.300  12.277 -0.0439 -0.5044 -0.0143
  660MPD2    H7 9777   3.787   0.292  12.221  1.7717 -0.5723  2.6971
  661TMC3    C1 9778   3.691   0.509  12.155 -0.0397 -0.7005 -0.1913
  661TMC3    C2 9779   3.729   0.466  12.028  0.0137 -0.1531  0.2627
  661TMC3    C3 9780   3.742   0.571  11.935 -0.0957 -0.4603 -0.8956
  661TMC3    C4 9781   3.653   0.638  12.179  0.1333 -0.1457  0.1370
  661TMC3    C5 9782   3.658   0.724  12.075 -0.3392 -0.1200 -0.4624
  661TMC3    C6 9783   3.706   0.703  11.957  0.1144 -0.0193 -0.3005
  661TMC3     C 9784   3.628   0.414  12.248 -0.1474  0.2221  0.5093
  661TMC3     O 9785   3.530   0.451  12.306  0.0851 -0.1352  0.3989
  661TMC3     H 9786   3.749   0.362  12.006  1.2461 -0.2014  1.5791
  661TMC3    H1 9787   3.609   0.660  12.276  0.2028  1.1909 -0.1475
  661TMC3    H2 9788   3.713   0.778  11.878  0.3248 -0.0758 -0.3349
  661TMC3    C7 9789   3.542   0.811  12.081  0.1273  0.4275  1.0054
  661TMC3    C8 9790   3.824   0.552  11.818  0.1521 -0.3141  1.0640
  661TMC3    O1 9791   3.502   0.853  12.191 -0.0887  0.1230  0.0204
  661TMC3    O2 9792   3.794   0.611  11.715 -1.2289 -0.2308 -0.0089
  662MPD2     C 9793   3.723   4.491  17.573 -0.0065 -0.4926  0.8256
  662MPD2    C1 9794   3.739   4.399  17.666 -0.7077  0.3395  0.4571
  662MPD2    C2 9795   3.699   4.439   0.114  0.6399  0.1056 -0.4665
  662MPD2    C3 9796   3.632   4.555   0.142  0.1862 -0.0216 -0.1998
  662MPD2    C4 9797   3.610   4.640   0.043 -0.4963 -0.5740 -0.0555
  662MPD2    C5 9798   3.661   4.612  17.602 -0.9742 -0.6980 -0.5762
  662MPD2     H 9799   3.704   4.367   0.195  0.6277  0.7689  0.1251
  662MPD2    H1 9800   3.563   0.016   0.060  1.7789  0.5318  0.0080
  662MPD2    H2 9801   3.758   4.475  17.472 -1.0979  0.6126  0.2772
  662MPD2    H3 9802   3.638   4.680  17.521 -1.6098 -0.1196  0.0873
  662MPD2     N 9803   3.560   4.590   0.260 -0.0192 -0.2654  0.0959
  662MPD2    H5 9804   3.486   4.659   0.259  0.5011  0.2700 -2.6161
  662MPD2    N1 9805   3.774   4.267  17.643  0.0806  0.1998  0.0759
  662MPD2    H7 9806   3.770   4.205   0.040  1.5505  0.4530  0.3513
  663TMC3    C1 9807   3.796   4.060  17.523 -0.0199 -0.4651  0.3169
  663TMC3    C2 9808   3.805   3.994  17.644 -0.5370 -0.0656 -0.4146
  663TMC3    C3 9809   3.813   3.865  17.653  0.0424 -0.1645 -0.2596
  663TMC3    C4 9810   3.789   3.989  17.407  0.4959 -0.5650  0.0969
  663TMC3    C5 9811   3.786   3.853  17.418  0.1745 -0.5872  0.1724
  663TMC3    C6 9812   3.778   3.789  17.540 -0.0549  0.4119  0.0788
  663TMC3     C 9813   3.802   4.204  17.518  0.5010  0.3135  0.3233
  663TMC3     O 9814   3.806   4.256  17.405  0.2370  0.0643 -0.1847
  663TMC3     H 9815   3.823   4.048   0.052 -0.9856 -1.5550  0.5538
  663TMC3    H1 9816   3.788   4.043  17.314 -1.2319 -1.0106 -0.1444
  663TMC3    H2 9817   3.784   3.681  17.545  0.3646  0.4124 -0.3353
  663TMC3    C7 9818   3.766   3.771  17.292  0.3190 -1.6826  0.4868
  663TMC3    C8 9819   3.748   3.808   0.090  0.1022  0.0173 -1.0256
  663TMC3    O1 9820   3.818   3.812  17.183 -0.3377  0.3043  0.3091
  663TMC3    O2 9821   3.664   3.722   0.063 -0.1824 -0.4216 -0.6586
  664MPD2     C 9822   1.208   3.010  17.486 -0.2738 -0.0959  0.4380
  664MPD2    C1 9823   1.339   3.006  17.534 -1.1604  0.6167  0.0339
  664MPD2    C2 9824   1.369   2.931  17.640  0.6058 -0.1652 -0.0759
  664MPD2    C3 9825   1.270   2.855   0.026 -0.0067  0.5531  0.2928
  664MPD2    C4 9826   1.138   2.866  17.656 -0.8948 -0.0570 -0.5339
  664MPD2    C5 9827   1.114   2.942  17.547  0.1631 -0.1853  0.0111
  664MPD2     H 9828   1.471   2.914  17.675  1.0642 -0.2231 -1.4542
  664MPD2    H1 9829   1.066   2.809   0.029 -0.3964  0.7895  0.9759
  664MPD2    H2 9830   1.182   3.073  17.402 -1.6502 -0.9369  0.2224
  664MPD2    H3 9831   1.015   2.949  17.503  0.3589  0.5254 -0.3064
  664MPD2     N 9832   1.304   2.774   0.132  0.1249 -0.4516 -0.0029
  664MPD2    H5 9833   1.400   2.774   0.166  0.8821 -3.2913 -2.1693
  664MPD2    N1 9834   1.449   3.076  17.477  0.0278 -0.3084  0.1022
  664MPD2    H7 9835   1.536   3.072  17.530 -0.3268 -0.4949  0.6651
  665TMC3    C1 9836   1.306   2.624   0.311 -0.3529 -0.1183 -0.1525
  665TMC3    C2 9837   1.235   2.578   0.413 -0.7678  0.1691 -0.0571
  665TMC3    C3 9838   1.305   2.547   0.531 -0.3196 -0.4033 -0.6097
  665TMC3    C4 9839   1.438   2.645   0.311  1.2109 -0.1919 -0.4032
  665TMC3    C5 9840   1.510   2.622   0.428  0.0352  0.1897  0.8687
  665TMC3    C6 9841   1.439   2.567   0.536 -0.8155 -0.0099 -0.5366
  665TMC3     C 9842   1.224   2.686   0.203 -0.5325  0.6849 -0.5444
  665TMC3     O 9843   1.106   2.659   0.192  0.6488 -0.6192 -0.3074
  665TMC3     H 9844   1.128   2.569   0.397 -1.0097  1.5589  0.7741
  665TMC3    H1 9845   1.491   2.674   0.222  2.0097  2.1924  0.8448
  665TMC3    H2 9846   1.494   2.544   0.626 -0.2276 -0.4027 -0.9883
  665TMC3    C7 9847   1.618   2.719   0.452 -0.9981  0.1865  0.4620
  665TMC3    C8 9848   1.234   2.513   0.648  0.3176  0.6468  0.1825
  665TMC3    O1 9849   1.699   2.734   0.361 -0.2689 -0.4732 -0.7351
  665TMC3    O2 9850   1.298   2.518   0.753  0.1821 -0.7235 -0.3971
  666TMC3    C1 9851   1.699   2.684   9.912  0.7470  0.3783 -0.4784
  666TMC3    C2 9852   1.765   2.610  10.011  0.9738  0.1943 -0.1690
  666TMC3    C3 9853   1.862   2.682  10.078  0.1744  0.2614  0.0292
  666TMC3    C4 9854   1.726   2.818   9.883  0.6705  0.0258  0.5395
  666TMC3    C5 9855   1.822   2.877   9.966  0.0501  0.2629  0.8299
  666TMC3    C6 9856   1.888   2.814  10.062  0.2803  0.0890 -0.4580
  666TMC3     C 9857   1.587   2.616   9.842  0.0741  0.0680  0.3596
  666TMC3     O 9858   1.583   2.499   9.866 -0.4398 -0.7405 -0.0069
  666TMC3     H 9859   1.752   2.509  10.049  2.4006 -0.2866 -0.9964
  666TMC3    H1 9860   1.674   2.875   9.807  0.5290  1.6030  1.8245
  666TMC3    H2 9861   1.943   2.887  10.121 -2.9922  3.3788 -1.4828
  666TMC3    C7 9862   1.788   3.005  10.015  0.2213  0.4069 -0.0573
  666TMC3    C8 9863   1.901   2.619  10.201  0.1961  0.0792 -0.6256
  666TMC3    O1 9864   1.734   3.018  10.122  0.8439  0.0232 -0.1757
  666TMC3    O2 9865   1.807   2.567  10.257  0.1771 -0.9579 -0.1883
  667MPD2     C 9866   2.863   2.804  14.971  0.0845 -0.2275  0.2250
  667MPD2    C1 9867   2.757   2.869  14.901  0.5329 -0.1156 -0.7947
  667MPD2    C2 9868   2.637   2.804  14.869  0.5167  0.2204 -0.0737
  667MPD2    C3 9869   2.627   2.670  14.900 -0.1336 -0.4992 -0.4275
  667MPD2    C4 9870   2.735   2.607  14.959 -0.0360  0.2388  0.0742
  667MPD2    C5 9871   2.853   2.667  14.992  0.2517  0.9526  0.6127
  667MPD2     H 9872   2.560   2.858  14.815 -1.6727 -2.1056  0.6921
  667MPD2    H1 9873   2.735   2.499  14.969 -0.9742  0.3689  1.4391
  667MPD2    H2 9874   2.959   2.845  15.002 -0.0321 -0.0743  0.3892
  667MPD2    H3 9875   2.938   2.602  15.011 -0.6843 -0.4709 -0.1116
  667MPD2     N 9876   2.510   2.590  14.855 -0.4715 -0.3638 -0.4228
  667MPD2    H5 9877   2.517   2.492  14.879  0.1408  0.3729  2.5218
  667MPD2    N1 9878   2.763   3.005  14.868 -0.4634  0.0690  0.0491
  667MPD2    H7 9879   2.677   3.056  14.848 -1.7825 -2.4017 -0.6172
  668TMC3    C1 9880   2.838   3.229  14.824  0.1081  0.4548 -0.4323
  668TMC3    C2 9881   2.950   3.308  14.811  0.1055  0.0517 -0.5222
  668TMC3    C3 9882   2.929   3.435  14.800  0.2750 -0.2047  0.2154
  668TMC3    C4 9883   2.711   3.276  14.830 -0.5275 -0.5395 -0.4009
  668TMC3    C5 9884   2.696   3.407  14.813 -0.3251  0.1114 -0.0746
  668TMC3    C6 9885   2.801   3.490  14.797  0.1393  0.1765  0.3086
  668TMC3     C 9886   2.871   3.086  14.859 -0.5823  0.3073  0.1619
  668TMC3     O 9887   2.990   3.059  14.867 -0.6952 -0.1233  0.8457
  668TMC3     H 9888   3.046   3.257  14.804  0.0365 -0.3235  1.2693
  668TMC3    H1 9889   2.622   3.215  14.816 -0.8549 -0.6267  1.9894
  668TMC3    H2 9890   2.791   3.598  14.792  0.2519  0.2274  1.1913
  668TMC3    C7 9891   2.568   3.462  14.848  0.4816  0.5351 -0.4173
  668TMC3    C8 9892   3.026   3.518  14.865 -0.0597 -0.3357 -0.0226
  668TMC3    O1 9893   2.545   3.576  14.808  0.0652 -0.0316 -0.2805
  668TMC3    O2 9894   3.091   3.449  14.940  0.2914 -0.3454 -0.0991
  669TMC3    C1 9895   0.900   3.629  14.144  0.1749 -0.4271  0.3120
  669TMC3    C2 9896   0.787   3.596  14.082 -0.5543 -0.1858  0.0412
  669TMC3    C3 9897   0.752   3.679  13.977 -0.3589 -0.0276 -0.1499
  669TMC3    C4 9898   0.993   3.717  14.101 -0.1619  0.2241 -0.4798
  669TMC3    C5 9899   0.966   3.783  13.986 -0.4968  0.0205  0.0683
  669TMC3    C6 9900   0.845   3.772  13.927  0.0198  0.0788  0.1756
  669TMC3     C 9901   0.944   3.553  14.261  0.4514 -0.4461 -0.1051
  669TMC3     O 9902   1.065   3.531  14.265 -0.6503  0.5343 -0.1182
  669TMC3     H 9903   0.727   3.515  14.123 -1.4278 -0.0291 -0.9346
  669TMC3    H1 9904   1.087   3.729  14.153 -2.2359 -2.0336  3.7423
  669TMC3    H2 9905   0.814   3.855  13.863  1.0399  0.2347 -0.1219
  669TMC3    C7 9906   1.081   3.832  13.915  0.1638  0.1789 -0.7847
  669TMC3    C8 9907   0.618   3.663  13.917 -0.4599 -0.5019 -0.5370
  669TMC3    O1 9908   1.178   3.851  13.985 -0.2329  0.4690  0.0295
  669TMC3    O2 9909   0.551   3.575  13.965 -0.6122  0.0717  0.1731
  670MPD2     C 9910   4.381   0.566  13.556  0.8438 -0.2666  0.2901
  670MPD2    C1 9911   4.263   0.643  13.537 -0.3937  0.6145  0.0678
  670MPD2    C2 9912   4.177   0.668  13.643 -0.0059  0.0461 -0.2668
  670MPD2    C3 9913   4.202   0.636  13.775 -0.1884 -0.0935 -0.3416
  670MPD2    C4 9914   4.319   0.560  13.788  0.2026  0.1006 -0.5056
  670MPD2    C5 9915   4.402   0.529  13.688 -0.4719 -0.3142  0.0525
  670MPD2     H 9916   4.084   0.720  13.623  0.1540  0.9140  1.1975
  670MPD2    H1 9917   4.343   0.521  13.886 -0.1787  0.0163 -0.4435
  670MPD2    H2 9918   4.452   0.542  13.478  0.6315 -0.3195  0.1095
  670MPD2    H3 9919   4.488   0.467  13.712  0.4699  0.6160 -0.9470
  670MPD2     N 9920   4.121   0.689  13.877  0.4240  0.7344  0.1842
  670MPD2    H5 9921   4.029   0.722  13.848  0.6138  0.4405 -0.7419
  670MPD2    N1 9922   4.227   0.706  13.418 -0.2885 -0.0627  0.3278
  670MPD2    H7 9923   4.153   0.774  13.421 -1.8174 -1.7570  1.1201
  671TMC3    C1 9924   4.036   0.727  14.083  0.0966 -0.1221 -0.3878
  671TMC3    C2 9925   4.067   0.785  14.204 -0.1921 -0.4699  0.2612
  671TMC3    C3 9926   3.961   0.787  14.289 -0.5153  0.7023  0.2293
  671TMC3    C4 9927   3.911   0.695  14.028 -0.0010  0.1004 -0.0173
  671TMC3    C5 9928   3.810   0.718  14.119 -0.4732  0.5006  0.3877
  671TMC3    C6 9929   3.834   0.762  14.251  0.0706  0.2851 -0.2188
  671TMC3     C 9930   4.153   0.681  14.009 -0.5599  0.3843 -0.0722
  671TMC3     O 9931   4.250   0.636  14.063 -0.5556 -0.0800 -1.0566
  671TMC3     H 9932   4.168   0.792  14.245 -0.1840  1.3478 -0.0404
  671TMC3    H1 9933   3.902   0.645  13.932  0.0267  2.3760 -1.2012
  671TMC3    H2 9934   3.756   0.758  14.327 -0.0729 -0.5859 -0.4142
  671TMC3    C7 9935   3.681   0.667  14.083  0.3659 -0.1481 -0.4855
  671TMC3    C8 9936   3.978   0.842  14.423 -0.0343  0.1702  0.1232
  671TMC3    O1 9937   3.675   0.607  13.976  0.3808 -0.2572 -0.1286
  671TMC3    O2 9938   3.945   0.957  14.440  0.5158  0.7945  0.1173
  672MPD2     C 9939   3.261   0.549   1.019  0.2362 -0.9852  0.6984
  672MPD2    C1 9940   3.213   0.679   1.022 -0.9051 -0.6320  0.5705
  672MPD2    C2 9941   3.122   0.712   1.119 -0.4125 -0.0702  0.5053
  672MPD2    C3 9942   3.072   0.615   1.209  0.1950 -0.3264 -0.1809
  672MPD2    C4 9943   3.121   0.481   1.198  1.1701 -0.1987 -0.0200
  672MPD2    C5 9944   3.220   0.458   1.106 -1.0498  0.6800 -0.8915
  672MPD2     H 9945   3.093   0.816   1.128 -0.9040 -0.1699  0.0418
  672MPD2    H1 9946   3.088   0.396   1.257 -1.1346 -0.4490 -1.6539
  672MPD2    H2 9947   3.344   0.517   0.958  1.2149  2.3725  0.2296
  672MPD2    H3 9948   3.262   0.358   1.108  0.9751  1.5884  2.7945
  672MPD2     N 9949   2.988   0.646   1.319  0.2835  0.1961  0.0532
  672MPD2    H5 9950   2.943   0.565   1.360 -0.2752 -0.0635 -1.0764
  672MPD2    N1 9951   3.251   0.772   0.923  0.0240 -0.3636  0.2712
  672MPD2    H7 9952   3.211   0.865   0.928  0.3248 -0.3445  2.4555
  673TMC3    C1 9953   3.370   0.887   0.760 -0.0046  0.1288 -0.2207
  673TMC3    C2 9954   3.496   0.919   0.770 -0.4525 -0.3522  0.5883
  673TMC3    C3 9955   3.531   1.042   0.734 -0.1381  0.4826 -0.0637
  673TMC3    C4 9956   3.270   0.976   0.719  0.2175  0.3502 -0.1714
  673TMC3    C5 9957   3.309   1.096   0.666  0.5355 -0.3462  0.5008
  673TMC3    C6 9958   3.442   1.131   0.675  0.5335 -0.0513  0.0023
  673TMC3     C 9959   3.325   0.753   0.811  0.7937 -0.2829 -0.0939
  673TMC3     O 9960   3.385   0.654   0.767  0.7743 -0.5002 -0.3552
  673TMC3     H 9961   3.561   0.839   0.805  1.7495  1.3982  0.4636
  673TMC3    H1 9962   3.167   0.942   0.725  0.2934  0.4450  1.7051
  673TMC3    H2 9963   3.465   1.231   0.641  0.9364  0.1414  0.8357
  673TMC3    C7 9964   3.215   1.200   0.696 -0.4797 -0.4230  0.1821
  673TMC3    C8 9965   3.666   1.087   0.763 -0.2740  0.2190  0.6710
  673TMC3    O1 9966   3.121   1.165   0.768  0.7158 -0.0889  0.0747
  673TMC3    O2 9967   3.711   1.177   0.693 -0.3288  0.2696 -0.3364
  674MPD2     C 9968   3.834   1.035   0.421  0.3532  0.2792 -0.1320
  674MPD2    C1 9969   3.783   0.924   0.483  0.2510 -0.0784 -0.1180
  674MPD2    C2 9970   3.652   0.893   0.462  0.3024  0.1365  0.0396
  674MPD2    C3 9971   3.575   0.970   0.372  0.1956 -0.1020  0.1309
  674MPD2    C4 9972   3.628   1.082   0.313  0.9167 -0.3838 -0.3897
  674MPD2    C5 9973   3.759   1.116   0.340 -0.7141 -0.3857  0.3367
  674MPD2     H 9974   3.610   0.807   0.512  0.2287  0.4801  0.5642
  674MPD2    H1 9975   3.562   1.151   0.260  1.3892  0.8471  0.6111
  674MPD2    H2 9976   3.926   1.087   0.449  1.5192 -1.5511 -0.5739
  674MPD2    H3 9977   3.794   1.214   0.308  0.0561 -0.5388  0.7019
  674MPD2     N 9978   3.449   0.915   0.341 -0.0510  0.0355  0.3563
  674MPD2    H5 9979   3.431   0.831   0.395 -1.2082  0.1736  0.1930
  674MPD2    N1 9980   3.872   0.853   0.572  0.5388  0.5487  0.0758
  674MPD2    H7 9981   3.961   0.899   0.591  1.1191 -0.8836  0.8230
  675TMC3    C1 9982   3.944   0.694   0.721  0.1954 -0.7533  0.1556
  675TMC3    C2 9983   3.893   0.666   0.841  0.4282 -0.4327  0.2969
  675TMC3    C3 9984   3.981   0.662   0.949  1.0007  0.7085  0.1989
  675TMC3    C4 9985   4.076   0.736   0.704 -0.0900  0.6418 -0.1837
  675TMC3    C5 9986   4.159   0.749   0.812  0.0422 -0.1635 -0.0779
  675TMC3    C6 9987   4.112   0.704   0.936 -0.1317  0.0778  0.0892
  675TMC3     C 9988   3.860   0.722   0.616 -0.0330  0.1798 -0.2389
  675TMC3     O 9989   3.775   0.634   0.602  0.0360  0.0800 -0.2624
  675TMC3     H 9990   3.788   0.638   0.843  0.5444 -0.7553  2.4445
  675TMC3    H1 9991   4.116   0.736   0.603  3.1723 -2.1248  1.0966
  675TMC3    H2 9992   4.151   0.719   1.036 -0.2697  3.2827 -0.3157
  675TMC3    C7 9993   4.301   0.763   0.785 -0.0460  0.1464 -0.2217
  675TMC3    C8 9994   3.922   0.622   1.071  0.2487  0.0887  0.4505
  675TMC3    O1 9995   4.333   0.788   0.667  0.2025 -0.0360 -0.3285
  675TMC3    O2 9996   3.807   0.655   1.096  0.4045  0.0404 -0.1632
  676MPD2     C 9997   1.710   4.395  11.292  0.1104  0.8564 -0.6200
  676MPD2    C1 9998   1.676   4.287  11.376 -0.4438 -0.5341 -0.5510
  676MPD2    C2 9999   1.621   4.173  11.328 -0.1378 -0.1214 -0.2605
  676MPD2    C310000   1.607   4.145  11.189  0.9634 -0.9004 -0.7265
  676MPD2    C410001   1.656   4.249  11.112 -0.2546  0.8493  0.3425
  676MPD2    C510002   1.701   4.375  11.161  0.3238  0.2862  1.1028
  676MPD2     H10003   1.603   4.101  11.407  2.1676 -0.6266 -0.1818
  676MPD2    H110004   1.662   4.238  11.004 -0.4190 -0.8504  0.5113
  676MPD2    H210005   1.738   4.489  11.339 -0.6471 -0.3982  2.3888
  676MPD2    H310006   1.720   4.450  11.085  0.8330  0.1596  1.1051
  676MPD2     N10007   1.550   4.028  11.133 -0.9168 -0.0066 -0.1166
  676MPD2    H510008   1.546   4.024  11.031 -0.9133  0.4165 -0.1321
  676MPD2    N110009   1.690   4.291  11.517 -0.6461  0.5132 -0.7299
  676MPD2    H710010   1.659   4.211  11.571  1.2201  0.2582 -0.0366
  677TMC3    C110011   1.787   4.359  11.726 -0.2819  0.8610 -0.9732
  677TMC3    C210012   1.782   4.233  11.777 -0.6690 -0.0490  0.0994
  677TMC3    C310013   1.849   4.198  11.891  0.3764 -0.9700 -0.3660
  677TMC3    C410014   1.858   4.456  11.797  0.0559 -0.4696  0.7539
  677TMC3    C510015   1.927   4.423  11.908  1.0763 -0.2966  0.2620
  677TMC3    C610016   1.924   4.294  11.954  0.5992  0.2620  0.4010
  677TMC3     C10017   1.746   4.391  11.589  0.1113  0.2960  0.7885
  677TMC3     O10018   1.800   4.492  11.552  0.4850 -0.3052  0.4282
  677TMC3     H10019   1.742   4.151  11.719 -2.3462  0.9148 -0.1087
  677TMC3    H110020   1.874   4.552  11.749  0.0335 -0.7363  0.2120
  677TMC3    H210021   1.979   4.275  12.045  1.3348  0.0196 -0.0933
  677TMC3    C710022   2.040   4.499  11.942 -0.6840  0.6521 -0.3151
  677TMC3    C810023   1.865   4.062  11.940  0.0098  0.5638 -1.0175
  677TMC3    O110024   2.070   4.496  12.062 -0.4252  0.3730 -0.0724
  677TMC3    O210025   1.814   4.046  12.051  0.3466 -0.5425  0.4243
  678MPD2     C10026   2.416   4.049   1.502  0.6575  0.2461 -0.2640
  678MPD2    C110027   2.462   3.964   1.400  0.6301  0.0731 -0.2202
  678MPD2    C210028   2.371   3.908   1.318 -0.9254  0.2509  0.4806
  678MPD2    C310029   2.234   3.929   1.328  0.1744  0.0658  0.2991
  678MPD2    C410030   2.195   4.017   1.433  0.2505  0.5752 -0.5177
  678MPD2    C510031   2.284   4.073   1.513  0.1751  0.2603 -0.4452
  678MPD2     H10032   2.402   3.847   1.234  0.2144  0.6821  0.5853
  678MPD2    H110033   2.091   4.040   1.449 -0.0785 -2.4863  1.7629
  678MPD2    H210034   2.486   4.092   1.572  0.2107  0.9942 -0.2721
  678MPD2    H310035   2.266   4.141   1.595  1.8930  1.1385 -0.7886
  678MPD2     N10036   2.142   3.864   1.240  0.5953 -0.9102  0.7672
  678MPD2    H510037   2.175   3.798   1.170  3.5113  0.2837  1.0190
  678MPD2    N110038   2.599   3.935   1.369 -0.6690 -0.4135  0.5069
  678MPD2    H710039   2.612   3.881   1.284 -2.2545 -0.7977  0.5042
  679TMC3    C110040   2.932   3.730   1.299 -0.0994 -0.4760  0.6579
  679TMC3    C210041   2.827   3.786   1.357 -0.6123 -0.0628  0.0429
  679TMC3    C310042   2.830   3.915   1.384 -0.5556 -0.6054 -0.5958
  679TMC3    C410043   3.049   3.801   1.267 -0.1101  0.1974  0.4653
  679TMC3    C510044   3.047   3.930   1.298 -0.3817  0.0976 -0.1228
  679TMC3    C610045   2.942   3.990   1.364  0.2408 -0.3662  0.0258
  679TMC3     C10046   2.927   3.588   1.256 -0.0751 -0.1945 -0.4583
  679TMC3     O10047   2.998   3.554   1.164 -0.0497 -0.1579 -0.3266
  679TMC3     H10048   2.742   3.723   1.378 -0.8602  0.5272  0.8224
  679TMC3    H110049   3.136   3.753   1.224 -1.7780 -3.8471  1.6926
  679TMC3    H210050   2.927   4.094   1.392 -2.5065 -0.8289  0.2744
  679TMC3    C710051   3.177   3.996   1.297 -0.3972 -0.5757  0.4477
  679TMC3    C810052   2.711   3.974   1.439 -0.3205  0.5135  0.5531
  679TMC3    O110053   3.264   3.942   1.228  0.4706 -0.0306  0.9336
  679TMC3    O210054   2.724   4.052   1.530  0.6149 -0.2453 -0.3250
  680MPD2     C10055   3.120   3.224  13.764  0.8102  0.4435 -0.8641
  680MPD2    C110056   3.245   3.167  13.794  0.1666 -0.3495  0.7077
  680MPD2    C210057   3.361   3.243  13.781 -0.3351 -0.3005  0.3351
  680MPD2    C310058   3.351   3.380  13.759  0.4461  0.5729 -0.1938
  680MPD2    C410059   3.224   3.433  13.748 -1.0836 -0.2621  0.5531
  680MPD2    C510060   3.113   3.352  13.736 -0.2915 -0.3785 -0.3644
  680MPD2     H10061   3.458   3.197  13.797 -0.1265  0.3497  0.9304
  680MPD2    H110062   3.214   3.540  13.737 -1.2438 -0.5719 -2.4789
  680MPD2    H210063   3.026   3.170  13.761  1.0287  0.1390 -1.9926
  680MPD2    H310064   3.016   3.399  13.721  1.4423  3.7107  1.3182
  680MPD2     N10065   3.463   3.466  13.770 -0.2580 -0.3054  0.1282
  680MPD2    H510066   3.460   3.564  13.741  1.9076 -0.7484 -1.6489
  680MPD2    N110067   3.265   3.035  13.839 -0.6676 -0.5570 -0.1752
  680MPD2    H710068   3.359   3.011  13.870  0.0501  2.6477  0.0849
  681TMC3    C110069   3.211   2.814  13.898  0.7717 -0.4723 -0.2102
  681TMC3    C210070   3.289   2.826  14.007  0.1087 -0.0406 -0.1613
  681TMC3    C310071   3.302   2.719  14.084 -0.5621 -0.5372  0.3496
  681TMC3    C410072   3.140   2.704  13.868 -0.2801  0.2144 -0.0157
  681TMC3    C510073   3.162   2.592  13.948 -0.0202  0.2622  0.2565
  681TMC3    C610074   3.240   2.596  14.057 -0.0512 -0.7030  0.6022
  681TMC3     C10075   3.166   2.939  13.838  1.0768  0.0960  0.2663
  681TMC3     O10076   3.061   2.941  13.775  0.4993 -0.3359  0.4561
  681TMC3     H10077   3.337   2.918  14.035  0.1384  0.6384 -2.4786
  681TMC3    H110078   3.083   2.701  13.776 -1.4131  1.3618  0.6369
  681TMC3    H210079   3.232   2.517  14.131 -4.1425 -1.6673 -0.9097
  681TMC3    C710080   3.171   2.470  13.868 -0.2906  1.5352  0.8527
  681TMC3    C810081   3.297   2.742  14.221 -0.4450  0.1158  1.1869
  681TMC3    O110082   3.105   2.368  13.890  0.1717  0.1052 -0.5484
  681TMC3    O210083   3.208   2.696  14.288  0.1398 -0.2094  0.0102
  682MPD2     C10084   1.272   4.207  10.555  0.2359 -0.4397 -0.2785
  682MPD2    C110085   1.215   4.085  10.590  0.3836 -0.0898  0.4345
  682MPD2    C210086   1.119   4.085  10.687 -0.5353 -0.1999 -0.0684
  682MPD2    C310087   1.086   4.206  10.748 -0.0905 -0.7626 -0.1022
  682MPD2    C410088   1.158   4.329  10.717 -0.0724  0.4432 -0.7552
  682MPD2    C510089   1.242   4.322  10.614 -0.3090  0.5219 -0.4482
  682MPD2     H10090   1.067   3.995  10.717  0.5222 -0.6439  0.4287
  682MPD2    H110091   1.118   4.425  10.749  1.4314  0.4960  0.9332
  682MPD2    H210092   1.338   4.211  10.468  1.0845  3.5339  0.5572
  682MPD2    H310093   1.284   4.409  10.566  2.5834 -0.2025  0.7508
  682MPD2     N10094   0.972   4.215  10.828  0.1996  0.2405  0.0182
  682MPD2    H510095   0.956   4.305  10.872  0.6790 -0.6910  2.1204
  682MPD2    N110096   1.241   3.959  10.533  0.0216 -0.5851 -0.0072
  682MPD2    H710097   1.198   3.876  10.573 -0.5101 -0.3694 -0.1233
  683TMC3    C110098   0.657   4.234  11.116  0.4187  0.3722 -0.3710
  683TMC3    C210099   0.541   4.197  11.068 -0.9254  0.1678 -0.4974
  683TMC3    C310100   0.531   4.114  10.956  0.1284 -0.5854 -0.5076
  683TMC3    C410101   0.774   4.213  11.043 -0.4671 -0.0786 -0.0082
  683TMC3    C510102   0.762   4.147  10.922  0.5637 -0.1147  0.5434
  683TMC3    C610103   0.643   4.089  10.884  0.5521  0.0495 -0.4183
  683TMC3     C10104   0.671   4.265  11.253 -0.3691  0.1576  0.3802
  683TMC3     O10105   0.754   4.348  11.282  0.5339  0.2564 -0.0443
  683TMC3     H10106   0.450   4.239  11.110 -1.1640 -1.4362  0.5856
  683TMC3    H110107   0.867   4.245  11.090  1.4973 -2.3824 -2.2970
  683TMC3    H210108   0.634   4.020  10.801 -0.3587 -0.9160  0.4869
  683TMC3    C710109   0.870   4.119  10.836 -0.5901 -0.8700  0.2468
  683TMC3    C810110   0.415   4.093  10.882  0.1698 -0.0824  0.6276
  683TMC3    O110111   0.864   4.011  10.782  0.3279 -0.5066 -0.0205
  683TMC3    O210112   0.330   4.184  10.880 -0.0442 -0.0579  0.3157
  684MPD2     C10113   3.473   4.153  16.138 -0.3124 -0.4830 -0.2149
  684MPD2    C110114   3.525   4.200  16.023  0.0782  0.5852  0.0040
  684MPD2    C210115   3.552   4.330  16.005 -0.5767  0.1139 -0.6886
  684MPD2    C310116   3.537   4.422  16.102  0.9682  0.6783  0.7230
  684MPD2    C410117   3.487   4.373  16.225  0.9696  0.5892  0.0449
  684MPD2    C510118   3.455   4.238  16.242 -0.4628 -0.0996  0.1567
  684MPD2     H10119   3.600   4.356  15.911 -0.0333 -4.0040 -1.5608
  684MPD2    H110120   3.482   4.439  16.311 -0.0458  0.6677 -0.0749
  684MPD2    H210121   3.446   4.052  16.167 -0.3584 -0.1704  0.8470
  684MPD2    H310122   3.412   4.202  16.335  0.7656 -2.9413 -0.3702
  684MPD2     N10123   3.552   4.563  16.089  0.6583  0.0762  0.3932
  684MPD2    H510124   3.550   4.611  16.178  1.0107  0.3748  0.2401
  684MPD2    N110125   3.556   4.118  15.910 -0.3053  0.3552  0.5176
  684MPD2    H710126   3.597   4.160  15.827  0.7748  0.6878  1.2231
  685TMC3    C110127   3.567   3.923  15.769 -0.3975 -0.0506  0.1954
  685TMC3    C210128   3.471   3.890  15.681  0.0673  0.2272 -0.0829
  685TMC3    C310129   3.511   3.859  15.549  0.0393 -0.0076  1.1932
  685TMC3    C410130   3.699   3.927  15.726  0.1138 -0.2218 -0.0137
  685TMC3    C510131   3.736   3.882  15.601 -0.2519 -0.1317 -0.0343
  685TMC3    C610132   3.641   3.844  15.516 -0.8421 -0.3904  0.2748
  685TMC3     C10133   3.526   3.980  15.897 -0.4683 -0.1021  0.5492
  685TMC3     O10134   3.462   3.910  15.974 -0.3613  0.0791 -0.0509
  685TMC3     H10135   3.367   3.913  15.700 -0.2516  0.2495 -1.8562
  685TMC3    H110136   3.778   3.948  15.797  2.0272 -0.1415 -2.2091
  685TMC3    H210137   3.668   3.821  15.413 -0.5323 -0.8727  0.4645
  685TMC3    C710138   3.864   3.818  15.580  0.1720  0.5958  0.5233
  685TMC3    C810139   3.413   3.810  15.458 -0.3093  0.6340  0.1870
  685TMC3    O110140   3.890   3.784  15.464  0.5106  0.3467 -0.0200
  685TMC3    O210141   3.448   3.792  15.344  0.2098  0.3476 -0.5238
  686MPD2     C10142   0.500   3.387  15.354 -0.0619 -0.3543 -0.6261
  686MPD2    C110143   0.524   3.343  15.483  0.4337 -0.2586 -0.7514
  686MPD2    C210144   0.592   3.222  15.500 -0.0783  0.5174  0.5010
  686MPD2    C310145   0.604   3.136  15.393 -0.0403  0.3963 -0.7944
  686MPD2    C410146   0.581   3.186  15.266 -0.6252 -0.3331 -0.1388
  686MPD2    C510147   0.531   3.310  15.248  0.1304 -0.8250  0.1227
  686MPD2     H10148   0.640   3.196  15.594  2.0852  1.3201 -0.3755
  686MPD2    H110149   0.599   3.131  15.174  0.3214 -0.6265  0.2253
  686MPD2    H210150   0.466   3.488  15.336 -0.7239 -0.7382 -1.5290
  686MPD2    H310151   0.511   3.352  15.150  0.5946 -0.3468  0.2298
  686MPD2     N10152   0.648   3.001  15.401 -0.7861  0.2062  0.5056
  686MPD2    H510153   0.694   2.968  15.317 -1.8696  0.1200 -0.0432
  686MPD2    N110154   0.492   3.423  15.591 -0.2077  0.0287  0.2298
  686MPD2    H710155   0.452   3.514  15.572  1.8370  0.8274 -0.2393
  687TMC3    C110156   0.572   2.937  15.618 -0.2620  0.0675  0.8478
  687TMC3    C210157   0.436   2.975  15.593  0.7100 -1.3484 -0.8611
  687TMC3    C310158   0.350   2.989  15.694  0.4009 -0.6200 -0.0014
  687TMC3    C410159   0.614   2.922  15.744  1.2866 -0.7446 -0.6087
  687TMC3    C510160   0.527   2.943  15.845  0.0357 -0.3664  0.4039
  687TMC3    C610161   0.400   2.976  15.824 -1.0589 -0.3168 -0.2297
  687TMC3     C10162   0.665   2.919  15.509 -0.6388 -0.8675 -0.7775
  687TMC3     O10163   0.757   2.837  15.523 -0.0300  0.1206  0.2486
  687TMC3     H10164   0.398   2.990  15.492  0.0971  1.5678 -0.1957
  687TMC3    H110165   0.720   2.906  15.761  1.2136  1.3479  1.7775
  687TMC3    H210166   0.332   2.995  15.907  1.2467  2.2545  1.0982
  687TMC3    C710167   0.593   2.973  15.973 -1.0622  0.2652  0.0345
  687TMC3    C810168   0.222   3.063  15.678 -0.0772 -0.6839  0.1368
  687TMC3    O110169   0.659   2.877  16.020  0.8508 -0.4896 -0.2161
  687TMC3    O210170   0.136   3.054  15.768  0.6612 -0.8819  0.6844
  688MPD2     C10171   4.263   2.398  17.581 -0.4478  0.1134 -0.7863
  688MPD2    C110172   4.233   2.303  17.485  0.5475 -0.0146 -0.3232
  688MPD2    C210173   4.330   2.272  17.394  0.1152  0.3161  0.1184
  688MPD2    C310174   4.455   2.342  17.396  0.1368 -0.1700  0.1344
  688MPD2    C410175   4.475   2.440  17.485 -0.6957  0.4916  0.3256
  688MPD2    C510176   4.382   2.460  17.592  0.2211 -0.3169 -0.0112
  688MPD2     H10177   4.308   2.203  17.313  1.7048  0.9926 -0.8727
  688MPD2    H110178   4.570   2.493  17.484  0.5010 -1.7098 -1.0755
  688MPD2    H210179   4.200   2.423  17.665 -1.9610 -1.4261 -1.4471
  688MPD2    H310180   4.406   2.523  17.677  0.2695  0.4382 -0.5798
  688MPD2     N10181   4.564   2.308  17.311  0.3343 -0.0256  0.1490
  688MPD2    H510182   4.644   2.370  17.310  0.9456 -0.8372 -0.6861
  688MPD2    N110183   4.109   2.224  17.480  0.0705  1.0076 -0.2812
  688MPD2    H710184   4.111   2.153  17.408 -1.2530 -1.5799  2.2539
  689TMC3    C110185   3.906   2.126  17.538  0.1354  0.9199  0.4604
  689TMC3    C210186   3.840   2.090  17.648  0.0026 -0.0788 -0.3258
  689TMC3    C310187   3.765   1.973  17.642  0.6779  0.6640  0.1904
  689TMC3    C410188   3.902   2.063  17.416 -0.5960 -0.6603 -0.0373
  689TMC3    C510189   3.822   1.952  17.418  0.2178 -0.6432  0.0296
  689TMC3    C610190   3.750   1.909  17.524  0.1910  0.0836 -0.4005
  689TMC3     C10191   4.004   2.233  17.562  0.5334  0.0513  0.5042
  689TMC3     O10192   3.980   2.310  17.653 -0.0904 -0.0898  0.5970
  689TMC3     H10193   3.861   2.143   0.057 -1.8642  2.0764 -1.1496
  689TMC3    H110194   3.945   2.107  17.327 -0.1917  0.2366  0.6002
  689TMC3    H210195   3.663   1.847  17.508 -0.4207  0.6292  0.8694
  689TMC3    C710196   3.819   1.875  17.290  0.5005  0.3616 -0.0001
  689TMC3    C810197   3.688   1.936   0.077 -0.0869  0.7500 -0.7850
  689TMC3    O110198   3.874   1.931  17.196 -0.9994 -0.0412 -0.1284
  689TMC3    O210199   3.674   2.018   0.166 -0.2679 -0.3579 -0.0728
  690MPD2     C10200   2.237   4.397  15.929  0.8397 -0.3734 -0.4700
  690MPD2    C110201   2.154   4.412  15.822 -0.4457 -0.2018  0.4355
  690MPD2    C210202   2.216   4.462  15.703 -0.1921  0.2793 -0.3710
  690MPD2    C310203   2.342   4.518  15.700  0.5266  0.2922  0.2707
  690MPD2    C410204   2.418   4.498  15.809  0.6250 -0.4575 -0.6053
  690MPD2    C510205   2.367   4.426  15.916 -0.0018  0.4031  0.0781
  690MPD2     H10206   2.158   4.481  15.613 -0.3769 -1.8172 -0.6867
  690MPD2    H110207   2.521   4.531  15.814  0.1745  1.1162 -2.1849
  690MPD2    H210208   2.211   4.342  16.018 -0.2627  1.5071  0.3495
  690MPD2    H310209   2.430   4.386  15.994 -0.5788  0.1069  0.3961
  690MPD2     N10210   2.391   4.578  15.582 -0.7161 -0.5877 -0.6394
  690MPD2    H510211   2.326   4.585  15.505  1.0512  1.9891 -1.8988
  690MPD2    N110212   2.022   4.387  15.825 -0.2585  0.3942  0.5345
  690MPD2    H710213   1.985   4.376  15.730  2.6714  1.7966 -0.7531
  691TMC3    C110214   1.830   4.271  15.886  0.0938  0.0374  0.1006
  691TMC3    C210215   1.774   4.304  15.769 -0.9293 -0.0550  0.5705
  691TMC3    C310216   1.667   4.223  15.734  0.4032  0.0201  0.1972
  691TMC3    C410217   1.797   4.167  15.968  0.6097  0.9755 -0.7170
  691TMC3    C510218   1.692   4.084  15.922  0.2347  0.2313  0.4250
  691TMC3    C610219   1.630   4.115  15.805 -1.2254 -0.1025  0.1438
  691TMC3     C10220   1.955   4.326  15.933 -0.0524  0.7292  0.2748
  691TMC3     O10221   1.997   4.300  16.050 -0.0028 -0.4513 -0.2378
  691TMC3     H10222   1.783   4.393  15.708  1.0502 -1.3810 -1.0604
  691TMC3    H110223   1.848   4.140  16.060  1.1313  0.4346 -1.1590
  691TMC3    H210224   1.565   4.039  15.764 -0.0105 -0.3698 -1.2932
  691TMC3    C710225   1.661   3.961  16.001 -0.6419 -0.1826  0.2415
  691TMC3    C810226   1.563   4.264  15.633  0.1334 -0.4454 -0.2354
  691TMC3    O110227   1.729   3.946  16.105  0.2584  0.4782  0.0859
  691TMC3    O210228   1.558   4.385  15.615 -0.0121 -0.0181  0.3094
  692TMC3    C110229   3.095   0.884  15.654  0.1244 -0.2727  0.1655
  692TMC3    C210230   3.134   1.017  15.648  0.2228 -0.3388 -0.2170
  692TMC3    C310231   3.244   1.046  15.570  0.0357 -0.7014 -0.0438
  692TMC3    C410232   3.149   0.785  15.573  0.0540 -0.2754  0.7646
  692TMC3    C510233   3.237   0.826  15.483 -0.0088 -0.5315 -0.0338
  692TMC3    C610234   3.272   0.959  15.469  0.0255  0.3025  0.4056
  692TMC3     C10235   3.030   0.849  15.775 -0.2360  0.0148  0.2629
  692TMC3     O10236   2.995   0.935  15.853  0.1152 -0.5158 -0.4335
  692TMC3     H10237   3.109   1.081  15.731 -1.5842 -0.1111 -0.9306
  692TMC3    H110238   3.116   0.682  15.571  0.7650 -0.4577 -1.3317
  692TMC3    H210239   3.358   0.988  15.411 -0.2232 -0.6753 -0.4420
  692TMC3    C710240   3.334   0.734  15.424  0.1582  0.5202 -0.1726
  692TMC3    C810241   3.261   1.183  15.538  0.6375 -0.4208  0.0145
  692TMC3    O110242   3.383   0.762  15.315 -0.1333 -0.8502 -0.2813
  692TMC3    O210243   3.250   1.191  15.418 -0.2567 -0.2324  0.3230
  693MPD2     C10244   3.249   2.683  10.484  0.9533 -0.5808 -0.4206
  693MPD2    C110245   3.255   2.622  10.601 -0.0375  0.2776  0.4402
  693MPD2    C210246   3.375   2.571  10.653  0.0337 -0.8264  0.4126
  693MPD2    C310247   3.493   2.607  10.590 -0.7612  0.4259 -0.1433
  693MPD2    C410248   3.485   2.668  10.471  0.2165  0.5469 -0.6877
  693MPD2    C510249   3.366   2.706  10.416  0.6508  0.0613  0.3128
  693MPD2     H10250   3.380   2.530  10.753  0.8073 -0.4206  0.5333
  693MPD2    H110251   3.575   2.683  10.414  1.1111 -0.5492  0.4332
  693MPD2    H210252   3.151   2.722  10.460  0.5110 -1.7536 -0.5229
  693MPD2    H310253   3.358   2.752  10.319  2.5873  0.8220  0.5165
  693MPD2     N10254   3.610   2.581  10.668  0.4136 -0.5650 -0.3784
  693MPD2    H510255   3.597   2.522  10.750  0.8005  0.9234  0.7619
  693MPD2    N110256   3.130   2.618  10.672 -0.0702 -0.7928 -0.2306
  693MPD2    H710257   3.044   2.635  10.621 -0.6963 -0.3853  0.9827
  694TMC3    C110258   2.975   2.567  10.834  0.0613  0.0675 -0.7492
  694TMC3    C210259   2.867   2.588  10.747  0.0376  0.8272 -0.0823
  694TMC3    C310260   2.740   2.617  10.807 -0.7239 -0.2038  0.0829
  694TMC3    C410261   2.960   2.588  10.972 -0.4923  0.0108 -0.5117
  694TMC3    C510262   2.841   2.624  11.017 -0.1630  0.7403 -0.4691
  694TMC3    C610263   2.724   2.631  10.943 -0.1551 -1.0457 -0.9564
  694TMC3     C10264   3.111   2.567  10.794  0.0268 -0.2238  0.4171
  694TMC3     O10265   3.197   2.545  10.879 -0.6037  0.2367  0.3820
  694TMC3     H10266   2.884   2.550  10.647 -1.2395  0.5205 -0.1872
  694TMC3    H110267   3.044   2.590  11.039 -0.4970  2.8547 -0.6083
  694TMC3    H210268   2.634   2.679  10.980 -0.4179 -0.8359 -1.8635
  694TMC3    C710269   2.843   2.634  11.157  0.4401  0.2609 -0.7682
  694TMC3    C810270   2.623   2.604  10.727 -0.8059  0.7953  0.1910
  694TMC3    O110271   2.944   2.626  11.227  0.4220 -0.0467 -0.5307
  694TMC3    O210272   2.513   2.603  10.779 -0.1100  0.0970  0.2447
  695MPD2     C10273   3.929   0.274  13.494  0.2147  0.1156 -0.9205
  695MPD2    C110274   3.895   0.261  13.626  0.5739  0.3266 -0.2618
  695MPD2    C210275   3.759   0.229  13.648  0.3470  0.0672 -0.0940
  695MPD2    C310276   3.668   0.221  13.552  0.2470  0.8695 -0.1126
  695MPD2    C410277   3.715   0.226  13.424  0.5774  0.6554 -0.7879
  695MPD2    C510278   3.842   0.259  13.390 -0.3163  0.4930  0.4199
  695MPD2     H10279   3.726   0.222  13.751 -2.5326  0.7253 -0.9979
  695MPD2    H110280   3.639   0.219  13.346 -1.4641  0.4089  1.2323
  695MPD2    H210281   4.033   0.296  13.473 -0.3028  1.0622 -2.5174
  695MPD2    H310282   3.879   0.260  13.288 -2.2046 -2.0000 -0.3064
  695MPD2     N10283   3.532   0.210  13.585  0.0823 -0.0726 -0.0340
  695MPD2    H510284   3.500   0.222  13.681  0.3491  0.0093  0.0433
  695MPD2    N110285   3.981   0.264  13.736 -0.0545  0.3659  0.4052
  695MPD2    H710286   3.941   0.260  13.829 -1.1380  1.2337 -0.0353
  696TMC3    C110287   3.302   0.247  13.569 -0.1187  0.6947  0.6748
  696TMC3    C210288   3.298   0.213  13.702  0.4706  0.6626  0.1387
  696TMC3    C310289   3.219   0.278  13.787  0.0863  0.5019 -0.0572
  696TMC3    C410290   3.214   0.337  13.517 -0.7316  0.6851  0.1292
  696TMC3    C510291   3.117   0.392  13.601 -0.3563  0.1597  0.0794
  696TMC3    C610292   3.130   0.362  13.739  0.3491  0.0389 -0.0903
  696TMC3     C10293   3.426   0.226  13.498  0.3223  0.1009  0.4387
  696TMC3     O10294   3.427   0.265  13.382 -0.1712  0.5581  0.1230
  696TMC3     H10295   3.370   0.140  13.736 -1.0705 -0.8210  0.2202
  696TMC3    H110296   3.220   0.365  13.412  2.8820 -1.3176 -0.1809
  696TMC3    H210297   3.057   0.403  13.808  0.5301  1.2408 -0.6219
  696TMC3    C710298   3.086   0.532  13.557 -0.3104 -0.2226 -0.2660
  696TMC3    C810299   3.297   0.346  13.888  0.0275 -0.2560 -0.1588
  696TMC3    O110300   3.066   0.547  13.439  0.8483  0.1426  0.0016
  696TMC3    O210301   3.410   0.371  13.844 -0.3390 -0.1860 -0.5457
  697MPD2     C10302   2.892   2.497  15.655  0.3231 -0.3837  0.0869
  697MPD2    C110303   2.950   2.418  15.561 -0.0325  0.1132  0.3541
  697MPD2    C210304   3.032   2.483  15.463 -0.5072 -0.6277  0.1269
  697MPD2    C310305   3.058   2.626  15.467  0.2825  0.5862  0.1965
  697MPD2    C410306   2.998   2.697  15.573  0.0452 -0.7206  0.2868
  697MPD2    C510307   2.921   2.630  15.671 -0.3409 -0.0836  0.1077
  697MPD2     H10308   3.069   2.421  15.382  0.0983  0.4002 -0.3891
  697MPD2    H110309   3.020   2.798  15.606 -0.6883  0.2566 -2.2317
  697MPD2    H210310   2.825   2.446  15.723 -1.6651  0.4936 -1.2373
  697MPD2    H310311   2.884   2.686  15.756 -1.0448  1.7452 -1.3925
  697MPD2     N10312   3.146   2.685  15.373 -0.2057 -0.2237 -0.8951
  697MPD2    H510313   3.184   2.622  15.303  1.8962  1.5115 -1.3193
  697MPD2    N110314   2.939   2.279  15.547 -0.3346 -0.1343  0.3060
  697MPD2    H710315   3.003   2.230  15.485 -0.9354 -0.9997  0.3712
  698TMC3    C110316   3.274   2.842  15.267  0.7350 -0.2481 -0.5814
  698TMC3    C210317   3.370   2.938  15.294 -0.4401 -0.3163 -0.7300
  698TMC3    C310318   3.464   2.975  15.199 -0.1406 -0.4092  0.7220
  698TMC3    C410319   3.275   2.777  15.141  0.4184 -0.4964 -0.4973
  698TMC3    C510320   3.379   2.808  15.055  0.2823 -0.1227  0.3408
  698TMC3    C610321   3.470   2.914  15.074 -0.3908  0.1774  0.8060
  698TMC3     C10322   3.165   2.818  15.356  0.2776  0.5815  0.0776
  698TMC3     O10323   3.135   2.916  15.429 -0.0700 -0.1668 -0.2451
  698TMC3     H10324   3.371   2.981  15.394  1.4678 -0.0591 -0.8567
  698TMC3    H110325   3.210   2.694  15.116 -1.2970  0.6284  0.2071
  698TMC3    H210326   3.554   2.937  15.009  0.3949  0.3196  1.8601
  698TMC3    C710327   3.358   2.747  14.929  0.1746 -0.0281 -0.2916
  698TMC3    C810328   3.584   3.055  15.241  0.7764  0.5005  0.5045
  698TMC3    O110329   3.242   2.721  14.902  0.2626 -0.4589 -0.1323
  698TMC3    O210330   3.612   3.047  15.358  0.1556  0.6602 -0.2426
  699TMC3    C110331   3.202   0.128  12.722  0.6822 -0.0910  0.2024
  699TMC3    C210332   3.230   0.032  12.821  0.1808  0.2450  0.7843
  699TMC3    C310333   3.123   4.717  12.899  0.4168  0.6125 -0.2049
  699TMC3    C410334   3.094   0.200  12.720  1.2956 -0.6817  0.7750
  699TMC3    C510335   2.986   0.173  12.800  0.7338 -0.0491 -0.3865
  699TMC3    C610336   3.002   0.064  12.884  0.2104 -0.6132  0.2168
  699TMC3     C10337   3.301   0.170  12.627  0.2458  0.5935 -0.1246
  699TMC3     O10338   3.265   0.236  12.529 -0.0523  0.2250 -0.2896
  699TMC3     H10339   3.323   4.696  12.832  0.9572  1.5652  0.9580
  699TMC3    H110340   3.081   0.261  12.631  0.0063 -0.2056  1.2985
  699TMC3    H210341   2.919   0.041  12.951  0.1158  0.1361  0.3550
  699TMC3    C710342   2.911   0.289  12.850 -0.2383  0.4029  0.0710
  699TMC3    C810343   3.148   4.645  13.024 -0.1480  0.1925  0.2556
  699TMC3    O110344   2.872   0.277  12.964 -0.4677 -0.0644 -0.5194
  699TMC3    O210345   3.051   4.615  13.094 -0.3512 -0.6244 -0.0493
  700TMC3    C110346   1.681   2.329  17.089  0.5556 -0.6083 -0.1513
  700TMC3    C210347   1.807   2.293  17.061 -0.5125 -0.1980  0.3021
  700TMC3    C310348   1.840   2.163  17.117 -0.0544 -0.0242  0.9382
  700TMC3    C410349   1.597   2.252  17.163 -0.5403  0.5752  0.3049
  700TMC3    C510350   1.646   2.158  17.243  0.5024  0.3779 -0.2687
  700TMC3    C610351   1.768   2.103  17.219  0.3446  0.0477 -0.0163
  700TMC3     C10352   1.646   2.467  17.064  0.8253 -1.1574 -0.2651
  700TMC3     O10353   1.527   2.485  17.065 -0.3320 -0.4027 -0.2563
  700TMC3     H10354   1.875   2.347  16.996 -0.0528 -1.7307 -0.5067
  700TMC3    H110355   1.501   2.298  17.184 -0.7613  0.6293 -0.8560
  700TMC3    H210356   1.799   2.009  17.263 -1.2204 -0.7100 -0.5152
  700TMC3    C710357   1.566   2.095  17.348 -0.7324 -0.5005  0.1134
  700TMC3    C810358   1.971   2.103  17.083  0.2941  0.3650 -0.4913
  700TMC3    O110359   1.575   1.971  17.345  0.0368  0.2735  0.0557
  700TMC3    O210360   2.050   2.174  17.020 -0.1038  0.1127 -0.1546
  701TMC3    C110361   2.353   1.198  15.690  0.0940 -0.2106 -0.0108
  701TMC3    C210362   2.432   1.126  15.600  0.0960  0.2676  0.0129
  701TMC3    C310363   2.505   1.187  15.506  0.4407  0.0348  0.6858
  701TMC3    C410364   2.351   1.338  15.690  0.0474 -0.1728  0.4509
  701TMC3    C510365   2.434   1.396  15.592 -0.3622  0.2622  0.1054
  701TMC3    C610366   2.505   1.325  15.502  0.1049 -0.5178  0.4797
  701TMC3     C10367   2.275   1.133  15.801  0.5738  0.4480 -0.4887
  701TMC3     O10368   2.301   1.014  15.834 -0.0112 -0.1736 -0.0829
  701TMC3     H10369   2.408   1.021  15.589 -1.7187  0.4941  1.6223
  701TMC3    H110370   2.299   1.398  15.764 -0.6682  0.9283 -0.9606
  701TMC3    H210371   2.563   1.377  15.426  1.4812 -0.4705  1.5684
  701TMC3    C710372   2.431   1.541  15.569  0.3030 -0.9359  0.6937
  701TMC3    C810373   2.494   1.136  15.368  0.2283 -0.0364  0.6506
  701TMC3    O110374   2.463   1.578  15.458 -0.0983  0.2591  0.2584
  701TMC3    O210375   2.407   1.052  15.354  0.0648  0.0032  0.1949
  702MPD2     C10376   1.671   3.584  10.570  0.4934  0.0553  0.3087
  702MPD2    C110377   1.664   3.711  10.621  0.6017  0.1797  0.4551
  702MPD2    C210378   1.750   3.806  10.580  0.1968  0.4541  0.2652
  702MPD2    C310379   1.844   3.778  10.476  0.5430  0.1372  0.6664
  702MPD2    C410380   1.843   3.653  10.419 -0.4804 -0.5453 -0.2126
  702MPD2    C510381   1.757   3.555  10.467  0.3497 -0.2744 -0.3230
  702MPD2     H10382   1.744   3.898  10.636 -1.3323  1.1237 -0.9947
  702MPD2    H110383   1.916   3.625  10.344 -0.3361 -2.0452  0.4982
  702MPD2    H210384   1.616   3.502  10.613 -1.9972  1.8114  0.4828
  702MPD2    H310385   1.774   3.449  10.452 -0.5564 -0.6708  1.4605
  702MPD2     N10386   1.919   3.890  10.429  0.4897  0.2821 -0.1447
  702MPD2    H510387   1.895   3.979  10.470 -0.9443 -0.9312  1.6486
  702MPD2    N110388   1.574   3.738  10.729 -0.2682  0.8001 -0.0870
  702MPD2    H710389   1.572   3.833  10.766  1.9272 -0.3857  3.1201
  703TMC3    C110390   2.036   4.008  10.266 -0.5634  0.0326 -0.0495
  703TMC3    C210391   1.971   4.128  10.292  0.2210  0.5327  0.4449
  703TMC3    C310392   2.028   4.244  10.247  0.7747  0.5912  0.3676
  703TMC3    C410393   2.139   4.005  10.169  1.1132  0.4738 -0.4527
  703TMC3    C510394   2.190   4.123  10.121  0.3797  0.3488 -0.2703
  703TMC3    C610395   2.129   4.242  10.153  0.1244  0.0445  0.6724
  703TMC3     C10396   2.003   3.880  10.328 -0.3168  1.0333 -0.2806
  703TMC3     O10397   2.062   3.781  10.284  0.1403  0.4452 -0.5089
  703TMC3     H10398   1.884   4.121  10.356  1.2637 -3.9972  1.3434
  703TMC3    H110399   2.173   3.910  10.129  2.6335  0.3558  1.1273
  703TMC3    H210400   2.167   4.334  10.110  2.2534 -2.0301 -1.8677
  703TMC3    C710401   2.317   4.127  10.045 -0.1003  0.0456 -0.7116
  703TMC3    C810402   2.022   4.364  10.322  0.2941  0.6152 -0.4687
  703TMC3    O110403   2.344   4.238   9.997 -0.2872 -0.2464 -0.0747
  703TMC3    O210404   2.103   4.453  10.294  0.7730  0.1633  0.0509
  704TMC3    C110405   3.939   2.250  12.228  0.9229  0.4403  0.4098
  704TMC3    C210406   4.071   2.281  12.251  0.3339 -0.0082  0.1908
  704TMC3    C310407   4.138   2.221  12.353 -0.2904 -0.4106  0.0383
  704TMC3    C410408   3.875   2.171  12.322  0.0728  0.5141 -0.2238
  704TMC3    C510409   3.943   2.109  12.421 -0.5628  0.2062 -0.0685
  704TMC3    C610410   4.073   2.137  12.442 -0.0249 -0.7074  0.2728
  704TMC3     C10411   3.901   2.196  12.098 -1.0036 -0.0661 -0.0599
  704TMC3     O10412   3.785   2.192  12.066 -0.2723  0.3287 -0.1707
  704TMC3     H10413   4.118   2.348  12.180 -2.3267  2.2277  0.5182
  704TMC3    H110414   3.774   2.135  12.302 -0.9971  2.3288  1.7908
  704TMC3    H210415   4.126   2.114  12.534  0.0983 -2.7949 -0.3219
  704TMC3    C710416   3.879   1.994  12.487  0.0693 -1.1573 -0.1946
  704TMC3    C810417   4.265   2.188  12.313  0.4976 -0.1846  0.2352
  704TMC3    O110418   3.756   1.986  12.494  0.4118 -0.3242 -0.0945
  704TMC3    O210419   4.280   2.197  12.191  0.4776 -0.0206 -0.1318
  705MPD2     C10420   4.121   4.560  16.883  0.0397 -0.2008  0.5542
  705MPD2    C110421   4.059   4.684  16.871  0.0549 -0.9024  0.3200
  705MPD2    C210422   3.942   4.715  16.944  0.4654  0.7663  0.5932
  705MPD2    C310423   3.876   4.615  17.021 -0.0719 -0.2813 -0.0083
  705MPD2    C410424   3.939   4.493  17.031  0.2742  0.1419 -0.2560
  705MPD2    C510425   4.050   4.464  16.953  0.5747  0.1451 -0.1981
  705MPD2     H10426   3.903   0.095  16.928 -0.9450 -0.1126 -1.6256
  705MPD2    H110427   3.905   4.406  17.085  1.7732  0.1216  0.6332
  705MPD2    H210428   4.205   4.530  16.822 -0.3476  3.5434 -1.8239
  705MPD2    H310429   4.096   4.367  16.964  1.4634  0.3801 -1.7817
  705MPD2     N10430   3.761   4.635  17.105  0.7558  0.2115  0.0811
  705MPD2    H510431   3.729   4.551  17.152 -1.2177  0.2388 -1.2006
  705MPD2    N110432   4.120   0.061  16.784  0.0407  0.7215 -0.1770
  705MPD2    H710433   4.057   0.137  16.764 -1.1403 -0.7643 -2.0958
  706TMC3    C110434   4.442   0.240  16.475  0.4608 -0.0126 -0.3304
  706TMC3    C210435   4.351   0.318  16.419 -0.5196  0.2305  0.5886
  706TMC3    C310436   4.220   0.311  16.459  0.0265 -0.5982  0.0360
  706TMC3    C410437   4.410   0.161  16.582 -0.1093 -0.1121  0.2081
  706TMC3    C510438   4.278   0.163  16.636  0.1379  0.3695 -0.4399
  706TMC3    C610439   4.184   0.235  16.564  0.4885  0.0423 -0.7648
  706TMC3     C10440   4.581   0.241  16.433  0.6162  0.1902  0.3528
  706TMC3     O10441   4.661   0.194  16.513  0.2447 -0.6161  0.4115
  706TMC3     H10442   4.383   0.390  16.344 -0.4875 -2.0938 -1.6139
  706TMC3    H110443   4.484   0.094  16.625 -0.0121  0.2927  0.6641
  706TMC3    H210444   4.083   0.242  16.605 -0.4479 -0.6591 -2.9536
  706TMC3    C710445   4.243   0.059  16.730 -0.7060  0.4884 -0.2463
  706TMC3    C810446   4.128   0.379  16.379  0.8485 -0.5320 -0.1585
  706TMC3    O110447   4.340   0.002  16.777 -0.3708  0.1295 -0.2529
  706TMC3    O210448   4.170   0.488  16.342  0.6191  0.1835 -0.3932
  707TMC3    C110449   0.496   3.171   1.942 -0.4699 -0.0174  0.2011
  707TMC3    C210450   0.448   3.062   1.878  0.6363 -0.4686  0.5294
  707TMC3    C310451   0.332   3.069   1.810 -0.0086 -0.8047  0.7190
  707TMC3    C410452   0.418   3.280   1.969 -0.3346  0.2017  0.2780
  707TMC3    C510453   0.287   3.265   1.916 -0.6414  0.8805  0.0530
  707TMC3    C610454   0.242   3.167   1.835  0.3509 -1.3556  0.9512
  707TMC3     C10455   0.637   3.170   1.960  0.3926 -0.6444  0.2950
  707TMC3     O10456   0.701   3.084   1.903  0.0876 -0.0287  0.4163
  707TMC3     H10457   0.516   2.980   1.861 -0.9743 -1.6598 -0.1618
  707TMC3    H110458   0.451   3.367   2.024 -3.0915 -0.2226  2.5962
  707TMC3    H210459   0.134   3.155   1.837  0.2965 -0.8614  0.8544
  707TMC3    C710460   0.186   3.359   1.959  0.2192 -0.4375 -0.3134
  707TMC3    C810461   0.307   2.985   1.692  0.0703  0.2912  0.1822
  707TMC3    O110462   0.071   3.320   1.967 -0.0167  0.1748 -0.1195
  707TMC3    O210463   0.220   3.022   1.616  0.0029 -0.5203  0.2143
  708MPD2     C10464   2.256   3.471  14.022  0.7086  0.3943  0.2227
  708MPD2    C110465   2.214   3.433  14.144  0.6229  0.2644 -1.0435
  708MPD2    C210466   2.239   3.312  14.189 -1.0728  0.6046  0.2714
  708MPD2    C310467   2.289   3.216  14.106 -0.5093  0.1002  0.1473
  708MPD2    C410468   2.340   3.259  13.978 -0.5886  0.0219  0.0510
  708MPD2    C510469   2.333   3.388  13.940  0.4682  0.2674  0.2005
  708MPD2     H10470   2.205   3.264  14.280  1.3416 -0.2651  0.7116
  708MPD2    H110471   2.383   3.197  13.901 -0.2062  0.8747 -0.4244
  708MPD2    H210472   2.246   3.575  13.993  1.4326  0.6578  0.9236
  708MPD2    H310473   2.379   3.429  13.852 -1.4180 -0.9275 -1.3540
  708MPD2     N10474   2.318   3.084  14.164 -0.3781 -0.0541 -0.3756
  708MPD2    H510475   2.272   3.056  14.251 -0.5029 -0.1833 -0.4840
  708MPD2    N110476   2.134   3.519  14.222  0.1047  0.4339  0.2263
  708MPD2    H710477   2.106   3.607  14.181 -0.4575  0.6684  1.1086
  709TMC3    C110478   1.981   3.593  14.388  0.0364 -0.1608  1.2342
  709TMC3    C210479   1.872   3.607  14.311  0.1212 -0.4971 -0.2532
  709TMC3    C310480   1.745   3.583  14.366 -0.2674  0.0493 -0.2817
  709TMC3    C410481   1.965   3.571  14.524 -0.1486  0.3940  0.4815
  709TMC3    C510482   1.840   3.534  14.575 -0.3791  0.0321  0.8935
  709TMC3    C610483   1.731   3.545  14.494 -0.7366 -0.3045  0.9055
  709TMC3     C10484   2.086   3.500  14.349  0.1876 -0.5048  0.4881
  709TMC3     O10485   2.131   3.426  14.438  0.8160 -0.0464 -0.2088
  709TMC3     H10486   1.892   3.590  14.206  1.2597  0.6114 -0.2204
  709TMC3    H110487   2.055   3.556  14.582 -0.5167 -1.9911  0.4383
  709TMC3    H210488   1.634   3.524  14.536 -2.4973  2.3175 -1.8599
  709TMC3    C710489   1.838   3.427  14.671  0.4972  0.2480 -0.2035
  709TMC3    C810490   1.635   3.556  14.275  0.0321 -0.1163  0.0886
  709TMC3    O110491   1.748   3.434  14.756  0.1972 -0.4088  0.1435
  709TMC3    O210492   1.540   3.491  14.318 -0.1126  0.0296  0.4233
  710TMC3    C110493   3.722   4.494   0.796 -0.2758 -0.3022 -0.1937
  710TMC3    C210494   3.793   4.408   0.720  0.2380 -0.0398  0.5016
  710TMC3    C310495   3.781   4.275   0.745 -0.7962  0.3449 -0.4972
  710TMC3    C410496   3.674   4.459   0.917  0.2606 -0.4148  0.4127
  710TMC3    C510497   3.680   4.322   0.957  0.0083  0.2784  0.0058
  710TMC3    C610498   3.717   4.235   0.860  0.6991 -0.5317  0.4909
  710TMC3     C10499   3.741   4.633   0.761 -0.2619  0.0223 -0.8598
  710TMC3     O10500   3.834   4.674   0.690  0.0294 -0.0282 -0.0401
  710TMC3     H10501   3.812   4.437   0.617 -0.1250  1.5870  0.8836
  710TMC3    H110502   3.623   4.529   0.981  0.5869  1.2372 -1.1306
  710TMC3    H210503   3.723   4.130   0.889 -0.6597 -0.6536  0.3392
  710TMC3    C710504   3.577   4.269   1.046 -0.6600 -0.4706  0.3387
  710TMC3    C810505   3.805   4.185   0.639  0.4808  0.1650  0.3191
  710TMC3    O110506   3.525   4.162   1.014 -0.4040 -0.5144 -0.1512
  710TMC3    O210507   3.870   4.230   0.546  0.0211  0.3345  0.0543
  711TMC3    C110508   3.432   0.840  14.860  0.6018 -0.1576  0.8549
  711TMC3    C210509   3.467   0.960  14.921 -0.2174  0.3890 -0.2314
  711TMC3    C310510   3.545   0.943  15.035 -0.3525  0.2405  0.3066
  711TMC3    C410511   3.477   0.719  14.895 -0.4960 -0.7519 -0.5453
  711TMC3    C510512   3.557   0.709  15.006 -0.3694 -0.7586  0.4393
  711TMC3    C610513   3.588   0.820  15.078  0.5878 -0.0068 -0.0638
  711TMC3     C10514   3.328   0.836  14.758  0.3072 -0.3690  0.2557
  711TMC3     O10515   3.260   0.736  14.754 -0.6176 -0.3892 -0.1241
  711TMC3     H10516   3.427   1.054  14.882 -0.1917 -0.4110 -2.2052
  711TMC3    H110517   3.441   0.640  14.830 -0.4097 -1.0507 -0.2270
  711TMC3    H210518   3.641   0.816  15.173 -0.0382  0.8554  0.3217
  711TMC3    C710519   3.638   0.594  15.028  0.3171  0.9013  0.0212
  711TMC3    C810520   3.564   1.060  15.111  0.1524 -0.3594 -0.0755
  711TMC3    O110521   3.708   0.598  15.128 -0.1521  0.0314 -0.1836
  711TMC3    O210522   3.550   1.164  15.048  0.0534 -0.1079 -0.0216
  712MPD2     C10523   4.192   2.337  13.544 -0.0084  0.1103 -0.2415
  712MPD2    C110524   4.072   2.394  13.579 -0.1546  0.7600  0.9141
  712MPD2    C210525   4.064   2.473  13.690 -0.2936  0.5704 -0.6097
  712MPD2    C310526   4.167   2.493  13.775 -0.2697 -0.3008 -0.3348
  712MPD2    C410527   4.285   2.428  13.743 -0.0194 -0.5255 -0.1326
  712MPD2    C510528   4.294   2.356  13.626 -0.5979 -0.2624  0.1180
  712MPD2     H10529   3.975   2.535  13.699 -1.0381 -0.6393  0.3178
  712MPD2    H110530   4.378   2.436  13.798 -1.2732 -3.0842  2.3842
  712MPD2    H210531   4.202   2.277  13.454 -0.6271 -2.2292  1.2189
  712MPD2    H310532   4.389   2.313  13.594 -0.7890 -0.7466  0.1943
  712MPD2     N10533   4.167   2.585  13.883 -0.5334  0.4537  0.0951
  712MPD2    H510534   4.259   2.613  13.916 -0.2297  0.6323 -0.9062
  712MPD2    N110535   3.956   2.374  13.505 -0.2255  0.2665  0.2983
  712MPD2    H710536   3.870   2.400  13.552  0.9143  1.9611  1.4401
  713TMC3    C110537   4.110   2.777  14.005 -0.0989 -0.6089  0.3134
  713TMC3    C210538   4.237   2.776  14.046 -0.4444  0.3320 -0.1822
  713TMC3    C310539   4.309   2.894  14.075 -0.2153 -1.4285 -0.2593
  713TMC3    C410540   4.055   2.899  13.972  0.5758 -0.2281  0.5039
  713TMC3    C510541   4.118   3.016  13.995  0.3992 -0.4422 -0.1713
  713TMC3    C610542   4.245   3.008  14.042  0.1946 -0.6968  0.3707
  713TMC3     C10543   4.067   2.668  13.923 -0.9285  0.3365 -0.0572
  713TMC3     O10544   3.951   2.668  13.875 -0.1870 -0.2192  0.5246
  713TMC3     H10545   4.278   2.682  14.081 -4.0164 -0.3559  2.1146
  713TMC3    H110546   3.957   2.902  13.925 -0.0256 -3.2332  1.5700
  713TMC3    H210547   4.296   3.103  14.052 -0.4030 -0.2699 -0.5996
  713TMC3    C710548   4.101   3.125  13.896  0.1787 -0.2084 -0.1401
  713TMC3    C810549   4.437   2.874  14.005 -0.1537 -0.7244  0.0884
  713TMC3    O110550   4.202   3.186  13.867 -0.2552  0.5070  0.7330
  713TMC3    O210551   4.461   2.949  13.917  0.6891 -0.1644 -0.6985
  714MPD2     C10552   1.403   4.409   1.725  0.7852  0.3104 -0.8689
  714MPD2    C110553   1.458   4.530   1.689  0.0795  0.4710  0.2055
  714MPD2    C210554   1.394   4.601   1.583 -0.7552 -0.4743 -0.4188
  714MPD2    C310555   1.284   4.554   1.515  0.4970  0.6287  0.1173
  714MPD2    C410556   1.234   4.433   1.559  0.2458 -0.5709  0.2233
  714MPD2    C510557   1.293   4.365   1.665  0.7462 -0.8856  0.2595
  714MPD2     H10558   1.430   4.701   1.563 -1.1031 -0.3159 -0.2463
  714MPD2    H110559   1.155   4.378   1.510 -1.4540  1.0719  1.0772
  714MPD2    H210560   1.447   4.345   1.801 -0.9999  0.3386  0.1698
  714MPD2    H310561   1.257   4.264   1.681 -1.6783  0.3060  2.3268
  714MPD2     N10562   1.243   4.629   1.402 -0.0027 -0.0739 -0.7467
  714MPD2    H510563   1.289   4.719   1.395 -2.0167  1.0130 -0.1049
  714MPD2    N110564   1.584   4.559   1.738 -0.2864  0.0544  0.3911
  714MPD2    H710565   1.633   4.484   1.784 -2.0272 -0.8223  0.8188
  715TMC3    C110566   1.795   4.656   1.739  0.5132  0.2869 -0.3461
  715TMC3    C210567   1.869   4.553   1.677  0.0698  0.2423 -0.5416
  715TMC3    C310568   2.000   4.569   1.658  0.9160  0.0923 -0.2755
  715TMC3    C410569   1.851   0.059   1.769 -0.1458 -0.3959 -0.9319
  715TMC3    C510570   1.983   0.076   1.736  0.1830 -0.1978  0.3802
  715TMC3    C610571   2.062   4.688   1.693  0.7886  0.0308 -0.1720
  715TMC3     C10572   1.659   4.671   1.702 -0.3300  1.2143 -0.2251
  715TMC3     O10573   1.628   0.056   1.639  0.1116 -0.6215  0.3458
  715TMC3     H10574   1.813   4.487   1.611  1.5789  0.3404 -1.9201
  715TMC3    H110575   1.781   0.136   1.799  2.2028  1.4873 -0.2660
  715TMC3    H210576   2.163   4.717   1.666  0.8558 -0.6631 -0.6387
  715TMC3    C710577   2.042   0.200   1.697 -0.7205 -0.0944 -0.4900
  715TMC3    C810578   2.084   4.477   1.574  0.2198 -0.2129 -0.1539
  715TMC3    O110579   2.159   0.220   1.702 -0.4275 -0.0817 -0.3399
  715TMC3    O210580   2.022   4.395   1.503  0.0935 -0.3771  0.0876
  716MPD2     C10581   2.144   3.247  10.105 -0.1154  0.5124  0.1250
  716MPD2    C110582   2.152   3.238   9.972 -0.3751  0.2113 -0.7629
  716MPD2    C210583   2.171   3.118   9.910 -0.1447 -0.5242  0.2893
  716MPD2    C310584   2.198   3.007   9.979 -0.2333  0.3520 -0.4377
  716MPD2    C410585   2.194   3.009  10.119 -0.2476  0.7359  0.4100
  716MPD2    C510586   2.155   3.127  10.176 -0.1544  0.4512 -0.0081
  716MPD2     H10587   2.185   3.107   9.804  1.3279  2.2506  0.2038
  716MPD2    H110588   2.206   2.925  10.187 -0.6661 -2.8791 -4.0540
  716MPD2    H210589   2.110   3.337  10.155 -1.1468 -0.0103  0.3701
  716MPD2    H310590   2.142   3.128  10.284  0.9193 -0.7201  0.1369
  716MPD2     N10591   2.208   2.885   9.904  0.1219 -0.7144 -1.4844
  716MPD2    H510592   2.190   2.892   9.805 -3.3119 -0.6749 -0.8706
  716MPD2    N110593   2.162   3.358   9.895 -0.2672 -0.0128  0.0215
  716MPD2    H710594   2.142   3.443   9.948  0.1280  0.8876 -1.2712
  717TMC3    C110595   2.176   2.661   9.848 -0.2582 -0.3661  0.0362
  717TMC3    C210596   2.091   2.721   9.754 -0.0657 -0.1544 -0.1056
  717TMC3    C310597   2.068   2.646   9.644 -0.6585  0.1950  0.4117
  717TMC3    C410598   2.241   2.540   9.827 -0.3705 -0.5112  0.4249
  717TMC3    C510599   2.224   2.483   9.705 -0.1211  0.0668  0.5177
  717TMC3    C610600   2.142   2.536   9.612  0.1218 -0.0525 -0.6316
  717TMC3     C10601   2.212   2.756   9.955 -0.1840  0.1702 -0.1505
  717TMC3     O10602   2.225   2.713  10.066 -0.3815 -0.6458  0.0339
  717TMC3     H10603   2.022   2.799   9.784  0.7457 -0.1561  1.7924
  717TMC3    H110604   2.303   2.509   9.910  1.8337 -0.7866 -1.3312
  717TMC3    H210605   2.119   2.486   9.519  0.7597  1.2586 -1.5031
  717TMC3    C710606   2.307   2.372   9.683 -0.2478 -0.2020  0.0511
  717TMC3    C810607   1.995   2.712   9.540  0.3140 -0.9875  0.4740
  717TMC3    O110608   2.374   2.331   9.781  0.0490  0.1297 -0.1059
  717TMC3    O210609   1.902   2.779   9.575  0.6402  0.4487  0.0495
  718MPD2     C10610   1.124   2.771  13.287 -0.1176 -1.1591 -0.2504
  718MPD2    C110611   1.122   2.719  13.156  0.0534 -0.0810 -0.0854
  718MPD2    C210612   1.000   2.716  13.095  0.1515  0.0359  0.1253
  718MPD2    C310613   0.890   2.780  13.144 -0.3097  0.2686 -0.1643
  718MPD2    C410614   0.889   2.827  13.277 -0.0520  0.0489 -0.1842
  718MPD2    C510615   1.009   2.814  13.347 -0.3591  0.2185 -0.5853
  718MPD2     H10616   0.990   2.670  12.997  1.4862 -0.9779  0.4593
  718MPD2    H110617   0.809   2.879  13.329 -0.2845 -1.1305  0.6499
  718MPD2    H210618   1.214   2.789  13.345 -1.3405  0.4347  1.1682
  718MPD2    H310619   1.029   2.863  13.441  0.1082  1.8618 -1.5366
  718MPD2     N10620   0.770   2.784  13.065 -0.6600 -0.1707  0.8801
  718MPD2    H510621   0.777   2.744  12.972 -2.5628  1.5031 -0.0023
  718MPD2    N110622   1.238   2.674  13.094 -0.6397  0.2292  0.0025
  718MPD2    H710623   1.323   2.718  13.129  0.6384 -1.4405 -1.0231
  719TMC3    C110624   1.342   2.593  12.897  0.4867 -0.1463  0.0339
  719TMC3    C210625   1.307   2.553  12.768 -0.7264  0.6892  0.0962
  719TMC3    C310626   1.315   2.627  12.654  0.1179 -0.1149  0.0269
  719TMC3    C410627   1.423   2.710  12.897  0.2995  0.8028 -0.0143
  719TMC3    C510628   1.448   2.774  12.773  0.2469 -0.0799  0.3029
  719TMC3    C610629   1.396   2.738  12.654 -0.2054 -1.5132 -0.3535
  719TMC3     C10630   1.241   2.576  12.999 -1.1451 -0.2171  0.2167
  719TMC3     O10631   1.150   2.496  12.986 -0.4047 -0.1653 -0.1997
  719TMC3     H10632   1.247   2.462  12.762 -1.4217  1.1865 -0.4576
  719TMC3    H110633   1.466   2.740  12.992 -3.1323 -0.7174  2.0028
  719TMC3    H210634   1.429   2.779  12.559  2.9658 -1.5675  0.7240
  719TMC3    C710635   1.574   2.845  12.760 -0.3660 -0.4331 -0.7614
  719TMC3    C810636   1.187   2.642  12.587 -0.4187 -0.0292  1.1232
  719TMC3    O110637   1.597   2.899  12.651 -0.4671 -0.0658 -0.7917
  719TMC3    O210638   1.093   2.581  12.633 -0.0897  0.3395  0.1204
  720MPD2     C10639   4.445   4.141  13.842  1.0643  0.1357  0.3690
  720MPD2    C110640   4.544   4.129  13.743 -0.2275 -0.5898 -0.7554
  720MPD2    C210641   4.669   4.078  13.786  0.0360  0.1433  0.6108
  720MPD2    C310642   4.694   4.057  13.916 -0.5711 -0.0230 -0.1782
  720MPD2    C410643   4.598   4.072  14.011  0.1946 -0.6461  0.0870
  720MPD2    C510644   4.474   4.112  13.969  0.1197 -0.1329  0.0313
  720MPD2     H10645   0.027   4.055  13.714 -0.5598 -1.1541  0.3855
  720MPD2    H110646   4.623   4.046  14.113  0.6446  3.0603  0.9344
  720MPD2    H210647   4.345   4.170  13.813  0.4811 -1.4631  0.7894
  720MPD2    H310648   4.401   4.124  14.048  0.4537  0.4624  0.2503
  720MPD2     N10649   0.107   4.011  13.943 -0.0065 -0.0493 -0.0593
  720MPD2    H510650   0.169   4.019  13.862 -0.5532  0.3912 -0.4358
  720MPD2    N110651   4.528   4.166  13.606 -0.2813 -0.0054  0.7725
  720MPD2    H710652   4.590   4.131  13.534 -2.4892 -0.9357 -0.6795
  721TMC3    C110653   0.295   4.000  14.094  0.4817  0.1367  0.2838
  721TMC3    C210654   0.342   3.921  14.196  0.6798 -0.2869 -0.0877
  721TMC3    C310655   0.485   3.919  14.199 -0.6999 -0.2396 -0.6014
  721TMC3    C410656   0.373   4.062  13.998 -0.6743 -0.0343  0.2891
  721TMC3    C510657   0.506   4.050  14.007  0.1226 -0.0788  0.3770
  721TMC3    C610658   0.570   3.975  14.103 -0.2739  0.0934 -0.5595
  721TMC3     C10659   0.154   3.991  14.070 -0.3356  0.8047  0.5908
  721TMC3     O10660   0.096   3.936  14.159 -0.0146  0.4569  0.0774
  721TMC3     H10661   0.283   3.879  14.277 -0.1405  1.9976  0.5189
  721TMC3    H110662   0.320   4.131  13.934  0.1196  1.3442  1.0989
  721TMC3    H210663   0.677   3.980  14.120 -0.7513 -0.9321  2.8407
  721TMC3    C710664   0.590   4.106  13.904  0.0791  0.3295  0.0464
  721TMC3    C810665   0.555   3.845  14.300 -0.1979  0.4051 -0.4369
  721TMC3    O110666   0.700   4.047  13.888 -0.1239 -0.2696 -0.1129
  721TMC3    O210667   0.670   3.821  14.269  0.1829 -0.7026 -0.4436
  722MPD2     C10668   3.036   2.816  13.286  0.0466 -0.2062 -0.1864
  722MPD2    C110669   3.039   2.928  13.207 -0.5324 -0.6389 -0.0461
  722MPD2    C210670   2.972   2.915  13.087  0.1580  0.7667  0.1973
  722MPD2    C310671   2.898   2.806  13.043  0.7661  0.8383  0.3720
  722MPD2    C410672   2.903   2.692  13.122  0.3740  0.5777  0.1445
  722MPD2    C510673   2.974   2.704  13.240 -0.1932  0.3184 -0.4105
  722MPD2     H10674   2.973   3.002  13.023  1.3126 -0.5068 -1.5414
  722MPD2    H110675   2.854   2.598  13.100  0.1753  0.8383 -0.5194
  722MPD2    H210676   3.090   2.816  13.380 -3.1444 -0.0518  1.6334
  722MPD2    H310677   2.992   2.620  13.305  0.2906  2.2454  1.9399
  722MPD2     N10678   2.825   2.809  12.920  0.3060 -0.7806 -0.1518
  722MPD2    H510679   2.812   2.904  12.886  0.2688 -0.4645  0.7252
  722MPD2    N110680   3.113   3.046  13.247  0.2804  0.1148 -0.9187
  722MPD2    H710681   3.100   3.126  13.186  3.0027  0.3871 -1.1405
  723TMC3    C110682   2.737   2.717  12.715  0.3643  0.2525  0.4039
  723TMC3    C210683   2.775   2.628  12.617  0.3711 -0.4944 -0.1115
  723TMC3    C310684   2.760   2.667  12.488 -0.1649 -0.3654  0.3775
  723TMC3    C410685   2.672   2.837  12.690 -0.0959 -0.8974 -0.1621
  723TMC3    C510686   2.635   2.854  12.563  0.6280 -0.2461  1.4592
  723TMC3    C610687   2.676   2.772  12.463 -0.3804 -0.2910  0.8823
  723TMC3     C10688   2.797   2.694  12.847 -0.3421 -0.6206  0.0442
  723TMC3     O10689   2.824   2.578  12.872  0.4287  0.0916 -0.0072
  723TMC3     H10690   2.825   2.534  12.641 -0.6241 -0.5291  1.7759
  723TMC3    H110691   2.636   2.901  12.769 -0.9044  0.0973 -1.3350
  723TMC3    H210692   2.649   2.793  12.360  1.0207 -1.9430  0.1817
  723TMC3    C710693   2.559   2.971  12.513 -0.0024 -0.6820  0.8421
  723TMC3    C810694   2.811   2.594  12.371  0.1092 -1.0501 -0.5410
  723TMC3    O110695   2.514   2.966  12.399  0.0065  0.6941  0.5208
  723TMC3    O210696   2.810   2.662  12.268  0.4114  0.0137  0.0918
  724TMC3    C110697   0.083   1.285  10.170 -0.4116 -0.5886 -0.0320
  724TMC3    C210698   0.094   1.151  10.186  0.7637  0.2256 -0.3381
  724TMC3    C310699   0.094   1.070  10.076 -0.2560  0.3083 -1.1131
  724TMC3    C410700   0.086   1.344  10.048  0.3114  0.0144 -0.0494
  724TMC3    C510701   0.131   1.263   9.946  0.2743  1.4144  0.6514
  724TMC3    C610702   0.136   1.122   9.956 -0.2333  0.1518 -0.6775
  724TMC3     C10703   0.072   1.359  10.295  0.7451 -0.0471 -0.6797
  724TMC3     O10704   0.043   1.293  10.391  0.6163 -0.8953 -0.2655
  724TMC3     H10705   0.046   1.109  10.274  1.0018  1.1530  0.2287
  724TMC3    H110706   0.063   1.449  10.034  0.0142  0.1364  1.3375
  724TMC3    H210707   0.169   1.053   9.879 -0.1171  0.4643 -0.9094
  724TMC3    C710708   0.105   1.304   9.811  0.2222 -0.2723 -0.8594
  724TMC3    C810709   0.011   0.947  10.074 -0.7846  0.2580  0.2883
  724TMC3    O110710   0.089   1.212   9.730 -0.0547  0.0263 -0.2440
  724TMC3    O210711   4.706   0.892  10.181  0.0026 -0.3596  0.1592
  725TMC3    C110712   0.371   4.444  12.252  0.6374  0.1592 -0.6178
  725TMC3    C210713   0.242   4.472  12.208  0.5212  0.4839 -0.1310
  725TMC3    C310714   0.152   4.368  12.187 -0.2281 -0.2825  0.5327
  725TMC3    C410715   0.411   4.315  12.258  0.4461  0.7580 -0.1813
  725TMC3    C510716   0.317   4.222  12.262  0.3983  0.6079 -0.4907
  725TMC3    C610717   0.188   4.242  12.226 -0.6209 -0.2546  0.3208
  725TMC3     C10718   0.456   4.549  12.294  0.1563  0.0876 -0.1941
  725TMC3     O10719   0.398   4.658  12.313 -0.1331  0.2503 -0.0855
  725TMC3     H10720   0.221   4.577  12.194 -2.1963 -0.1154 -0.4218
  725TMC3    H110721   0.513   4.296  12.288 -0.2837  0.5853  2.1640
  725TMC3    H210722   0.126   4.156  12.202  1.8864 -2.5653  2.0766
  725TMC3    C710723   0.350   4.085  12.261 -0.3369 -0.9494  0.4442
  725TMC3    C810724   0.100   4.342  12.053 -0.2322 -0.8673 -0.1443
  725TMC3    O110725   0.446   4.054  12.191  0.1735  0.1954 -0.4889
  725TMC3    O210726   0.019   4.255  12.031 -0.4635  0.4392  0.5026
  726MPD2     C10727   3.445   0.528  10.517  0.6998  0.0902 -0.0127
  726MPD2    C110728   3.483   0.662  10.525  0.0424 -0.0094  1.0004
  726MPD2    C210729   3.409   0.748  10.600 -0.8778 -0.0759  0.2160
  726MPD2    C310730   3.298   0.706  10.663 -0.3650  0.1378  0.3344
  726MPD2    C410731   3.264   0.568  10.664 -0.0633 -0.0997  0.3604
  726MPD2    C510732   3.334   0.485  10.585 -0.3153 -0.0406 -0.6435
  726MPD2     H10733   3.439   0.852  10.595  0.6049 -0.6822 -3.1612
  726MPD2    H110734   3.181   0.535  10.724  0.6950 -1.0790  0.8804
  726MPD2    H210735   3.512   0.450  10.482  0.6666 -0.1951  0.5729
  726MPD2    H310736   3.329   0.377  10.595 -1.5868  0.0400 -0.4296
  726MPD2     N10737   3.218   0.799  10.735  0.4347  0.8525  0.0266
  726MPD2    H510738   3.132   0.761  10.774  1.3988 -2.1268 -0.8196
  726MPD2    N110739   3.603   0.697  10.467  0.5283 -0.2888  0.2143
  726MPD2    H710740   3.632   0.793  10.482 -1.2869  0.1863  0.5897
  727TMC3    C110741   3.751   0.713  10.289 -0.4386 -0.8734  0.0730
  727TMC3    C210742   3.844   0.772  10.369 -0.1366  0.0732  0.1868
  727TMC3    C310743   3.938   0.849  10.312 -0.1509  0.1164 -0.2653
  727TMC3    C410744   3.742   0.755  10.156 -0.0275  0.4693  0.4941
  727TMC3    C510745   3.829   0.844  10.109  0.2534 -0.1211  0.0372
  727TMC3    C610746   3.932   0.892  10.184  0.3994  0.2600 -0.0846
  727TMC3     C10747   3.642   0.638  10.345 -0.7100  0.2862  0.1166
  727TMC3     O10748   3.586   0.561  10.271  0.1621 -0.2336 -0.0200
  727TMC3     H10749   3.859   0.742  10.472  0.1445 -2.3028 -0.5455
  727TMC3    H110750   3.669   0.719  10.085  0.3426 -0.2244  0.4687
  727TMC3    H210751   4.016   0.938  10.134  0.5854  0.2551  0.2203
  727TMC3    C710752   3.796   0.906   9.977 -0.0225 -0.1827  0.0211
  727TMC3    C810753   4.039   0.908  10.396 -0.6026  0.2958  0.2236
  727TMC3    O110754   3.748   0.837   9.894  0.0933  0.5083  0.1973
  727TMC3    O210755   4.083   1.010  10.349  0.2973  0.2376 -0.8091
  728TMC3    C110756   2.531   4.695  15.448 -0.2239 -0.3917 -0.4080
  728TMC3    C210757   2.663   4.691  15.398 -0.8156 -0.8768 -0.1635
  728TMC3    C310758   2.680   4.701  15.260  0.1678 -0.0862 -0.6646
  728TMC3    C410759   2.423   4.708  15.363 -0.6670 -0.0066 -0.2376
  728TMC3    C510760   2.450   0.013  15.236 -0.8296  0.0701  0.2757
  728TMC3    C610761   2.576   0.005  15.174  0.1483 -0.0903 -0.0118
  728TMC3     C10762   2.514   4.635  15.574  0.0683  0.2356 -0.0604
  728TMC3     O10763   2.608   4.636  15.653 -0.3939  0.0471 -0.0596
  728TMC3     H10764   2.744   4.660  15.463 -0.9669  0.4529  0.6350
  728TMC3    H110765   2.319   4.715  15.394 -0.0716  0.9218  1.5239
  728TMC3    H210766   2.594   0.002  15.067 -0.5981  0.0647 -0.1384
  728TMC3    C710767   2.352   0.096  15.163  0.4099 -0.9252 -0.1678
  728TMC3    C810768   2.821   4.708  15.199  0.0248 -0.1830 -0.2712
  728TMC3    O110769   2.237   0.078  15.197  0.5110  1.0872 -0.2526
  728TMC3    O210770   2.833   4.698  15.077 -0.3130  0.0384  0.0624
  729MPD2     C10771   4.000   0.882  16.963 -0.1703  0.8462  0.2609
  729MPD2    C110772   4.103   0.853  17.050  0.3347  0.6382 -0.1198
  729MPD2    C210773   4.087   0.877  17.185  0.4178  0.6037  0.1976
  729MPD2    C310774   3.967   0.928  17.236  0.6149  0.1964  0.0891
  729MPD2    C410775   3.856   0.949  17.152 -1.0447 -0.6455  0.3516
  729MPD2    C510776   3.882   0.926  17.016  0.4323 -0.5652 -0.1434
  729MPD2     H10777   4.171   0.852  17.248 -0.0240 -0.6070  0.3097
  729MPD2    H110778   3.764   0.994  17.187 -0.9114  0.1732 -0.3361
  729MPD2    H210779   4.011   0.883  16.855 -0.0413  2.9077  0.3018
  729MPD2    H310780   3.800   0.931  16.945 -0.2351  0.0530  0.6657
  729MPD2     N10781   3.955   0.976  17.372 -0.6651  0.1975 -0.0761
  729MPD2    H510782   3.867   1.020  17.398 -0.6104  0.0212  0.4181
  729MPD2    N110783   4.229   0.820  16.997  0.5691  0.3973  0.0772
  729MPD2    H710784   4.236   0.820  16.895  3.2223 -1.3670  0.2559
  730TMC3    C110785   4.022   1.013  17.596 -0.0468 -0.0032 -0.0516
  730TMC3    C210786   4.070   0.942   0.017  0.0545  0.0746  0.4939
  730TMC3    C310787   4.076   0.995   0.143  0.6856 -0.0693  0.4580
  730TMC3    C410788   3.993   1.143  17.611  0.1799 -0.0844  0.4669
  730TMC3    C510789   4.020   1.197   0.055 -0.2139  0.1164 -1.4447
  730TMC3    C610790   4.044   1.124   0.167 -0.4276 -0.3201 -0.2035
  730TMC3     C10791   4.046   0.956  17.470 -0.4414 -0.3024  0.6258
  730TMC3     O10792   4.149   0.889  17.464  0.1209  0.0164  0.2287
  730TMC3     H10793   4.098   0.839  17.681 -1.0656 -0.4214  1.4855
  730TMC3    H110794   3.961   1.204  17.528 -0.8136 -2.3315 -0.7965
  730TMC3    H210795   4.058   1.173   0.262  0.4463 -0.7432 -0.1129
  730TMC3    C710796   4.004   1.339   0.066  0.1314 -0.9293  0.3662
  730TMC3    C810797   4.166   0.924   0.229 -0.0971 -0.7217  0.0029
  730TMC3    O110798   3.950   1.385   0.164 -0.2425 -0.2420 -0.7760
  730TMC3    O210799   4.154   0.939   0.348 -0.1225 -0.1848 -0.2134
  731MPD2     C10800   0.203   3.918  11.555  0.6472 -0.6178  0.3246
  731MPD2    C110801   0.067   3.941  11.577 -0.0387  0.4830  0.0698
  731MPD2    C210802   0.011   3.949  11.699  0.2832 -0.5274 -0.4684
  731MPD2    C310803   0.099   3.929  11.812 -0.3107  0.4437 -0.9174
  731MPD2    C410804   0.238   3.916  11.800  0.2444 -0.3756 -0.1616
  731MPD2    C510805   0.282   3.910  11.669 -0.4181  0.0639 -0.3096
  731MPD2     H10806   4.625   3.952  11.720  0.5488  1.7134  0.5579
  731MPD2    H110807   0.301   3.907  11.888  1.1570  1.5146 -0.6224
  731MPD2    H210808   0.252   3.891  11.463  1.7462  1.5880  0.2677
  731MPD2    H310809   0.389   3.890  11.662 -0.6208 -0.8763 -0.5818
  731MPD2     N10810   0.029   3.897  11.933  0.0022 -0.4901 -0.3769
  731MPD2    H510811   4.654   3.925  11.954  0.3889  1.7877 -1.6406
  731MPD2    N110812   4.712   3.934  11.459  0.2571 -0.4450  0.1124
  731MPD2    H710813   0.049   3.926  11.375 -1.2309  0.6293 -1.0265
  732TMC3    C110814   4.549   3.853  11.318 -0.2079  0.2337  0.1764
  732TMC3    C210815   4.481   3.734  11.330  0.0298  0.0883 -0.7774
  732TMC3    C310816   4.536   3.620  11.282  0.2107  0.5555 -0.5363
  732TMC3    C410817   4.661   3.852  11.235  0.3959 -0.3630  0.2657
  732TMC3    C510818   4.704   3.741  11.177 -0.4386 -0.0193 -0.7331
  732TMC3    C610819   4.643   3.623  11.200 -0.2079 -0.9184 -0.7504
  732TMC3     C10820   4.580   3.906  11.445  0.0086 -0.1628 -0.7010
  732TMC3     O10821   4.490   3.911  11.527  0.6050 -0.0653  0.0245
  732TMC3     H10822   4.387   3.730  11.383  0.1841 -2.4262 -0.6488
  732TMC3    H110823   4.711   3.945  11.210  1.0819 -1.3562 -2.1633
  732TMC3    H210824   4.688   3.533  11.159 -1.2905 -2.7113  2.0614
  732TMC3    C710825   0.128   3.734  11.167  0.4637  0.2551  0.6207
  732TMC3    C810826   4.467   3.487  11.311  0.2006 -0.0822  0.2714
  732TMC3    O110827   0.194   3.833  11.138 -0.2183  0.1130 -0.0634
  732TMC3    O210828   4.486   3.387  11.242  0.0085  0.5597 -0.1667
  733TMC3    C110829   0.363   2.934  12.888 -0.3131 -0.7652  0.0179
  733TMC3    C210830   0.441   2.889  12.993 -0.2239  0.8166  0.1041
  733TMC3    C310831   0.568   2.860  12.977 -0.4903 -0.6618  0.8032
  733TMC3    C410832   0.421   2.937  12.760  0.1170  0.3793 -0.2789
  733TMC3    C510833   0.558   2.926  12.754 -0.0621 -0.4017 -0.4544
  733TMC3    C610834   0.632   2.884  12.860  0.2228  0.4539  0.0508
  733TMC3     C10835   0.220   2.921  12.893 -0.1304 -0.3877 -0.0873
  733TMC3     O10836   0.160   2.970  12.799  0.6025 -0.3557 -0.6049
  733TMC3     H10837   0.397   2.863  13.089 -0.4426 -0.0181 -0.2252
  733TMC3    H110838   0.367   2.976  12.674 -0.3085 -0.6516 -0.4780
  733TMC3    H210839   0.740   2.880  12.851  0.3626 -0.1821  2.2178
  733TMC3    C710840   0.627   2.953  12.627 -0.7958 -0.3745 -0.7172
  733TMC3    C810841   0.649   2.838  13.093 -0.4517  0.2388 -0.3886
  733TMC3    O110842   0.575   3.031  12.550  0.2349 -0.7507  0.4343
  733TMC3    O210843   0.606   2.866  13.202  0.0359  0.0996  0.3782
  734MPD2     C10844   3.642   4.324  11.962 -0.2692  0.3946 -0.3667
  734MPD2    C110845   3.510   4.340  11.979  0.0505 -0.0972 -0.5311
  734MPD2    C210846   3.441   4.417  11.892  0.7392  0.1576 -0.1368
  734MPD2    C310847   3.503   4.479  11.785 -0.7938  0.1455 -0.4542
  734MPD2    C410848   3.639   4.463  11.765 -0.0370 -0.2862 -0.6076
  734MPD2    C510849   3.711   4.393  11.859 -0.1875  0.1554 -0.2888
  734MPD2     H10850   3.338   4.445  11.913 -0.5941 -1.5950 -4.2705
  734MPD2    H110851   3.690   4.510  11.682 -1.9986  1.7025 -0.6841
  734MPD2    H210852   3.701   4.276  12.040 -2.5675  0.6190  1.5059
  734MPD2    H310853   3.819   4.390  11.851 -0.2198 -0.0365 -0.6549
  734MPD2     N10854   3.418   4.541  11.685 -0.7750  0.1067  0.1512
  734MPD2    H510855   3.322   4.561  11.708 -0.3758  1.5555  0.5734
  734MPD2    N110856   3.448   4.271  12.092  0.0569  0.2671  0.3916
  734MPD2    H710857   3.517   4.216  12.143  1.0818  0.4870 -0.7511
  735TMC3    C110858   3.283   4.149  12.214 -0.1410  0.5290 -0.4083
  735TMC3    C210859   3.145   4.144  12.230 -0.2038 -0.0294 -0.4420
  735TMC3    C310860   3.071   4.035  12.200 -0.4121 -0.2506 -0.5512
  735TMC3    C410861   3.360   4.038  12.190 -0.5416 -0.8243  0.0909
  735TMC3    C510862   3.280   3.925  12.180 -0.5571 -0.7439  0.1337
  735TMC3    C610863   3.142   3.915  12.187 -0.0076 -0.1141  0.4339
  735TMC3     C10864   3.310   4.261  12.118  0.0825  0.7244  0.1088
  735TMC3     O10865   3.215   4.323  12.073 -0.4419 -0.4390 -0.0387
  735TMC3     H10866   3.093   4.239  12.229  1.0898  0.7165  2.0176
  735TMC3    H110867   3.467   4.042  12.176 -0.8984  2.4353 -1.5944
  735TMC3    H210868   3.095   3.817  12.182 -0.3959  0.0967 -0.0016
  735TMC3    C710869   3.326   3.841  12.065 -0.0186  0.1730  0.2000
  735TMC3    C810870   2.972   4.060  12.110  1.6815  0.0360  0.0207
  735TMC3    O110871   3.368   3.902  11.971  0.3065  0.1633 -0.3582
  735TMC3    O210872   2.898   3.967  12.082 -0.2558 -0.5627  0.4749
  736MPD2     C10873   3.294   3.477  12.007  0.2283  0.6920 -0.5769
  736MPD2    C110874   3.290   3.613  11.968 -0.0960 -0.0453 -0.1414
  736MPD2    C210875   3.293   3.650  11.837  0.7207  0.1479 -0.0391
  736MPD2    C310876   3.308   3.557  11.736  0.5321  0.0645 -0.4352
  736MPD2    C410877   3.310   3.422  11.774  0.3977 -0.4618 -0.0429
  736MPD2    C510878   3.298   3.382  11.908 -0.2369 -0.7436 -0.3600
  736MPD2     H10879   3.296   3.753  11.803 -2.1196 -0.2384 -1.4137
  736MPD2    H110880   3.311   3.339  11.704 -0.1023 -1.1737  0.7928
  736MPD2    H210881   3.282   3.449  12.111 -0.2645  1.5712 -0.3932
  736MPD2    H310882   3.285   3.274  11.917 -0.9849 -0.7602 -1.6138
  736MPD2     N10883   3.335   3.586  11.599  0.4626  0.0210 -0.2540
  736MPD2    H510884   3.378   3.514  11.542 -0.5679 -1.4076  0.7553
  736MPD2    N110885   3.286   3.706  12.076  0.1939  0.2901  0.0795
  736MPD2    H710886   3.257   3.661  12.162  2.6383  1.1791  1.3680
  737TMC3    C110887   3.391   3.723  11.419  0.6020 -0.2562  0.0031
  737TMC3    C210888   3.366   3.843  11.358  0.4591 -0.4725  0.2226
  737TMC3    C310889   3.453   3.885  11.260  0.7614  0.1579  0.2470
  737TMC3    C410890   3.509   3.660  11.407 -0.0762  0.1012 -0.7980
  737TMC3    C510891   3.606   3.716  11.323 -0.1332 -0.5790  0.0619
  737TMC3    C610892   3.581   3.825  11.245 -0.4207  0.3392 -0.2560
  737TMC3     C10893   3.315   3.704  11.535 -0.1648 -0.1893 -0.2371
  737TMC3     O10894   3.222   3.777  11.572 -0.0934  0.1996  0.5394
  737TMC3     H10895   3.276   3.900  11.380  1.6550  0.3864  3.0197
  737TMC3    H110896   3.528   3.574  11.471  0.6398  1.1081  0.3522
  737TMC3    H210897   3.660   3.873  11.189  0.3119 -0.3052  0.2384
  737TMC3    C710898   3.723   3.641  11.309 -0.4979 -0.4314  0.0581
  737TMC3    C810899   3.442   4.025  11.226  0.0634 -0.1867  0.8994
  737TMC3    O110900   3.766   3.590  11.411 -0.1799 -0.7625  0.2537
  737TMC3    O210901   3.377   4.097  11.296  0.1713 -0.0483 -0.3300
  738MPD2     C10902   3.869   3.143  15.256  0.2718  0.6132  0.0933
  738MPD2    C110903   3.787   3.162  15.154  0.3604  0.5891  0.4323
  738MPD2    C210904   3.840   3.234  15.040 -0.0240 -0.1251  0.2045
  738MPD2    C310905   3.959   3.295  15.045  0.3215  0.1585 -0.5850
  738MPD2    C410906   4.044   3.263  15.150  0.0900 -0.0749 -0.0389
  738MPD2    C510907   4.000   3.180  15.249  0.0297  0.2044  0.6374
  738MPD2     H10908   3.772   3.261  14.960  0.6871  1.2074  0.0455
  738MPD2    H110909   4.147   3.293  15.140 -0.0011 -0.0024 -0.7620
  738MPD2    H210910   3.840   3.081  15.340  0.8710 -1.2556 -1.0873
  738MPD2    H310911   4.074   3.168  15.328  1.0976 -0.8902 -0.5375
  738MPD2     N10912   4.006   3.388  14.955 -0.4670  0.3780  0.4792
  738MPD2    H510913   4.095   3.435  14.968 -0.5387  0.4402  0.7425
  738MPD2    N110914   3.655   3.112  15.140  0.0995  0.2224  0.3318
  738MPD2    H710915   3.605   3.127  15.054  0.4936 -0.1247  0.0412
  739TMC3    C110916   4.058   3.517  14.781 -0.0812 -0.0301  0.0493
  739TMC3    C210917   4.084   3.512  14.644 -0.3349 -0.3257 -0.3751
  739TMC3    C310918   4.168   3.606  14.594 -0.0388  0.9335  0.1231
  739TMC3    C410919   4.119   3.607  14.859  0.1329  0.1965  0.4301
  739TMC3    C510920   4.180   3.712  14.794  0.2118  0.6327 -0.7746
  739TMC3    C610921   4.209   3.712  14.662  0.2511 -0.1427  0.3901
  739TMC3     C10922   3.955   3.423  14.836  0.2345  0.0606  0.4014
  739TMC3     O10923   3.872   3.368  14.760  0.1796 -0.5494 -0.4787
  739TMC3     H10924   4.029   3.451  14.573  0.7646  0.2908 -1.7426
  739TMC3    H110925   4.098   3.615  14.965 -1.0471  2.8393  0.0005
  739TMC3    H210926   4.257   3.797  14.615  0.8267  0.0183  1.2746
  739TMC3    C710927   4.225   3.825  14.870  0.7213  0.2831 -0.0311
  739TMC3    C810928   4.156   3.626  14.453 -0.2835  0.1337  0.0769
  739TMC3    O110929   4.163   3.867  14.967  0.2664  0.3101  0.1078
  739TMC3    O210930   4.045   3.599  14.409 -0.4859 -0.3865 -0.0685
  740TMC3    C110931   4.589   4.446  13.981  0.4935 -0.1909 -0.0909
  740TMC3    C210932   4.646   4.427  14.101  0.7571 -0.7557 -0.0340
  740TMC3    C310933   0.054   4.371  14.089 -0.0602  0.3448  0.6335
  740TMC3    C410934   4.656   4.451  13.860 -0.0678  0.1839  0.6983
  740TMC3    C510935   0.069   4.411  13.856 -0.2654  0.5112  0.6166
  740TMC3    C610936   0.127   4.355  13.974 -0.3445  0.2186 -0.2057
  740TMC3     C10937   4.442   4.465  13.971  1.1446 -0.0278 -0.5223
  740TMC3     O10938   4.399   4.536  13.882  0.1370 -0.4338 -0.5018
  740TMC3     H10939   4.599   4.442  14.197  2.3638  1.4389  0.4092
  740TMC3    H110940   4.596   4.459  13.770  1.0544  0.3872 -0.0359
  740TMC3    H210941   0.232   4.338  13.991 -0.0070  1.3693 -1.1621
  740TMC3    C710942   0.127   4.361  13.732 -0.0304 -0.3996  0.3442
  740TMC3    C810943   0.121   4.333  14.216 -0.3933  0.3334 -0.2590
  740TMC3    O110944   0.195   4.258  13.736 -0.1137  0.0245  0.4525
  740TMC3    O210945   0.226   4.272  14.201 -0.2758  0.0783  0.3558
  741TMC3    C110946   4.015   3.976  14.044  0.1609  0.2277  0.4972
  741TMC3    C210947   3.939   3.864  14.052  0.0453 -1.2146  0.2228
  741TMC3    C310948   3.898   3.804  14.171  0.1105 -0.2243 -0.3266
  741TMC3    C410949   4.092   4.009  14.151 -0.2660  0.0976  0.1594
  741TMC3    C510950   4.054   3.951  14.270  0.5536  0.4824 -0.4843
  741TMC3    C610951   3.959   3.853  14.282 -0.0743  0.1291  0.4236
  741TMC3     C10952   4.042   4.043  13.919  0.5001  0.8306 -0.5421
  741TMC3     O10953   4.161   4.073  13.904 -0.2305  0.1634  0.2901
  741TMC3     H10954   3.886   3.835  13.961  1.4307  1.7722 -1.5377
  741TMC3    H110955   4.152   4.100  14.149 -2.3135  1.3696 -2.2918
  741TMC3    H210956   3.923   3.832  14.382  0.5156 -0.6051  0.4859
  741TMC3    C710957   4.126   3.991  14.385 -0.3907  0.1738 -0.0434
  741TMC3    C810958   3.798   3.701  14.168 -0.0352  0.1573  0.5634
  741TMC3    O110959   4.087   3.980  14.501 -0.3976 -0.3151 -0.3061
  741TMC3    O210960   3.719   3.703  14.073 -0.0162  0.5761  0.0695
  742TMC3    C110961   3.587   2.480  15.257 -0.6497 -0.4020  0.0842
  742TMC3    C210962   3.536   2.458  15.132 -0.1758 -0.8478  0.1528
  742TMC3    C310963   3.621   2.385  15.050 -0.4856 -0.2047  0.5214
  742TMC3    C410964   3.719   2.456  15.295 -0.3242 -0.5601  0.3040
  742TMC3    C510965   3.803   2.397  15.208 -0.0012  0.5493 -0.0895
  742TMC3    C610966   3.753   2.345  15.094 -0.0187  0.1103 -0.0788
  742TMC3     C10967   3.483   2.498  15.352 -0.4513  0.2621  0.2125
  742TMC3     O10968   3.370   2.488  15.312 -0.0562  0.1522 -0.1443
  742TMC3     H10969   3.436   2.487  15.102  0.9297 -0.3082 -3.0785
  742TMC3    H110970   3.762   2.478  15.392 -1.4699 -0.4488  0.7882
  742TMC3    H210971   3.811   2.279  15.031 -1.6239 -0.4614 -0.9546
  742TMC3    C710972   3.949   2.368  15.239  0.3383  0.5540  0.3192
  742TMC3    C810973   3.552   2.294  14.951 -0.1607  0.1405 -0.6208
  742TMC3    O110974   4.010   2.319  15.139  0.0231  0.0916 -0.0054
  742TMC3    O210975   3.629   2.214  14.901  0.2278 -0.5952  0.2282
  743MPD2     C10976   1.194   2.892   1.859 -0.2131  0.1369 -0.5394
  743MPD2    C110977   1.249   2.831   1.750 -0.2489 -0.0423  0.1128
  743MPD2    C210978   1.385   2.854   1.726  0.4208  0.4984 -0.1178
  743MPD2    C310979   1.467   2.906   1.830  0.6402 -0.0211  0.7802
  743MPD2    C410980   1.407   2.966   1.933  0.3585 -0.4400 -0.3655
  743MPD2    C510981   1.274   2.946   1.960  0.0207  0.2334  0.2444
  743MPD2     H10982   1.441   2.810   1.645  0.0319  0.1695 -0.2073
  743MPD2    H110983   1.457   3.021   2.011 -0.8499  0.5463 -0.2775
  743MPD2    H210984   1.085   2.896   1.858 -0.2387 -0.4442  1.0823
  743MPD2    H310985   1.227   3.003   2.040 -1.1364 -0.6792  0.2113
  743MPD2     N10986   1.608   2.910   1.815 -0.0160  0.3035 -0.1407
  743MPD2    H510987   1.641   2.847   1.743 -0.7079 -1.0747  0.7597
  743MPD2    N110988   1.163   2.760   1.661 -0.4984  0.1450 -0.3836
  743MPD2    H710989   1.064   2.761   1.681 -0.1357  2.4998  1.2665
  744TMC3    C110990   1.105   2.620   1.475 -0.1811  0.5500  0.2937
  744TMC3    C210991   0.988   2.585   1.540 -0.4095 -0.3058  0.9929
  744TMC3    C310992   0.892   2.514   1.473 -0.2083  0.4718 -0.3304
  744TMC3    C410993   1.136   2.574   1.351  0.1350 -0.3461  0.2787
  744TMC3    C510994   1.039   2.501   1.290  0.6554  0.4270 -0.0094
  744TMC3    C610995   0.921   2.471   1.344  0.3634 -0.0722 -0.4793
  744TMC3     C10996   1.205   2.697   1.543  0.1817  0.3473 -0.0275
  744TMC3     O10997   1.313   2.691   1.494 -0.3722 -0.0432  0.1325
  744TMC3     H10998   0.969   2.610   1.644 -1.7486  1.9068  0.2191
  744TMC3    H110999   1.219   2.604   1.287 -1.0647  1.4791 -0.4247
  744TMC3    H211000   0.847   2.401   1.306 -1.7168  1.7204  0.2363
  744TMC3    C711001   1.066   2.482   1.150 -0.0095 -0.1521  0.2019
  744TMC3    C811002   0.760   2.530   1.523  0.2693  0.4957  0.4396
  744TMC3    O111003   1.177   2.510   1.104 -0.2335 -0.2370  0.4611
  744TMC3    O211004   0.749   2.541   1.647 -0.1587 -0.5546 -0.7514
  745TMC3    C111005   3.803   2.298  13.350  0.3511 -0.1011  0.9513
  745TMC3    C211006   3.722   2.234  13.441  0.8629 -0.7421  0.0642
  745TMC3    C311007   3.590   2.214  13.406  0.0808  0.0555 -0.0934
  745TMC3    C411008   3.750   2.347  13.232  0.1887 -0.6130  1.1568
  745TMC3    C511009   3.611   2.333  13.206 -0.6237 -0.4984 -0.0536
  745TMC3    C611010   3.535   2.258  13.286 -0.2197  0.7990 -0.2395
  745TMC3     C11011   3.944   2.318  13.383  0.4747  0.4031 -0.3354
  745TMC3     O11012   4.024   2.326  13.293 -0.5879  0.2349  0.6450
  745TMC3     H11013   3.754   2.204  13.541 -0.9188 -0.0613  0.8417
  745TMC3    H111014   3.830   2.394  13.176  0.3478  0.1925  2.0505
  745TMC3    H211015   3.433   2.235  13.256 -0.4625  0.8311  0.5448
  745TMC3    C711016   3.552   2.392  13.087  0.1547 -0.9982 -0.0995
  745TMC3    C811017   3.500   2.150  13.499  0.3355 -0.0173  0.1296
  745TMC3    O111018   3.432   2.399  13.074 -0.0333 -0.2056 -0.1416
  745TMC3    O211019   3.408   2.082  13.462 -0.8753 -0.0406  0.4182
  746TMC3    C111020   1.461   3.809  11.122 -0.5193 -0.2242 -0.2365
  746TMC3    C211021   1.484   3.800  10.988 -0.6987  0.5944  0.2742
  746TMC3    C311022   1.421   3.706  10.912  0.5705  0.2890  0.3400
  746TMC3    C411023   1.383   3.714  11.190  0.0187 -0.7977 -0.2734
  746TMC3    C511024   1.315   3.622  11.105  0.1477  0.7572  0.5167
  746TMC3    C611025   1.327   3.629  10.971 -0.6253 -0.0281  0.6539
  746TMC3     C11026   1.515   3.919  11.202  0.6380 -0.9106 -0.0673
  746TMC3     O11027   1.509   3.902  11.325 -0.3735  0.3804  0.3137
  746TMC3     H11028   1.563   3.859  10.943  0.0227 -0.7206 -0.1866
  746TMC3    H111029   1.379   3.713  11.298  1.0294  1.0365 -0.2077
  746TMC3    H211030   1.283   3.557  10.903  1.1262  1.0904 -1.6696
  746TMC3    C711031   1.196   3.561  11.152  0.4508 -0.3088  0.2266
  746TMC3    C811032   1.484   3.651  10.791 -0.0470  0.5752  0.9225
  746TMC3    O111033   1.112   3.543  11.062 -0.1516  0.0952 -0.1031
  746TMC3    O211034   1.460   3.535  10.768 -0.0068  0.2068 -0.0313
  747TMC3    C111035   4.097   3.708  10.375  0.0558  0.2474  0.0824
  747TMC3    C211036   4.018   3.648  10.467  0.0855 -0.5658 -0.5565
  747TMC3    C311037   4.059   3.669  10.597  0.3904 -0.2969  0.5817
  747TMC3    C411038   4.206   3.787  10.412 -0.5140  0.3784 -0.1894
  747TMC3    C511039   4.242   3.800  10.543 -0.4093 -1.1641  0.4287
  747TMC3    C611040   4.177   3.732  10.638 -0.3939 -0.3742 -0.3213
  747TMC3     C11041   4.078   3.678  10.231  1.1969 -0.0113  0.2462
  747TMC3     O11042   4.126   3.763  10.160  0.5965  0.0291  0.0300
  747TMC3     H11043   3.924   3.599  10.444  0.1176 -1.7233  1.7028
  747TMC3    H111044   4.265   3.827  10.330 -1.2923  0.3567 -0.7673
  747TMC3    H211045   4.206   3.753  10.740 -1.8714  0.6142 -0.1047
  747TMC3    C711046   4.356   3.883  10.590  0.0503  0.4824 -0.0265
  747TMC3    C811047   3.979   3.617  10.699  0.0892  0.7359  0.0186
  747TMC3    O111048   4.388   3.866  10.706 -0.0288 -0.1902  0.3229
  747TMC3    O211049   3.860   3.617  10.687 -0.0171  0.1499 -0.1292
  748MPD2     C11050   0.409   3.773   2.332  1.0482 -0.3593 -0.0788
  748MPD2    C111051   0.458   3.653   2.292  0.0381  0.1617 -0.0455
  748MPD2    C211052   0.543   3.634   2.186  0.0022  0.0890  0.6233
  748MPD2    C311053   0.578   3.747   2.117 -0.3291  0.1921 -0.3045
  748MPD2    C411054   0.537   3.872   2.162 -0.2633  0.6372  0.8497
  748MPD2    C511055   0.455   3.886   2.275  0.0284  0.4368  0.8159
  748MPD2     H11056   0.572   3.540   2.140  0.1596 -0.0704  1.0486
  748MPD2    H111057   0.570   3.961   2.109  0.1444 -0.0775 -0.0964
  748MPD2    H211058   0.344   3.782   2.418 -0.2940  0.6541 -1.2026
  748MPD2    H311059   0.420   3.981   2.312  0.8818  0.4261  1.6532
  748MPD2     N11060   0.642   3.722   1.985  0.2947 -0.5636 -0.1765
  748MPD2    H511061   0.630   3.630   1.945 -0.3740 -0.2439 -0.7000
  748MPD2    N111062   0.400   3.542   2.356 -0.2892  0.1915  0.4884
  748MPD2    H711063   0.313   3.564   2.403 -0.9815  1.1985 -1.2477
  749TMC3    C111064   0.726   3.767   1.777 -0.0399  0.2909 -0.4184
  749TMC3    C211065   0.820   3.675   1.777 -0.2424 -0.3137 -0.0756
  749TMC3    C311066   0.911   3.662   1.676 -0.3072  0.1579 -0.9001
  749TMC3    C411067   0.707   3.847   1.660  0.6661  0.4623 -0.3498
  749TMC3    C511068   0.795   3.818   1.556  0.0331 -0.9227 -0.3052
  749TMC3    C611069   0.900   3.736   1.564 -0.2727  0.4466 -0.4328
  749TMC3     C11070   0.674   3.818   1.895  0.1870  0.8207 -0.2991
  749TMC3     O11071   0.680   3.943   1.910 -0.5305 -0.4478  0.2699
  749TMC3     H11072   0.832   3.622   1.870 -1.9513 -0.0117  0.3204
  749TMC3    H111073   0.639   3.931   1.650 -0.6046 -0.3069  1.7679
  749TMC3    H211074   0.971   3.724   1.483  0.6521  0.8555  0.3166
  749TMC3    C711075   0.776   3.878   1.433  0.6793  0.2190 -0.7039
  749TMC3    C811076   1.039   3.642   1.720 -0.3360 -0.2447  0.4626
  749TMC3    O111077   0.876   3.887   1.364 -0.2878  0.1424  0.0604
  749TMC3    O211078   1.072   3.704   1.825 -0.2903  0.0882  0.3428
  750MPD2     C11079   2.285   1.143  11.511 -0.2909 -0.1437  0.0486
  750MPD2    C111080   2.177   1.066  11.555  0.1095 -0.5963  0.2462
  750MPD2    C211081   2.116   0.983  11.467  0.1900  0.4217  0.3831
  750MPD2    C311082   2.163   0.973  11.340 -0.4889  0.4175 -0.1476
  750MPD2    C411083   2.261   1.060  11.294 -0.7325  0.0629  0.1825
  750MPD2    C511084   2.327   1.142  11.385 -1.1973  0.1745  0.1757
  750MPD2     H11085   2.041   0.919  11.511 -1.1933  1.3932 -0.5480
  750MPD2    H111086   2.289   1.067  11.190 -2.5879 -0.3197 -0.3392
  750MPD2    H211087   2.335   1.200  11.588  0.2986  0.2444 -0.6275
  750MPD2    H311088   2.405   1.209  11.351  1.1724 -1.9310  1.4292
  750MPD2     N11089   2.102   0.888  11.244 -0.5300  0.2598  0.0206
  750MPD2    H511090   2.137   0.903  11.149 -0.8850 -1.2912 -0.3567
  750MPD2    N111091   2.141   1.082  11.690 -0.1506 -0.1421  0.3126
  750MPD2    H711092   2.188   1.154  11.744 -0.2840 -1.8540  2.7410
  751TMC3    C111093   1.950   0.723  11.157  0.6501  0.1330  0.0694
  751TMC3    C211094   1.831   0.653  11.186 -0.2355 -0.2886  0.4088
  751TMC3    C311095   1.816   0.546  11.105  0.0516  0.4292  0.2625
  751TMC3    C411096   2.050   0.683  11.069 -0.4069 -0.9399 -0.3923
  751TMC3    C511097   2.026   0.566  10.997  0.6236 -0.5362 -0.7783
  751TMC3    C611098   1.905   0.501  11.015  0.1467  0.6798 -0.4376
  751TMC3     C11099   1.988   0.811  11.265  0.4387  0.8049  0.1830
  751TMC3     O11100   1.907   0.825  11.357  0.4673  0.3589  0.0881
  751TMC3     H11101   1.755   0.698  11.248  0.2540  1.4229 -0.2540
  751TMC3    H111102   2.144   0.735  11.060 -0.2856 -1.1831 -0.5164
  751TMC3    H211103   1.885   0.410  10.959  0.2016 -0.5487  1.5461
  751TMC3    C711104   2.108   0.546  10.878  0.8327 -0.2889  0.8200
  751TMC3    C811105   1.685   0.479  11.103  0.3667 -0.7096 -0.1107
  751TMC3    O111106   2.218   0.590  10.875  0.1014 -0.5384 -0.5513
  751TMC3    O211107   1.648   0.427  11.000 -0.4274  0.3255  0.1995
  752TMC3    C111108   0.083   0.338   0.113 -0.1736  0.3481 -0.0383
  752TMC3    C211109   4.679   0.399   0.131 -0.9088 -0.6715 -0.3056
  752TMC3    C311110   4.598   0.393   0.238 -0.1696 -0.1952 -0.6594
  752TMC3    C411111   0.120   0.263   0.221 -0.7193 -0.0426 -0.7602
  752TMC3    C511112   0.037   0.257   0.333  0.1797 -0.0739 -0.0065
  752TMC3    C611113   4.635   0.324   0.346  0.6011  0.2622  0.9574
  752TMC3     C11114   0.175   0.362  17.681 -0.8381 -0.1282 -0.5596
  752TMC3     O11115   0.295   0.333   0.017  0.1717  0.6474 -0.1309
  752TMC3     H11116   4.645   0.466   0.053  1.8879  0.8598 -0.2585
  752TMC3    H111117   0.212   0.207   0.213 -0.9069 -0.7979  2.4441
  752TMC3    H211118   4.596   0.351   0.444  0.5931 -2.4871  1.7230
  752TMC3    C711119   0.085   0.189   0.457  0.3168 -0.9676 -0.7249
  752TMC3    C811120   4.467   0.443   0.226  0.0787 -0.1413 -0.4456
  752TMC3    O111121   0.016   0.205   0.557 -0.1536 -0.7943  0.0114
  752TMC3    O211122   4.441   0.505   0.123  0.4840 -0.1369 -0.2361
  753TMC3    C111123   2.592   1.858  13.484  0.0917 -0.2116 -0.0771
  753TMC3    C211124   2.674   1.833  13.594 -0.8962 -0.0793 -0.0305
  753TMC3    C311125   2.644   1.719  13.657  0.5643  0.0131  0.2745
  753TMC3    C411126   2.497   1.773  13.439 -0.0984 -0.1367  0.2419
  753TMC3    C511127   2.485   1.653  13.501  0.2794 -0.2639  0.8344
  753TMC3    C611128   2.560   1.622  13.609 -0.0628  0.0339  0.8277
  753TMC3     C11129   2.577   1.990  13.428 -0.2928  0.2044  0.3591
  753TMC3     O11130   2.506   2.004  13.330 -0.1346 -0.1143  0.1247
  753TMC3     H11131   2.762   1.894  13.614 -0.9061 -0.7103  1.9854
  753TMC3    H111132   2.434   1.799  13.354 -0.7490  1.1969  1.1385
  753TMC3    H211133   2.540   1.538  13.675  0.3403  0.6067  1.6847
  753TMC3    C711134   2.380   1.556  13.467 -0.3172  0.2815 -0.0509
  753TMC3    C811135   2.725   1.679  13.774  0.2175  0.0900  0.1814
  753TMC3    O111136   2.386   1.446  13.519  0.2456  0.2143 -0.5360
  753TMC3    O211137   2.733   1.556  13.792  0.2996 -0.8511 -0.1690
  754MPD2     C11138   1.437   0.888  12.797 -0.7953 -0.4316  0.7569
  754MPD2    C111139   1.443   0.751  12.778  0.2440 -0.8850  1.2557
  754MPD2    C211140   1.329   0.689  12.720 -0.2257 -0.1097 -0.7850
  754MPD2    C311141   1.209   0.763  12.696  0.5002 -0.2950  0.1164
  754MPD2    C411142   1.204   0.902  12.727 -0.0875  0.1693 -0.0385
  754MPD2    C511143   1.322   0.960  12.768 -0.5291 -0.3661 -0.3437
  754MPD2     H11144   1.337   0.581  12.713 -1.0511 -0.0555 -2.3573
  754MPD2    H111145   1.114   0.961  12.720 -0.3179 -0.2121 -0.2918
  754MPD2    H211146   1.526   0.936  12.837 -0.4616  0.2572 -0.7828
  754MPD2    H311147   1.326   1.067  12.786 -1.3337 -0.6871  1.7636
  754MPD2     N11148   1.084   0.714  12.646 -0.7054 -0.5709 -0.1443
  754MPD2    H511149   1.005   0.777  12.634 -0.3320  0.1893  1.2929
  754MPD2    N111150   1.567   0.685  12.797 -0.3114 -0.4669 -0.3964
  754MPD2    H711151   1.643   0.752  12.807 -0.3704 -0.1055 -2.4573
  755MPD2     C11152   0.332   1.127  12.655 -0.2340  0.3399  0.5165
  755MPD2    C111153   0.300   1.008  12.711 -0.3151  1.1475 -0.8221
  755MPD2    C211154   0.392   0.903  12.713 -0.0697  0.2428 -0.3164
  755MPD2    C311155   0.519   0.915  12.658 -0.4844  0.5030 -0.3005
  755MPD2    C411156   0.559   1.045  12.618 -0.1179 -0.2208  0.0878
  755MPD2    C511157   0.458   1.144  12.606 -0.1567  0.7520  0.3069
  755MPD2     H11158   0.362   0.805  12.749  0.5802  0.2995  0.3825
  755MPD2    H111159   0.662   1.072  12.597  0.7356 -1.7087  2.2554
  755MPD2    H211160   0.263   1.210  12.654 -0.5679  0.0599  0.2464
  755MPD2    H311161   0.477   1.243  12.568 -2.3483  1.1519  0.2421
  755MPD2     N11162   0.612   0.813  12.656  0.4099 -0.0367 -0.0808
  755MPD2    H511163   0.706   0.841  12.630  0.3205  0.2877 -0.0535
  755MPD2    N111164   0.177   0.995  12.777  0.2893 -0.5242 -0.6015
  755MPD2    H711165   0.157   0.900  12.807  0.6326 -0.0370  1.1438
  756MPD2     C11166   2.678   0.349   8.872  0.5543 -0.6336  0.2651
  756MPD2    C111167   2.567   0.418   8.915  0.3280  0.6336 -0.2926
  756MPD2    C211168   2.442   0.370   8.887  0.5563 -0.2283  0.2500
  756MPD2    C311169   2.426   0.245   8.832 -0.1703  0.0841 -0.3661
  756MPD2    C411170   2.542   0.176   8.801  0.9182 -0.4795 -0.3266
  756MPD2    C511171   2.665   0.224   8.823 -0.0335  0.1927  0.6595
  756MPD2     H11172   2.353   0.429   8.908  1.5090  0.7601  1.5079
  756MPD2    H111173   2.548   0.072   8.774 -3.6315 -0.7554 -0.1822
  756MPD2    H211174   2.776   0.394   8.885  0.7944 -0.9872 -0.3756
  756MPD2    H311175   2.755   0.164   8.812  0.0723  0.7421 -1.3502
  756MPD2     N11176   2.294   0.196   8.820  0.1175  0.4672 -0.2895
  756MPD2    H511177   2.220   0.257   8.854 -1.7419 -1.4835 -0.8385
  756MPD2    N111178   2.596   0.543   8.972 -0.7738 -0.1147 -0.1157
  756MPD2    H711179   2.694   0.566   8.974 -0.8478  0.1017  1.7706
  757MPD2     C11180   1.347   0.223   9.113  0.1765 -0.2081  0.6298
  757MPD2    C111181   1.373   0.088   9.105  0.0124 -0.4170 -0.2942
  757MPD2    C211182   1.485   0.044   9.038  0.6657 -0.4662  0.8705
  757MPD2    C311183   1.582   0.131   8.983  0.4821  0.7656 -0.3266
  757MPD2    C411184   1.549   0.267   8.989 -0.5649  0.3513  0.2309
  757MPD2    C511185   1.442   0.303   9.059  0.3444  0.2686 -0.5858
  757MPD2     H11186   1.504   4.659   9.025 -1.2381 -0.8006  0.8525
  757MPD2    H111187   1.619   0.339   8.949  0.6843  0.4600  2.6090
  757MPD2    H211188   1.258   0.257   9.164 -0.1846 -0.8525  0.4273
  757MPD2    H311189   1.413   0.408   9.057  1.7938  0.6896  0.7091
  757MPD2     N11190   1.687   0.077   8.910 -0.3755  0.0428 -0.3314
  757MPD2    H511191   1.678   4.697   8.896  4.1845 -0.3610 -0.0971
  757MPD2    N111192   1.283   4.707   9.155  0.2196  0.5948  0.5094
  757MPD2    H711193   1.205   0.027   9.207 -0.8519  0.9409 -1.3473
  758MPD2     C11194   1.478   0.345  16.145  0.3520 -0.1316  0.0153
  758MPD2    C111195   1.490   0.222  16.213  0.2639  0.0818  0.2857
  758MPD2    C211196   1.417   0.198  16.329 -0.4086  0.8436  0.5199
  758MPD2    C311197   1.332   0.296  16.385 -0.6161 -0.3652 -0.0472
  758MPD2    C411198   1.320   0.419  16.318  0.1607 -0.4829 -0.4228
  758MPD2    C511199   1.386   0.436  16.198 -0.5405  0.0089 -0.1862
  758MPD2     H11200   1.416   0.095  16.363  1.0431  0.4685 -0.5647
  758MPD2    H111201   1.266   0.507  16.353 -2.7383 -2.4042 -0.0365
  758MPD2    H211202   1.534   0.367  16.055  1.5052 -1.8059  0.3430
  758MPD2    H311203   1.376   0.534  16.154  2.2516  0.9512  1.2567
  758MPD2     N11204   1.249   0.279  16.497  0.9024  0.3738 -0.0514
  758MPD2    H511205   1.190   0.358  16.520 -3.2646 -2.7300 -0.1431
  758MPD2    N111206   1.583   0.132  16.160  0.2175  0.1472 -0.4123
  758MPD2    H711207   1.635   0.149  16.075 -0.6526  0.3519 -0.9056
  759MPD2     C11208   4.560   3.056   9.616  0.6900 -0.0733 -0.0133
  759MPD2    C111209   4.643   3.008   9.718 -0.6960  0.9194 -0.0213
  759MPD2    C211210   0.056   3.055   9.709  0.3527 -0.3239 -0.1613
  759MPD2    C311211   0.103   3.121   9.597  0.3686 -0.1150  0.0980
  759MPD2    C411212   0.018   3.155   9.494 -0.1967  0.7243 -0.2404
  759MPD2    C511213   4.610   3.125   9.505  0.1435 -0.6016 -0.4836
  759MPD2     H11214   0.125   3.031   9.788  1.6399  2.8330 -0.3400
  759MPD2    H111215   0.049   3.211   9.406 -0.2001 -0.1275 -0.7882
  759MPD2    H211216   4.454   3.036   9.604  0.4327  0.6666  1.0911
  759MPD2    H311217   4.543   3.157   9.426  0.7325 -1.4034 -1.2919
  759MPD2     N11218   0.241   3.158   9.590 -0.5031 -0.1290 -0.5018
  759MPD2    H511219   0.300   3.136   9.670 -1.6717 -1.6851 -0.0683
  759MPD2    N111220   4.605   2.917   9.820 -0.7824 -0.6017  0.2051
  759MPD2    H711221   4.680   2.889   9.883  0.7554 -1.9082 -2.1874
  760MPD2     C11222   0.025   0.856  11.838 -0.2439  0.3074 -0.1172
  760MPD2    C111223   0.120   0.887  11.737  0.2982  0.6254 -0.0803
  760MPD2    C211224   0.166   0.781  11.661  0.2314 -0.2446 -0.3458
  760MPD2    C311225   0.121   0.646  11.691  0.5369 -0.6267  0.0798
  760MPD2    C411226   0.042   0.625  11.797  0.1785 -0.8610 -0.8963
  760MPD2    C511227   4.714   0.729  11.870  0.6766 -0.5462  0.0163
  760MPD2     H11228   0.239   0.807  11.585 -0.6324  1.0421 -0.7438
  760MPD2    H111229   0.016   0.524  11.824 -0.7760 -0.5949 -0.8187
  760MPD2    H211230   4.708   0.931  11.907 -0.9593  0.1006 -0.2782
  760MPD2    H311231   4.660   0.708  11.962  0.4288  2.4986  0.5418
  760MPD2     N11232   0.165   0.532  11.616 -0.1948 -0.5344 -0.0102
  760MPD2    H511233   0.150   0.438  11.652 -0.5615 -0.6202 -0.3891
  760MPD2    N111234   0.177   1.012  11.722  0.2089  0.0673 -1.1012
  760MPD2    H711235   0.257   1.021  11.660  1.3678 -2.2263  0.0833
  761MPD2     C11236   1.275   0.263  11.325  0.1142  0.0854 -0.3805
  761MPD2    C111237   1.345   0.228  11.212 -0.3504 -0.9166  0.2798
  761MPD2    C211238   1.459   0.301  11.183 -0.4445 -0.1096  0.8652
  761MPD2    C311239   1.503   0.415  11.251 -0.3827 -0.2955  0.3593
  761MPD2    C411240   1.430   0.453  11.361 -0.1531 -0.5104  0.8956
  761MPD2    C511241   1.318   0.376  11.396  0.1062  0.2041 -0.3482
  761MPD2     H11242   1.519   0.270  11.098 -0.8335 -0.9838  0.9075
  761MPD2    H111243   1.454   0.547  11.410  0.1866  0.5884 -1.4136
  761MPD2    H211244   1.184   0.210  11.352 -1.6921  2.8727 -1.0035
  761MPD2    H311245   1.252   0.401  11.478  0.8199  0.1942  0.2311
  761MPD2     N11246   1.624   0.480  11.227 -0.1682 -0.4123 -0.0545
  761MPD2    H511247   1.658   0.530  11.308 -0.2598  2.2995 -1.6885
  761MPD2    N111248   1.300   0.116  11.137 -0.4463  0.5161 -0.2481
  761MPD2    H711249   1.212   0.078  11.171 -0.7103 -0.2975 -1.8474
  762MPD2     C11250   1.764   4.696  10.630  0.5073  0.0706 -0.6994
  762MPD2    C111251   1.709   4.575  10.642  0.0336 -0.2525 -1.1815
  762MPD2    C211252   1.761   4.469  10.571  0.0305  0.5097  0.1266
  762MPD2    C311253   1.871   4.479  10.482 -0.3100  0.6390 -0.4581
  762MPD2    C411254   1.916   4.609  10.469  0.6425 -0.1669 -0.2825
  762MPD2    C511255   1.872   4.710  10.544 -0.0367 -0.6564 -0.2577
  762MPD2     H11256   1.719   4.369  10.576 -0.7019  0.7577 -1.1860
  762MPD2    H111257   1.998   4.628  10.401 -0.5144  0.3400 -1.5494
  762MPD2    H211258   1.737   0.063  10.690  1.0370 -0.1895 -0.0852
  762MPD2    H311259   1.925   0.085  10.541  0.2382 -0.7134  2.4096
  762MPD2     N11260   1.921   4.363  10.419 -0.4568 -0.6495  0.0087
  762MPD2    H511261   1.870   4.276  10.419 -1.3601 -0.1117  0.9043
  762MPD2    N111262   1.612   4.563  10.747 -0.2964  0.1167  0.1615
  762MPD2    H711263   1.586   4.650  10.793  0.4600  1.3162 -1.6722
  763MPD2     C11264   3.155   4.669  16.113  0.0207  0.2784  0.2030
  763MPD2    C111265   3.202   0.034  16.011  0.0962  0.4332  0.3208
  763MPD2    C211266   3.235   0.164  16.041  0.2395 -0.2682 -0.8086
  763MPD2    C311267   3.232   0.211  16.173 -0.3161  0.0757  0.3981
  763MPD2    C411268   3.192   0.116  16.264 -1.0086 -0.3061 -0.1981
  763MPD2    C511269   3.163   4.711  16.241 -0.2516  0.5710 -0.1851
  763MPD2     H11270   3.258   0.236  15.964  0.5646 -0.5734 -0.9953
  763MPD2    H111271   3.185   0.145  16.368  0.4527  0.7056 -0.3778
  763MPD2    H211272   3.127   4.565  16.100 -0.4665  0.4535 -0.1363
  763MPD2    H311273   3.116   4.655  16.321  0.4500 -0.1743 -0.3005
  763MPD2     N11274   3.262   0.348  16.210  0.1357  0.4822 -0.2218
  763MPD2    H511275   3.249   0.361  16.310  2.5148  1.4679 -0.0404
  763MPD2    N111276   3.221   4.715  15.875  0.2022  0.0911 -0.1380
  763MPD2    H711277   3.255   0.071  15.817  4.0958 -0.4668  1.4354
  764MPD2     C11278   1.431   1.359   0.074 -0.1413  0.0540 -0.3473
  764MPD2    C111279   1.381   1.279  17.656 -0.3914  0.3424  0.4065
  764MPD2    C211280   1.347   1.145  17.682  0.0625  0.0104 -0.1502
  764MPD2    C311281   1.371   1.092   0.118 -0.3739 -0.5442 -0.3134
  764MPD2    C411282   1.421   1.168   0.214  0.4776  0.1771 -0.7720
  764MPD2    C511283   1.434   1.305   0.200  0.0478 -0.7155 -0.0230
  764MPD2     H11284   1.309   1.085  17.601  0.7614 -0.7025  0.0541
  764MPD2    H111285   1.445   1.125   0.311 -0.1561 -0.7562 -1.0276
  764MPD2    H211286   1.454   1.465   0.076  3.4676 -0.7277 -0.8978
  764MPD2    H311287   1.464   1.359   0.289  0.4991 -0.0844 -0.5571
  764MPD2     N11288   1.349   0.949   0.129  0.1202 -0.5972 -0.0645
  764MPD2    H511289   1.308   0.892   0.056  1.9825 -2.3016  0.2422
  764MPD2    N111290   1.357   1.331  17.523  0.1357 -0.2344 -0.7890
  764MPD2    H711291   1.306   1.270  17.461 -1.1066  0.3986 -0.4000
  765MPD2     C11292   1.191   4.207  15.294 -0.0337 -0.1459 -1.0220
  765MPD2    C111293   1.215   4.317  15.367 -0.5023 -0.7114 -0.2154
  765MPD2    C211294   1.311   4.300  15.460 -0.6619 -0.0217 -0.4419
  765MPD2    C311295   1.392   4.187  15.469 -0.2305  1.5944 -0.3620
  765MPD2    C411296   1.364   4.083  15.382  0.2622 -0.1141 -0.4929
  765MPD2    C511297   1.263   4.092  15.297  0.1897  0.3052  0.2781
  765MPD2     H11298   1.329   4.373  15.537  0.0287 -0.1223 -0.5052
  765MPD2    H111299   1.416   3.988  15.395 -2.3126 -1.2105  1.6913
  765MPD2    H211300   1.108   4.199  15.225 -0.7247  1.3588 -0.3539
  765MPD2    H311301   1.244   4.015  15.224 -1.5313  0.7994  0.2259
  765MPD2     N11302   1.500   4.164  15.561  0.3265 -0.3826  0.3904
  765MPD2    H511303   1.544   4.073  15.570 -0.3170 -0.6022  1.2241
  765MPD2    N111304   1.121   4.422  15.363  0.2325 -0.6216  0.0433
  765MPD2    H711305   1.045   4.419  15.296  0.2865  2.0615 -0.1529
  766MPD2     C11306   0.527   4.503  15.064 -0.6944  0.0287 -0.0493
  766MPD2    C111307   0.663   4.516  15.070  0.3817  0.0065 -0.0840
  766MPD2    C211308   0.729   4.497  14.949 -0.1297  0.0069  0.1884
  766MPD2    C311309   0.669   4.449  14.832 -0.9755  0.0104  0.1320
  766MPD2    C411310   0.534   4.435  14.837 -0.4025  1.3283 -1.0065
  766MPD2    C511311   0.458   4.458  14.953  0.4670  0.3880  0.1390
  766MPD2     H11312   0.837   4.508  14.958 -0.4935  2.6132  1.2390
  766MPD2    H111313   0.477   4.412  14.747 -0.8250  0.6742 -0.5720
  766MPD2    H211314   0.464   4.515  15.151 -0.3603  0.8853  0.0635
  766MPD2    H311315   0.349   4.458  14.952  0.4691  1.3494 -0.9231
  766MPD2     N11316   0.737   4.401  14.720 -0.6425 -0.3712 -0.6416
  766MPD2    H511317   0.684   4.383  14.635 -0.5317 -0.4183 -0.7017
  766MPD2    N111318   0.734   4.549  15.185  0.4138  0.3308  0.2681
  766MPD2    H711319   0.833   4.527  15.182  0.7522  1.7601  0.6081
  767MPD2     C11320   0.310   0.138  14.848  0.3100 -0.9854  0.3670
  767MPD2    C111321   0.431   0.088  14.816  0.7288 -0.0090 -0.0053
  767MPD2    C211322   0.450   0.012  14.701  0.3584  0.1741 -0.2788
  767MPD2    C311323   0.334   4.700  14.622 -0.0645  0.0453  0.4772
  767MPD2    C411324   0.210   0.040  14.653 -0.7794  0.1550  0.4029
  767MPD2    C511325   0.208   0.111  14.767  0.5413  0.0035 -0.0590
  767MPD2     H11326   0.547   4.688  14.684  0.8963  1.1310  0.3174
  767MPD2    H111327   0.120   0.021  14.595 -0.7122  0.5810  0.1604
  767MPD2    H211328   0.295   0.186  14.944  0.4065 -0.4343  0.1078
  767MPD2    H311329   0.107   0.149  14.784  0.9965  1.5982 -0.8852
  767MPD2     N11330   0.345   4.622  14.503  0.2104  0.0890 -0.0161
  767MPD2    H511331   0.256   4.593  14.464  0.7713 -1.2266 -0.3397
  767MPD2    N111332   0.549   0.122  14.887  0.3769 -0.4960 -1.3392
  767MPD2    H711333   0.640   0.085  14.860  1.1460 -0.4669  1.2521
  768MPD2     C11334   1.007   2.551  11.204  0.2113 -0.4723  0.0826
  768MPD2    C111335   0.952   2.660  11.262 -0.0238  0.5013 -0.7952
  768MPD2    C211336   0.982   2.679  11.389 -0.2303 -0.5028  0.1894
  768MPD2    C311337   1.074   2.604  11.465 -0.3535  0.8216  0.0056
  768MPD2    C411338   1.126   2.497  11.403 -0.1877 -0.3687 -0.0739
  768MPD2    C511339   1.096   2.465  11.270  0.1397 -0.0136  0.3310
  768MPD2     H11340   0.950   2.774  11.430  0.6842 -0.4940  0.8916
  768MPD2    H111341   1.192   2.437  11.465 -0.3482  1.9586  2.3209
  768MPD2    H211342   0.964   2.512  11.112  1.0154 -1.0597 -0.0484
  768MPD2    H311343   1.118   2.363  11.241 -2.3772 -0.7202  0.9284
  768MPD2     N11344   1.112   2.633  11.599  0.0709 -0.1208  0.2024
  768MPD2    H511345   1.183   2.572  11.638 -2.6850 -2.8196  0.9719
  768MPD2    N111346   0.859   2.744  11.199 -0.2105 -0.3251 -0.0052
  768MPD2    H711347   0.806   2.807  11.259 -1.7378  0.0079 -1.7034
  769MPD2     C11348   2.646   1.137  14.884 -0.0670  0.4492 -0.4178
  769MPD2    C111349   2.522   1.130  14.942  0.1678 -0.2555  0.1152
  769MPD2    C211350   2.509   1.128  15.078 -0.4013 -0.4918  0.2907
  769MPD2    C311351   2.619   1.149  15.156  0.0317  0.0320 -0.2088
  769MPD2    C411352   2.747   1.148  15.099 -0.7475 -0.3938 -0.3222
  769MPD2    C511353   2.759   1.141  14.967  0.0040 -0.3575 -0.0902
  769MPD2     H11354   2.414   1.128  15.130 -1.7264 -1.8717 -2.1672
  769MPD2    H111355   2.839   1.156  15.155 -1.0819  0.3778  0.1214
  769MPD2    H211356   2.674   1.159  14.782 -0.5590  2.3438 -0.1466
  769MPD2    H311357   2.856   1.133  14.918  0.3832 -1.0459  0.7718
  769MPD2     N11358   2.613   1.168  15.293 -0.2225  0.5218 -0.0221
  769MPD2    H511359   2.699   1.209  15.328  0.0200 -0.2420  0.2698
  769MPD2    N111360   2.418   1.159  14.855  0.9829  0.1865 -0.8072
  769MPD2    H711361   2.443   1.169  14.757  0.8782  2.0530 -0.6345
  770MPD2     C11362   1.550   0.820  15.074  0.2579  0.7246 -0.0257
  770MPD2    C111363   1.686   0.796  15.091 -0.4533 -0.4385 -0.4525
  770MPD2    C211364   1.777   0.878  15.035  0.2348 -0.4921  1.0228
  770MPD2    C311365   1.739   0.985  14.956 -0.4009 -0.2099  0.0024
  770MPD2    C411366   1.608   1.019  14.950 -0.7964  0.6484 -0.4670
  770MPD2    C511367   1.515   0.939  15.010 -0.0982  0.8042 -0.0368
  770MPD2     H11368   1.882   0.854  15.042 -0.2176 -2.6425  0.4768
  770MPD2    H111369   1.565   1.105  14.901  0.1009  0.7515 -1.0720
  770MPD2    H211370   1.474   0.757  15.117  2.5280 -0.9717  1.5111
  770MPD2    H311371   1.408   0.948  15.000 -0.1101 -1.4888 -2.0096
  770MPD2     N11372   1.849   1.056  14.897  0.3906 -0.6979  0.2496
  770MPD2    H511373   1.939   1.011  14.911  0.9892 -0.4684 -2.8334
  770MPD2    N111374   1.720   0.683  15.160 -0.3298  0.5487  0.6087
  770MPD2    H711375   1.647   0.619  15.186 -0.4474  1.2708  2.0574
  771MPD2     C11376   2.712   3.931  13.597  0.2951  0.8645  0.1305
  771MPD2    C111377   2.781   4.023  13.514 -0.0535  0.3944  0.9372
  771MPD2    C211378   2.763   4.007  13.378 -0.3408 -0.6161  0.4801
  771MPD2    C311379   2.688   3.900  13.323  0.0172 -0.0385 -0.0768
  771MPD2    C411380   2.625   3.818  13.412  0.1664  0.8712 -0.5860
  771MPD2    C511381   2.646   3.830  13.546 -0.1105 -0.7063 -0.1550
  771MPD2     H11382   2.816   4.072  13.310 -1.8132 -1.5555 -1.5840
  771MPD2    H111383   2.550   3.745  13.384 -0.4327  0.8018  1.1555
  771MPD2    H211384   2.711   3.949  13.704  1.0340  2.0178 -0.0501
  771MPD2    H311385   2.603   3.773  13.628 -0.2291 -1.2496 -0.5997
  771MPD2     N11386   2.671   3.887  13.183  0.0664 -0.6256 -0.2269
  771MPD2    H511387   2.712   3.964  13.131 -3.5122  0.4829 -1.4129
  771MPD2    N111388   2.853   4.128  13.571  0.3557  0.2810  0.0743
  771MPD2    H711389   2.919   4.180  13.514  0.2590  0.7327  0.3719
  772MPD2     C11390   2.743   4.600  14.260  0.2703 -0.7965 -0.1005
  772MPD2    C111391   2.698   4.559  14.135 -0.7366 -0.4161 -0.4329
  772MPD2    C211392   2.561   4.552  14.120  0.2005 -0.2154  0.1985
  772MPD2    C311393   2.467   4.591  14.219  0.4561  0.6494 -0.3377
  772MPD2    C411394   2.516   4.632  14.340 -0.3782  0.1921 -0.0175
  772MPD2    C511395   2.651   4.642  14.355  0.1905 -0.2722 -0.2708
  772MPD2     H11396   2.531   4.490  14.037  0.5964 -0.5656  0.3191
  772MPD2    H111397   2.451   4.667  14.420  2.1309 -1.2534  2.6612
  772MPD2    H211398   2.849   4.614  14.280  0.5284 -2.3198 -0.3924
  772MPD2    H311399   2.695   4.672  14.449 -0.6758 -0.7830  0.2947
  772MPD2     N11400   2.324   4.573  14.205 -0.0601 -0.3808 -0.2479
  772MPD2    H511401   2.272   4.592  14.290  0.1000 -0.8368 -0.0484
  772MPD2    N111402   2.783   4.503  14.029  0.7466 -0.3764 -0.0192
  772MPD2    H711403   2.731   4.462  13.951 -0.8671  3.8132 -1.1515
  773MPD2     C11404   1.687   4.439   0.054 -0.3641 -0.2388 -0.1805
  773MPD2    C111405   1.586   4.370   0.117  0.3241  0.1243  0.2308
  773MPD2    C211406   1.619   4.268   0.202 -0.1517  0.1161 -0.5170
  773MPD2    C311407   1.753   4.218   0.205 -0.7298 -0.0039  0.3995
  773MPD2    C411408   1.845   4.298   0.140 -0.0762  0.8513 -0.5144
  773MPD2    C511409   1.811   4.410   0.075 -0.6095 -0.1574  0.4087
  773MPD2     H11410   1.542   4.238   0.271 -0.0794  0.1116 -0.4383
  773MPD2    H111411   1.952   4.278   0.135  0.3202  2.1140  2.5170
  773MPD2    H211412   1.664   4.523  17.673  0.3139 -0.5887 -0.8764
  773MPD2    H311413   1.890   4.480   0.049  0.6731 -0.8431  2.4338
  773MPD2     N11414   1.783   4.095   0.274  0.2517  0.4055 -0.0991
  773MPD2    H511415   1.708   4.045   0.321 -0.0656 -0.4785 -1.5694
  773MPD2    N111416   1.455   4.408   0.102  0.2941  0.3390 -0.1137
  773MPD2    H711417   1.381   4.353   0.145  0.8634  0.9645  1.6740
  774MPD2     C11418   1.408   4.300  12.797 -0.0743 -0.5771 -0.1405
  774MPD2    C111419   1.367   4.346  12.920  0.6142  0.8622 -0.3891
  774MPD2    C211420   1.363   4.479  12.949  0.4003 -0.2559 -0.0562
  774MPD2    C311421   1.409   4.567  12.853  0.2794  0.1683 -0.1923
  774MPD2    C411422   1.456   4.521  12.735 -0.4166 -0.4362  0.0030
  774MPD2    C511423   1.462   4.386  12.707 -0.2738 -0.0592  0.1751
  774MPD2     H11424   1.334   4.523  13.043  2.1884  1.6004 -0.3683
  774MPD2    H111425   1.500   4.583  12.658  0.7356 -2.2972 -0.8300
  774MPD2    H211426   1.422   4.196  12.772 -0.0828 -0.7795  0.7082
  774MPD2    H311427   1.503   4.343  12.616 -0.5286 -0.1925  0.1217
  774MPD2     N11428   1.407   4.709  12.884  0.4459  0.8698  0.1355
  774MPD2    H511429   1.374   0.020  12.975  1.8219  1.2580  0.5029
  774MPD2    N111430   1.344   4.256  13.022  0.1249 -0.1617  0.4480
  774MPD2    H711431   1.328   4.164  12.984 -2.0669  0.1784  0.5210
  775MPD2     C11432   2.723   1.248  15.840 -0.1817  0.1878  0.0254
  775MPD2    C111433   2.638   1.350  15.883 -0.2485 -0.3658  0.2429
  775MPD2    C211434   2.676   1.478  15.836  0.4093 -0.1588 -0.0170
  775MPD2    C311435   2.792   1.496  15.762  0.6202 -0.2434  0.2158
  775MPD2    C411436   2.872   1.392  15.720  0.1974  0.7654  0.6223
  775MPD2    C511437   2.831   1.263  15.759 -0.4334 -0.7040 -0.1417
  775MPD2     H11438   2.622   1.563  15.875  0.0477 -0.0190 -0.8373
  775MPD2    H111439   2.963   1.407  15.663  0.1829 -1.6157 -0.0066
  775MPD2    H211440   2.712   1.146  15.876  2.0498 -0.7264 -1.7740
  775MPD2    H311441   2.896   1.177  15.744 -0.3397 -0.5535 -0.6150
  775MPD2     N11442   2.832   1.626  15.724 -0.0420 -0.3410 -0.1735
  775MPD2    H511443   2.911   1.638  15.662 -0.4917 -1.2559 -0.9262
  775MPD2    N111444   2.528   1.317  15.972 -0.4501  0.6011 -0.1621
  775MPD2    H711445   2.522   1.218  15.994 -0.3384  0.8222  0.8461
  776MPD2     C11446   1.597   1.591  11.916 -0.2064 -0.5007 -0.0054
  776MPD2    C111447   1.718   1.538  11.885 -0.1199 -0.2681  0.2169
  776MPD2    C211448   1.775   1.582  11.763  0.0244  0.3093 -0.1895
  776MPD2    C311449   1.717   1.671  11.684 -0.5842 -0.8233 -0.1880
  776MPD2    C411450   1.602   1.731  11.726  0.3019 -0.3749  0.7038
  776MPD2    C511451   1.536   1.690  11.834  0.5442  0.1273 -0.0444
  776MPD2     H11452   1.871   1.540  11.736  0.3045  1.0118 -0.2768
  776MPD2    H111453   1.551   1.806  11.667 -0.0438 -1.2877 -0.1482
  776MPD2    H211454   1.539   1.556  12.001 -1.3176  3.1374  0.7702
  776MPD2    H311455   1.445   1.746  11.849  0.0143 -1.0335  1.0353
  776MPD2     N11456   1.781   1.690  11.563  0.5351 -0.3531 -0.1376
  776MPD2    H511457   1.859   1.627  11.547  2.4917  1.6980  1.3965
  776MPD2    N111458   1.773   1.431  11.960  0.1747  1.0924  0.3186
  776MPD2    H711459   1.709   1.380  12.020  0.0726  0.2424 -0.4985
  777MPD2     C11460   1.916   3.049   0.692  0.2309  0.0712  0.1831
  777MPD2    C111461   1.799   3.039   0.763 -0.5325  0.6091 -0.8274
  777MPD2    C211462   1.703   2.952   0.726  0.6789  0.2607  0.2459
  777MPD2    C311463   1.724   2.867   0.613  0.9936 -0.3451 -0.2507
  777MPD2    C411464   1.847   2.881   0.543 -0.1710  0.0866 -0.6277
  777MPD2    C511465   1.937   2.981   0.577 -0.0467  0.1128  0.3501
  777MPD2     H11466   1.606   2.959   0.774  0.2571  0.4775 -0.6500
  777MPD2    H111467   1.872   2.829   0.451  0.2659 -2.7189  1.0549
  777MPD2    H211468   1.990   3.120   0.729  0.4584 -0.1765  0.2071
  777MPD2    H311469   2.023   2.999   0.513 -2.1352  0.6988 -2.3134
  777MPD2     N11470   1.629   2.776   0.576  0.3889 -0.2818  0.2617
  777MPD2    H511471   1.552   2.767   0.642 -0.7995 -1.6668 -1.3070
  777MPD2    N111472   1.788   3.127   0.873  0.4011  0.0965 -0.6875
  777MPD2    H711473   1.868   3.183   0.899 -0.6846  0.3873  1.9901
  778MPD2     C11474   3.248   3.704  14.928  0.3497 -0.0176 -0.3289
  778MPD2    C111475   3.142   3.730  14.839  0.7926  0.2953 -0.2791
  778MPD2    C211476   3.151   3.849  14.761 -0.3435  0.0654  0.4938
  778MPD2    C311477   3.272   3.919  14.750  0.3667  0.1266 -0.8173
  778MPD2    C411478   3.374   3.889  14.841  0.0786 -0.1656  0.0410
  778MPD2    C511479   3.359   3.793  14.937 -0.2610  0.2997  0.6557
  778MPD2     H11480   3.063   3.874  14.703 -0.0778  1.9794  0.9042
  778MPD2    H111481   3.473   3.934  14.837 -0.9444  1.8529 -2.2435
  778MPD2    H211482   3.242   3.616  14.991 -0.3308 -0.2018 -0.6546
  778MPD2    H311483   3.432   3.780  15.015 -1.0156  2.5208  1.7310
  778MPD2     N11484   3.295   4.010  14.637 -0.3084  0.1540 -0.9194
  778MPD2    H511485   3.223   4.016  14.565  0.8468  3.2515 -1.7717
  778MPD2    N111486   3.033   3.642  14.820 -0.1850 -0.2170 -0.3596
  778MPD2    H711487   2.972   3.658  14.740  1.0132  1.2170 -0.9823
  779MPD2     C11488   2.793   2.735  14.064 -0.0713 -0.3166 -0.7880
  779MPD2    C111489   2.890   2.748  14.160 -0.3482 -0.1228  0.0329
  779MPD2    C211490   2.950   2.871  14.173 -0.1963  0.4131 -0.4543
  779MPD2    C311491   2.923   2.976  14.092 -0.7207 -0.6612 -0.2063
  779MPD2    C411492   2.842   2.952  13.986 -0.0170  0.0105  0.3255
  779MPD2    C511493   2.770   2.838  13.979  0.1665  0.6788  0.1497
  779MPD2     H11494   3.007   2.893  14.262 -0.2375  0.7604 -0.5137
  779MPD2    H111495   2.826   3.025  13.907 -2.5814 -0.8065  0.1087
  779MPD2    H211496   2.727   2.651  14.045  2.4086 -1.9941 -2.0193
  779MPD2    H311497   2.700   2.815  13.899  0.2545  1.3477 -0.1192
  779MPD2     N11498   2.976   3.102  14.118  0.8017 -0.0482 -0.2190
  779MPD2    H511499   3.042   3.104  14.195  0.0543  1.3626  0.3832
  779MPD2    N111500   2.925   2.646  14.251  0.2707  0.0917 -0.3617
  779MPD2    H711501   3.013   2.645  14.301 -1.3174 -0.2070  2.4275
  780MPD2     C11502   0.836   1.981   0.206  0.0259 -0.3483  0.1922
  780MPD2    C111503   0.911   1.922   0.306 -0.2573  0.6025 -0.4450
  780MPD2    C211504   1.048   1.947   0.302 -0.3714 -0.2683  0.1459
  780MPD2    C311505   1.106   2.037   0.215  0.2345 -0.5867  0.2226
  780MPD2    C411506   1.020   2.108   0.128 -0.6205  0.3370 -0.1129
  780MPD2    C511507   0.890   2.074   0.121 -0.1944 -0.4429  0.9288
  780MPD2     H11508   1.113   1.895   0.371 -0.7110  1.1018  1.4955
  780MPD2    H111509   1.052   2.183   0.057 -0.2581 -0.8791 -1.2117
  780MPD2    H211510   0.729   1.972   0.218  0.1188 -1.3989  0.2008
  780MPD2    H311511   0.818   2.125   0.058  0.5689 -0.2218  0.2364
  780MPD2     N11512   1.242   2.065   0.234  0.6815  0.2015  0.5671
  780MPD2    H511513   1.297   2.005   0.295  0.9502  1.0391  1.1421
  780MPD2    N111514   0.844   1.833   0.394 -0.1320 -0.0518  0.3624
  780MPD2    H711515   0.748   1.805   0.375  0.3381 -2.1031  0.9801
  781MPD2     C11516   4.076   4.335  11.616  0.7476  0.0612 -0.6518
  781MPD2    C111517   4.195   4.348  11.676  0.3479  0.5485 -0.3218
  781MPD2    C211518   4.312   4.370  11.600 -0.4969 -0.5091  0.1073
  781MPD2    C311519   4.309   4.357  11.460  0.3882  0.2032 -0.0606
  781MPD2    C411520   4.190   4.325  11.398 -0.1108 -0.4950 -0.1174
  781MPD2    C511521   4.077   4.323  11.482 -0.1747  0.3689  0.6524
  781MPD2     H11522   4.409   4.372  11.648 -0.8690 -0.6349  0.8666
  781MPD2    H111523   4.168   4.308  11.294  0.3862 -2.0377  0.0314
  781MPD2    H211524   3.981   4.329  11.668  0.2602 -0.1825 -1.5629
  781MPD2    H311525   3.982   4.301  11.435  0.2696 -0.2292  0.0307
  781MPD2     N11526   4.431   4.361  11.383  0.1141  0.2765  0.1111
  781MPD2    H511527   4.516   4.383  11.434 -0.1055 -0.0615  0.6213
  781MPD2    N111528   4.213   4.352  11.821  0.0823  0.0210 -0.1634
  781MPD2    H711529   4.304   4.381  11.856 -0.8994  0.8562  1.6830
  782MPD2     C11530   2.818   1.099  10.222  0.6359 -0.1568  0.4090
  782MPD2    C111531   2.765   1.010  10.317  0.1405  0.0714 -0.1162
  782MPD2    C211532   2.790   1.030  10.449  0.3874  0.3664 -0.4183
  782MPD2    C311533   2.844   1.148  10.496 -0.0348  0.5794 -0.0809
  782MPD2    C411534   2.878   1.246  10.400  0.0373  0.0909 -0.2742
  782MPD2    C511535   2.866   1.221  10.267  0.2799 -0.0996  0.1922
  782MPD2     H11536   2.756   0.956  10.521  0.1322  0.8471 -0.0418
  782MPD2    H111537   2.922   1.343  10.420 -0.0378 -0.0269  0.4837
  782MPD2    H211538   2.803   1.084  10.115 -0.7343 -1.1598  0.7489
  782MPD2    H311539   2.891   1.302  10.199 -0.9174 -0.9866 -1.2867
  782MPD2     N11540   2.862   1.162  10.637  0.9581  0.1651  0.0082
  782MPD2    H511541   2.823   1.085  10.690 -0.5202  0.0876 -1.1631
  782MPD2    N111542   2.711   0.892  10.266  0.7896  0.0571 -0.4929
  782MPD2    H711543   2.707   0.889  10.165  1.7782  1.1869 -0.5703
  783MPD2     C11544   1.983   0.375  10.579  0.6241  0.3906  0.8435
  783MPD2    C111545   2.081   0.432  10.666  0.2457  0.2293 -0.3462
  783MPD2    C211546   2.217   0.435  10.622 -0.3339 -0.0416 -0.8226
  783MPD2    C311547   2.245   0.400  10.491  0.0247  0.0306  0.0667
  783MPD2    C411548   2.146   0.348  10.407 -0.6602 -0.5954 -0.2491
  783MPD2    C511549   2.014   0.339  10.450 -0.5181  0.3110  0.2556
  783MPD2     H11550   2.301   0.476  10.676 -0.0010 -1.3236 -0.3593
  783MPD2    H111551   2.164   0.313  10.306 -0.3978  0.1160 -0.4483
  783MPD2    H211552   1.879   0.365  10.608  0.8696 -1.9504  0.8773
  783MPD2    H311553   1.933   0.313  10.384 -1.0894 -1.7751  1.7653
  783MPD2     N11554   2.379   0.418  10.451  0.2720 -0.3610 -0.0023
  783MPD2    H511555   2.437   0.474  10.513 -0.2454 -1.3167  1.3387
  783MPD2    N111556   2.034   0.484  10.783  0.0195  0.6679  0.0375
  783MPD2    H711557   1.933   0.475  10.790  0.2750 -0.8178  1.7195
  784MPD2     C11558   4.115   1.040   1.011  0.3592 -0.2172  0.2486
  784MPD2    C111559   4.019   0.973   1.084  0.3460 -0.4627  0.0035
  784MPD2    C211560   3.886   0.967   1.043  0.8514  0.3643  0.0565
  784MPD2    C311561   3.850   1.032   0.923  0.9291  0.4307  0.4156
  784MPD2    C411562   3.946   1.103   0.851 -0.1381 -0.1178 -0.4438
  784MPD2    C511563   4.074   1.111   0.902 -0.0549  0.2005  0.1558
  784MPD2     H11564   3.826   0.903   1.106  0.2852  1.3283  0.4855
  784MPD2    H111565   3.919   1.150   0.757 -1.8427 -0.3803 -0.0847
  784MPD2    H211566   4.221   1.045   1.030  0.7328  2.2428 -2.3567
  784MPD2    H311567   4.152   1.157   0.844 -0.7337  0.2720 -0.6947
  784MPD2     N11568   3.721   1.021   0.872 -0.2759  0.4282 -0.5795
  784MPD2    H511569   3.653   0.972   0.928 -0.3240  1.1404 -0.0108
  784MPD2    N111570   4.055   0.900   1.201 -0.4188  0.4960  0.0637
  784MPD2    H711571   3.979   0.859   1.254 -0.9163 -0.4349 -1.3714
  785MPD2     C11572   0.097   3.023  10.401 -0.2465  0.1431 -0.7032
  785MPD2    C111573   0.077   3.160  10.385  0.0882 -0.1104  0.1208
  785MPD2    C211574   4.674   3.200  10.352  0.3265 -0.4851 -0.5460
  785MPD2    C311575   4.572   3.113  10.322 -0.5159  0.6527 -0.5973
  785MPD2    C411576   4.589   2.976  10.336  0.1224 -0.1512 -0.1603
  785MPD2    C511577   4.719   2.935  10.375 -0.1485 -0.1574 -0.7693
  785MPD2     H11578   4.667   3.308  10.347 -1.9339 -0.5361  1.5931
  785MPD2    H111579   4.512   2.901  10.326 -0.0151  0.2286 -1.8890
  785MPD2    H211580   0.192   2.990  10.443 -0.2663 -1.0414 -1.6015
  785MPD2    H311581   0.012   2.828  10.385  0.0108  0.0019  0.6995
  785MPD2     N11582   4.461   3.167  10.260 -0.2123 -0.1398 -1.0425
  785MPD2    H511583   4.459   3.268  10.252  0.4317  0.0900  2.0146
  785MPD2    N111584   0.176   3.260  10.410  0.1965 -0.3438 -0.0975
  785MPD2    H711585   0.153   3.359  10.408 -0.7175 -0.5589 -0.9220
  786MPD2     C11586   3.153   2.102  14.688  0.5121 -0.4345  0.5708
  786MPD2    C111587   3.281   2.050  14.707 -0.2286 -0.6466  0.4606
  786MPD2    C211588   3.372   2.119  14.784 -0.1316  0.1191  0.6559
  786MPD2    C311589   3.331   2.232  14.861  0.1698 -0.0492  0.1558
  786MPD2    C411590   3.196   2.268  14.840 -0.1804 -0.1102 -0.3838
  786MPD2    C511591   3.110   2.201  14.762 -0.9884  0.1298  0.3849
  786MPD2     H11592   3.474   2.084  14.781 -0.4066 -0.7134  0.9291
  786MPD2    H111593   3.158   2.352  14.897  1.1193 -0.4787  1.0262
  786MPD2    H211594   3.083   2.053  14.621 -0.4436  0.3570  1.0023
  786MPD2    H311595   3.011   2.240  14.740 -1.2070 -0.3162  0.5725
  786MPD2     N11596   3.416   2.311  14.948 -0.2619  0.0470  0.0524
  786MPD2    H511597   3.366   2.386  14.995  1.1911  0.4334  1.0004
  786MPD2    N111598   3.333   1.935  14.635 -0.0825  0.1638 -0.7803
  786MPD2    H711599   3.422   1.902  14.670 -0.8987 -0.1682  0.9971
  787MPD2     C11600   3.807   1.666  14.829  0.0874  0.3419 -0.3775
  787MPD2    C111601   3.800   1.591  14.712  0.4348 -0.2699  0.5859
  787MPD2    C211602   3.881   1.481  14.679  0.5684 -0.5298 -0.7162
  787MPD2    C311603   3.976   1.447  14.772  0.0012  0.0046 -0.1829
  787MPD2    C411604   3.981   1.520  14.889  1.2522  1.1376 -0.5477
  787MPD2    C511605   3.897   1.623  14.917  0.1617 -0.6490  0.1983
  787MPD2     H11606   3.864   1.416  14.594 -1.8562  0.0655 -0.7060
  787MPD2    H111607   4.050   1.495  14.969 -0.1458 -1.9872 -0.2865
  787MPD2    H211608   3.747   1.751  14.861 -1.2088 -0.0381 -1.8231
  787MPD2    H311609   3.916   1.681  15.007 -0.4143  1.1963 -0.8713
  787MPD2     N11610   4.053   1.335  14.749  0.1871  0.4663  0.1152
  787MPD2    H511611   4.048   1.289  14.659 -0.3642  2.5850 -0.9278
  787MPD2    N111612   3.689   1.626  14.628  0.3410 -0.0904 -0.0251
  787MPD2    H711613   3.634   1.711  14.633 -1.4068 -1.0063 -3.5425
  788MPD2     C11614   0.110   4.124   0.962  0.1823 -0.2870  0.6487
  788MPD2    C111615   0.050   4.073   0.847  0.1155  0.4202  0.9125
  788MPD2    C211616   0.058   4.139   0.726  0.1290 -0.0015 -0.6470
  788MPD2    C311617   0.149   4.237   0.713 -0.1674  0.0583  0.6220
  788MPD2    C411618   0.222   4.273   0.823 -0.3513 -0.1954 -0.6524
  788MPD2    C511619   0.192   4.234   0.947 -0.2546  0.7148  0.0797
  788MPD2     H11620   0.000   4.100   0.643 -0.4290 -0.3011 -0.1188
  788MPD2    H111621   0.291   4.355   0.807  0.6859 -0.9564 -0.0938
  788MPD2    H211622   0.103   4.083   1.062 -1.8485  2.0710  1.4784
  788MPD2    H311623   0.251   4.274   1.029 -0.6684  1.1074  0.1819
  788MPD2     N11624   0.187   4.288   0.589  1.0876 -0.3601 -0.3000
  788MPD2    H511625   0.278   4.333   0.581  0.2319  1.3914 -0.0437
  788MPD2    N111626   4.697   3.951   0.862  0.2803  0.2337  0.6445
  788MPD2    H711627   4.653   3.914   0.778  1.8098  1.2534 -0.6081
  789MPD2     C11628   1.099   4.640  16.425  0.6650 -0.1554  0.4395
  789MPD2    C111629   1.052   4.558  16.532  0.1808  0.7516 -0.3698
  789MPD2    C211630   0.920   4.583  16.573 -0.1479  0.6667  0.4317
  789MPD2    C311631   0.835   4.673  16.505  0.4861  0.0261  0.2943
  789MPD2    C411632   0.879   0.023  16.397 -0.3572 -0.0882  0.2997
  789MPD2    C511633   1.009   0.014  16.363  0.0460 -0.9748  0.2802
  789MPD2     H11634   0.888   4.515  16.651 -3.9176  1.5325 -0.3334
  789MPD2    H111635   0.808   0.064  16.325  1.5553  0.0059 -1.5123
  789MPD2    H211636   1.197   4.630  16.380 -0.0828 -0.5757 -1.1165
  789MPD2    H311637   1.043   0.071  16.277 -0.9512  0.1600  0.6269
  789MPD2     N11638   0.702   4.705  16.557  0.0511  0.2038  0.4903
  789MPD2    H511639   0.650   0.053  16.501  0.3487  0.5185  0.5982
  789MPD2    N111640   1.126   4.448  16.582  0.1172 -0.1680 -0.1194
  789MPD2    H711641   1.079   4.396  16.655 -0.3921  2.3608  1.3471
  790MPD2     C11642   2.046   2.484  12.995 -0.0225  0.0429 -0.2577
  790MPD2    C111643   2.070   2.372  13.070  0.1998  0.2284 -0.3971
  790MPD2    C211644   2.050   2.251  13.010 -0.3552  0.6757  0.6779
  790MPD2    C311645   2.007   2.253  12.878  0.3024  0.3301 -0.0173
  790MPD2    C411646   1.999   2.366  12.796 -0.6189  0.2229  0.1610
  790MPD2    C511647   2.023   2.487  12.859 -0.0073  0.0758  0.1764
  790MPD2     H11648   2.063   2.159  13.066 -0.5256 -0.8718 -1.8626
  790MPD2    H111649   1.970   2.354  12.692 -2.1621  2.4133  0.3331
  790MPD2    H211650   2.050   2.583  13.040 -0.4227 -0.8358  1.7016
  790MPD2    H311651   2.002   2.582  12.811 -0.4153  1.0711  2.3150
  790MPD2     N11652   1.981   2.125  12.819 -0.2523 -0.1174  0.3931
  790MPD2    H511653   2.004   2.046  12.879 -0.6148 -0.4768  0.0563
  790MPD2    N111654   2.094   2.380  13.212 -0.4098 -0.0193  0.3982
  790MPD2    H711655   2.101   2.478  13.234  2.7243 -0.0108 -0.6347
  791MPD2     C11656   1.307   1.989  12.469  0.2519  0.0157 -0.5041
  791MPD2    C111657   1.365   1.895  12.553  0.0943  0.7403 -0.0336
  791MPD2    C211658   1.281   1.812  12.626 -0.3690 -0.3122 -0.4813
  791MPD2    C311659   1.142   1.830  12.624  0.4632 -0.3911  0.4974
  791MPD2    C411660   1.082   1.929  12.548  0.7995 -0.1321 -0.3528
  791MPD2    C511661   1.169   2.006  12.468  0.0388 -0.2854  0.6879
  791MPD2     H11662   1.327   1.735  12.688 -0.2903 -0.9326 -1.3110
  791MPD2    H111663   0.975   1.939  12.538  1.0376  0.9216 -1.7007
  791MPD2    H211664   1.367   2.050  12.404 -0.7688  0.8345 -0.6826
  791MPD2    H311665   1.131   2.090  12.411 -0.5221 -0.3230  1.0068
  791MPD2     N11666   1.063   1.734  12.700 -0.1146  0.6230 -0.5123
  791MPD2    H511667   1.110   1.674  12.767 -0.7406  0.3887 -0.2818
  791MPD2    N111668   1.510   1.882  12.559 -0.2514 -0.1512 -0.6427
  791MPD2    H711669   1.561   1.955  12.510 -1.5928 -0.5997 -2.7076
  792MPD2     C11670   2.329   1.917  10.473  0.3390 -0.0682 -0.4977
  792MPD2    C111671   2.414   1.838  10.542 -0.3584  0.5463  0.0963
  792MPD2    C211672   2.489   1.744  10.469  0.1413 -0.4453 -0.3304
  792MPD2    C311673   2.481   1.733  10.333  0.5581  0.1101 -0.2258
  792MPD2    C411674   2.393   1.824  10.270 -0.6048 -0.0687  0.2958
  792MPD2    C511675   2.319   1.908  10.338 -0.0477  0.4605 -0.1820
  792MPD2     H11676   2.522   1.662  10.532  0.7278  0.0258 -0.0351
  792MPD2    H111677   2.385   1.823  10.162  1.1765 -3.7803  0.2070
  792MPD2    H211678   2.265   1.985  10.527  0.5190 -0.3891  0.1114
  792MPD2    H311679   2.253   1.970  10.278  0.6275 -0.8680 -2.3216
  792MPD2     N11680   2.530   1.624  10.256 -0.2164  0.0217  0.5557
  792MPD2    H511681   2.539   1.637  10.156  2.1275 -0.6543  0.6918
  792MPD2    N111682   2.429   1.868  10.680  0.3612 -0.0564  0.1467
  792MPD2    H711683   2.381   1.948  10.720 -3.4708 -1.0041 -2.5858
  793MPD2     C11684   2.467   1.348   9.337  0.9301 -0.0541 -0.4027
  793MPD2    C111685   2.498   1.225   9.395 -0.0124  0.1105 -0.5145
  793MPD2    C211686   2.518   1.212   9.527 -0.2129  0.2486 -0.0541
  793MPD2    C311687   2.504   1.321   9.610  0.1214  0.3773  0.0845
  793MPD2    C411688   2.491   1.447   9.552 -0.0610 -0.1875  0.5073
  793MPD2    C511689   2.473   1.457   9.422 -0.1637  0.1713 -0.3918
  793MPD2     H11690   2.523   1.118   9.581 -2.3593  0.7132  0.9778
  793MPD2    H111691   2.486   1.537   9.612 -0.4554  0.2749 -0.2232
  793MPD2    H211692   2.449   1.361   9.231 -1.7596  1.1971  0.2004
  793MPD2    H311693   2.462   1.558   9.384  1.2760 -0.8134 -3.4709
  793MPD2     N11694   2.510   1.307   9.750 -0.2194 -0.4902 -0.5384
  793MPD2    H511695   2.510   1.213   9.790 -2.2531 -0.3013 -0.0922
  793MPD2    N111696   2.503   1.102   9.320 -0.2240  0.0111 -0.0654
  793MPD2    H711697   2.553   1.024   9.362  1.5212  2.0459  1.6027
  794MPD2     C11698   0.910   0.180  17.312  0.6060  0.3003  0.0802
  794MPD2    C111699   1.046   0.140  17.323 -0.2901  0.2585  0.5142
  794MPD2    C211700   1.140   0.203  17.246  0.4614 -0.5590 -0.4880
  794MPD2    C311701   1.103   0.303  17.158 -0.1052  0.5133  0.2713
  794MPD2    C411702   0.978   0.355  17.167 -0.7532  0.0320  0.1038
  794MPD2    C511703   0.885   0.297  17.256 -0.1401  0.6223  0.5045
  794MPD2     H11704   1.240   0.162  17.252  1.7381  2.2868 -2.6446
  794MPD2    H111705   0.953   0.447  17.116 -1.7311 -0.5608 -0.4948
  794MPD2    H211706   0.824   0.133  17.358 -0.3725  1.0741 -0.9749
  794MPD2    H311707   0.786   0.339  17.242  0.5612  1.7022 -1.1994
  794MPD2     N11708   1.189   0.365  17.060  0.4651 -0.5552  0.1241
  794MPD2    H511709   1.151   0.437  17.000 -2.5980 -2.6230 -0.4273
  794MPD2    N111710   1.081   0.033  17.408 -0.0459 -0.0118  0.1719
  794MPD2    H711711   1.180   0.020  17.426 -0.7338 -1.7937  2.6106
  795MPD2     C11712   3.851   3.321  13.500  0.9413  0.0330  0.3805
  795MPD2    C111713   3.756   3.254  13.575 -0.1934  0.0528  0.0936
  795MPD2    C211714   3.806   3.187  13.686 -0.3609  0.4700  0.0254
  795MPD2    C311715   3.941   3.186  13.728 -1.0907  0.1676 -0.6412
  795MPD2    C411716   4.025   3.258  13.651  0.1053  0.5411 -0.0591
  795MPD2    C511717   3.980   3.323  13.537 -0.4293  0.0965 -0.5516
  795MPD2     H11718   3.735   3.136  13.750  0.8441  0.9027  1.6793
  795MPD2    H111719   4.131   3.276  13.668 -0.1191 -2.2637  4.0423
  795MPD2    H211720   3.833   3.376  13.408  3.5410 -1.6011 -1.1104
  795MPD2    H311721   4.047   3.380  13.473 -0.4908  0.8217  0.0313
  795MPD2     N11722   3.979   3.121  13.843 -0.0124  0.1953 -0.2258
  795MPD2    H511723   3.918   3.054  13.889  0.0376  0.1853 -0.1741
  795MPD2    N111724   3.618   3.258  13.540 -0.1965 -0.0047  0.5663
  795MPD2    H711725   3.550   3.219  13.604 -0.2726  0.6818  0.9087
  796MPD2     C11726   3.548   0.288  15.388  0.1682 -0.0485  0.1503
  796MPD2    C111727   3.558   0.332  15.516 -0.2018 -0.2068 -0.0573
  796MPD2    C211728   3.485   0.442  15.552 -0.5654  0.8077 -0.1149
  796MPD2    C311729   3.415   0.518  15.461  0.3984  0.4602 -0.1986
  796MPD2    C411730   3.412   0.479  15.328 -0.3144  0.2229 -0.5215
  796MPD2    C511731   3.485   0.367  15.299 -0.2037  0.5265 -0.3674
  796MPD2     H11732   3.488   0.479  15.654 -1.8087  3.6332 -1.0905
  796MPD2    H111733   3.359   0.529  15.248  0.0765 -0.1092 -0.9905
  796MPD2    H211734   3.598   0.198  15.353  0.1120  0.6089 -1.6106
  796MPD2    H311735   3.478   0.330  15.198  0.0510 -2.8879  0.8534
  796MPD2     N11736   3.362   0.630  15.504  0.7476 -0.8411  0.6880
  796MPD2    H511737   3.336   0.635  15.602 -2.4075  1.6380 -0.2484
  796MPD2    N111738   3.610   0.245  15.617 -0.3080 -0.0054  0.6637
  796MPD2    H711739   3.610   0.146  15.595 -0.8390 -0.3823  2.2981
  797MPD2     C11740   4.111   4.016  16.762 -0.7167 -0.0478 -0.4557
  797MPD2    C111741   4.213   4.074  16.825 -0.2092  0.8811  0.0013
  797MPD2    C211742   4.261   4.197  16.800 -0.0788 -0.1129 -0.1630
  797MPD2    C311743   4.214   4.273  16.692 -0.3198 -0.4079  0.5033
  797MPD2    C411744   4.095   4.219  16.633  0.7526 -0.3608 -0.3960
  797MPD2    C511745   4.043   4.102  16.670 -0.7143 -0.2403 -0.2148
  797MPD2     H11746   4.339   4.230  16.868 -1.0981  1.5757  0.1656
  797MPD2    H111747   4.039   4.275  16.560 -1.4321 -2.2392 -0.1566
  797MPD2    H211748   4.078   3.913  16.756 -0.9479 -0.0435  0.7433
  797MPD2    H311749   3.970   4.050  16.610 -0.6226 -0.4452 -0.1493
  797MPD2     N11750   4.283   4.393  16.650 -0.0391 -0.0816 -0.4801
  797MPD2    H511751   4.237   4.455  16.585  1.2774  1.1548 -0.2487
  797MPD2    N111752   4.295   4.006  16.921  0.5355 -0.1317  0.0960
  797MPD2    H711753   4.377   4.056  16.954  0.8593 -1.3173  1.0768
  798MPD2     C11754   0.242   4.271  16.812  0.1933 -0.3079 -0.3388
  798MPD2    C111755   0.107   4.302  16.816  0.0531  0.1813 -0.5924
  798MPD2    C211756   0.031   4.219  16.893  0.0736  1.0012  0.7283
  798MPD2    C311757   0.082   4.116  16.972 -0.3415  0.2177  0.1164
  798MPD2    C411758   0.217   4.084  16.967 -0.3370 -0.4775  0.0154
  798MPD2    C511759   0.296   4.163  16.884 -0.0854 -0.2857  0.0084
  798MPD2     H11760   4.649   4.248  16.912 -0.6341 -1.2007  0.3583
  798MPD2    H111761   0.254   3.999  17.023 -0.5265 -0.6258 -0.0880
  798MPD2    H211762   0.314   4.325  16.750 -0.2776 -0.0681 -0.6765
  798MPD2    H311763   0.403   4.146  16.880 -0.4907 -2.4652 -1.4207
  798MPD2     N11764   4.704   4.044  17.039 -0.2640  0.3455  0.5049
  798MPD2    H511765   4.610   4.077  17.022 -1.2486 -3.3272 -1.1851
  798MPD2    N111766   0.040   4.403  16.742 -1.2278  0.3842 -0.4449
  798MPD2    H711767   4.661   4.414  16.761 -1.6448 -1.5652 -1.5071
  799MPD2     C11768   3.798   1.029  14.812  0.5594  0.1881 -0.8562
  799MPD2    C111769   3.759   0.929  14.722 -0.3345 -1.2082 -0.3489
  799MPD2    C211770   3.695   0.960  14.610  0.6144 -0.8280  0.1534
  799MPD2    C311771   3.662   1.088  14.578 -0.1652 -0.3584 -0.5290
  799MPD2    C411772   3.698   1.189  14.665  0.2258  1.1532 -0.2568
  799MPD2    C511773   3.765   1.158  14.782  0.3979  0.5408 -0.0984
  799MPD2     H11774   3.664   0.881  14.542  1.5579 -0.4882 -0.6617
  799MPD2    H111775   3.678   1.293  14.641 -1.2791  0.8162 -0.4213
  799MPD2    H211776   3.875   1.016  14.887  0.7254  1.3433 -0.8344
  799MPD2    H311777   3.795   1.238  14.850  3.7240 -0.2895 -0.5709
  799MPD2     N11778   3.610   1.125  14.454 -0.2802 -0.4705  0.1742
  799MPD2    H511779   3.603   1.225  14.437  0.2803 -0.5766 -0.6800
  799MPD2    N111780   3.801   0.794  14.732 -0.0027  0.2491  0.6414
  799MPD2    H711781   3.760   0.732  14.662 -0.2376  0.6253  0.4442
  800MPD2     C11782   3.335   2.168  13.998 -0.9787  0.5951  0.8585
  800MPD2    C111783   3.457   2.232  13.988 -0.8238  0.3344 -0.4251
  800MPD2    C211784   3.506   2.252  13.859 -0.6428 -0.4579  0.5364
  800MPD2    C311785   3.453   2.190  13.748 -0.0645  0.0255  0.4725
  800MPD2    C411786   3.335   2.120  13.764  0.7220  0.5998 -0.3091
  800MPD2    C511787   3.280   2.116  13.886  0.7498  0.4146  0.4775
  800MPD2     H11788   3.585   2.323  13.842 -0.7517 -0.3952  0.2992
  800MPD2    H111789   3.281   2.077  13.681  1.4343 -0.1727 -0.3750
  800MPD2    H211790   3.274   2.152  14.086 -1.4649  0.7475  0.5527
  800MPD2    H311791   3.195   2.052  13.905  1.8487 -1.5873 -1.3952
  800MPD2     N11792   3.518   2.207  13.622 -0.7168  0.1944  0.4913
  800MPD2    H511793   3.594   2.274  13.633 -0.5175 -0.5260  3.7600
  800MPD2    N111794   3.529   2.274  14.100  0.3363  0.4810 -0.6852
  800MPD2    H711795   3.478   2.287  14.187 -2.2816  0.8690 -2.2669
  801MPD2     C11796   3.788   3.003  14.148 -0.4165 -0.3712  0.2241
  801MPD2    C111797   3.852   2.937  14.250 -0.2988  0.8782 -0.6688
  801MPD2    C211798   3.938   3.010  14.329 -0.2695  0.2776  0.3011
  801MPD2    C311799   3.971   3.142  14.311  0.1695  0.2384  0.2958
  801MPD2    C411800   3.909   3.208  14.206 -0.0794 -0.0030  0.2005
  801MPD2    C511801   3.816   3.142  14.132  0.5894 -0.1964 -0.2533
  801MPD2     H11802   3.994   2.950  14.400 -0.2913 -0.2577 -0.1293
  801MPD2    H111803   3.942   3.310  14.196  0.2508  0.0521  1.8233
  801MPD2    H211804   3.718   2.962  14.077 -0.6153  0.9776 -0.3688
  801MPD2    H311805   3.762   3.197  14.056  1.2388  0.8902  0.0676
  801MPD2     N11806   4.063   3.219  14.385  0.5248  0.2774  1.2113
  801MPD2    H511807   4.108   3.296  14.336  2.1055 -1.0881  0.4997
  801MPD2    N111808   3.831   2.800  14.287 -0.2139 -0.6660 -0.2398
  801MPD2    H711809   3.892   2.769  14.363  1.3743  2.7010 -0.1706
  802MPD2     C11810   2.952   1.944  17.401 -0.0414 -0.0546  0.1059
  802MPD2    C111811   2.931   2.052  17.315 -0.0533  0.0989  0.4650
  802MPD2    C211812   2.980   2.051  17.185 -0.3478 -0.1255  0.9617
  802MPD2    C311813   3.048   1.940  17.135  0.3690 -0.3808  0.6982
  802MPD2    C411814   3.070   1.836  17.228  0.3285 -0.5644 -0.0731
  802MPD2    C511815   3.023   1.843  17.356 -0.5952  0.7115  0.2567
  802MPD2     H11816   2.974   2.135  17.117  0.6529 -0.3210  0.6303
  802MPD2    H111817   3.130   1.749  17.205  0.4642 -0.7871  1.1521
  802MPD2    H211818   2.928   1.940  17.507  1.0911  0.3080  0.3752
  802MPD2    H311819   3.060   1.765  17.421  0.5332  0.4052 -0.7406
  802MPD2     N11820   3.077   1.940  16.996 -0.2463 -0.4409 -0.0756
  802MPD2    H511821   3.033   2.009  16.936  1.8814  0.4271 -0.6431
  802MPD2    N111822   2.850   2.166  17.355  0.2544  0.1856 -0.0220
  802MPD2    H711823   2.843   2.245  17.291  1.4115  0.8907  0.7141
  803MPD2     C11824   4.639   1.439  11.811 -0.8477 -0.8520  0.1604
  803MPD2    C111825   4.694   1.500  11.926 -0.3963 -0.1785  0.0152
  803MPD2    C211826   4.666   1.452  12.041 -0.7700  1.1088  0.3466
  803MPD2    C311827   4.578   1.354  12.062  0.9296 -0.1362 -0.5640
  803MPD2    C411828   4.527   1.288  11.956  0.1747  0.4368 -0.1720
  803MPD2    C511829   4.560   1.333  11.831  0.0980 -0.8338  0.4600
  803MPD2     H11830   4.719   1.497  12.124  1.7614  0.6848 -1.0749
  803MPD2    H111831   4.451   1.213  11.973 -1.0069  1.1785 -2.2230
  803MPD2    H211832   4.645   1.481  11.711 -1.7081  0.2031  0.5507
  803MPD2    H311833   4.522   1.290  11.738 -0.8108  0.9873 -0.0097
  803MPD2     N11834   4.543   1.315  12.191  0.6032 -0.0174  0.3754
  803MPD2    H511835   4.469   1.246  12.190  0.7819 -0.2186  0.7628
  803MPD2    N111836   0.045   1.626  11.924 -0.0904  0.2560 -0.1886
  803MPD2    H711837   0.066   1.675  12.011  1.5599 -1.8698  0.6047
  804MPD2     C11838   3.788   2.814  17.050  0.2724  0.3326  0.1297
  804MPD2    C111839   3.869   2.718  17.092  0.7271 -0.3917 -0.1309
  804MPD2    C211840   3.985   2.747  17.168 -0.6717 -0.2042  0.2011
  804MPD2    C311841   4.013   2.879  17.198  0.0542  0.6360 -0.1702
  804MPD2    C411842   3.922   2.977  17.160 -0.1624 -0.1854  0.3451
  804MPD2    C511843   3.814   2.944  17.087  0.0236 -0.0720  0.0396
  804MPD2     H11844   4.053   2.669  17.198 -0.0244 -1.0722 -3.5680
  804MPD2    H111845   3.926   3.077  17.202  2.3060  0.5487 -1.6329
  804MPD2    H211846   3.693   2.794  17.002  0.4039  2.2492 -0.9000
  804MPD2    H311847   3.738   3.021  17.075 -0.1121 -0.2707 -0.4092
  804MPD2     N11848   4.134   2.918  17.262 -0.4388  0.1510  0.5980
  804MPD2    H511849   4.190   2.844  17.302 -0.2240  0.0375  0.0934
  804MPD2    N111850   3.837   2.585  17.075 -0.1450 -0.0371  0.1969
  804MPD2    H711851   3.878   2.507  17.125 -0.6373 -0.6908 -0.4211
  805MPD2     C11852   3.589   1.264  15.320 -0.2283 -0.0958 -0.0309
  805MPD2    C111853   3.615   1.131  15.342 -0.5179  0.3868  0.3633
  805MPD2    C211854   3.641   1.092  15.474 -0.3188  0.7859 -0.1935
  805MPD2    C311855   3.649   1.185  15.575 -0.1770  0.6425  0.2127
  805MPD2    C411856   3.616   1.321  15.553 -0.4065  0.3255 -0.8290
  805MPD2    C511857   3.581   1.357  15.425  0.6079  0.6049 -0.1903
  805MPD2     H11858   3.662   0.986  15.483  0.1465  0.8979  0.0336
  805MPD2    H111859   3.607   1.394  15.632 -0.9430 -1.9879  1.2563
  805MPD2    H211860   3.556   1.305  15.225  2.2204  0.0417 -0.8249
  805MPD2    H311861   3.560   1.458  15.393 -1.2142  0.3445  0.2026
  805MPD2     N11862   3.680   1.134  15.705  0.2039  0.1041  0.3755
  805MPD2    H511863   3.701   1.035  15.705 -0.6228 -0.0816 -0.3754
  805MPD2    N111864   3.608   1.031  15.239  0.1083  0.6946 -0.1688
  805MPD2    H711865   3.614   0.933  15.264  1.1945  0.6132 -0.7843
  806MPD2     C11866   3.905   0.264   1.456  0.1229 -0.9210  0.2545
  806MPD2    C111867   4.010   0.239   1.368 -1.2500  0.1574  0.0511
  806MPD2    C211868   4.039   0.329   1.270  0.3416 -1.1867 -0.0939
  806MPD2    C311869   3.970   0.448   1.248 -0.6708  0.2832  0.0431
  806MPD2    C411870   3.856   0.469   1.330  0.3569  0.3422 -0.3274
  806MPD2    C511871   3.828   0.373   1.430  0.2992  0.1101 -1.2028
  806MPD2     H11872   4.124   0.315   1.204  0.8956  0.8623  0.1729
  806MPD2    H111873   3.795   0.558   1.331  0.2268  0.2215  2.0296
  806MPD2    H211874   3.873   0.189   1.528 -3.7203 -0.5519 -1.0554
  806MPD2    H311875   3.743   0.391   1.494  3.2684 -0.4669  2.8541
  806MPD2     N11876   4.005   0.530   1.137  0.3684 -0.2652  0.4153
  806MPD2    H511877   4.098   0.519   1.098 -0.2347  0.3032 -1.1782
  806MPD2    N111878   4.071   0.116   1.380  1.0259 -0.2272  0.4102
  806MPD2    H711879   4.036   0.057   1.455 -1.2179  1.1014  0.3847
  807MPD2     C11880   4.202   4.318   1.869  0.0304  0.7655 -0.5912
  807MPD2    C111881   4.109   4.366   1.768 -1.4058 -0.1345  0.4478
  807MPD2    C211882   3.974   4.356   1.786 -0.8866  0.5183 -0.0472
  807MPD2    C311883   3.923   4.326   1.910  0.8854 -0.5115  0.2398
  807MPD2    C411884   4.011   4.286   2.014  0.6971  0.3976 -0.5539
  807MPD2    C511885   4.148   4.273   1.987  0.6730 -0.2400 -0.7263
  807MPD2     H11886   3.907   4.378   1.703  1.3428 -1.2900 -2.3287
  807MPD2    H111887   3.970   4.260   2.111  2.2824 -0.0040 -0.0005
  807MPD2    H211888   4.309   4.324   1.853 -0.0144  1.8773 -0.4688
  807MPD2    H311889   4.224   4.253   2.061 -0.0597 -1.4661 -0.3118
  807MPD2     N11890   3.786   4.333   1.920 -0.5401 -0.0926  0.2447
  807MPD2    H511891   3.733   4.344   1.834 -1.2208  0.1341  0.6889
  807MPD2    N111892   4.158   4.436   1.651 -0.3080  0.0571 -0.3950
  807MPD2    H711893   4.096   4.493   1.595  0.6575  0.4401 -1.0867
  808MPD2     C11894   4.237   1.260   8.932 -1.1302  0.9314 -0.1680
  808MPD2    C111895   4.263   1.262   9.070 -0.0225  0.0318  0.9208
  808MPD2    C211896   4.276   1.378   9.139 -0.2938  0.0509  0.4301
  808MPD2    C311897   4.270   1.497   9.071  0.3823 -0.3126 -0.0797
  808MPD2    C411898   4.256   1.494   8.935 -0.8820 -0.6392  0.0814
  808MPD2    C511899   4.238   1.380   8.873  0.3705 -0.2804 -0.4907
  808MPD2     H11900   4.300   1.375   9.245 -0.6958  0.2598  0.5250
  808MPD2    H111901   4.254   1.592   8.888  2.2290 -0.9074 -0.5807
  808MPD2    H211902   4.217   1.180   8.861 -0.9391 -1.1152  2.0963
  808MPD2    H311903   4.221   1.399   8.767 -0.1545  1.4960 -0.0821
  808MPD2     N11904   4.306   1.620   9.132 -0.2216  0.3927  0.2019
  808MPD2    H511905   4.319   1.697   9.067  0.0564 -0.0117 -0.2232
  808MPD2    N111906   4.265   1.140   9.145  0.2032 -0.1337  0.4209
  808MPD2    H711907   4.283   1.154   9.244  0.5025 -0.7741  0.4534
  809MPD2     C11908   0.006   2.166   8.630 -0.1774  0.3830  0.8127
  809MPD2    C111909   0.067   2.198   8.753 -0.8210  0.6411  0.3068
  809MPD2    C211910   0.032   2.141   8.869  0.5777  0.2440 -0.1934
  809MPD2    C311911   4.651   2.047   8.867  0.5183  0.2283  0.2739
  809MPD2    C411912   4.596   2.006   8.749 -0.3807  0.2875 -0.1709
  809MPD2    C511913   4.631   2.067   8.631  0.0474 -0.7095  0.5633
  809MPD2     H11914   0.083   2.171   8.960 -0.8444 -1.1258  1.0455
  809MPD2    H111915   4.516   1.934   8.740  1.5446 -1.7356 -1.0628
  809MPD2    H211916   0.028   2.229   8.545 -0.7174  2.0114  1.8885
  809MPD2    H311917   4.593   2.028   8.537  0.4998 -0.1891  0.1666
  809MPD2     N11918   4.584   1.992   8.974  0.4652 -0.4957 -0.8580
  809MPD2    H511919   4.520   1.916   8.950 -0.3745 -0.1104  0.1394
  809MPD2    N111920   0.159   2.305   8.761 -0.3822  1.0486 -0.2122
  809MPD2    H711921   0.181   2.340   8.854 -0.1015 -1.7790  0.7769
  810MPD2     C11922   4.488   1.417   9.955  0.2801 -0.2240  0.7531
  810MPD2    C111923   4.433   1.324  10.039  0.2952 -0.0549 -0.1550
  810MPD2    C211924   4.415   1.366  10.171  0.7806 -0.1616  0.6412
  810MPD2    C311925   4.436   1.498  10.219 -0.2967 -0.0946  0.5161
  810MPD2    C411926   4.483   1.588  10.127  0.4929 -0.8229  0.0440
  810MPD2    C511927   4.517   1.542  10.000  0.0657 -0.2876  0.5995
  810MPD2     H11928   4.372   1.293  10.238  1.0707  0.9653  2.0498
  810MPD2    H111929   4.505   1.688  10.163 -0.3629 -0.8137  0.5311
  810MPD2    H211930   4.511   1.399   9.850 -2.0208  0.0639  0.1920
  810MPD2    H311931   4.552   1.609   9.923 -1.1498  1.5853  1.6799
  810MPD2     N11932   4.417   1.550  10.347  0.1926  0.1876  0.2031
  810MPD2    H511933   4.421   1.651  10.358 -0.5644  0.1585  0.7387
  810MPD2    N111934   4.384   1.201   9.984  0.1593 -0.2998  0.6652
  810MPD2    H711935   4.419   1.184   9.891 -0.9406 -1.2854  0.4328
  811MPD2     C11936   3.950   0.851   9.358  0.0049  0.4273  0.1288
  811MPD2    C111937   3.993   0.952   9.440  0.1739  0.5022 -0.2622
  811MPD2    C211938   3.977   1.089   9.400  0.4017 -0.3527 -0.6218
  811MPD2    C311939   3.898   1.118   9.296 -0.2536  0.2129 -0.1136
  811MPD2    C411940   3.850   1.019   9.219 -0.6374  0.5112 -0.4851
  811MPD2    C511941   3.881   0.889   9.238  0.5594  0.0229 -0.5889
  811MPD2     H11942   3.999   1.168   9.471  1.9799 -0.0217 -1.4750
  811MPD2    H111943   3.798   1.044   9.126 -2.2901 -0.2852  0.2252
  811MPD2    H211944   3.974   0.747   9.377 -1.7505 -0.0050 -0.0320
  811MPD2    H311945   3.860   0.805   9.173 -3.0303 -0.1363  0.7771
  811MPD2     N11946   3.868   1.255   9.273  0.0438  0.1776  0.0622
  811MPD2    H511947   3.915   1.330   9.323  0.6197 -0.7218  0.8502
  811MPD2    N111948   4.051   0.917   9.561 -0.1468 -0.0169  0.5313
  811MPD2    H711949   4.055   0.819   9.586 -1.4837 -0.5445 -1.3241
  812MPD2     C11950   2.955   1.414  12.192 -0.0044  0.4931 -0.2802
  812MPD2    C111951   2.838   1.461  12.234 -0.0548 -0.0297 -1.1235
  812MPD2    C211952   2.766   1.384  12.322 -0.3850 -0.3525 -0.0251
  812MPD2    C311953   2.812   1.261  12.368 -0.5573  0.0129  0.5848
  812MPD2    C411954   2.931   1.213  12.324  0.1181  0.0219  0.1756
  812MPD2    C511955   3.001   1.292  12.240 -0.1713 -0.1931 -0.2729
  812MPD2     H11956   2.672   1.417  12.364 -0.1873 -0.7091  0.6961
  812MPD2    H111957   2.967   1.120  12.365 -1.1643 -0.5424  0.0127
  812MPD2    H211958   3.029   1.470  12.135  0.1383  2.0048  1.3685
  812MPD2    H311959   3.101   1.261  12.213 -0.0799  1.5657 -1.9427
  812MPD2     N11960   2.726   1.190  12.460  0.3506 -0.1034 -0.5711
  812MPD2    H511961   2.635   1.224  12.488 -0.1214 -1.2542 -0.6915
  812MPD2    N111962   2.797   1.590  12.185  0.3756  0.0326 -0.1283
  812MPD2    H711963   2.861   1.642  12.126  0.2904 -1.0357 -1.1586
  813MPD2     C11964   1.345   3.456  12.893 -0.4681  0.6895  0.1207
  813MPD2    C111965   1.336   3.484  13.031  0.6613  0.7465 -1.0126
  813MPD2    C211966   1.217   3.462  13.090  0.0907  0.6572  0.3943
  813MPD2    C311967   1.103   3.435  13.025 -0.1336 -0.8584 -0.6389
  813MPD2    C411968   1.111   3.413  12.891  0.4113  0.4929  0.2169
  813MPD2    C511969   1.238   3.407  12.826 -0.9349  0.0528 -0.4926
  813MPD2     H11970   1.207   3.488  13.195  0.8146 -0.6160  0.7829
  813MPD2    H111971   1.026   3.407  12.824  0.3894 -1.2366  0.3946
  813MPD2    H211972   1.436   3.478  12.838 -0.8033 -1.7475 -1.4083
  813MPD2    H311973   1.255   3.403  12.719 -2.1162  0.6503 -0.7009
  813MPD2     N11974   0.985   3.452  13.098  0.4652 -0.6566  0.2589
  813MPD2    H511975   0.987   3.467  13.198 -0.8887  2.0224 -0.1359
  813MPD2    N111976   1.454   3.523  13.100  0.5552  0.2168 -0.6302
  813MPD2    H711977   1.532   3.521  13.035  1.8202 -0.0920  0.8894
  814MPD2     C11978   2.810   4.616  12.142 -0.6242 -0.1461  0.4658
  814MPD2    C111979   2.758   4.699  12.042  0.6856 -0.2481  0.6467
  814MPD2    C211980   2.759   0.112  12.052 -0.8907  0.2704 -0.3544
  814MPD2    C311981   2.828   0.168  12.159  0.8028  0.0790 -0.4883
  814MPD2    C411982   2.876   0.089  12.256  0.0653  0.1649  0.2441
  814MPD2    C511983   2.871   4.671  12.253  0.1814  0.3368  0.0045
  814MPD2     H11984   2.725   0.185  11.980 -2.1925  0.5628  0.5507
  814MPD2    H111985   2.922   0.141  12.339 -2.0670  1.1067  0.8417
  814MPD2    H211986   2.811   4.510  12.122  1.5082 -0.3211  1.5696
  814MPD2    H311987   2.913   4.604  12.327  0.4003 -0.7326 -1.0951
  814MPD2     N11988   2.860   0.307  12.162  0.3049 -0.0404  0.1923
  814MPD2    H511989   2.919   0.343  12.237 -0.7259 -1.9775  1.9344
  814MPD2    N111990   2.701   4.645  11.927 -0.2546 -0.3441  1.1712
  814MPD2    H711991   2.673   4.711  11.855 -1.2150 -1.6398  0.3668
  815MPD2     C11992   2.672   2.221  11.941  0.1350  0.4082 -0.0525
  815MPD2    C111993   2.636   2.322  11.856 -0.5380 -0.0328 -0.0168
  815MPD2    C211994   2.554   2.425  11.901  0.2484  0.1347  0.4542
  815MPD2    C311995   2.513   2.424  12.032  0.0667  0.4461 -0.1141
  815MPD2    C411996   2.554   2.324  12.114 -0.3802 -0.1386  0.2590
  815MPD2    C511997   2.626   2.217  12.071 -0.1305  0.7535  0.3521
  815MPD2     H11998   2.529   2.503  11.829 -0.4145 -1.2352 -0.7819
  815MPD2    H111999   2.527   2.318  12.219  0.0908  0.4420  0.4105
  815MPD2    H212000   2.748   2.146  11.922  0.5609  0.7286  0.3981
  815MPD2    H312001   2.642   2.131  12.135 -0.8807 -2.1313 -3.3122
  815MPD2     N12002   2.427   2.521  12.080 -0.1457 -0.5322 -0.6398
  815MPD2    H512003   2.400   2.588  12.009 -1.7412 -0.3625  0.1291
  815MPD2    N112004   2.696   2.316  11.729  0.0192  0.3484 -0.3324
  815MPD2    H712005   2.760   2.240  11.709 -0.5051  0.3612 -2.0331
  816MPD2     C12006   2.053   1.745  17.120 -0.2562  0.5450  0.4254
  816MPD2    C112007   2.068   1.868  17.064  0.0936 -0.1216 -0.0214
  816MPD2    C212008   2.182   1.905  16.995  0.6056  0.5721 -0.1321
  816MPD2    C312009   2.281   1.812  16.971 -0.5495  0.6924 -0.9496
  816MPD2    C412010   2.266   1.692  17.029  0.2140  1.0864 -0.0682
  816MPD2    C512011   2.153   1.658  17.100  0.1727 -0.5841 -0.0159
  816MPD2     H12012   2.190   2.000  16.944  3.9628  1.1498  1.4675
  816MPD2    H112013   2.339   1.613  17.015 -1.1103 -0.0767 -0.3667
  816MPD2    H212014   1.965   1.717  17.177 -0.0038  1.0185  1.0543
  816MPD2    H312015   2.145   1.560  17.145 -1.0637 -0.6884 -0.4592
  816MPD2     N12016   2.385   1.851  16.883 -0.3885 -0.1917 -0.8582
  816MPD2    H512017   2.391   1.945  16.846 -0.2009  0.4894  0.9236
  816MPD2    N112018   1.970   1.966  17.099  0.0901 -0.5435 -0.1747
  816MPD2    H712019   1.887   1.926  17.142  0.3463 -0.0427  0.8051
  817MPD2     C12020   2.532   3.168  10.169 -0.1491  0.5598 -0.3402
  817MPD2    C112021   2.547   3.140  10.035  0.3227  0.2279 -0.1626
  817MPD2    C212022   2.540   3.254   9.953  0.5685 -0.6868  0.1595
  817MPD2    C312023   2.510   3.384  10.005 -0.1399 -0.5360  0.1502
  817MPD2    C412024   2.493   3.403  10.146 -0.1622 -0.2386  0.1942
  817MPD2    C512025   2.507   3.292  10.226  0.3563  0.5301  0.0318
  817MPD2     H12026   2.553   3.234   9.847 -1.8144 -1.0717 -0.0577
  817MPD2    H112027   2.482   3.503  10.187 -0.5886  0.0097 -0.5456
  817MPD2    H212028   2.527   3.090  10.245 -0.8472 -0.3770 -1.3490
  817MPD2    H312029   2.491   3.298  10.333 -0.3452  0.2879 -0.0582
  817MPD2     N12030   2.504   3.486   9.916  0.4190 -0.1803 -0.0549
  817MPD2    H512031   2.538   3.476   9.821  0.4200 -1.9879  0.1379
  817MPD2    N112032   2.562   3.010   9.989  0.1741  0.1450 -0.5997
  817MPD2    H712033   2.578   3.005   9.889  3.5973  0.3727 -0.0509
  818MPD2     C12034   1.655   3.491   9.907 -0.9131  0.3109 -0.1660
  818MPD2    C112035   1.619   3.416  10.016  0.3832 -0.1362  0.2035
  818MPD2    C212036   1.667   3.292  10.028 -0.0059 -0.3822  0.1413
  818MPD2    C312037   1.751   3.235   9.926 -0.4155 -0.7408  0.0506
  818MPD2    C412038   1.789   3.320   9.826  0.2754  0.8478  0.2576
  818MPD2    C512039   1.740   3.450   9.813 -0.0816 -0.9491  0.2264
  818MPD2     H12040   1.632   3.231  10.111 -0.7425 -0.8887 -0.5294
  818MPD2    H112041   1.866   3.293   9.755 -0.7863 -1.1136 -0.1328
  818MPD2    H212042   1.610   3.587   9.884  1.1649  0.9774 -1.4234
  818MPD2    H312043   1.786   3.508   9.734 -1.0374 -0.0600  0.3313
  818MPD2     N12044   1.808   3.109   9.924 -0.0695 -0.3511  0.0267
  818MPD2    H512045   1.857   3.091   9.837  0.0640  0.9243 -0.1618
  818MPD2    N112046   1.539   3.469  10.122  0.4734 -0.0572  0.2984
  818MPD2    H712047   1.538   3.418  10.210  0.3883 -0.6498 -0.0478
  819MPD2     C12048   4.046   0.455  15.720 -0.1286 -0.1813 -0.5917
  819MPD2    C112049   4.166   0.394  15.693  0.0365  0.1234 -0.3219
  819MPD2    C212050   4.275   0.428  15.765 -0.3605  0.1550 -0.0433
  819MPD2    C312051   4.263   0.518  15.867  0.2276 -0.5060 -0.1090
  819MPD2    C412052   4.134   0.565  15.907 -0.4531 -0.2897 -0.4728
  819MPD2    C512053   4.026   0.532  15.826  0.5472  0.2367  0.6635
  819MPD2     H12054   4.374   0.394  15.737 -1.6984 -2.9516 -0.9897
  819MPD2    H112055   4.122   0.626  15.996  0.3640 -2.5095  1.1631
  819MPD2    H212056   3.956   0.436  15.661 -1.4067  2.1197  0.6220
  819MPD2    H312057   3.931   0.578  15.850  0.2006 -1.4488  2.5778
  819MPD2     N12058   4.381   0.579  15.920 -0.7449  0.2393 -0.2271
  819MPD2    H512059   4.468   0.549  15.877 -1.4034 -2.3547  0.2766
  819MPD2    N112060   4.170   0.310  15.582  0.3367 -0.2684  0.5186
  819MPD2    H712061   4.081   0.297  15.535  1.1381  0.6821 -1.2290
  820MPD2     C12062   3.586   0.248  14.925  0.3484  0.8202 -0.9928
  820MPD2    C112063   3.658   0.353  14.970  0.6445  0.0254 -0.2724
  820MPD2    C212064   3.781   0.333  15.018  1.0422  0.2819  0.4550
  820MPD2    C312065   3.850   0.210  15.019  0.7455 -0.2879  0.6124
  820MPD2    C412066   3.782   0.107  14.954 -0.6019  0.3163  0.5700
  820MPD2    C512067   3.651   0.124  14.911  0.2738  0.1162 -0.2684
  820MPD2     H12068   3.834   0.419  15.057  3.6203  0.2806 -2.9650
  820MPD2    H112069   3.826   0.008  14.948 -1.5937  0.0248 -1.8605
  820MPD2    H212070   3.484   0.261  14.892  0.5102 -1.0103 -2.1916
  820MPD2    H312071   3.595   0.036  14.881  0.9739 -1.3117  2.6395
  820MPD2     N12072   3.983   0.194  15.068  0.5218 -0.4296  0.3777
  820MPD2    H512073   4.029   0.103  15.063  1.6462  0.1532  0.1880
  820MPD2    N112074   3.600   0.482  14.961 -0.0607 -0.0404  0.8062
  820MPD2    H712075   3.513   0.494  14.910  1.0422  0.2462 -1.0189
  821MPD2     C12076   3.524   2.591  12.853  0.3126  0.4303 -0.0790
  821MPD2    C112077   3.636   2.572  12.925  0.5490 -0.9694  0.0405
  821MPD2    C212078   3.746   2.658  12.899 -0.4679  0.2017  0.2117
  821MPD2    C312079   3.736   2.751  12.791 -0.6284  0.6562  0.3528
  821MPD2    C412080   3.612   2.778  12.725  0.2377  0.0083  0.8957
  821MPD2    C512081   3.506   2.690  12.759 -0.0529  0.6924  0.1096
  821MPD2     H12082   3.839   2.646  12.951 -0.0673 -0.3810 -0.6394
  821MPD2    H112083   3.605   2.841  12.637 -1.1737  0.0065  1.0162
  821MPD2    H212084   3.444   2.521  12.874  0.4641  0.3084  0.0937
  821MPD2    H312085   3.410   2.687  12.709 -0.5235 -1.7039  1.1607
  821MPD2     N12086   3.846   2.825  12.751  0.4179 -0.2570  0.3304
  821MPD2    H512087   3.831   2.914  12.703  2.8350  0.6284  1.2136
  821MPD2    N112088   3.649   2.480  13.036  0.0985  0.4495 -0.1530
  821MPD2    H712089   3.740   2.485  13.082 -0.6927 -1.3993  1.6104
  822MPD2     C12090   0.172   2.058  15.766 -0.2001 -0.2292  0.5899
  822MPD2    C112091   0.169   2.041  15.903  0.9565  0.0889  0.8159
  822MPD2    C212092   0.077   2.109  15.975  0.2134  0.5459  0.8484
  822MPD2    C312093   4.705   2.199  15.910  0.4108  1.2774 -0.0720
  822MPD2    C412094   4.706   2.212  15.774  0.1778  0.3917  0.1340
  822MPD2    C512095   0.067   2.128  15.712 -0.3869  0.1246  1.0912
  822MPD2     H12096   0.082   2.088  16.081  1.7204  0.5278  0.7691
  822MPD2    H112097   4.639   2.276  15.718 -0.5490 -2.0370 -1.7849
  822MPD2    H212098   0.227   1.999  15.694  1.2650 -1.3468  2.6480
  822MPD2    H312099   0.056   2.138  15.604 -1.4074  1.4297  1.3223
  822MPD2     N12100   4.628   2.277  15.997  0.1964  0.1865  0.3900
  822MPD2    H512101   4.630   2.252  16.096 -0.1781 -2.8949 -0.3659
  822MPD2    N112102   0.250   1.946  15.972  0.2516  0.0338 -0.1625
  822MPD2    H712103   0.221   1.920  16.066 -0.5254  1.4259 -0.0183
  823MPD2     C12104   4.202   2.549  16.701  0.1251  0.0238 -0.4681
  823MPD2    C112105   4.250   2.437  16.631 -0.2666  0.7805 -0.1299
  823MPD2    C212106   4.247   2.316  16.696  0.5195 -0.1281 -0.3893
  823MPD2    C312107   4.194   2.299  16.822  0.1220 -0.0653  0.2741
  823MPD2    C412108   4.144   2.415  16.887 -0.8920  0.4518  0.2103
  823MPD2    C512109   4.140   2.531  16.825 -0.8662 -0.4260  0.7278
  823MPD2     H12110   4.276   2.226  16.643  2.1777 -0.3630  0.9188
  823MPD2    H112111   4.112   2.408  16.990 -1.6285  0.0452 -0.0459
  823MPD2    H212112   4.209   2.647  16.657  2.1044  0.0648 -0.0410
  823MPD2    H312113   4.091   2.613  16.875  1.5192  1.2976  0.2324
  823MPD2     N12114   4.202   2.181  16.899  0.3136  0.9631 -0.2459
  823MPD2    H512115   4.161   2.175  16.991 -0.5632  2.0782 -0.5654
  823MPD2    N112116   4.329   2.473  16.518 -0.6693 -0.0038 -0.2047
  823MPD2    H712117   4.346   2.573  16.518 -1.4887  0.1409  0.0463
  824MPD2     C12118   0.321   1.178  15.834 -0.9725 -0.5439  0.3673
  824MPD2    C112119   0.403   1.284  15.809  0.0830  0.7998 -0.4176
  824MPD2    C212120   0.489   1.279  15.702  0.3658 -0.0321 -0.3104
  824MPD2    C312121   0.506   1.170  15.621 -0.1693  0.8048  0.5374
  824MPD2    C412122   0.430   1.060  15.652 -0.1651  0.3179  0.4232
  824MPD2    C512123   0.336   1.061  15.755 -0.3554 -0.0274  0.2745
  824MPD2     H12124   0.543   1.372  15.691 -1.1240  1.3693  4.2101
  824MPD2    H112125   0.444   0.971  15.592  1.1074  1.9732 -1.7433
  824MPD2    H212126   0.241   1.188  15.906 -1.1992 -0.1574  0.0625
  824MPD2    H312127   0.278   0.970  15.762  1.5032 -1.2391  0.0982
  824MPD2     N12128   0.599   1.174  15.514  0.0600  0.0831 -0.1779
  824MPD2    H512129   0.646   1.260  15.488  1.7625 -0.0530  2.4753
  824MPD2    N112130   0.404   1.407  15.887 -0.3660 -0.7093  0.2063
  824MPD2    H712131   0.462   1.481  15.849  0.8215 -1.0278  1.3697
  825MPD2     C12132   1.273   1.539  15.224  1.1948  0.9329  0.5348
  825MPD2    C112133   1.147   1.516  15.175 -0.5831  1.0110  0.4445
  825MPD2    C212134   1.108   1.587  15.060  0.4434  0.2632  0.3822
  825MPD2    C312135   1.191   1.667  14.991 -0.1620  0.3980 -0.2640
  825MPD2    C412136   1.311   1.697  15.047 -0.6317 -0.0766 -0.7222
  825MPD2    C512137   1.354   1.632  15.162  0.1564 -1.0522  0.3791
  825MPD2     H12138   1.013   1.553  15.023  0.0707  0.5803  1.0497
  825MPD2    H112139   1.384   1.762  14.999 -0.7121  1.3144  1.0307
  825MPD2    H212140   1.318   1.499  15.314  1.9671 -0.0645 -0.2929
  825MPD2    H312141   1.453   1.645  15.204 -1.0822  3.2548  1.9695
  825MPD2     N12142   1.165   1.717  14.865  0.2250  0.1188 -0.4152
  825MPD2    H512143   1.245   1.744  14.809 -0.1354 -1.4468 -1.6986
  825MPD2    N112144   1.065   1.419  15.240  0.1336 -0.0764 -0.3785
  825MPD2    H712145   1.103   1.365  15.317 -1.4895  0.9768  1.1572
  826MPD2     C12146   0.427   1.240  13.083  0.7890  0.0020 -0.3154
  826MPD2    C112147   0.520   1.329  13.132 -0.4225  0.4076  0.3987
  826MPD2    C212148   0.483   1.422  13.228  0.1103  0.4955 -0.1221
  826MPD2    C312149   0.353   1.421  13.274 -0.2710  0.5136 -0.2724
  826MPD2    C412150   0.257   1.334  13.216  0.0415  0.1067 -0.2954
  826MPD2    C512151   0.299   1.244  13.123  0.0519 -0.2294 -0.1779
  826MPD2     H12152   0.550   1.494  13.273  0.8335  0.7092 -1.5349
  826MPD2    H112153   0.153   1.355  13.241 -0.3144 -0.5508 -1.2038
  826MPD2    H212154   0.458   1.161  13.016  0.6605 -1.6617  1.6035
  826MPD2    H312155   0.234   1.172  13.073 -0.0289 -1.7651  2.1462
  826MPD2     N12156   0.305   1.494  13.382  0.5771 -0.0806  0.0915
  826MPD2    H512157   0.213   1.467  13.415  1.0166 -1.4117  0.1901
  826MPD2    N112158   0.652   1.330  13.082  1.0303  0.9213 -0.0441
  826MPD2    H712159   0.684   1.259  13.017 -1.1345  0.8027 -0.9654
  827MPD2     C12160   2.107   1.695  10.478 -0.2155  0.3056 -0.3687
  827MPD2    C112161   2.006   1.772  10.412 -0.1456 -0.2664  0.6541
  827MPD2    C212162   1.934   1.731  10.306  0.3957 -0.9154 -0.2622
  827MPD2    C312163   1.965   1.602  10.258 -0.0432  0.4589 -0.5578
  827MPD2    C412164   2.063   1.523  10.320  0.3827  0.7509  0.1061
  827MPD2    C512165   2.130   1.567  10.433 -0.7682  0.3753  0.0681
  827MPD2     H12166   1.856   1.784  10.254  0.0147 -0.5530  0.6691
  827MPD2    H112167   2.085   1.421  10.289  0.0106  0.5799  0.4010
  827MPD2    H212168   2.169   1.736  10.557 -1.0164  1.1639 -0.1946
  827MPD2    H312169   2.202   1.503  10.483  0.1320  1.0003 -0.4593
  827MPD2     N12170   1.898   1.566  10.141 -0.4169 -0.6084 -0.0686
  827MPD2    H512171   1.855   1.638  10.084  1.2098 -0.8706 -1.6392
  827MPD2    N112172   1.987   1.901  10.469  0.1730 -0.4043  0.4096
  827MPD2    H712173   2.052   1.932  10.541 -1.2879  2.1688  0.6283
  828MPD2     C12174   0.070   2.408  12.793 -0.5972  0.5468 -0.2920
  828MPD2    C112175   0.043   2.439  12.664  0.2033  0.0232 -0.6675
  828MPD2    C212176   0.134   2.401  12.563 -0.2305  0.1560  0.5095
  828MPD2    C312177   0.247   2.329  12.593  0.5432  0.3782 -0.9267
  828MPD2    C412178   0.268   2.291  12.721  0.9549  0.1789 -0.2197
  828MPD2    C512179   0.191   2.342  12.823  0.1381  0.5227  0.1060
  828MPD2     H12180   0.100   2.409  12.460  0.2094  0.8242  0.4208
  828MPD2    H112181   0.353   2.229  12.748  0.8530 -1.2012 -3.0421
  828MPD2    H212182   0.009   2.436  12.878 -0.5763  1.1998 -0.4979
  828MPD2    H312183   0.215   2.310  12.924 -0.5859 -1.1070 -0.2267
  828MPD2     N12184   0.341   2.293  12.497 -0.3158 -0.1785  1.1111
  828MPD2    H512185   0.433   2.266  12.531  0.0323  1.3270  1.3485
  828MPD2    N112186   4.652   2.503  12.616  0.1428  0.1421 -0.5566
  828MPD2    H712187   4.642   2.521  12.517 -1.4342  0.2977 -0.3600
  829MPD2     C12188   4.671   2.922  11.946  0.0409  0.1778 -0.2953
  829MPD2    C112189   4.588   2.816  11.944 -0.6760  0.1697 -0.6040
  829MPD2    C212190   4.506   2.793  12.053 -0.5832 -0.3659 -0.9133
  829MPD2    C312191   4.534   2.863  12.170  0.5229 -1.3908  0.5062
  829MPD2    C412192   4.628   2.969  12.176 -0.9048  0.3056 -0.2876
  829MPD2    C512193   4.692   2.999  12.059  0.4329 -0.1235  0.2751
  829MPD2     H12194   4.435   2.711  12.055 -0.8571 -0.0598  2.2243
  829MPD2    H112195   4.635   3.041  12.257  0.7055  0.4112 -0.5315
  829MPD2    H212196   0.002   2.955  11.856  0.6517 -3.1646 -1.1914
  829MPD2    H312197   0.036   3.086  12.065  0.0603 -0.1244  4.0039
  829MPD2     N12198   4.480   2.837  12.289  0.2853 -0.7908  0.4359
  829MPD2    H512199   4.531   2.868  12.371 -0.0711  2.2324 -0.4754
  829MPD2    N112200   4.587   2.735  11.831 -1.0243  0.6212 -0.2074
  829MPD2    H712201   4.651   2.766  11.758 -1.0483 -0.7604 -0.8221
  830MPD2     C12202   0.379   0.584  15.648 -0.5842 -0.1802 -0.4472
  830MPD2    C112203   0.270   0.668  15.645  0.3525 -0.0777 -0.4375
  830MPD2    C212204   0.239   0.743  15.527 -0.2816 -0.1599  0.7383
  830MPD2    C312205   0.330   0.731  15.417 -0.4846  0.5572  0.4143
  830MPD2    C412206   0.441   0.643  15.428  0.9626 -0.2711 -0.0429
  830MPD2    C512207   0.460   0.568  15.536 -0.0403  0.5648  0.4815
  830MPD2     H12208   0.160   0.818  15.532 -0.8031 -0.6455 -0.4451
  830MPD2    H112209   0.514   0.635  15.348  0.2151 -3.1381 -0.4322
  830MPD2    H212210   0.396   0.534  15.743  0.2139  3.2098  1.2065
  830MPD2    H312211   0.545   0.500  15.543  0.2133  0.7565 -0.7006
  830MPD2     N12212   0.317   0.808  15.298  0.5506 -0.3926  0.0281
  830MPD2    H512213   0.403   0.818  15.245 -1.1132 -0.0466 -2.5712
  830MPD2    N112214   0.192   0.677  15.764 -0.6236 -0.3318  0.3361
  830MPD2    H712215   0.225   0.638  15.852 -2.1333 -0.6292  0.7863
  831MPD2     C12216   0.190   2.464  16.217 -0.4732  0.4413 -0.2945
  831MPD2    C112217   0.262   2.348  16.194 -0.2606 -0.5345  0.7673
  831MPD2    C212218   0.227   2.236  16.267 -0.2623 -0.2157 -0.0953
  831MPD2    C312219   0.132   2.232  16.368  0.1768  0.1022 -0.1997
  831MPD2    C412220   0.070   2.355  16.390  0.6946 -0.2811 -0.6824
  831MPD2    C512221   0.110   2.468  16.328  0.1718 -0.3115 -0.6414
  831MPD2     H12222   0.282   2.147  16.239 -0.5481 -0.3219 -0.3183
  831MPD2    H112223   4.714   2.368  16.465  1.1008  0.5767 -0.4140
  831MPD2    H212224   0.206   2.558  16.166  0.0374  0.0425 -0.8630
  831MPD2    H312225   0.063   2.565  16.343 -1.0185 -0.7275 -1.6974
  831MPD2     N12226   0.075   2.107  16.404  0.6339  0.1773  1.1406
  831MPD2    H512227   0.108   2.026  16.354 -2.0924 -0.1447 -0.1053
  831MPD2    N112228   0.347   2.346  16.080 -0.0989  0.5582 -0.7398
  831MPD2    H712229   0.348   2.431  16.024 -0.6564  0.0765 -1.4819
  832MPD2     C12230   2.924   2.666  16.986  0.8122 -0.1585  0.3941
  832MPD2    C112231   2.912   2.794  17.002 -0.5791  0.5341  0.9873
  832MPD2    C212232   2.810   2.864  16.936  0.9607  0.2932  0.0631
  832MPD2    C312233   2.706   2.790  16.872 -0.1249  0.1291 -0.0741
  832MPD2    C412234   2.713   2.654  16.881  0.0675  0.3044  0.2877
  832MPD2    C512235   2.823   2.594  16.931 -0.4003 -0.4352  0.3675
  832MPD2     H12236   2.794   2.970  16.952  1.9364  0.5088 -0.3852
  832MPD2    H112237   2.634   2.589  16.843 -0.0445 -0.0306  1.0926
  832MPD2    H212238   3.007   2.613  17.032  0.9994 -1.0512 -0.9657
  832MPD2    H312239   2.824   2.485  16.931  3.0533 -0.4180 -0.8488
  832MPD2     N12240   2.587   2.848  16.829 -0.1169 -0.3812 -0.1160
  832MPD2    H512241   2.510   2.784  16.808 -0.1601 -0.1578 -0.6439
  832MPD2    N112242   3.014   2.858  17.081 -0.3036  0.8371  0.3933
  832MPD2    H712243   3.062   2.798  17.147  0.7002 -2.0641 -2.9956
  833MPD2     C12244   0.413   0.494  12.349 -0.5081  0.5402 -0.3245
  833MPD2    C112245   0.532   0.545  12.294 -0.2850 -0.2923  0.0037
  833MPD2    C212246   0.613   0.464  12.215 -0.2330 -0.4323  0.4498
  833MPD2    C312247   0.565   0.339  12.176  0.2803 -0.0699 -1.0768
  833MPD2    C412248   0.446   0.287  12.233  0.4582  0.0482 -0.1584
  833MPD2    C512249   0.369   0.366  12.319 -0.3359  0.0931 -0.3214
  833MPD2     H12250   0.709   0.506  12.185 -1.0447  0.7400 -0.5469
  833MPD2    H112251   0.401   0.189  12.220 -0.4041  0.3222  0.7284
  833MPD2    H212252   0.359   0.562  12.414 -0.9891 -0.1795  0.0381
  833MPD2    H312253   0.280   0.324  12.365  0.8711  1.0265  2.9106
  833MPD2     N12254   0.622   0.250  12.090  1.3428  0.2278 -0.4198
  833MPD2    H512255   0.559   0.176  12.060 -1.5617  1.9681  1.3546
  833MPD2    N112256   0.556   0.680  12.328  0.1196  0.1631 -0.5175
  833MPD2    H712257   0.480   0.726  12.378 -0.3372 -0.3776 -0.7121
  834MPD2     C12258   0.480   4.163  11.544  0.4876 -0.2102 -0.5814
  834MPD2    C112259   0.547   4.249  11.463  0.0749  0.2432  0.4710
  834MPD2    C212260   0.588   4.378  11.517 -0.6329  0.4108  0.5330
  834MPD2    C312261   0.552   4.414  11.645  0.0133  0.0178 -0.1529
  834MPD2    C412262   0.472   4.327  11.716  0.4902  0.1422  0.3620
  834MPD2    C512263   0.436   4.205  11.664  0.8830 -0.1019 -0.5955
  834MPD2     H12264   0.646   4.447  11.456 -0.7807 -0.2222 -0.3191
  834MPD2    H112265   0.441   4.356  11.816 -2.4301 -1.9102  0.0235
  834MPD2    H212266   0.454   4.062  11.513 -1.4266  0.5372 -1.4603
  834MPD2    H312267   0.376   4.134  11.720  0.1351 -0.1516 -1.4676
  834MPD2     N12268   0.594   4.539  11.695  0.8307  0.1031  0.8405
  834MPD2    H512269   0.650   4.592  11.629 -0.2321 -0.3884 -0.4541
  834MPD2    N112270   0.576   4.210  11.330  0.0460  0.7361  0.2863
  834MPD2    H712271   0.517   4.138  11.292  0.6713  1.1775 -1.5072
  835MPD2     C12272   0.780   2.267  11.252  0.2068  0.2753  0.0683
  835MPD2    C112273   0.704   2.374  11.212  0.0776 -0.1740 -0.7080
  835MPD2    C212274   0.669   2.478  11.300  0.9455  0.4774  0.4321
  835MPD2    C312275   0.701   2.472  11.427  0.3421 -0.1979  0.5201
  835MPD2    C412276   0.793   2.373  11.464 -0.0191  0.3355 -1.0678
  835MPD2    C512277   0.834   2.269  11.378  0.4873 -0.0002 -0.1667
  835MPD2     H12278   0.604   2.551  11.253  0.9960  0.0099 -0.3634
  835MPD2    H112279   0.840   2.385  11.560 -1.9211 -2.0226  0.1748
  835MPD2    H212280   0.811   2.183  11.191  2.1638  2.0892 -1.4523
  835MPD2    H312281   0.910   2.198  11.409  0.7696  0.4616  0.2085
  835MPD2     N12282   0.663   2.574  11.520 -0.1352 -0.7818  0.2249
  835MPD2    H512283   0.699   2.558  11.613  0.6417  2.7170  0.5286
  835MPD2    N112284   0.665   2.390  11.075 -0.0579  0.1457  0.5324
  835MPD2    H712285   0.610   2.471  11.047  1.4709  1.5416  1.5610
  836MPD2     C12286   0.122   2.836  11.270  0.2691 -0.0277  0.5405
  836MPD2    C112287   0.105   2.839  11.410 -0.1253 -0.4126 -0.3785
  836MPD2    C212288   4.690   2.841  11.457 -0.0950  0.3362 -0.4341
  836MPD2    C312289   4.584   2.832  11.363 -0.8357 -0.3800 -1.0036
  836MPD2    C412290   4.607   2.821  11.228 -0.1600 -0.5203  0.3548
  836MPD2    C512291   0.017   2.822  11.179  0.3494  0.0040 -0.2801
  836MPD2     H12292   4.671   2.855  11.563  0.2634 -1.0084 -0.1995
  836MPD2    H112293   4.524   2.841  11.162 -1.0846  0.0705  1.7050
  836MPD2    H212294   0.221   2.826  11.226  1.0220  0.3164  2.1792
  836MPD2    H312295   0.023   2.819  11.071  1.4067 -0.5607 -0.2016
  836MPD2     N12296   4.451   2.834  11.406 -0.1548  0.3153  0.2381
  836MPD2    H512297   4.372   2.822  11.344 -1.3581 -1.7080  2.1716
  836MPD2    N112298   0.222   2.839  11.490  0.2806 -0.5031 -0.6201
  836MPD2    H712299   0.312   2.841  11.443  1.2563  3.1181  1.3887
  837MPD2     C12300   4.051   1.944   9.539 -0.5677  0.0494 -0.0840
  837MPD2    C112301   3.930   1.886   9.577  0.0890 -0.4431 -0.4733
  837MPD2    C212302   3.843   1.960   9.657  0.2928 -0.4578  0.2178
  837MPD2    C312303   3.879   2.087   9.699  0.5871 -0.7134  0.2050
  837MPD2    C412304   4.003   2.141   9.674  0.1553 -0.0903  0.1917
  837MPD2    C512305   4.080   2.071   9.585 -0.3498  0.7962 -0.2246
  837MPD2     H12306   3.752   1.902   9.668 -0.7083  0.9001 -0.8778
  837MPD2    H112307   4.035   2.242   9.696  0.0068 -0.3474  1.5864
  837MPD2    H212308   4.120   1.904   9.466 -0.2480 -0.9810  0.7810
  837MPD2    H312309   4.163   2.125   9.540  0.3551 -0.1014 -0.0165
  837MPD2     N12310   3.776   2.152   9.778 -0.1248  0.2304 -0.1787
  837MPD2    H512311   3.684   2.109   9.791 -0.6714  0.9825 -1.5379
  837MPD2    N112312   3.877   1.766   9.522 -0.0030  0.1065 -0.3575
  837MPD2    H712313   3.789   1.729   9.556  0.4312  0.6880  1.4265
  838MPD2     C12314   1.918   0.155  11.155  0.3895 -0.1479  0.1821
  838MPD2    C112315   1.947   0.226  11.266 -1.0009  0.6091 -0.4838
  838MPD2    C212316   1.850   0.237  11.361 -0.1779  0.2846  0.0828
  838MPD2    C312317   1.741   0.150  11.350  0.0428 -0.7554 -0.1031
  838MPD2    C412318   1.709   0.078  11.239 -0.2614  0.5371  0.2380
  838MPD2    C512319   1.802   0.081  11.143  0.0874 -0.2507  0.2847
  838MPD2     H12320   1.837   0.311  11.438 -1.9323 -0.9436  0.9623
  838MPD2    H112321   1.617   0.021  11.229  0.6553 -0.4897 -2.2184
  838MPD2    H212322   1.990   0.155  11.073  1.0518  2.6473  0.7462
  838MPD2    H312323   1.793   0.033  11.046 -0.3135  0.3052  0.0517
  838MPD2     N12324   1.661   0.156  11.461 -0.1142  0.3579 -0.2732
  838MPD2    H512325   1.700   0.207  11.540  1.0137  1.5082 -1.5811
  838MPD2    N112326   2.069   0.296  11.278  0.3639  0.3646  0.2926
  838MPD2    H712327   2.088   0.344  11.365 -1.6032  0.9255  0.4093
  839MPD2     C12328   2.270   4.707  11.972 -0.4419  0.1498 -0.1552
  839MPD2    C112329   2.194   4.680  11.858 -0.0150 -0.7154  0.1789
  839MPD2    C212330   2.209   0.039  11.756 -0.3345  0.6644  0.2331
  839MPD2    C312331   2.311   0.135  11.753  0.2954  0.1879  0.8100
  839MPD2    C412332   2.382   0.162  11.866 -0.2542 -1.0320 -0.4486
  839MPD2    C512333   2.360   0.093  11.979  0.5178 -0.8679  0.6756
  839MPD2     H12334   2.159   0.021  11.662  2.6005  0.7533 -1.3591
  839MPD2    H112335   2.454   0.243  11.862  3.6598 -4.4465  0.8128
  839MPD2    H212336   2.268   4.632  12.050 -1.1996  1.1341  0.7778
  839MPD2    H312337   2.421   0.122  12.064 -0.3579  3.5486 -0.2172
  839MPD2     N12338   2.315   0.207  11.634 -0.2244  1.1409  0.2060
  839MPD2    H512339   2.246   0.175  11.567  1.5855 -1.8525 -0.2124
  839MPD2    N112340   2.091   4.586  11.844 -0.6742 -0.2259 -0.2371
  839MPD2    H712341   2.038   4.577  11.757  0.2301  0.2352 -0.8292
  840MPD2     C12342   2.401   2.393  10.306 -0.4435  0.2842 -0.0503
  840MPD2    C112343   2.352   2.409  10.438  0.4463  0.0281  0.0834
  840MPD2    C212344   2.435   2.472  10.533  0.7807  0.0767 -0.2254
  840MPD2    C312345   2.561   2.522  10.498 -0.0299 -0.4698 -0.2755
  840MPD2    C412346   2.612   2.502  10.374 -0.0271  0.1251  0.4319
  840MPD2    C512347   2.532   2.439  10.283 -0.3350  0.2518 -0.4562
  840MPD2     H12348   2.399   2.476  10.635 -0.6067 -0.5087 -0.6972
  840MPD2    H112349   2.713   2.532  10.346 -0.2213  2.3317  2.1271
  840MPD2    H212350   2.356   2.342  10.222  0.1462  0.6555 -0.5897
  840MPD2    H312351   2.569   2.418  10.184  0.3976  0.3906 -0.2104
  840MPD2     N12352   2.652   2.570  10.597 -0.1971  0.2308  0.4113
  840MPD2    H512353   2.748   2.585  10.570 -0.7822 -0.5975 -2.0852
  840MPD2    N112354   2.227   2.346  10.465  0.0999  0.7587  0.1024
  840MPD2    H712355   2.179   2.320  10.380  2.4257 -0.6312 -0.7587
  841MPD2     C12356   2.231   1.775  14.328  0.1609  0.6780 -0.2794
  841MPD2    C112357   2.143   1.873  14.287  0.2847 -1.2877  0.6989
  841MPD2    C212358   2.125   1.992  14.351 -0.5929  0.0886  0.2881
  841MPD2    C312359   2.197   2.016  14.466 -0.0107  1.1082 -0.5297
  841MPD2    C412360   2.274   1.916  14.521 -0.5074 -0.1100 -0.6353
  841MPD2    C512361   2.284   1.800  14.447 -0.0951  0.1855  0.3562
  841MPD2     H12362   2.046   2.054  14.311  1.0088  1.0679 -1.3792
  841MPD2    H112363   2.335   1.922  14.610 -0.1413  1.9535 -1.0268
  841MPD2    H212364   2.245   1.677  14.283 -0.3291  0.8805 -0.8641
  841MPD2    H312365   2.351   1.719  14.476 -2.0394 -2.1218 -1.5440
  841MPD2     N12366   2.181   2.143  14.526  0.0936 -1.2769  0.1419
  841MPD2    H512367   2.114   2.206  14.483  3.1978  1.4051 -0.7496
  841MPD2    N112368   2.052   1.860  14.171 -0.4745 -0.5025  0.0967
  841MPD2    H712369   2.017   1.944  14.128  0.6104  0.2635  0.7228
  842MPD2     C12370   2.221   3.402  16.826  0.5977  0.4221 -0.2570
  842MPD2    C112371   2.090   3.420  16.810 -0.5727 -0.1335 -0.1455
  842MPD2    C212372   2.000   3.365  16.898  0.4042  0.4950 -0.0655
  842MPD2    C312373   2.045   3.277  16.992 -0.2057 -0.2380 -0.4565
  842MPD2    C412374   2.180   3.250  17.002  0.3761 -0.9155 -1.1516
  842MPD2    C512375   2.268   3.313  16.920  0.1990 -0.0636  0.0608
  842MPD2     H12376   1.899   3.402  16.908  0.4916  0.0344  2.7655
  842MPD2    H112377   2.211   3.176  17.075 -0.9689 -0.6734 -0.3371
  842MPD2    H212378   2.288   3.464  16.766 -0.0857  1.1106 -0.3050
  842MPD2    H312379   2.376   3.310  16.932  0.5000  2.3622 -1.8377
  842MPD2     N12380   1.964   3.222  17.097 -0.8547  0.1555  0.3186
  842MPD2    H512381   2.008   3.162  17.167  1.1457  0.7962 -0.3758
  842MPD2    N112382   2.046   3.499  16.698  0.2555 -0.0663 -1.0575
  842MPD2    H712383   2.121   3.544  16.648  1.4741 -3.6290 -2.4812
  843MPD2     C12384   3.874   3.285  17.345 -0.2969  0.1988 -0.6007
  843MPD2    C112385   3.836   3.315  17.473 -0.5144 -0.0616 -0.2682
  843MPD2    C212386   3.900   3.403  17.556 -0.7048  0.1896 -0.1673
  843MPD2    C312387   4.005   3.467  17.505 -0.0933 -0.2647  0.3468
  843MPD2    C412388   4.039   3.456  17.378 -0.0969  0.2024 -0.1022
  843MPD2    C512389   3.977   3.365  17.296  0.1631  0.0026 -0.1764
  843MPD2     H12390   3.862   3.425  17.655 -0.5290 -0.2876  0.0050
  843MPD2    H112391   4.113   3.522  17.335  1.4420  0.1369  2.4036
  843MPD2    H212392   3.810   3.226  17.281 -1.5468 -0.2461  1.0778
  843MPD2    H312393   4.005   3.350  17.192 -0.5454  0.9163 -0.4985
  843MPD2     N12394   4.080   3.561  17.577 -0.5628  0.5167  0.2080
  843MPD2    H512395   4.154   3.605  17.523  0.7430 -0.7282  0.9602
  843MPD2    N112396   3.717   3.258  17.511  0.0709 -0.1414  0.8104
  843MPD2    H712397   3.669   3.201  17.442  2.2805 -0.5825 -0.3571
  844MPD2     C12398   2.496   2.978  16.177  0.3526  0.1558 -0.5726
  844MPD2    C112399   2.565   2.857  16.204 -0.2816 -0.3755  0.1793
  844MPD2    C212400   2.636   2.841  16.321 -0.5970 -0.2277  0.2677
  844MPD2    C312401   2.658   2.946  16.403 -0.2349  0.4324  0.6834
  844MPD2    C412402   2.592   3.068  16.378  0.8561  0.7224 -0.0568
  844MPD2    C512403   2.507   3.076  16.271  0.1968 -0.2077 -0.0718
  844MPD2     H12404   2.686   2.745  16.334 -1.4327 -0.7640 -0.4378
  844MPD2    H112405   2.598   3.165  16.426  0.4536  0.7910 -0.1469
  844MPD2    H212406   2.441   3.003  16.087 -3.3602 -0.9183  1.4024
  844MPD2    H312407   2.455   3.168  16.246  0.6585 -0.4360 -1.9015
  844MPD2     N12408   2.759   2.925  16.505 -0.0185 -0.4330 -0.6346
  844MPD2    H512409   2.796   2.831  16.507  3.2016  0.8071 -1.3442
  844MPD2    N112410   2.576   2.745  16.116  0.5147  0.3183 -0.2995
  844MPD2    H712411   2.627   2.667  16.156  2.2296  1.2029 -0.7582
  845MPD2     C12412   3.220   3.593  17.083 -0.4603  0.5997 -0.0520
  845MPD2    C112413   3.107   3.521  17.112 -1.1463  0.2773 -0.6236
  845MPD2    C212414   3.088   3.405  17.044  1.1957 -0.3202 -0.6832
  845MPD2    C312415   3.174   3.370  16.942  0.4839  0.5024  0.0861
  845MPD2    C412416   3.288   3.444  16.909 -0.5984 -0.3621  0.1879
  845MPD2    C512417   3.312   3.552  16.989 -0.5915  0.1720 -0.0334
  845MPD2     H12418   2.993   3.354  17.050  0.0267  1.9883  0.2637
  845MPD2    H112419   3.343   3.424  16.818 -1.7274 -1.3202 -0.2973
  845MPD2    H212420   3.241   3.677  17.149  1.3039  1.4791 -1.7423
  845MPD2    H312421   3.399   3.614  16.973 -0.4889  0.4932  1.8153
  845MPD2     N12422   3.139   3.258  16.869 -0.1019 -0.2246  0.6340
  845MPD2    H512423   3.051   3.211  16.890 -0.1332  0.2844  1.6294
  845MPD2    N112424   3.009   3.580  17.183  0.8483 -0.0777  0.0636
  845MPD2    H712425   3.015   3.681  17.195  0.6149 -0.1382  0.7163
  846MPD2     C12426   0.171   4.373  13.219 -0.5659 -0.0158 -0.1988
  846MPD2    C112427   0.127   4.494  13.258  0.5537  0.4370  0.2451
  846MPD2    C212428   0.110   4.516  13.392 -1.2063  0.5637 -0.3554
  846MPD2    C312429   0.133   4.419  13.487 -0.1963  0.5449 -0.2668
  846MPD2    C412430   0.177   4.290  13.446  0.3732  0.7097 -0.4843
  846MPD2    C512431   0.197   4.271  13.312 -0.2795  0.2684  0.5057
  846MPD2     H12432   0.078   4.610  13.436  1.4836  0.2967  2.1471
  846MPD2    H112433   0.201   4.206  13.511  0.4161  0.3373 -0.9852
  846MPD2    H212434   0.180   4.348  13.114 -1.5112 -0.1453 -0.2449
  846MPD2    H312435   0.235   4.178  13.271  4.1448  2.1677  0.3268
  846MPD2     N12436   0.089   4.439  13.626 -0.0445 -0.0510 -0.2524
  846MPD2    H512437   0.040   4.526  13.645  1.5622  0.6300  0.7721
  846MPD2    N112438   0.103   4.596  13.159 -0.3603  0.4403 -0.5153
  846MPD2    H712439   0.101   4.689  13.199 -2.5599 -0.1530  0.7497
  847MPD2     C12440   0.081   0.307  14.259 -0.5066 -0.3106  0.1514
  847MPD2    C112441   0.146   0.308  14.142  0.6304  0.9038  0.7822
  847MPD2    C212442   0.274   0.257  14.130 -0.7920  0.2680  0.0104
  847MPD2    C312443   0.346   0.215  14.240 -0.7854  0.0889  0.3879
  847MPD2    C412444   0.281   0.219  14.366 -0.2603  0.2815 -0.3939
  847MPD2    C512445   0.145   0.262  14.373  0.0033 -0.2174  0.2684
  847MPD2     H12446   0.315   0.253  14.029 -0.1128 -1.2799  0.3436
  847MPD2    H112447   0.335   0.189  14.455 -1.4623 -1.7868 -0.3613
  847MPD2    H212448   4.694   0.321  14.274 -0.5087 -1.3043  1.1233
  847MPD2    H312449   0.093   0.251  14.468  1.0385  1.0888  0.9832
  847MPD2     N12450   0.484   0.174  14.230  0.1962 -0.3004 -0.1760
  847MPD2    H512451   0.524   0.141  14.317 -0.0783 -1.9019 -0.6418
  847MPD2    N112452   0.088   0.369  14.025 -0.2441  0.2414  0.3301
  847MPD2    H712453   0.144   0.371  13.941  1.1473  2.9917  1.3204
  848MPD2     C12454   2.246   3.435  16.324 -0.7045  0.7498  0.0316
  848MPD2    C112455   2.353   3.404  16.400 -0.5778 -0.2537 -0.3123
  848MPD2    C212456   2.473   3.469  16.376  0.7276  0.0313 -0.5463
  848MPD2    C312457   2.490   3.560  16.275  0.5143  0.5793 -0.7547
  848MPD2    C412458   2.386   3.580  16.194 -0.0175  0.4102  0.1732
  848MPD2    C512459   2.266   3.531  16.227  0.1613  0.2189  0.1595
  848MPD2     H12460   2.554   3.438  16.441 -0.9742 -1.5939  0.7876
  848MPD2    H112461   2.376   3.644  16.107 -1.3002  1.1016  0.8158
  848MPD2    H212462   2.152   3.382  16.324  1.4045 -3.0035 -2.7136
  848MPD2    H312463   2.182   3.549  16.162  1.3198 -1.7170 -1.8462
  848MPD2     N12464   2.608   3.634  16.245 -0.4155  0.1352  0.1217
  848MPD2    H512465   2.594   3.702  16.171  0.6534  0.1396 -0.0720
  848MPD2    N112466   2.354   3.303  16.506 -0.3437  0.2196  0.5012
  848MPD2    H712467   2.438   3.290  16.562 -1.7527 -0.9662  2.3012
  849MPD2     C12468   1.906   3.174  14.828  0.2432 -0.0487  0.5935
  849MPD2    C112469   1.955   3.210  14.706 -0.3240 -0.4362  0.6847
  849MPD2    C212470   2.050   3.132  14.640  0.6961  0.2871 -0.7517
  849MPD2    C312471   2.100   3.018  14.693 -0.1603 -0.6601  0.2421
  849MPD2    C412472   2.058   2.979  14.817 -0.4569  0.0711  0.5106
  849MPD2    C512473   1.960   3.055  14.883 -0.5641  0.6966  0.1038
  849MPD2     H12474   2.100   3.169  14.550 -0.5541 -0.1032 -1.6028
  849MPD2    H112475   2.106   2.900  14.874  0.3779 -0.5583 -1.0763
  849MPD2    H212476   1.840   3.232  14.892  1.8252  0.5794  1.6496
  849MPD2    H312477   1.926   3.017  14.979  1.8283  1.4070  1.2297
  849MPD2     N12478   2.200   2.947  14.623  0.0175 -0.1617  0.5482
  849MPD2    H512479   2.242   2.872  14.677  1.8749  0.8729  0.5156
  849MPD2    N112480   1.926   3.331  14.639 -0.0310  0.0034 -0.2699
  849MPD2    H712481   1.992   3.366  14.570  1.6383 -1.8752  0.3739
  850MPD2     C12482   4.552   1.870  14.652  0.5073 -0.7135 -0.5663
  850MPD2    C112483   4.608   1.934  14.764 -1.1409 -0.0927 -0.1612
  850MPD2    C212484   0.016   1.910  14.800  0.5273 -0.1614  0.4823
  850MPD2    C312485   0.081   1.797  14.749  0.2961  0.6770 -0.1355
  850MPD2    C412486   0.021   1.726  14.644 -0.0753  0.3478 -1.0773
  850MPD2    C512487   4.619   1.761  14.595 -0.6562 -0.5266 -0.5437
  850MPD2     H12488   0.060   1.974  14.876 -2.8534  1.4948  1.0466
  850MPD2    H112489   0.055   1.637  14.593  0.0991 -0.6334  0.7674
  850MPD2    H212490   4.452   1.896  14.617 -0.2497 -1.1452  1.2553
  850MPD2    H312491   4.571   1.710  14.512  1.5159 -1.5733 -1.1595
  850MPD2     N12492   0.210   1.753  14.790 -0.4691  0.1378  0.4715
  850MPD2    H512493   0.245   1.670  14.742 -0.0627  0.2860  0.5077
  850MPD2    N112494   4.520   2.038  14.820  0.1963 -0.0621 -0.3090
  850MPD2    H712495   4.457   2.083  14.755  0.5193  0.2483 -0.4045
  851MPD2     C12496   0.364   1.727  15.321  0.1067  0.2377 -0.2879
  851MPD2    C112497   0.248   1.695  15.267  0.0777  0.0074 -0.6482
  851MPD2    C212498   0.240   1.570  15.208  0.2288  0.3929  0.0467
  851MPD2    C312499   0.359   1.491  15.190  0.3674  0.5770  0.0926
  851MPD2    C412500   0.482   1.532  15.239 -0.3367  0.0827 -0.1508
  851MPD2    C512501   0.478   1.653  15.307  0.5070  0.2040  0.4446
  851MPD2     H12502   0.146   1.525  15.181  0.9649 -1.7654  1.1135
  851MPD2    H112503   0.571   1.470  15.235  0.5055  1.2286  0.6290
  851MPD2    H212504   0.376   1.815  15.383 -0.2605  0.6266 -0.7634
  851MPD2    H312505   0.569   1.676  15.361 -0.1063 -1.0455  2.0092
  851MPD2     N12506   0.348   1.367  15.122 -0.0275 -0.0548 -0.0854
  851MPD2    H512507   0.253   1.348  15.090  0.7138 -2.0517 -1.0859
  851MPD2    N112508   0.144   1.786  15.271 -0.2199 -0.1425 -0.2581
  851MPD2    H712509   0.161   1.877  15.313 -4.1161 -0.3733  1.8384
  852MPD2     C12510   4.321   3.352   9.488  0.6219  0.2669 -0.2497
  852MPD2    C112511   4.408   3.377   9.586 -0.6787  0.5289 -0.0520
  852MPD2    C212512   4.520   3.444   9.549 -0.0598  0.0317 -0.3002
  852MPD2    C312513   4.546   3.480   9.417 -0.3774 -0.3183  0.1501
  852MPD2    C412514   4.454   3.448   9.314 -0.0356  0.0070 -0.6591
  852MPD2    C512515   4.339   3.383   9.357  0.3868 -0.7391 -0.0316
  852MPD2     H12516   4.603   3.469   9.614 -0.3127 -1.8203  0.7418
  852MPD2    H112517   4.469   3.481   9.212  1.5230 -0.4557 -0.5823
  852MPD2    H212518   4.223   3.313   9.515  0.5000  1.0729  0.4698
  852MPD2    H312519   4.257   3.372   9.287 -0.6887 -1.8807  1.4293
  852MPD2     N12520   4.677   3.532   9.397  0.2638  0.0044  0.2258
  852MPD2    H512521   0.008   3.541   9.484 -1.2971 -0.7452  1.2340
  852MPD2    N112522   4.392   3.342   9.720  0.5883 -0.2635  0.4655
  852MPD2    H712523   4.456   3.388   9.784  0.0722  1.4198 -0.2329
  853MPD2     C12524   1.279   4.572  12.210  0.1122 -0.1904 -0.1583
  853MPD2    C112525   1.233   4.466  12.285  0.6114  0.3613 -1.4203
  853MPD2    C212526   1.195   4.349  12.211 -0.6199 -0.5861  0.4363
  853MPD2    C312527   1.193   4.345  12.076  0.5845 -0.5159 -0.2990
  853MPD2    C412528   1.225   4.457  12.005 -0.4255  0.1248 -0.0693
  853MPD2    C512529   1.266   4.567  12.069 -0.0008  0.2856  0.9349
  853MPD2     H12530   1.170   4.254  12.258 -1.2232 -0.0208  1.2714
  853MPD2    H112531   1.222   4.457  11.896 -0.5241 -1.4325 -0.0683
  853MPD2    H212532   1.311   4.665  12.254 -0.0883 -0.1850 -0.0225
  853MPD2    H312533   1.278   4.665  12.024 -1.2619 -0.8328 -1.8724
  853MPD2     N12534   1.161   4.234  11.997 -0.1778 -0.0323 -0.0056
  853MPD2    H512535   1.178   4.248  11.898  2.3209 -3.0423  0.0346
  853MPD2    N112536   1.215   4.474  12.425  0.5158 -0.7766 -0.5107
  853MPD2    H712537   1.243   4.560  12.472  0.5560 -1.1706  0.1878
  854MPD2     C12538   3.716   4.041  12.241  0.4310 -0.1339  0.3919
  854MPD2    C112539   3.677   3.915  12.221  0.1131 -0.3506 -0.0367
  854MPD2    C212540   3.607   3.856  12.322 -0.0914 -0.3719 -0.2287
  854MPD2    C312541   3.568   3.932  12.433 -0.3957  0.2342  0.2395
  854MPD2    C412542   3.606   4.068  12.446 -0.5180 -0.6418 -0.5158
  854MPD2    C512543   3.678   4.121  12.343  0.7088 -0.5742 -0.2485
  854MPD2     H12544   3.565   3.758  12.307 -2.5347  0.7314 -0.5023
  854MPD2    H112545   3.579   4.130  12.530  0.0944  1.3380 -1.7659
  854MPD2    H212546   3.781   4.076  12.161 -0.7274 -0.3244 -0.6301
  854MPD2    H312547   3.721   4.220  12.337  0.0562 -0.1308  2.2843
  854MPD2     N12548   3.492   3.888  12.544 -0.3807 -0.8829  0.1749
  854MPD2    H512549   3.484   3.945  12.627 -3.5599 -0.4334 -0.4435
  854MPD2    N112550   3.716   3.844  12.106  0.2836  0.1206  0.0580
  854MPD2    H712551   3.758   3.906  12.037  1.1978 -0.8668 -0.2848
  855MPD2     C12552   3.745   3.913  13.315 -0.2088  0.4633  0.2611
  855MPD2    C112553   3.699   3.782  13.324 -0.3407 -0.3110 -0.5674
  855MPD2    C212554   3.611   3.746  13.237  0.2323  0.2349  0.4364
  855MPD2    C312555   3.574   3.825  13.136  0.0507 -0.0039 -0.1493
  855MPD2    C412556   3.606   3.955  13.126  0.2440 -0.2872 -0.9322
  855MPD2    C512557   3.691   4.003  13.221  1.1744 -0.1535 -0.6915
  855MPD2     H12558   3.575   3.644  13.238  1.4009 -0.1699  1.5402
  855MPD2    H112559   3.582   4.018  13.040 -1.9285  0.1598  0.0069
  855MPD2    H212560   3.812   3.960  13.387  0.5887  1.9626 -1.4507
  855MPD2    H312561   3.749   4.094  13.218 -0.2696  0.7412 -1.0076
  855MPD2     N12562   3.502   3.778  13.027  0.1337  0.1642 -0.0042
  855MPD2    H512563   3.472   3.848  12.961 -2.0000  0.1968  1.0212
  855MPD2    N112564   3.737   3.689  13.426 -0.0882 -0.2670 -0.7689
  855MPD2    H712565   3.688   3.602  13.442  1.3655 -0.7571  1.0365
  856MPD2     C12566   0.813   4.659  13.488 -0.2869 -0.9683  0.0087
  856MPD2    C112567   0.905   0.028  13.539  0.0493  0.1428 -0.1051
  856MPD2    C212568   0.866   0.161  13.555  0.2560  0.0004 -0.5211
  856MPD2    C312569   0.743   0.208  13.515  0.0648  0.0231 -0.5774
  856MPD2    C412570   0.664   0.124  13.441 -0.1247  0.8017 -0.5688
  856MPD2    C512571   0.699   4.713  13.424 -0.2529 -0.8216 -0.8059
  856MPD2     H12572   0.939   0.234  13.586  0.4889 -0.0312 -0.9906
  856MPD2    H112573   0.570   0.152  13.395  1.3748 -0.0676 -4.2097
  856MPD2    H212574   0.828   4.552  13.482  4.4064 -0.3472  0.9001
  856MPD2    H312575   0.625   4.647  13.382 -1.8839  2.0147 -2.3868
  856MPD2     N12576   0.701   0.338  13.545 -0.3610 -0.3591 -0.1749
  856MPD2    H512577   0.619   0.378  13.501 -0.1239  0.5899  0.2426
  856MPD2    N112578   1.033   4.708  13.596 -0.3013 -0.0265  0.2587
  856MPD2    H712579   1.076   0.060  13.654 -2.0785  0.1537  1.3410
  857MPD2     C12580   2.983   2.176  12.148  0.0949 -0.7648 -0.3942
  857MPD2    C112581   2.922   2.141  12.265 -0.0309  0.4098  0.0208
  857MPD2    C212582   2.875   2.244  12.343  1.0374  0.1003  0.3266
  857MPD2    C312583   2.864   2.373  12.300  0.6251 -0.3230  0.5957
  857MPD2    C412584   2.929   2.408  12.181 -0.2625  0.6653  0.2683
  857MPD2    C512585   2.986   2.310  12.106 -0.5190  0.1036  0.2204
  857MPD2     H12586   2.825   2.223  12.437  1.7085 -1.1778  0.3984
  857MPD2    H112587   2.918   2.507  12.139  0.1199  1.3575  1.8180
  857MPD2    H212588   3.027   2.104  12.080  1.4744  0.4773 -0.8186
  857MPD2    H312589   3.031   2.333  12.010  0.5952 -1.2219  0.4315
  857MPD2     N12590   2.807   2.461  12.388  0.0862  0.0118 -0.8617
  857MPD2    H512591   2.774   2.418  12.474  0.5645  0.3146 -0.5285
  857MPD2    N112592   2.918   2.006  12.299 -0.2882 -0.6350 -0.9794
  857MPD2    H712593   2.945   1.943  12.224 -0.2513 -1.5985 -0.1540
  858MPD2     C12594   3.012   1.124  16.424 -0.3428 -1.3457  0.0417
  858MPD2    C112595   3.047   1.010  16.485  0.1903 -0.0551 -0.3681
  858MPD2    C212596   3.050   1.000  16.619  0.1495 -0.1334  0.3813
  858MPD2    C312597   3.010   1.105  16.694 -0.4309 -0.2386 -0.1213
  858MPD2    C412598   2.951   1.221  16.639  0.2044  0.0889  0.6147
  858MPD2    C512599   2.962   1.226  16.504 -0.0137  0.1287 -0.3933
  858MPD2     H12600   3.092   0.913  16.668  0.3818  0.4875  1.2738
  858MPD2    H112601   2.933   1.321  16.676  1.0721 -0.4135  2.4060
  858MPD2    H212602   3.018   1.132  16.316  1.6475  2.0274  0.3888
  858MPD2    H312603   2.940   1.317  16.450  0.9115 -0.7046 -2.1616
  858MPD2     N12604   3.018   1.112  16.836  0.3439 -0.2489  0.2803
  858MPD2    H512605   2.963   1.182  16.884  2.2163  2.0924 -0.9929
  858MPD2    N112606   3.105   0.917  16.398 -0.2535 -0.7423 -0.4287
  858MPD2    H712607   3.100   0.952  16.303 -0.6301  0.0515 -0.1114
  859MPD2     C12608   1.852   3.572  15.585  0.4537 -0.4758  0.1099
  859MPD2    C112609   1.884   3.553  15.450 -0.2689 -0.0905 -0.4109
  859MPD2    C212610   1.821   3.450  15.377 -0.4999  0.0247 -0.5747
  859MPD2    C312611   1.732   3.370  15.435  0.4259 -0.0639 -1.0477
  859MPD2    C412612   1.694   3.392  15.565 -0.9222 -0.8081 -0.3448
  859MPD2    C512613   1.753   3.493  15.633  0.1490 -0.7944 -0.3455
  859MPD2     H12614   1.851   3.435  15.274 -1.3165  1.1739 -0.9691
  859MPD2    H112615   1.617   3.329  15.608 -1.2577 -1.3689 -1.7810
  859MPD2    H212616   1.889   3.650  15.651  0.0542 -0.4295  0.2757
  859MPD2    H312617   1.719   3.515  15.733  0.2884  1.5091 -0.8115
  859MPD2     N12618   1.667   3.261  15.369  0.1489  0.6771 -0.0135
  859MPD2    H512619   1.587   3.226  15.421  3.0586 -1.3152  3.1548
  859MPD2    N112620   1.973   3.646  15.389 -0.8006  0.3199 -0.3681
  859MPD2    H712621   2.043   3.694  15.445 -2.4785  0.5527  1.5432
  860MPD2     C12622   4.252   3.304  11.378  1.1617 -0.0305 -0.3756
  860MPD2    C112623   4.291   3.402  11.460 -1.1630  0.5780 -0.5562
  860MPD2    C212624   4.245   3.406  11.592  0.2264  0.6845  0.4631
  860MPD2    C312625   4.151   3.313  11.647  0.1024 -0.0551 -0.7866
  860MPD2    C412626   4.096   3.227  11.558 -0.1118  0.3802  0.2081
  860MPD2    C512627   4.155   3.222  11.423 -0.2906 -0.7319  0.0767
  860MPD2     H12628   4.286   3.478  11.661 -0.1391  1.4426 -0.1075
  860MPD2    H112629   4.020   3.152  11.580  2.8129 -2.9401 -1.0172
  860MPD2    H212630   4.283   3.298  11.275  1.5776 -0.1188 -0.2424
  860MPD2    H312631   4.124   3.137  11.363  2.1581 -2.1855  0.8871
  860MPD2     N12632   4.115   3.314  11.783 -0.2762  0.1460 -0.3295
  860MPD2    H512633   4.144   3.391  11.842 -0.7929 -0.9488  1.3607
  860MPD2    N112634   4.387   3.497  11.418 -0.2757  0.4067  0.9223
  860MPD2    H712635   4.407   3.571  11.485 -1.9072  1.3733  0.3414
  861MPD2     C12636   3.443   1.382  11.023 -0.8781 -0.0149 -0.0755
  861MPD2    C112637   3.434   1.519  11.056  0.0596 -0.1050  0.4399
  861MPD2    C212638   3.373   1.602  10.962 -0.3585  0.4719  0.7833
  861MPD2    C312639   3.320   1.559  10.834  0.9405  0.4930  0.2183
  861MPD2    C412640   3.339   1.426  10.805 -0.3158 -0.1855 -0.8323
  861MPD2    C512641   3.403   1.346  10.895 -0.1055  0.4214 -0.4571
  861MPD2     H12642   3.381   1.707  10.985 -0.4592  0.3630  1.3185
  861MPD2    H112643   3.324   1.385  10.706 -0.1732 -0.5079 -0.7201
  861MPD2    H212644   3.499   1.313  11.085  0.6098  0.1602 -1.1944
  861MPD2    H312645   3.429   1.243  10.873  1.1821  0.6570 -0.0395
  861MPD2     N12646   3.254   1.641  10.738 -0.9308  0.2312 -0.4321
  861MPD2    H512647   3.260   1.617  10.640  2.7749  0.4335 -0.2643
  861MPD2    N112648   3.495   1.575  11.173  0.0871 -0.4393 -0.0323
  861MPD2    H712649   3.494   1.677  11.174  1.4401 -0.4309  0.3844
  862MPD2     C12650   2.898   1.675  10.087 -0.2495 -0.3506  0.3212
  862MPD2    C112651   2.984   1.619  10.184 -0.4275 -0.0953  0.1657
  862MPD2    C212652   3.061   1.510  10.148 -0.8799 -0.1327 -0.2281
  862MPD2    C312653   3.046   1.448  10.027 -0.0795 -0.6346 -0.5749
  862MPD2    C412654   2.950   1.494   9.935 -0.0773 -0.0037  0.1848
  862MPD2    C512655   2.882   1.607   9.970  0.5420 -0.7529  0.0473
  862MPD2     H12656   3.142   1.487  10.216 -1.0595  2.1960  0.7734
  862MPD2    H112657   2.924   1.450   9.839  0.5101  1.1531 -0.4937
  862MPD2    H212658   2.834   1.761  10.102 -1.5633 -1.2724 -0.0065
  862MPD2    H312659   2.814   1.640   9.892 -0.1552 -1.3025  0.4263
  862MPD2     N12660   3.136   1.341   9.998 -0.1286 -0.5460  0.7871
  862MPD2    H512661   3.201   1.314  10.071  0.9799  0.0097  0.0039
  862MPD2    N112662   3.020   1.693  10.301 -0.3104  0.0378 -0.1688
  862MPD2    H712663   3.091   1.651  10.361  1.3774  0.0362 -2.1524
  863MPD2     C12664   0.972   4.497  17.232 -0.4116  0.3033 -0.3419
  863MPD2    C112665   1.085   4.540  17.175 -0.4422  0.1346 -0.2695
  863MPD2    C212666   1.207   4.486  17.207  0.1232 -0.3261  1.3934
  863MPD2    C312667   1.221   4.390  17.301 -0.0539 -0.1805  0.7091
  863MPD2    C412668   1.104   4.337  17.357  0.3278  0.3262  0.2243
  863MPD2    C512669   0.988   4.406  17.334 -0.1721  0.0935  0.8294
  863MPD2     H12670   1.294   4.514  17.149 -0.6743  2.0236  1.3317
  863MPD2    H112671   1.102   4.260  17.434 -2.6329  0.7174  0.5565
  863MPD2    H212672   0.876   4.544  17.216 -0.3541  0.6843  0.4091
  863MPD2    H312673   0.901   4.367  17.385 -1.3278  2.2755  0.5651
  863MPD2     N12674   1.343   4.327  17.339  0.3137 -0.0522 -0.1751
  863MPD2    H512675   1.339   4.244  17.397 -2.4067 -0.2991 -0.7175
  863MPD2    N112676   1.067   4.635  17.071 -0.6245 -0.6459 -0.0057
  863MPD2    H712677   0.972   4.662  17.046 -0.6948 -1.8856 -1.0863
  864MPD2     C12678   1.777   1.165  17.288  0.1064 -0.2568 -0.1556
  864MPD2    C112679   1.860   1.126  17.177  0.1379  0.0931  0.3410
  864MPD2    C212680   1.883   1.228  17.074  0.0977  0.2734  0.3922
  864MPD2    C312681   1.851   1.364  17.096 -0.0033  0.4120  0.5048
  864MPD2    C412682   1.767   1.393  17.206  0.1114 -0.3010  0.5169
  864MPD2    C512683   1.739   1.296  17.296  0.1652  0.5408 -0.2508
  864MPD2     H12684   1.928   1.179  16.988 -3.0795  0.2521 -1.2525
  864MPD2    H112685   1.725   1.490  17.230  0.0927 -0.5815  1.6364
  864MPD2    H212686   1.752   1.090  17.362 -1.3515 -0.0390 -0.4163
  864MPD2    H312687   1.669   1.322  17.375  0.9750  0.4464  0.5045
  864MPD2     N12688   1.881   1.466  17.008 -0.0254 -0.8006  0.2755
  864MPD2    H512689   1.838   1.558  17.011 -1.1124 -1.3713  2.4113
  864MPD2    N112690   1.925   1.004  17.158  0.3011 -0.1045  0.1512
  864MPD2    H712691   1.993   1.007  17.083  0.7943  0.9747  0.6377
  865MPD2     C12692   1.903   1.748  16.162 -0.3503  0.1091 -0.6112
  865MPD2    C112693   1.936   1.671  16.273 -0.4149 -0.0357  0.1460
  865MPD2    C212694   1.882   1.699  16.399  0.3857 -0.1961  0.0661
  865MPD2    C312695   1.824   1.815  16.424  0.5671  0.6176  0.6041
  865MPD2    C412696   1.805   1.898  16.314  0.4880 -0.0061  0.0691
  865MPD2    C512697   1.837   1.861  16.186 -0.0508 -0.6714  0.0326
  865MPD2     H12698   1.890   1.626  16.479  1.4833  1.3307  1.3191
  865MPD2    H112699   1.754   1.993  16.329  0.1936 -0.1800  0.1752
  865MPD2    H212700   1.937   1.732  16.060  0.1553  1.0404 -0.5862
  865MPD2    H312701   1.796   1.914  16.101  1.5092 -0.3834 -0.5332
  865MPD2     N12702   1.782   1.876  16.547 -0.6902 -0.0132  0.9647
  865MPD2    H512703   1.714   1.951  16.541  1.3349  1.7793  0.0896
  865MPD2    N112704   2.026   1.566  16.239 -0.1927 -1.0530 -0.2619
  865MPD2    H712705   2.053   1.568  16.141 -0.5569  1.9638 -0.2922
  866MPD2     C12706   4.442   1.908  10.999 -0.4823 -0.3441  0.1234
  866MPD2    C112707   4.361   1.816  11.059 -0.6972 -0.1655 -0.0018
  866MPD2    C212708   4.223   1.833  11.053  0.9912  0.5718 -0.3516
  866MPD2    C312709   4.167   1.943  10.992 -0.5197  0.8411  0.1665
  866MPD2    C412710   4.256   2.042  10.955 -0.0448  0.3420 -0.2881
  866MPD2    C512711   4.389   2.026  10.961  0.1836 -0.2614 -0.3860
  866MPD2     H12712   4.161   1.748  11.082  1.5107  0.1296 -0.5225
  866MPD2    H112713   4.216   2.139  10.927 -1.6647 -0.4170 -0.5617
  866MPD2    H212714   4.550   1.901  11.012 -0.2257  1.8187 -0.8869
  866MPD2    H312715   4.452   2.103  10.918  0.2936  0.7894  1.6799
  866MPD2     N12716   4.029   1.966  10.976  0.8213  0.2902 -0.2681
  866MPD2    H512717   4.001   2.038  10.910 -3.5001  0.1866  1.4750
  866MPD2    N112718   4.418   1.697  11.091 -0.0755 -0.3732  0.2041
  866MPD2    H712719   4.517   1.689  11.070 -0.1987 -0.3364 -0.3696
  867MPD2     C12720   1.460   1.028  16.587  0.6077 -0.3552  0.3857
  867MPD2    C112721   1.447   0.973  16.716 -1.2286  0.1346  0.5990
  867MPD2    C212722   1.442   1.072  16.817  0.0080  0.2056 -0.2268
  867MPD2    C312723   1.441   1.216  16.802 -0.4318  0.2951  0.6020
  867MPD2    C412724   1.457   1.255  16.667  0.5267  0.6704  0.3206
  867MPD2    C512725   1.472   1.164  16.568  0.2353 -0.3845 -0.1154
  867MPD2     H12726   1.442   1.037  16.919  0.0708 -2.3292 -1.0924
  867MPD2    H112727   1.463   1.360  16.640  0.4684  0.0976 -1.9213
  867MPD2    H212728   1.480   0.964  16.501 -4.3706  0.6085 -1.5157
  867MPD2    H312729   1.495   1.203  16.469  0.4720  2.2908  1.0039
  867MPD2     N12730   1.439   1.321  16.902 -0.7155  0.5434  0.2489
  867MPD2    H512731   1.465   1.412  16.865  0.6979 -0.5500 -1.4813
  867MPD2    N112732   1.435   0.836  16.732  0.4640  0.3169  0.6276
  867MPD2    H712733   1.440   0.781  16.647 -0.9511 -0.4272  1.0227
  868MPD2     C12734   2.899   0.632  12.719 -0.6016 -1.3106 -0.7489
  868MPD2    C112735   2.868   0.529  12.804  0.6639 -0.1642  0.3088
  868MPD2    C212736   2.825   0.568  12.934 -1.4349 -0.7659  0.2666
  868MPD2    C312737   2.823   0.704  12.970  0.1844  0.4674  0.0852
  868MPD2    C412738   2.860   0.801  12.880  0.6117 -0.0431  0.4166
  868MPD2    C512739   2.899   0.766  12.757  0.7411  0.1933 -0.0548
  868MPD2     H12740   2.815   0.490  13.009 -1.0832 -1.3021 -0.2462
  868MPD2    H112741   2.840   0.904  12.904 -1.5828 -0.6061  1.1103
  868MPD2    H212742   2.939   0.614  12.620 -1.5692 -0.6468 -1.2595
  868MPD2    H312743   2.932   0.844  12.690  0.7197  0.3498  0.1174
  868MPD2     N12744   2.783   0.729  13.104  0.0002  0.4530 -0.0234
  868MPD2    H512745   2.729   0.662  13.157  0.7065 -1.4437 -1.6773
  868MPD2    N112746   2.911   0.397  12.767  0.2582  0.2645  0.2596
  868MPD2    H712747   2.927   0.387  12.668 -2.7263 -0.9354 -0.1006
  869MPD2     C12748   3.516   2.324   1.242  0.7257  0.0986 -0.2905
  869MPD2    C112749   3.385   2.340   1.272  0.0726  0.0408  0.0108
  869MPD2    C212750   3.314   2.444   1.208 -0.2502 -0.4921  0.2843
  869MPD2    C312751   3.384   2.535   1.124  0.0270  1.1476  0.2238
  869MPD2    C412752   3.517   2.512   1.090  0.3122 -0.9993 -0.5498
  869MPD2    C512753   3.579   2.401   1.143 -1.0814  0.3107  0.0940
  869MPD2     H12754   3.209   2.465   1.224  0.3497  2.3261  0.6168
  869MPD2    H112755   3.569   2.577   1.020 -1.2878  0.5621 -0.2853
  869MPD2    H212756   3.573   2.252   1.300  2.1292  1.5857  0.1721
  869MPD2    H312757   3.679   2.379   1.110 -1.8344 -1.4312 -1.0313
  869MPD2     N12758   3.322   2.649   1.072  1.0742 -0.1765 -0.1204
  869MPD2    H512759   3.375   2.700   1.003 -0.3620 -2.1948 -2.7453
  869MPD2    N112760   3.330   2.267   1.381 -0.3767  0.5149  0.0107
  869MPD2    H712761   3.384   2.188   1.415  0.6005 -0.2991 -3.4177
  870MPD2     C12762   1.921   2.123   0.872  0.2468  0.6247 -0.6800
  870MPD2    C112763   2.052   2.147   0.905  0.2761  0.2438  0.3365
  870MPD2    C212764   2.128   2.227   0.823  0.1189  0.1244 -0.6337
  870MPD2    C312765   2.070   2.294   0.720 -0.1836 -0.2548 -1.0563
  870MPD2    C412766   1.935   2.278   0.690  0.4055 -0.4336 -0.3064
  870MPD2    C512767   1.864   2.186   0.768 -0.5682  0.2571 -0.1108
  870MPD2     H12768   2.228   2.259   0.851 -0.2292  0.2861  0.4001
  870MPD2    H112769   1.877   2.336   0.618 -0.8182 -1.5781 -0.2489
  870MPD2    H212770   1.859   2.066   0.940  0.2785  2.0447  0.5234
  870MPD2    H312771   1.762   2.170   0.735  0.1948 -1.2608 -1.7541
  870MPD2     N12772   2.150   2.389   0.660 -0.6356  0.1341  0.1960
  870MPD2    H512773   2.249   2.392   0.679 -0.1346  0.1727 -2.3992
  870MPD2    N112774   2.106   2.079   1.013 -0.0925  0.7308 -0.2084
  870MPD2    H712775   2.046   2.017   1.066 -0.1476  0.3756 -0.6821
  871MPD2     C12776   4.537   1.512  16.629 -0.8668  0.3499 -0.1939
  871MPD2    C112777   4.467   1.492  16.737  0.0769  0.8612  0.9602
  871MPD2    C212778   4.457   1.365  16.786 -0.2297 -0.2277  0.6035
  871MPD2    C312779   4.531   1.267  16.721  1.0355 -0.2892 -0.5153
  871MPD2    C412780   4.596   1.293  16.602 -0.0907  0.2875 -0.3960
  871MPD2    C512781   4.598   1.418  16.552 -0.4090 -0.2257 -0.3519
  871MPD2     H12782   4.414   1.346  16.884  2.0821  2.9160  2.2142
  871MPD2    H112783   4.644   1.216  16.543 -1.2031 -0.0431 -0.8720
  871MPD2    H212784   4.557   1.612  16.592 -2.0469  1.3192  1.7928
  871MPD2    H312785   4.650   1.446  16.461 -0.7509 -1.6932 -0.9955
  871MPD2     N12786   4.530   1.140  16.780  0.0564  0.0833  0.2850
  871MPD2    H512787   4.463   1.120  16.854 -0.4332  0.7091  0.0090
  871MPD2    N112788   4.422   1.606  16.803 -0.3519  0.5489  0.3960
  871MPD2    H712789   4.442   1.699  16.769  0.6794  0.2586  0.2041
  872MPD2     C12790   0.673   4.301  13.430 -0.6436  0.2340 -0.3586
  872MPD2    C112791   0.759   4.237  13.518 -0.2855  0.1258  0.1711
  872MPD2    C212792   0.718   4.215  13.649  0.8074 -0.6222  0.1604
  872MPD2    C312793   0.588   4.228  13.688 -0.0963 -0.3798  0.0531
  872MPD2    C412794   0.509   4.302  13.603  0.5589  0.0025  0.8938
  872MPD2    C512795   0.551   4.339  13.477  0.9464  0.7515  0.2581
  872MPD2     H12796   0.790   4.178  13.721 -0.9119 -0.5337  1.9211
  872MPD2    H112797   0.409   4.322  13.641 -0.2344 -1.6705 -0.2894
  872MPD2    H212798   0.703   4.321  13.328  0.4958  3.1395  0.5487
  872MPD2    H312799   0.481   4.402  13.424  1.1082  1.4934  0.9380
  872MPD2     N12800   0.534   4.189  13.813  0.8478 -0.0679  0.7102
  872MPD2    H512801   0.442   4.223  13.839 -1.0415 -1.8134 -3.7181
  872MPD2    N112802   0.891   4.212  13.482  0.5575 -0.0097  0.9644
  872MPD2    H712803   0.940   4.174  13.562  0.8990  1.7543  1.6048
  873MPD2     C12804   2.345   3.654   0.703  0.1531  0.2719  0.1240
  873MPD2    C112805   2.250   3.569   0.752  0.0755 -0.9497 -0.3341
  873MPD2    C212806   2.278   3.435   0.739 -0.6274 -0.7773 -0.0231
  873MPD2    C312807   2.398   3.382   0.690 -0.4103 -0.7229  0.4116
  873MPD2    C412808   2.493   3.470   0.640 -0.1290 -0.4137  0.8361
  873MPD2    C512809   2.469   3.603   0.657  0.3157  0.4592  0.3462
  873MPD2     H12810   2.218   3.365   0.796 -0.7381 -0.4668  0.2413
  873MPD2    H112811   2.585   3.443   0.589  0.4222  1.4993  0.8136
  873MPD2    H212812   2.323   3.760   0.702  2.1735  0.6792 -1.8533
  873MPD2    H312813   2.548   3.669   0.622  0.7669  0.0370  0.5682
  873MPD2     N12814   2.421   3.240   0.690 -0.4575 -0.3646  0.5906
  873MPD2    H512815   2.518   3.212   0.681 -0.0861  1.8086 -2.1712
  873MPD2    N112816   2.134   3.631   0.817 -0.6347  0.5066  0.8655
  873MPD2    H712817   2.143   3.732   0.811 -2.1610  0.6086  0.0993
  874MPD2     C12818   2.135   4.012  16.038 -0.0099 -0.3637 -0.7923
  874MPD2    C112819   2.160   3.981  16.170  0.3380 -0.2796 -0.5295
  874MPD2    C212820   2.299   3.985  16.197 -0.4804  0.2487  0.3569
  874MPD2    C312821   2.397   4.017  16.107  0.0792 -0.1836 -0.2072
  874MPD2    C412822   2.362   4.047  15.977  0.3627 -0.1370 -0.4681
  874MPD2    C512823   2.227   4.051  15.944  0.3970 -0.7241 -0.7868
  874MPD2     H12824   2.344   3.955  16.291  0.5246  0.0934 -0.1696
  874MPD2    H112825   2.441   4.085  15.913  2.5507 -1.6512  1.3392
  874MPD2    H212826   2.029   4.004  16.015 -0.2229  2.6124 -0.7475
  874MPD2    H312827   2.190   4.089  15.849 -2.1681  1.4896  1.0939
  874MPD2     N12828   2.527   4.023  16.158  0.2547 -0.2719  0.3291
  874MPD2    H512829   2.537   4.016  16.258 -0.2680 -0.7420  0.3508
  874MPD2    N112830   2.063   3.931  16.249 -0.2559 -0.2629  0.2646
  874MPD2    H712831   1.973   3.911  16.206 -0.3298  1.9362 -0.6048
  875MPD2     C12832   3.522   2.507  14.515 -0.5622 -0.3665  0.4913
  875MPD2    C112833   3.400   2.507  14.576  0.1701 -0.5716 -0.0117
  875MPD2    C212834   3.380   2.582  14.687  0.0335  0.1113 -0.5417
  875MPD2    C312835   3.481   2.655  14.742 -0.2490  0.2986 -1.3228
  875MPD2    C412836   3.603   2.654  14.680  0.1339  0.1585  0.1334
  875MPD2    C512837   3.624   2.583  14.562 -0.0767  0.6279 -0.5256
  875MPD2     H12838   3.282   2.576  14.734  1.2164  0.4838  1.9688
  875MPD2    H112839   3.684   2.708  14.727 -1.3498  0.5478  2.2602
  875MPD2    H212840   3.531   2.441  14.429  1.4766  2.9624 -1.8581
  875MPD2    H312841   3.724   2.575  14.522 -0.5526 -3.4636 -0.9311
  875MPD2     N12842   3.472   2.727  14.859  0.0207  0.7678  0.4565
  875MPD2    H512843   3.559   2.758  14.903  1.4307 -2.3016 -0.1696
  875MPD2    N112844   3.281   2.446  14.525 -0.4591  0.0651  0.1310
  875MPD2    H712845   3.197   2.474  14.574  0.2779  2.3875  0.0579
  876MPD2     C12846   2.085   3.759  15.804 -0.0995  0.1836 -0.8061
  876MPD2    C112847   2.202   3.699  15.755  0.0247  0.1206 -0.0427
  876MPD2    C212848   2.241   3.567  15.784  0.1657 -0.5619 -0.4985
  876MPD2    C312849   2.164   3.503  15.879  0.2940  0.3876  0.3699
  876MPD2    C412850   2.043   3.557  15.920 -0.6490 -0.4951  0.5019
  876MPD2    C512851   2.012   3.693  15.896  1.3609 -0.8216  0.3268
  876MPD2     H12852   2.335   3.521  15.753  1.5092  0.7594  1.6026
  876MPD2    H112853   1.973   3.498  15.977 -2.6584  0.7371 -0.6651
  876MPD2    H212854   2.059   3.861  15.780  1.9513  0.5967 -1.2682
  876MPD2    H312855   1.932   3.741  15.951  0.5286 -0.5389 -1.1348
  876MPD2     N12856   2.189   3.367  15.922 -0.7567 -0.0582  0.4945
  876MPD2    H512857   2.269   3.317  15.884 -1.3032 -1.9468  1.8291
  876MPD2    N112858   2.272   3.786  15.664  0.2969 -0.4358 -1.2055
  876MPD2    H712859   2.239   3.876  15.632 -0.8994 -0.0376  1.1225
  877MPD2     C12860   2.253   4.152  15.001 -0.0318 -0.8228  0.5730
  877MPD2    C112861   2.384   4.105  15.017  0.2727 -0.3331  0.0454
  877MPD2    C212862   2.460   4.075  14.912 -0.0278 -0.3690 -0.5128
  877MPD2    C312863   2.411   4.099  14.788  0.6435  0.1298 -0.6778
  877MPD2    C412864   2.289   4.164  14.772 -0.5306  0.6858  0.0603
  877MPD2    C512865   2.214   4.193  14.877  0.2001  0.3438 -0.0640
  877MPD2     H12866   2.555   4.029  14.936 -0.2569 -1.3048 -1.3833
  877MPD2    H112867   2.243   4.182  14.675 -1.2866 -2.3381 -0.1391
  877MPD2    H212868   2.182   4.164  15.082  1.9063 -0.1766  2.1848
  877MPD2    H312869   2.109   4.220  14.865  0.0889  0.0223  0.1881
  877MPD2     N12870   2.482   4.061  14.674  0.9573 -0.4025  0.1281
  877MPD2    H512871   2.428   4.048  14.589 -1.1226 -0.1501  1.4020
  877MPD2    N112872   2.435   4.068  15.140 -0.0406 -0.4388 -0.0779
  877MPD2    H712873   2.524   4.020  15.148 -0.0685  0.0331  2.9480
  878MPD2     C12874   1.408   3.607  13.823 -0.2856  0.2625  0.0464
  878MPD2    C112875   1.539   3.607  13.800 -0.0145 -0.2033  0.0854
  878MPD2    C212876   1.626   3.604  13.908 -0.3441 -0.7403 -0.3920
  878MPD2    C312877   1.570   3.590  14.039 -0.3640  0.5348  0.1875
  878MPD2    C412878   1.432   3.567  14.052  0.1112  0.1420  0.4734
  878MPD2    C512879   1.353   3.592  13.944 -0.1648  0.0899  0.2073
  878MPD2     H12880   1.728   3.612  13.871  0.3386 -1.8687  1.2300
  878MPD2    H112881   1.377   3.557  14.146 -0.5514  1.7890  0.2552
  878MPD2    H212882   1.338   3.625  13.742  1.1239  0.7001 -1.0655
  878MPD2    H312883   1.246   3.609  13.944  0.0010  1.1641 -1.0994
  878MPD2     N12884   1.657   3.605  14.148  0.1069 -0.4841 -0.0414
  878MPD2    H512885   1.744   3.653  14.126 -0.9522  1.5435  0.1939
  878MPD2    N112886   1.573   3.624  13.662 -0.0914 -0.1547  0.0395
  878MPD2    H712887   1.498   3.619  13.594  0.8214  0.2043 -0.9907
  879MPD2     C12888   2.790   4.185  17.351 -0.0416  0.9167  0.2649
  879MPD2    C112889   2.705   4.085  17.384  0.1807  0.2689 -0.1184
  879MPD2    C212890   2.576   4.087  17.349  0.2474 -0.5366 -0.1018
  879MPD2    C312891   2.527   4.188  17.268  0.6501  0.8247  0.0052
  879MPD2    C412892   2.614   4.288  17.234  0.3655 -0.3596 -0.5491
  879MPD2    C512893   2.741   4.289  17.279 -0.2829  0.8021 -0.3342
  879MPD2     H12894   2.508   4.009  17.381  0.8788 -1.2101 -0.4228
  879MPD2    H112895   2.570   4.369  17.176 -0.3486 -1.5440 -1.6597
  879MPD2    H212896   2.887   4.188  17.400  0.9192  0.8579 -1.6364
  879MPD2    H312897   2.814   4.364  17.250 -0.6030  0.2285 -2.5930
  879MPD2     N12898   2.392   4.199  17.226  0.8105 -0.1643  0.6423
  879MPD2    H512899   2.356   4.279  17.174  0.5455 -1.0198 -0.4740
  879MPD2    N112900   2.766   3.988  17.465  0.1356  0.3294  0.8111
  879MPD2    H712901   2.863   4.000  17.492  0.3866 -1.1518  0.5783
  880MPD2     C12902   2.963   1.641   0.605 -0.0778  0.3473  0.3351
  880MPD2    C112903   3.058   1.626   0.508 -0.9806 -0.0710 -0.0843
  880MPD2    C212904   3.153   1.519   0.510  0.8002 -0.2301  0.6252
  880MPD2    C312905   3.146   1.425   0.613 -0.3849 -0.7296  0.5242
  880MPD2    C412906   3.042   1.439   0.710 -0.2920 -0.4297 -0.1851
  880MPD2    C512907   2.956   1.546   0.710 -0.2339 -0.5415  0.6450
  880MPD2     H12908   3.224   1.506   0.430 -2.6712 -0.5906 -2.3930
  880MPD2    H112909   3.041   1.365   0.789 -1.5471  0.9952  1.1355
  880MPD2    H212910   2.893   1.724   0.604  0.2316  0.5737 -1.4853
  880MPD2    H312911   2.880   1.561   0.786  0.4723  2.0784  0.8238
  880MPD2     N12912   3.234   1.311   0.615  0.1108  0.8281  0.7395
  880MPD2    H512913   3.305   1.304   0.543  0.1649  3.5695  0.5165
  880MPD2    N112914   3.062   1.736   0.412  0.6997 -0.6449  0.2640
  880MPD2    H712915   3.005   1.817   0.435  1.5966 -0.6657  2.5987
  881MPD2     C12916   3.458   1.819  17.199  0.2490 -0.4046 -0.2131
  881MPD2    C112917   3.481   1.947  17.249 -0.0743 -0.4003 -0.7840
  881MPD2    C212918   3.421   1.976  17.371  0.0499  0.4071  1.1300
  881MPD2    C312919   3.370   1.876  17.455 -0.5275 -0.1681  0.0285
  881MPD2    C412920   3.363   1.752  17.412  0.4194 -0.3707  0.1718
  881MPD2    C512921   3.402   1.724  17.281  0.1315  0.0525 -0.3476
  881MPD2     H12922   3.438   2.074  17.414 -1.5227  0.7145  1.0470
  881MPD2    H112923   3.326   1.673  17.476  1.4925  0.1188  1.3801
  881MPD2    H212924   3.477   1.804  17.093  0.0807 -0.7426 -0.1960
  881MPD2    H312925   3.392   1.621  17.250 -0.2452 -0.1399  0.4025
  881MPD2     N12926   3.319   1.906  17.586 -0.1789 -0.3469  0.4951
  881MPD2    H512927   3.282   1.826  17.637 -0.8496 -0.2499  0.1575
  881MPD2    N112928   3.535   2.043  17.157 -0.0208  0.2659 -0.1626
  881MPD2    H712929   3.583   2.000  17.079  0.3344  0.7843 -0.2315
  882MPD2     C12930   2.453   3.714  13.926  0.1511  0.7481 -0.1603
  882MPD2    C112931   2.410   3.801  14.016  0.7740  0.3006  0.4735
  882MPD2    C212932   2.299   3.881  13.981  0.3168  0.1561  0.2565
  882MPD2    C312933   2.236   3.866  13.861 -0.1164  0.3853  0.3454
  882MPD2    C412934   2.282   3.771  13.775  0.2229 -0.4933  0.0157
  882MPD2    C512935   2.396   3.698  13.806  0.0701  0.2133 -0.5804
  882MPD2     H12936   2.264   3.952  14.055  1.6410  0.0569  0.9815
  882MPD2    H112937   2.242   3.757  13.676  2.2200  0.2308 -0.9034
  882MPD2    H212938   2.539   3.653  13.954 -0.1275  0.6355  0.4547
  882MPD2    H312939   2.428   3.628  13.730  3.6264  0.0489  1.0824
  882MPD2     N12940   2.127   3.951  13.821 -0.4992 -0.1672  0.3538
  882MPD2    H512941   2.086   3.925  13.732 -0.7713  0.1443  0.3907
  882MPD2    N112942   2.474   3.790  14.144 -0.1070 -0.3914  0.0008
  882MPD2    H712943   2.537   3.711  14.155 -0.9682 -0.8528  1.6769
  883MPD2     C12944   4.298   4.329  16.182 -0.2619  0.0894 -0.5345
  883MPD2    C112945   4.397   4.348  16.088  0.1773 -0.3169 -0.6091
  883MPD2    C212946   4.525   4.322  16.122 -0.6074 -0.7852  0.1087
  883MPD2    C312947   4.557   4.268  16.245 -0.2878 -0.4332  0.7321
  883MPD2    C412948   4.454   4.235  16.332  0.6397 -1.1068  0.0054
  883MPD2    C512949   4.327   4.265  16.305  0.1335 -0.0746  0.4020
  883MPD2     H12950   4.596   4.347  16.043  0.4120  0.9461  1.5787
  883MPD2    H112951   4.476   4.206  16.434 -0.9191 -2.3587 -0.0174
  883MPD2    H212952   4.194   4.354  16.163 -0.3583  0.4079  0.4287
  883MPD2    H312953   4.249   4.250  16.378  1.2242 -1.3720  1.3076
  883MPD2     N12954   4.692   4.251  16.274  0.6618  0.3944  0.0792
  883MPD2    H512955   0.045   4.279  16.209 -0.0667  0.7790 -0.5615
  883MPD2    N112956   4.371   4.377  15.955  0.1638  0.4836 -0.1739
  883MPD2    H712957   4.455   4.375  15.899 -0.2436  1.9915 -0.8585
  884MPD2     C12958   1.484   0.023  15.250 -0.1599 -0.1707  0.4319
  884MPD2    C112959   1.491   0.138  15.171  0.1025  0.7260  0.6442
  884MPD2    C212960   1.375   0.181  15.108  0.5490 -0.1255  0.5997
  884MPD2    C312961   1.254   0.111  15.110  0.1034 -0.4308  0.5073
  884MPD2    C412962   1.256   4.712  15.179 -0.3664  0.1428  0.0129
  884MPD2    C512963   1.372   4.670  15.241 -0.1114 -0.6604  0.0845
  884MPD2     H12964   1.379   0.279  15.062 -1.4917 -0.2780  0.1281
  884MPD2    H112965   1.170   4.646  15.182  0.6187 -1.1497 -0.2324
  884MPD2    H212966   1.563   4.703  15.313 -0.1714  0.2736  0.7317
  884MPD2    H312967   1.370   4.582  15.304  0.2903  0.4158  1.6294
  884MPD2     N12968   1.143   0.170  15.055  0.1830 -0.4420 -0.1030
  884MPD2    H512969   1.155   0.258  15.005 -1.9662 -0.5717 -0.8301
  884MPD2    N112970   1.605   0.228  15.175  0.6925  0.3003  0.5052
  884MPD2    H712971   1.594   0.320  15.133 -1.1632 -0.4796 -0.7121
  885MPD2     C12972   3.916   0.079   0.078  0.8083  0.3850  0.2780
  885MPD2    C112973   3.980   4.699   0.001 -0.3765  0.2012  0.7165
  885MPD2    C212974   3.991   4.714  17.546  0.2765 -0.7810 -0.2059
  885MPD2    C312975   3.963   0.115  17.481  0.4889 -0.5011 -0.5136
  885MPD2    C412976   3.909   0.215  17.561 -0.2302 -0.6929  0.6925
  885MPD2    C512977   3.885   0.193   0.010 -1.1223 -0.1476 -0.2975
  885MPD2     H12978   4.051   4.638  17.497  0.9554 -1.2132  1.3006
  885MPD2    H112979   3.878   0.313  17.527  0.2833 -0.7601  0.0087
  885MPD2    H212980   3.903   0.068   0.185  1.2168 -0.3027  0.2528
  885MPD2    H312981   3.848   0.276   0.069  0.6749  0.3103  0.2024
  885MPD2     N12982   3.983   0.136  17.343  0.2566 -0.6434 -0.1005
  885MPD2    H512983   3.996   0.054  17.285 -2.2565  0.6279 -2.4864
  885MPD2    N112984   4.038   4.594   0.070  0.0927 -0.0285  0.1458
  885MPD2    H712985   4.054   4.606   0.169  0.2647 -2.0471  0.3582
  886MPD2     C12986   0.726   3.820  15.472  0.0749 -0.4521  0.5865
  886MPD2    C112987   0.834   3.733  15.453  0.0529  0.2722  0.3679
  886MPD2    C212988   0.909   3.744  15.339 -0.1443  0.1113  0.6819
  886MPD2    C312989   0.884   3.842  15.247 -0.9526 -0.5715 -0.6472
  886MPD2    C412990   0.771   3.916  15.265 -0.1159  0.3426  0.4228
  886MPD2    C512991   0.686   3.906  15.373  0.1418  0.7063 -0.5271
  886MPD2     H12992   1.003   3.691  15.329 -0.7859 -0.8861  0.0715
  886MPD2    H112993   0.749   3.990  15.188 -3.5725 -2.1297 -1.0016
  886MPD2    H212994   0.655   3.808  15.554 -2.0325 -2.1133 -1.4883
  886MPD2    H312995   0.601   3.971  15.388 -0.1025  0.3489 -0.3715
  886MPD2     N12996   0.948   3.858  15.120  1.0098  1.2988  0.6229
  886MPD2    H512997   0.933   3.944  15.068 -1.0198  0.1953 -0.6076
  886MPD2    N112998   0.867   3.632  15.542  0.1319 -0.6812  0.2240
  886MPD2    H712999   0.940   3.566  15.519  0.7765  0.6679 -1.5267
  887MPD2     C13000   1.353   3.583  16.162 -0.2296 -0.6084 -0.2581
  887MPD2    C113001   1.285   3.655  16.059 -0.4616 -0.0334  0.9724
  887MPD2    C213002   1.355   3.764  16.006 -0.1743  0.2622 -0.7302
  887MPD2    C313003   1.482   3.801  16.044  0.0233  0.1331 -0.1351
  887MPD2    C413004   1.548   3.723  16.137 -0.3420  0.0681  0.0543
  887MPD2    C513005   1.485   3.613  16.196  0.4969 -0.5242 -0.3993
  887MPD2     H13006   1.295   3.839  15.955 -1.2415 -0.1259 -0.0626
  887MPD2    H113007   1.653   3.738  16.159  0.1531 -2.1587 -0.6991
  887MPD2    H213008   1.301   3.512  16.225 -0.5650 -0.3292 -0.2158
  887MPD2    H313009   1.536   3.539  16.257 -1.2495 -1.9388 -0.6651
  887MPD2     N13010   1.539   3.905  15.967  0.4156 -0.8155  0.6048
  887MPD2    H513011   1.477   3.946  15.898 -1.1032 -1.3925  1.6205
  887MPD2    N113012   1.151   3.627  16.021 -0.0409  0.2913 -0.0404
  887MPD2    H713013   1.133   3.689  15.943 -2.7716 -0.0750  0.3157
  888MPD2     C13014   3.578   3.571  14.819 -0.9703  0.0574 -0.4388
  888MPD2    C113015   3.654   3.637  14.920  0.3821  0.6911 -0.2260
  888MPD2    C213016   3.724   3.753  14.891  0.2505 -0.1660  0.0894
  888MPD2    C313017   3.714   3.808  14.764 -0.4337  0.4523  0.9059
  888MPD2    C413018   3.644   3.740  14.657 -0.0059 -0.3237  0.5951
  888MPD2    C513019   3.583   3.620  14.690  0.2615  0.5795 -0.0990
  888MPD2     H13020   3.758   3.806  14.979  0.3663 -0.4014  0.1877
  888MPD2    H113021   3.646   3.773  14.554  2.2653 -0.6278  0.5546
  888MPD2    H213022   3.543   3.470  14.840  2.3395 -1.2865 -1.3913
  888MPD2    H313023   3.537   3.565  14.609  1.7251 -0.5523 -0.1513
  888MPD2     N13024   3.761   3.942  14.761 -0.5852 -0.1795 -0.1290
  888MPD2    H513025   3.808   3.980  14.843 -0.5807 -0.7201  0.1156
  888MPD2    N113026   3.652   3.604  15.055  0.2478 -0.3147 -0.3993
  888MPD2    H713027   3.709   3.660  15.118 -0.6983 -0.2225  0.3735
  889MPD2     C13028   2.381   3.208  12.490  0.2027  0.4035 -0.5271
  889MPD2    C113029   2.485   3.201  12.578  0.4058  0.0365 -0.0528
  889MPD2    C213030   2.506   3.306  12.663 -0.0083 -0.5340  0.2263
  889MPD2    C313031   2.439   3.426  12.644 -0.2588  0.9888  0.6841
  889MPD2    C413032   2.352   3.436  12.542 -0.4571 -0.5086  0.1797
  889MPD2    C513033   2.323   3.328  12.466 -0.2160 -0.1804 -0.0648
  889MPD2     H13034   2.585   3.304  12.737  1.1247 -1.9639 -1.0221
  889MPD2    H113035   2.296   3.528  12.530  1.4217  0.5827 -0.2681
  889MPD2    H213036   2.362   3.121  12.428 -0.2474 -0.2740  0.5702
  889MPD2    H313037   2.247   3.338  12.390  0.4338 -3.0558 -1.0912
  889MPD2     N13038   2.480   3.538  12.718  0.1287 -0.1915  0.3418
  889MPD2    H513039   2.537   3.519  12.800 -0.5941  0.6511  1.0237
  889MPD2    N113040   2.555   3.080  12.602  0.3139 -0.0892 -0.8119
  889MPD2    H713041   2.630   3.077  12.671  1.7791  1.4231 -2.3312
  890MPD2     C13042   2.191   0.361  14.749 -0.0129  0.4923 -0.4635
  890MPD2    C113043   2.331   0.367  14.745 -0.5607 -0.2858 -0.2848
  890MPD2    C213044   2.392   0.294  14.845 -0.2040  0.4117  0.6366
  890MPD2    C313045   2.321   0.228  14.946  0.1114  0.4101  0.6378
  890MPD2    C413046   2.187   0.221  14.945 -0.8296 -0.2762 -0.0985
  890MPD2    C513047   2.121   0.293  14.844  0.1493 -0.6883  0.1283
  890MPD2     H13048   2.500   0.295  14.846 -0.2089  2.1245 -0.5139
  890MPD2    H113049   2.124   0.173  15.019 -0.4991 -2.8810 -1.5001
  890MPD2    H213050   2.137   0.420  14.677  0.4513  0.0919 -1.1359
  890MPD2    H313051   2.013   0.292  14.843  0.1440  1.4713 -1.3690
  890MPD2     N13052   2.404   0.175  15.052 -0.8688  0.4969 -0.0435
  890MPD2    H513053   2.505   0.186  15.044 -0.7009 -0.6130  0.5326
  890MPD2    N113054   2.400   0.452  14.653  0.5845  0.1693 -0.2806
  890MPD2    H713055   2.347   0.487  14.573  0.4416  0.0469 -0.2399
  891MPD2     C13056   0.280   3.567  16.247 -0.2928  0.8389 -0.2014
  891MPD2    C113057   0.195   3.548  16.352  0.7393  0.5101 -0.5823
  891MPD2    C213058   0.254   3.507  16.468  0.1573 -0.2993 -0.2203
  891MPD2    C313059   0.393   3.510  16.490 -0.3247 -0.0979  0.2619
  891MPD2    C413060   0.472   3.531  16.380  0.0953  1.0168 -0.7002
  891MPD2    C513061   0.414   3.550  16.257 -0.8330 -0.0284 -0.0803
  891MPD2     H13062   0.190   3.506  16.556 -0.9284  0.7303 -0.9965
  891MPD2    H113063   0.579   3.518  16.371 -0.0052  0.4821 -1.0546
  891MPD2    H213064   0.239   3.588  16.149 -3.5420 -4.1730  0.0720
  891MPD2    H313065   0.477   3.547  16.169 -0.4307  1.7722  0.1283
  891MPD2     N13066   0.451   3.478  16.611 -0.1924  0.9473 -0.1519
  891MPD2    H513067   0.382   3.446  16.678 -1.5404  2.8362 -0.6548
  891MPD2    N113068   0.061   3.562  16.328 -0.3901 -0.8273 -0.3145
  891MPD2    H713069   0.036   3.576  16.231  0.2029  0.3662 -0.2969
  892MPD2     C13070   1.564   4.252  14.514 -0.6156 -0.4788  0.0286
  892MPD2    C113071   1.488   4.265  14.402 -0.7051  0.3983  0.3263
  892MPD2    C213072   1.548   4.270  14.279 -0.2039 -0.3690  0.4343
  892MPD2    C313073   1.679   4.265  14.264 -0.2532 -0.4413  0.1995
  892MPD2    C413074   1.758   4.244  14.374  0.3303  0.4695 -0.0205
  892MPD2    C513075   1.701   4.241  14.501 -0.4063  0.3067 -0.0654
  892MPD2     H13076   1.490   4.280  14.188  1.0559  0.3466 -0.2897
  892MPD2    H113077   1.866   4.234  14.371  0.4636  1.3482  1.8047
  892MPD2    H213078   1.516   4.254  14.611  0.3413 -0.2940  0.4889
  892MPD2    H313079   1.755   4.232  14.594 -2.0832 -0.8509  0.8154
  892MPD2     N13080   1.741   4.252  14.138 -0.6686  0.3634  0.2596
  892MPD2    H513081   1.832   4.208  14.149  0.3014  1.6932 -2.5721
  892MPD2    N113082   1.348   4.274  14.402  0.3574  0.9336 -0.2924
  892MPD2    H713083   1.299   4.286  14.314  0.6328 -0.0121 -0.5766
  893MPD2     C13084   1.836   2.544   0.851 -0.2132  0.5536 -0.3656
  893MPD2    C113085   1.869   2.509   0.982  0.4927 -0.4508  0.1877
  893MPD2    C213086   1.773   2.452   1.068  0.2821  0.2638  0.6317
  893MPD2    C313087   1.652   2.424   1.017 -0.2827  0.2209  0.5085
  893MPD2    C413088   1.621   2.457   0.885  0.0578  0.2013  0.0831
  893MPD2    C513089   1.709   2.528   0.811 -0.3654  0.3210  0.7717
  893MPD2     H13090   1.796   2.429   1.171  2.0447  1.1154  0.4180
  893MPD2    H113091   1.524   2.441   0.841  1.0768 -0.5392 -1.9151
  893MPD2    H213092   1.905   2.588   0.779 -0.8693  1.1666 -0.6218
  893MPD2    H313093   1.690   2.553   0.707 -0.2331 -1.6680  0.2717
  893MPD2     N13094   1.549   2.378   1.101  0.3679  0.2210  0.9338
  893MPD2    H513095   1.461   2.357   1.056  0.5863 -0.8327  0.9977
  893MPD2    N113096   1.998   2.537   1.016 -0.2399  0.1300 -0.1687
  893MPD2    H713097   2.047   2.593   0.946  1.5452 -0.1631  0.8683
  894MPD2     C13098   0.374   0.165   1.027  0.0313  0.8157 -0.0568
  894MPD2    C113099   0.417   0.055   1.106 -0.2502  0.6660  0.1272
  894MPD2    C213100   0.553   0.027   1.111  0.4025  0.3890  0.2368
  894MPD2    C313101   0.642   0.089   1.029 -0.5729  0.5899 -0.0476
  894MPD2    C413102   0.599   0.194   0.951  0.3929  0.4124  0.2214
  894MPD2    C513103   0.470   0.238   0.967  0.6746  0.2013  0.1034
  894MPD2     H13104   0.585   4.678   1.189  0.5633 -1.0518 -1.1252
  894MPD2    H113105   0.661   0.253   0.883  1.4437 -1.6151 -0.5614
  894MPD2    H213106   0.271   0.195   1.015 -0.2366  0.1533  0.5831
  894MPD2    H313107   0.429   0.319   0.908  2.8139  0.7776 -0.5921
  894MPD2     N13108   0.776   0.048   1.046  0.3582 -0.5728 -0.5672
  894MPD2    H513109   0.787   4.677   1.089  0.6925  0.0079  0.5662
  894MPD2    N113110   0.321   4.702   1.178 -0.0515 -0.5381 -0.5099
  894MPD2    H713111   0.363   4.617   1.214 -0.0492  0.2432  1.3035
  895MPD2     C13112   0.093   3.573  13.383  0.0387  0.0343 -0.0292
  895MPD2    C113113   0.002   3.477  13.333 -0.4639 -0.8167 -0.1548
  895MPD2    C213114   0.046   3.346  13.320  0.0089  0.4346 -0.1363
  895MPD2    C313115   0.172   3.316  13.369  0.1088  0.0243 -0.1985
  895MPD2    C413116   0.261   3.416  13.414 -0.4390 -0.4206  0.1097
  895MPD2    C513117   0.230   3.545  13.397  0.2401 -0.0914  0.2675
  895MPD2     H13118   4.681   3.281  13.301  0.3207 -0.0620  0.1864
  895MPD2    H113119   0.356   3.388  13.458 -1.2027  0.3915  2.2262
  895MPD2    H213120   0.060   3.676  13.391 -1.7694 -0.5540  0.1454
  895MPD2    H313121   0.301   3.620  13.428  0.9681 -0.0147 -1.5869
  895MPD2     N13122   0.198   3.182  13.361 -0.0146 -0.3544  0.1374
  895MPD2    H513123   0.126   3.130  13.312 -0.4709  2.2300 -1.9090
  895MPD2    N113124   4.598   3.504  13.285 -0.3623  0.3616  1.0563
  895MPD2    H713125   4.549   3.420  13.257  2.7474 -2.1742  3.2659
  896MPD2     C13126   2.338   0.444   1.174  0.2292 -0.1582  0.2667
  896MPD2    C113127   2.215   0.497   1.140 -0.3584 -0.2002  0.5557
  896MPD2    C213128   2.102   0.425   1.166  0.5763  0.5128 -0.6958
  896MPD2    C313129   2.112   0.296   1.218 -0.0378 -0.5768 -0.1872
  896MPD2    C413130   2.237   0.247   1.256  0.0897  0.1024  0.8105
  896MPD2    C513131   2.348   0.320   1.225  0.0674 -0.2554  0.5017
  896MPD2     H13132   2.002   0.465   1.155  0.7372  1.3836  1.0243
  896MPD2    H113133   2.248   0.155   1.311  0.8186 -0.2699  0.0261
  896MPD2    H213134   2.435   0.490   1.155 -0.4286  1.1185 -0.0151
  896MPD2    H313135   2.447   0.281   1.244  1.7890  3.4341 -0.8855
  896MPD2     N13136   1.999   0.230   1.255  0.0450 -0.1208  0.3774
  896MPD2    H513137   1.909   0.271   1.231 -0.6153 -0.5946  1.9744
  896MPD2    N113138   2.218   0.623   1.074  0.4149  0.0634 -0.1586
  896MPD2    H713139   2.308   0.651   1.037 -0.2423  0.8239 -1.1728
  897MPD2     C13140   4.133   2.370  10.038  0.2260  0.0971  0.2664
  897MPD2    C113141   4.095   2.499  10.074  0.4920 -1.0497 -0.2755
  897MPD2    C213142   4.069   2.526  10.206  0.8037  0.4818 -0.5537
  897MPD2    C313143   4.107   2.436  10.304  0.5040 -0.2860  0.2735
  897MPD2    C413144   4.150   2.311  10.264  0.2919 -0.3820 -0.1477
  897MPD2    C513145   4.157   2.276  10.132  0.4069  0.0347 -0.8011
  897MPD2     H13146   4.043   2.624  10.244  0.3019  0.4555 -0.8389
  897MPD2    H113147   4.178   2.232  10.333 -2.6912 -1.4904 -0.2058
  897MPD2    H213148   4.151   2.354   9.932 -2.1166 -0.0534 -0.1231
  897MPD2    H313149   4.190   2.180  10.094  1.6336  0.7882 -1.6610
  897MPD2     N13150   4.090   2.470  10.439  0.1325 -0.0352  0.9788
  897MPD2    H513151   4.055   2.564  10.453  1.1044  0.5055 -0.2674
  897MPD2    N113152   4.069   2.595   9.974 -0.0273 -0.1931 -0.3039
  897MPD2    H713153   4.080   2.566   9.877  0.2625 -0.4487 -0.1970
  898MPD2     C13154   0.603   3.191   0.403  0.2309  0.2922  1.0755
  898MPD2    C113155   0.712   3.201   0.314  0.0600  0.5708 -0.2112
  898MPD2    C213156   0.702   3.298   0.212 -0.2407 -0.2273 -0.3949
  898MPD2    C313157   0.583   3.382   0.210  0.2926 -0.4121  0.0195
  898MPD2    C413158   0.476   3.354   0.293  0.4410 -0.0380  0.1625
  898MPD2    C513159   0.491   3.259   0.385 -0.3143 -0.4714  0.5662
  898MPD2     H13160   0.768   3.311   0.127 -1.6164  2.6306 -1.0311
  898MPD2    H113161   0.392   3.422   0.299 -0.2750 -0.8367 -0.8927
  898MPD2    H213162   0.605   3.129   0.492 -2.5588 -1.2525  0.0382
  898MPD2    H313163   0.412   3.257   0.459 -1.8801 -2.6614 -1.2099
  898MPD2     N13164   0.573   3.475   0.109  0.1136 -0.4764 -0.2048
  898MPD2    H513165   0.648   3.491   0.043 -0.6261  2.0576 -0.4233
  898MPD2    N113166   0.831   3.127   0.335 -0.7027 -0.5966 -0.1523
  898MPD2    H713167   0.922   3.163   0.310 -0.0434 -2.4094 -0.3656
  899MPD2     C13168   1.777   3.708   0.031 -0.0858 -0.2412  0.1913
  899MPD2    C113169   1.686   3.811   0.052 -0.2263 -0.3081  0.1157
  899MPD2    C213170   1.594   3.820   0.163  0.4083  0.0031 -0.0320
  899MPD2    C313171   1.596   3.711   0.254 -0.6081 -0.4154 -0.7581
  899MPD2    C413172   1.693   3.616   0.233  0.0429  0.8368 -0.1695
  899MPD2    C513173   1.782   3.610   0.124 -0.5965  0.1142 -0.6835
  899MPD2     H13174   1.512   3.890   0.172 -0.5680 -1.1618  0.1897
  899MPD2    H113175   1.692   3.526   0.294 -2.1414  0.3139 -0.9834
  899MPD2    H213176   1.840   3.702  17.627 -1.2740 -1.3061 -0.5803
  899MPD2    H313177   1.845   3.527   0.097 -1.1690 -0.0212 -1.6174
  899MPD2     N13178   1.508   3.695   0.364 -0.0697  0.0518  0.1463
  899MPD2    H513179   1.539   3.633   0.438  1.2409  0.2949 -0.1924
  899MPD2    N113180   1.695   3.922  17.642  0.1237  0.3197  0.8010
  899MPD2    H713181   1.766   3.920  17.570 -0.8262  1.2383 -0.1668
  900MPD2     C13182   1.845   1.555  12.339  0.4908  0.5959  0.0050
  900MPD2    C113183   1.749   1.459  12.373  0.2805 -0.3240 -0.3971
  900MPD2    C213184   1.616   1.488  12.345  0.2972 -0.3587 -0.4306
  900MPD2    C313185   1.582   1.619  12.310  0.4237  1.0660 -0.0225
  900MPD2    C413186   1.683   1.711  12.303  0.3967 -0.0955 -0.4322
  900MPD2    C513187   1.812   1.681  12.314 -0.5771  0.3082  0.7636
  900MPD2     H13188   1.536   1.415  12.353 -0.5668  0.6714  0.3223
  900MPD2    H113189   1.659   1.813  12.275 -2.6605 -1.0251 -1.1788
  900MPD2    H213190   1.952   1.537  12.345  0.1801 -0.1989  3.5398
  900MPD2    H313191   1.884   1.758  12.289  0.7114 -1.0756  0.2033
  900MPD2     N13192   1.445   1.647  12.283 -0.0798 -0.2883  0.0213
  900MPD2    H513193   1.381   1.568  12.285 -0.0604 -0.2562  1.8241
  900MPD2    N113194   1.801   1.332  12.409 -0.2227  0.0665  0.1136
  900MPD2    H713195   1.901   1.321  12.418 -0.1165  1.8892  1.0154
  901MPD2     C13196   1.563   0.274  12.361  0.2829 -0.2773  0.2134
  901MPD2    C113197   1.671   0.279  12.448  0.3031  0.2589 -0.8790
  901MPD2    C213198   1.735   0.400  12.472 -0.7086 -0.0674 -0.2403
  901MPD2    C313199   1.674   0.521  12.441 -0.2912 -0.1002  0.0702
  901MPD2    C413200   1.546   0.511  12.383 -0.4532 -0.0026  0.0163
  901MPD2    C513201   1.502   0.392  12.333  0.3203  0.3245 -0.4159
  901MPD2     H13202   1.828   0.392  12.527  0.5919  0.9159 -2.3223
  901MPD2    H113203   1.486   0.599  12.362  1.5162  1.3731  0.1717
  901MPD2    H213204   1.524   0.180  12.324  2.5448 -1.0947 -0.0532
  901MPD2    H313205   1.406   0.383  12.284 -0.3570  3.7119  0.3123
  901MPD2     N13206   1.739   0.640  12.464 -0.5925  0.5215  0.2971
  901MPD2    H513207   1.827   0.634  12.514 -0.1732 -0.7428 -0.5918
  901MPD2    N113208   1.719   0.158  12.496 -0.4730  0.2037  0.2038
  901MPD2    H713209   1.667   0.075  12.472  0.4145  0.5559 -2.8301
  902MPD2     C13210   0.198   3.813  12.456 -0.8278 -0.1241 -0.6973
  902MPD2    C113211   0.283   3.867  12.366  0.0189 -0.6938  0.5752
  902MPD2    C213212   0.358   3.785  12.287  0.1132  0.7149  0.4499
  902MPD2    C313213   0.360   3.651  12.308  1.4454 -0.3888 -0.3057
  902MPD2    C413214   0.292   3.599  12.414  0.2751 -0.2064  0.0296
  902MPD2    C513215   0.202   3.682  12.481 -0.8739 -0.8767 -0.9839
  902MPD2     H13216   0.421   3.825  12.209 -0.6960 -0.5201 -0.8199
  902MPD2    H113217   0.282   3.493  12.434  1.1161 -0.6586 -1.9394
  902MPD2    H213218   0.136   3.876  12.519  0.1674 -0.0996  0.2700
  902MPD2    H313219   0.141   3.633  12.556 -0.5086 -0.3261 -0.3323
  902MPD2     N13220   0.423   3.559  12.222 -0.0119 -0.3628 -0.2698
  902MPD2    H513221   0.431   3.462  12.252  1.3459  0.5732  2.4241
  902MPD2    N113222   0.279   4.011  12.358  0.4101  0.1973 -1.2389
  902MPD2    H713223   0.229   4.063  12.429  0.3679 -0.5676 -0.7162
  903MPD2     C13224   0.550   3.553  11.389 -0.6378 -0.2187  0.1677
  903MPD2    C113225   0.447   3.559  11.482  0.3694 -0.3548  0.9650
  903MPD2    C213226   0.322   3.590  11.439 -0.6332  0.2194  0.0750
  903MPD2    C313227   0.293   3.631  11.308  0.2514  0.9102 -0.2254
  903MPD2    C413228   0.395   3.647  11.228 -0.4339  0.3416 -0.0076
  903MPD2    C513229   0.523   3.604  11.268  0.2667 -0.7181 -0.7157
  903MPD2     H13230   0.236   3.592  11.504  1.2338 -2.5387  2.6433
  903MPD2    H113231   0.385   3.693  11.130  2.0172  1.6346  0.3321
  903MPD2    H213232   0.651   3.517  11.409  0.0719 -0.1901 -3.3614
  903MPD2    H313233   0.603   3.608  11.194  1.0421 -3.1399 -0.0088
  903MPD2     N13234   0.158   3.653  11.275 -0.0676  0.6485 -0.2353
  903MPD2    H513235   0.087   3.610  11.334  0.0596 -0.5372 -0.9447
  903MPD2    N113236   0.465   3.516  11.617 -0.1429  0.3317  0.0632
  903MPD2    H713237   0.384   3.510  11.678  0.3250 -0.0788  0.6386
  904MPD2     C13238   4.706   3.078  14.161 -0.1782  0.1924 -0.3197
  904MPD2    C113239   0.064   3.187  14.118 -0.1570 -0.1537  0.4528
  904MPD2    C213240   0.201   3.181  14.113 -1.2037 -0.2935 -0.1158
  904MPD2    C313241   0.265   3.072  14.168  0.0712  0.4558  0.5666
  904MPD2    C413242   0.189   2.965  14.219 -0.2633 -0.0664 -1.0071
  904MPD2    C513243   0.050   2.970  14.223 -0.4450 -0.3846  0.0662
  904MPD2     H13244   0.262   3.261  14.073  0.2406 -0.7531  1.1459
  904MPD2    H113245   0.233   2.881  14.271  1.4534  1.6249  0.2573
  904MPD2    H213246   4.598   3.083  14.160 -0.0919  1.7088 -2.1983
  904MPD2    H313247   4.711   2.890  14.266  0.1971 -1.1211 -0.4137
  904MPD2     N13248   0.410   3.076  14.171 -0.3233 -0.0411  0.0981
  904MPD2    H513249   0.465   3.156  14.144 -1.2525  0.4927 -0.1896
  904MPD2    N113250   4.717   3.290  14.049  0.3820  0.0611 -0.3076
  904MPD2    H713251   0.058   3.357  14.004 -2.2561  3.4259  1.1182
  905MPD2     C13252   4.316   2.955  13.636 -0.1541  0.6923  0.3959
  905MPD2    C113253   4.409   3.050  13.598  0.0901  0.3632 -0.4237
  905MPD2    C213254   4.511   3.004  13.517  0.0189  0.2713 -0.5469
  905MPD2    C313255   4.510   2.882  13.451  0.2960 -0.5958  0.2574
  905MPD2    C413256   4.402   2.795  13.484 -0.0194  0.3377  0.0442
  905MPD2    C513257   4.307   2.837  13.574 -0.2596  0.3015 -0.3150
  905MPD2     H13258   4.579   3.084  13.491  0.0249  0.4974  0.1747
  905MPD2    H113259   4.387   2.697  13.440  0.5583 -0.8451  2.4803
  905MPD2    H213260   4.240   2.975  13.711 -0.1054  1.7075  0.1803
  905MPD2    H313261   4.212   2.790  13.596 -1.7544  1.0812 -5.2422
  905MPD2     N13262   4.610   2.837  13.362  0.1837 -0.2666 -0.1946
  905MPD2    H513263   4.625   2.737  13.361  0.0021 -0.3108  0.8315
  905MPD2    N113264   4.396   3.173  13.662  0.2966  0.2970  0.3548
  905MPD2    H713265   4.326   3.189  13.733 -0.0788  0.6125 -0.0885
  906MPD2     C13266   2.772   2.696  11.447  0.4471  0.6372  0.0028
  906MPD2    C113267   2.680   2.685  11.340 -0.7532 -0.3726 -0.2349
  906MPD2    C213268   2.546   2.698  11.367  0.0942 -0.2723 -0.4148
  906MPD2    C313269   2.501   2.746  11.492  0.2843 -0.1150  0.2665
  906MPD2    C413270   2.596   2.771  11.587 -0.7013 -0.6241  0.4672
  906MPD2    C513271   2.733   2.751  11.567 -0.0695  0.2948 -0.4049
  906MPD2     H13272   2.480   2.655  11.293 -0.2629 -2.2050  1.0109
  906MPD2    H113273   2.563   2.787  11.690 -0.8046 -0.2616  0.3768
  906MPD2    H213274   2.878   2.672  11.439  0.5700  0.2187  3.0870
  906MPD2    H313275   2.804   2.770  11.647 -0.0257 -0.6610 -0.2167
  906MPD2     N13276   2.368   2.761  11.528 -0.6903 -0.0795  0.1085
  906MPD2    H513277   2.346   2.777  11.626  1.1447 -0.4559  0.5803
  906MPD2    N113278   2.712   2.648  11.207  0.4530  0.2339  0.4850
  906MPD2    H713279   2.635   2.619  11.148  0.9400  0.9544 -0.5229
  907MPD2     C13280   1.528   1.989  14.327 -0.0122  0.9547  0.3965
  907MPD2    C113281   1.501   1.906  14.437 -0.0024 -0.3049 -0.2369
  907MPD2    C213282   1.603   1.883  14.525 -0.4954  0.1260  0.2418
  907MPD2    C313283   1.718   1.946  14.515 -0.0968 -0.1231  0.1128
  907MPD2    C413284   1.747   2.019  14.406  0.3071 -0.0222 -0.3353
  907MPD2    C513285   1.658   2.036  14.307  0.2297  0.6882 -0.5168
  907MPD2     H13286   1.582   1.824  14.613  0.4292 -0.2199  0.2333
  907MPD2    H113287   1.845   2.063  14.392  0.6776 -0.4961  0.7410
  907MPD2    H213288   1.452   2.016  14.255 -0.6330  0.9482  1.0428
  907MPD2    H313289   1.682   2.085  14.213  1.2125  4.1559  1.5889
  907MPD2     N13290   1.810   1.947  14.624 -0.1694 -0.3866  0.4919
  907MPD2    H513291   1.813   1.874  14.694 -0.2556 -1.2193 -0.3646
  907MPD2    N113292   1.372   1.851  14.465  0.8999 -0.7583 -0.1991
  907MPD2    H713293   1.359   1.786  14.542  2.1665 -0.5131  0.2218
  908MPD2     C13294   3.510   2.266   9.450 -0.1712 -0.4454  0.3803
  908MPD2    C113295   3.646   2.281   9.431 -0.4223  0.5305  0.5230
  908MPD2    C213296   3.708   2.396   9.474 -0.0813 -0.0756 -0.4583
  908MPD2    C313297   3.646   2.491   9.549 -0.4677  1.2932 -0.1624
  908MPD2    C413298   3.514   2.476   9.573  0.5207  0.0953  0.2091
  908MPD2    C513299   3.444   2.365   9.522 -0.0058  0.5902  0.4309
  908MPD2     H13300   3.812   2.416   9.452  0.1620  1.1667  1.8382
  908MPD2    H113301   3.457   2.545   9.634 -3.3210 -2.0721 -0.8822
  908MPD2    H213302   3.448   2.189   9.407  0.0604  0.2045 -1.1482
  908MPD2    H313303   3.343   2.344   9.556  0.0502 -1.5473 -0.7302
  908MPD2     N13304   3.724   2.587   9.607 -0.6445 -0.4560 -0.1170
  908MPD2    H513305   3.825   2.576   9.607 -0.6495 -0.4747 -0.7571
  908MPD2    N113306   3.727   2.187   9.364  0.4242  0.1662 -0.0494
  908MPD2    H713307   3.825   2.210   9.348  0.1106 -0.1822 -2.4136
  909MPD2     C13308   4.297   0.521  11.982 -0.1121 -0.2492 -0.8805
  909MPD2    C113309   4.258   0.610  11.886 -0.4015 -0.1145 -1.1759
  909MPD2    C213310   4.169   0.706  11.913 -0.4103  0.1653  0.7638
  909MPD2    C313311   4.114   0.714  12.045 -0.0289 -0.4928  0.2149
  909MPD2    C413312   4.150   0.618  12.137 -0.0198 -0.0711 -0.2990
  909MPD2    C513313   4.240   0.528  12.101 -0.8308  0.8535 -0.1803
  909MPD2     H13314   4.146   0.781  11.838  2.7344  2.6414  2.2451
  909MPD2    H113315   4.115   0.613  12.240 -1.8559  2.0756 -0.8074
  909MPD2    H213316   4.371   0.443  11.968  0.2528 -0.0399 -0.0997
  909MPD2    H313317   4.273   0.454  12.173  0.1257  0.9301 -0.5412
  909MPD2     N13318   4.040   0.829  12.079  0.4302  0.0604  0.6171
  909MPD2    H513319   4.049   0.900  12.008  0.4067 -1.2069 -0.6664
  909MPD2    N113320   4.321   0.613  11.756  0.4652  0.9157 -0.9298
  909MPD2    H713321   4.298   0.691  11.695  0.7202  1.1948 -0.6708
  910MPD2     C13322   0.245   2.765  15.413  0.1085 -0.1212 -0.0053
  910MPD2    C113323   0.351   2.779  15.332 -0.3277  0.0618  1.2136
  910MPD2    C213324   0.346   2.878  15.236  0.0131 -0.7107 -0.3083
  910MPD2    C313325   0.241   2.969  15.228 -0.2785  0.4356  0.2332
  910MPD2    C413326   0.132   2.952  15.314  0.0132 -0.0295 -0.4998
  910MPD2    C513327   0.129   2.840  15.399  0.1918  0.0209  0.3465
  910MPD2     H13328   0.425   2.886  15.163 -1.0090  1.8452 -1.1431
  910MPD2    H113329   0.044   3.015  15.304 -0.9137 -1.2670 -0.1027
  910MPD2    H213330   0.230   2.680  15.479 -1.0139 -0.4001 -0.6174
  910MPD2    H313331   0.044   2.806  15.456 -0.0962 -1.5992 -1.0496
  910MPD2     N13332   0.238   3.078  15.139  0.4531  0.2688  0.1340
  910MPD2    H513333   0.168   3.152  15.144  0.4293  0.3986 -1.8983
  910MPD2    N113334   0.470   2.713  15.353  0.3556  0.6934 -0.3991
  910MPD2    H713335   0.535   2.710  15.275  0.6406  1.5385 -0.1866
  911MPD2     C13336   3.090   2.980  16.295  0.6100  0.5421  0.0301
  911MPD2    C113337   3.115   3.112  16.309 -0.0912 -0.2040  0.1325
  911MPD2    C213338   3.017   3.201  16.262 -0.3242  0.0817  0.2833
  911MPD2    C313339   2.901   3.159  16.189 -0.2051  0.3217  0.5585
  911MPD2    C413340   2.884   3.028  16.173 -0.5927  0.3731 -0.1477
  911MPD2    C513341   2.971   2.938  16.228 -0.0397 -0.7885  0.9865
  911MPD2     H13342   3.036   3.307  16.270 -0.6874  0.2753 -1.4863
  911MPD2    H113343   2.791   2.998  16.126  0.0003 -0.2431 -0.9513
  911MPD2    H213344   3.163   2.907  16.327 -0.1775 -0.2180  0.0855
  911MPD2    H313345   2.959   2.831  16.215 -2.0967 -0.4487  0.0007
  911MPD2     N13346   2.806   3.239  16.124 -0.3434 -0.1388  0.7399
  911MPD2    H513347   2.742   3.183  16.068  0.5933  0.5987 -1.0526
  911MPD2    N113348   3.240   3.148  16.348  0.6318  0.0255 -0.0766
  911MPD2    H713349   3.310   3.074  16.355  1.1726  0.3657 -1.9375
  912MPD2     C13350   2.488   3.132  15.416 -0.4034  0.2100 -0.2285
  912MPD2    C113351   2.496   3.132  15.553 -0.5101 -0.3175 -0.1263
  912MPD2    C213352   2.468   3.014  15.613 -0.6509 -0.4612  0.1455
  912MPD2    C313353   2.415   2.909  15.545 -0.4923 -0.2476 -0.1653
  912MPD2    C413354   2.388   2.912  15.412  0.1422 -0.9169 -0.1374
  912MPD2    C513355   2.427   3.027  15.351 -0.6216  0.3267  0.1107
  912MPD2     H13356   2.471   3.013  15.721 -0.9484 -0.4704  0.1541
  912MPD2    H113357   2.358   2.824  15.357  2.0974 -0.8697 -1.2833
  912MPD2    H213358   2.509   3.214  15.349 -1.4057  1.2863  0.7767
  912MPD2    H313359   2.422   3.021  15.243 -1.8361  0.2298  0.1690
  912MPD2     N13360   2.395   2.793  15.630 -0.9608  0.1409  0.2953
  912MPD2    H513361   2.418   2.804  15.729 -0.1688  1.0889  0.0054
  912MPD2    N113362   2.537   3.248  15.620  0.8475 -0.4115  0.6494
  912MPD2    H713363   2.605   3.301  15.566 -1.3894  1.3056 -0.4972
  913MPD2     C13364   4.086   4.274  10.736  0.2892  0.8478  0.8721
  913MPD2    C113365   3.998   4.378  10.747 -0.4500 -0.1056  0.5889
  913MPD2    C213366   3.977   4.457  10.634  0.1155  0.2747  0.2184
  913MPD2    C313367   4.050   4.438  10.522  0.2086 -0.4443  0.2433
  913MPD2    C413368   4.157   4.342  10.523 -0.0449 -0.5414  0.1638
  913MPD2    C513369   4.167   4.262  10.627 -0.2844 -0.2005  0.4203
  913MPD2     H13370   3.913   4.545  10.638 -0.9844 -0.5350  0.4100
  913MPD2    H113371   4.223   4.326  10.439  0.0566  2.4622 -0.3137
  913MPD2    H213372   4.109   4.202  10.813 -2.6377 -0.4085  0.5777
  913MPD2    H313373   4.243   4.184  10.620  0.3276  0.5142 -0.8404
  913MPD2     N13374   4.032   4.512  10.399 -0.4130  0.0789  0.0191
  913MPD2    H513375   4.112   4.504  10.337  0.3368  2.2307  0.7186
  913MPD2    N113376   3.945   4.400  10.874  0.2462  0.0916 -0.2542
  913MPD2    H713377   3.977   4.341  10.950  2.2561 -0.7352 -1.7397
  914MPD2     C13378   1.529   4.320  12.024 -0.4452 -0.0857  0.0935
  914MPD2    C113379   1.579   4.449  12.029  0.1132  0.1091 -0.1510
  914MPD2    C213380   1.658   4.475  12.135  0.6418  0.4492 -0.1537
  914MPD2    C313381   1.668   4.385  12.239  0.2864  0.0912  0.7042
  914MPD2    C413382   1.625   4.256  12.233 -0.3783  0.0041  0.4633
  914MPD2    C513383   1.556   4.225  12.118  0.0224  0.3388 -0.5221
  914MPD2     H13384   1.711   4.569  12.145 -0.1576  0.9239 -0.3842
  914MPD2    H113385   1.624   4.190  12.318  2.9632  0.2123  0.6615
  914MPD2    H213386   1.468   4.285  11.942  1.2191  0.9618 -1.5674
  914MPD2    H313387   1.507   4.129  12.108 -0.5460  0.7907 -2.0121
  914MPD2     N13388   1.744   4.436  12.350  0.3590  0.5702 -0.5090
  914MPD2    H513389   1.773   4.533  12.350  0.3308  0.5841 -1.8729
  914MPD2    N113390   1.552   4.539  11.930  0.2018 -0.4700 -0.1336
  914MPD2    H713391   1.504   4.500  11.850  1.9187  0.3154 -1.5629
  915MPD2     C13392   0.219   0.270  16.060 -0.0224  0.0070 -0.6151
  915MPD2    C113393   0.098   0.294  15.997  0.8581  0.3506 -0.4428
  915MPD2    C213394   4.710   0.302  16.086  0.3022  0.0160 -0.4729
  915MPD2    C313395   4.716   0.284  16.223  0.1024  0.8523  0.6832
  915MPD2    C413396   0.119   0.266  16.272  0.3502 -1.0825 -0.3743
  915MPD2    C513397   0.229   0.252  16.197 -0.0368  0.7381 -0.4054
  915MPD2     H13398   4.611   0.330  16.054  0.5411  0.2961 -0.9659
  915MPD2    H113399   0.137   0.238  16.375 -1.7265  0.0124  0.2934
  915MPD2    H213400   0.315   0.276  16.012 -0.3138  1.7793 -0.9662
  915MPD2    H313401   0.318   0.222  16.249 -0.2849  3.0095  1.3288
  915MPD2     N13402   4.597   0.281  16.303  0.7664  0.0249 -0.4801
  915MPD2    H513403   4.515   0.317  16.255 -0.5431  0.8506  2.4046
  915MPD2    N113404   0.084   0.332  15.860  0.5369  0.2573  0.5134
  915MPD2    H713405   0.171   0.337  15.807  0.3177 -1.8560 -0.0205
  916MPD2     C13406   1.970   2.984  15.455 -0.1111  0.5644 -0.4373
  916MPD2    C113407   2.033   2.905  15.549 -0.2962 -0.6711  0.5928
  916MPD2    C213408   2.070   2.776  15.504 -0.3487 -0.5701  0.0765
  916MPD2    C313409   2.070   2.736  15.371  0.2751 -0.4984  0.3057
  916MPD2    C413410   2.005   2.812  15.283  0.4945  0.1235  0.5652
  916MPD2    C513411   1.958   2.938  15.326  0.3593 -0.2543 -0.6232
  916MPD2     H13412   2.111   2.703  15.573  0.2064 -1.6504 -1.3943
  916MPD2    H113413   1.984   2.784  15.180 -2.4716  1.0326  0.9247
  916MPD2    H213414   1.934   3.084  15.474  2.3438  1.0668  1.5242
  916MPD2    H313415   1.919   2.997  15.244  1.0572  0.2375 -0.6014
  916MPD2     N13416   2.122   2.612  15.339  0.2023 -0.1988  0.3933
  916MPD2    H513417   2.138   2.555  15.421  0.0221 -1.7740 -0.6528
  916MPD2    N113418   2.060   2.959  15.676 -0.5205 -0.7611  1.2847
  916MPD2    H713419   2.051   3.060  15.677  0.7647 -0.6352 -0.4244
  917MPD2     C13420   3.272   0.449  11.003  0.2364  0.2612  0.3451
  917MPD2    C113421   3.253   0.574  11.053  0.2767  0.4162 -0.2597
  917MPD2    C213422   3.357   0.671  11.028  0.3231 -0.6334 -0.4834
  917MPD2    C313423   3.467   0.645  10.956  0.3890 -0.5475 -0.4107
  917MPD2    C413424   3.476   0.514  10.916 -0.8690  0.1997 -0.2786
  917MPD2    C513425   3.384   0.420  10.930  0.6075  0.2553 -0.0995
  917MPD2     H13426   3.331   0.775  11.042 -0.3769 -0.8726 -0.0492
  917MPD2    H113427   3.556   0.483  10.849 -0.0990  1.1138  0.2156
  917MPD2    H213428   3.195   0.372  11.002  0.7675 -0.2477 -1.0056
  917MPD2    H313429   3.395   0.325  10.879  1.5471 -0.1124  0.7892
  917MPD2     N13430   3.567   0.742  10.934 -0.4462 -0.5868 -0.7183
  917MPD2    H513431   3.645   0.712  10.877  0.6328 -1.0470  1.0005
  917MPD2    N113432   3.139   0.606  11.133  0.8909  0.0679  0.6634
  917MPD2    H713433   3.085   0.524  11.159 -0.5622  0.9799  0.4416
  918MPD2     C13434   3.265   0.936  12.037  0.7620 -0.0737  0.1888
  918MPD2    C113435   3.346   0.879  11.937 -0.4854  0.0024 -0.2887
  918MPD2    C213436   3.290   0.856  11.813 -0.5445  0.2917  0.0188
  918MPD2    C313437   3.152   0.882  11.789  0.4680  0.1644 -0.2206
  918MPD2    C413438   3.080   0.948  11.884 -0.3155 -0.0567 -0.0015
  918MPD2    C513439   3.133   0.976  12.006 -0.6489 -0.3499 -0.8751
  918MPD2     H13440   3.355   0.815  11.737 -2.7423 -3.2527  0.0594
  918MPD2    H113441   2.975   0.967  11.865  0.2087  0.3865 -2.4359
  918MPD2    H213442   3.302   0.952  12.138  0.3041  1.4027  0.1149
  918MPD2    H313443   3.070   1.027  12.079  0.9266  2.7258 -1.6420
  918MPD2     N13444   3.101   0.826  11.678  0.4519  0.3673  0.4729
  918MPD2    H513445   3.166   0.774  11.620 -0.0891 -0.4010  0.5570
  918MPD2    N113446   3.474   0.824  11.962  0.5152  0.1709  0.4765
  918MPD2    H713447   3.520   0.772  11.887 -2.9820 -0.0842 -1.4616
  919MPD2     C13448   3.486   4.299  11.120 -0.1671 -0.0610  0.3079
  919MPD2    C113449   3.527   4.181  11.056  0.4647  0.0304  0.9943
  919MPD2    C213450   3.592   4.195  10.932  0.3261  0.6513  0.1409
  919MPD2    C313451   3.587   4.321  10.870  0.1058 -0.2177  0.0983
  919MPD2    C413452   3.537   4.437  10.929 -0.3859 -0.0702  0.0998
  919MPD2    C513453   3.494   4.421  11.063  0.3897 -0.2605 -0.4909
  919MPD2     H13454   3.635   4.107  10.883  1.9539  1.0109  0.9220
  919MPD2    H113455   3.558   4.534  10.885 -0.6704  0.7889  1.8237
  919MPD2    H213456   3.450   4.297  11.223  0.1113  2.1198  0.4516
  919MPD2    H313457   3.465   4.505  11.124  0.1119  0.3975 -1.5285
  919MPD2     N13458   3.628   4.341  10.736 -0.0603 -0.1642  0.5558
  919MPD2    H513459   3.600   4.429  10.694  0.2213 -0.8137 -1.0208
  919MPD2    N113460   3.511   4.049  11.111 -0.1808 -0.4628  0.3371
  919MPD2    H713461   3.545   3.976  11.050 -0.5333 -0.7311  0.4659
  920MPD2     C13462   3.102   4.677   9.977  0.0214 -0.0900 -0.2296
  920MPD2    C113463   3.138   4.553   9.927 -0.2769 -0.2231 -0.4210
  920MPD2    C213464   3.224   4.471  10.000 -0.1327 -0.2366  0.3479
  920MPD2    C313465   3.281   4.513  10.116 -0.5784  1.0610  0.2407
  920MPD2    C413466   3.243   4.640  10.167  0.3575 -0.5806 -0.1172
  920MPD2    C513467   3.155   4.715  10.097  0.5565 -0.5069  0.0120
  920MPD2     H13468   3.256   4.375   9.962  0.5650 -0.6425  1.9766
  920MPD2    H113469   3.275   4.684  10.261 -1.4752  0.7277 -0.1082
  920MPD2    H213470   3.036   0.031   9.934  0.9072  2.0273  2.1048
  920MPD2    H313471   3.114   0.088  10.135  1.0344 -1.5760  3.2057
  920MPD2     N13472   3.368   4.424  10.188 -0.1353  0.2255  0.2356
  920MPD2    H513473   3.397   4.338  10.142 -0.9311 -0.0563  0.2519
  920MPD2    N113474   3.081   4.498   9.815  0.5897 -0.4532 -0.3548
  920MPD2    H713475   3.128   4.414   9.781 -0.5352 -1.2542  0.0802
  921MPD2     C13476   4.180   3.269  16.763 -0.3523 -0.0452  0.1578
  921MPD2    C113477   4.132   3.325  16.646 -1.0890 -1.3283  0.4348
  921MPD2    C213478   3.998   3.320  16.609 -0.0758 -0.6487  0.1451
  921MPD2    C313479   3.911   3.249  16.697  0.0697  0.3513  0.2759
  921MPD2    C413480   3.957   3.183  16.807 -0.4637  0.1112  0.1641
  921MPD2    C513481   4.091   3.197  16.841  0.3849  0.0385  0.2279
  921MPD2     H13482   3.962   3.364  16.516 -1.9844 -0.8309  0.8013
  921MPD2    H113483   3.889   3.130  16.872  0.7066  1.2433  2.3342
  921MPD2    H213484   4.285   3.280  16.786 -0.1302 -0.6618 -0.5239
  921MPD2    H313485   4.114   3.152  16.937 -0.6731 -0.6163  0.1636
  921MPD2     N13486   3.775   3.245  16.680 -0.4954 -0.4020 -0.3318
  921MPD2    H513487   3.730   3.156  16.702  0.8385 -1.5039 -2.0131
  921MPD2    N113488   4.223   3.392  16.562 -0.5963 -0.4155 -0.0482
  921MPD2    H713489   4.310   3.411  16.611  0.1373 -2.3424 -0.6037
  922MPD2     C13490   4.638   0.743   0.324  0.6756 -0.2016 -0.3109
  922MPD2    C113491   4.627   0.790   0.194 -0.4552  0.0562  0.3922
  922MPD2    C213492   4.514   0.848   0.153 -0.0100  0.3706 -0.0731
  922MPD2    C313493   4.399   0.841   0.224 -0.2337  0.1065 -0.9865
  922MPD2    C413494   4.404   0.791   0.356 -0.5128 -0.4536  0.3190
  922MPD2    C513495   4.520   0.739   0.398 -0.1685  0.1062  0.7377
  922MPD2     H13496   4.504   0.902   0.060 -2.3473 -2.3827 -1.4261
  922MPD2    H113497   4.324   0.765   0.424 -0.2218 -0.4286  0.6683
  922MPD2    H213498   0.009   0.701   0.366  0.6486  0.5225  0.4977
  922MPD2    H313499   4.529   0.703   0.500  0.9497 -1.3904  0.1171
  922MPD2     N13500   4.283   0.890   0.163  0.3620 -0.2653 -0.0583
  922MPD2    H513501   4.284   0.904   0.062  1.5722 -1.9336 -0.2855
  922MPD2    N113502   0.019   0.807   0.111 -0.0886 -0.8522  0.0531
  922MPD2    H713503   0.001   0.842   0.017 -0.6517  0.1749  0.5420
  923MPD2     C13504   2.004   2.936   9.078  0.2154 -0.5069 -0.5180
  923MPD2    C113505   1.924   2.953   9.187  0.6478 -0.1951  0.7319
  923MPD2    C213506   1.928   2.872   9.295  0.3610 -0.4400  0.2748
  923MPD2    C313507   2.029   2.770   9.308 -0.0342 -0.0382  0.3421
  923MPD2    C413508   2.120   2.757   9.200 -0.3261  0.3114  0.0471
  923MPD2    C513509   2.097   2.837   9.091 -0.0981  0.0583  0.4657
  923MPD2     H13510   1.855   2.877   9.376  0.0931  1.3759 -0.0957
  923MPD2    H113511   2.203   2.687   9.202 -0.8744 -0.2731  2.3677
  923MPD2    H213512   2.008   2.995   8.988  2.2676 -0.0417 -0.1245
  923MPD2    H313513   2.149   2.820   8.998  0.8120 -0.1400  1.0109
  923MPD2     N13514   2.064   2.701   9.425 -0.3069  0.8027 -0.2734
  923MPD2    H513515   2.155   2.655   9.423 -0.7293 -0.0374  0.0033
  923MPD2    N113516   1.836   3.059   9.173  0.2562  0.1407  0.8283
  923MPD2    H713517   1.837   3.110   9.086 -0.9828  1.0494  1.3359
  924MPD2     C13518   2.042   1.790  15.525  0.4092  0.0418 -0.8336
  924MPD2    C113519   2.004   1.916  15.502  0.4853 -0.4079 -0.1908
  924MPD2    C213520   2.023   1.971  15.377  0.3859  0.7286  0.0890
  924MPD2    C313521   2.063   1.884  15.273 -0.0975  0.1289  0.1207
  924MPD2    C413522   2.122   1.759  15.297 -0.1427  0.9097  0.3336
  924MPD2    C513523   2.102   1.711  15.426  0.2165  0.0342 -0.9035
  924MPD2     H13524   1.992   2.074  15.368 -1.4144  0.2329  0.5714
  924MPD2    H113525   2.167   1.697  15.220 -1.3703 -1.2382  1.3507
  924MPD2    H213526   2.037   1.749  15.625  1.2421 -1.4072 -1.3851
  924MPD2    H313527   2.134   1.611  15.452 -1.4224 -1.0742 -3.2533
  924MPD2     N13528   2.071   1.947  15.150  0.5297 -0.8487  0.0511
  924MPD2    H513529   2.035   2.042  15.158 -0.2340 -1.2453  1.2833
  924MPD2    N113530   1.968   2.003  15.608 -0.2307 -0.2054  0.5342
  924MPD2    H713531   1.959   2.099  15.578 -1.9998  0.1961  2.3051
  925MPD2     C13532   0.690   3.785  14.560  0.2453  0.4857  0.2841
  925MPD2    C113533   0.556   3.832  14.550 -0.0384 -0.5708 -0.4730
  925MPD2    C213534   0.485   3.851  14.669 -0.2525 -0.1053 -0.3754
  925MPD2    C313535   0.546   3.814  14.791  0.6453  1.4324 -0.2389
  925MPD2    C413536   0.675   3.775  14.800  1.0256 -0.0183 -0.2240
  925MPD2    C513537   0.742   3.767  14.681 -0.4118 -0.1711  0.0355
  925MPD2     H13538   0.383   3.884  14.660 -1.0579 -2.0587  1.2906
  925MPD2    H113539   0.719   3.728  14.887 -1.6682 -2.2288 -0.0508
  925MPD2    H213540   0.742   3.756  14.470  1.3321 -1.9564  1.7182
  925MPD2    H313541   0.832   3.706  14.682  0.1513  0.6394 -0.1276
  925MPD2     N13542   0.477   3.809  14.918 -0.2987 -0.2701  0.7392
  925MPD2    H513543   0.526   3.768  14.997  0.6979 -1.2242 -0.3744
  925MPD2    N113544   0.495   3.854  14.426  0.1969  0.7018  0.5063
  925MPD2    H713545   0.401   3.892  14.424  0.5719  1.4398 -2.5440
  926MPD2     C13546   3.151   2.358  13.597  0.6063  0.4324  0.2283
  926MPD2    C113547   3.231   2.462  13.628 -0.0039 -0.2500  0.4329
  926MPD2    C213548   3.286   2.549  13.538  0.1820  1.0742  1.1934
  926MPD2    C313549   3.266   2.525  13.397 -0.0498  0.2476  0.6014
  926MPD2    C413550   3.181   2.419  13.363  0.0381 -0.2867  0.7778
  926MPD2    C513551   3.128   2.338  13.462 -0.1725  0.0131 -0.1125
  926MPD2     H13552   3.340   2.635  13.575  0.0207  1.0403  1.5055
  926MPD2    H113553   3.143   2.407  13.263  0.7786 -1.3970  0.6279
  926MPD2    H213554   3.089   2.301  13.665  0.1788 -0.1851 -0.6846
  926MPD2    H313555   3.071   2.247  13.451  0.7472 -0.4522 -1.0489
  926MPD2     N13556   3.329   2.606  13.294 -0.2128  0.8136  0.2415
  926MPD2    H513557   3.290   2.607  13.200  2.1444 -0.5341 -0.7481
  926MPD2    N113558   3.250   2.506  13.758 -0.0871  0.1613  0.9498
  926MPD2    H713559   3.295   2.596  13.771  0.6871  0.1357 -1.5977
  927MPD2     C13560   3.582   3.912   0.551  0.2268 -0.7595  0.6082
  927MPD2    C113561   3.690   3.995   0.531 -0.7464 -0.6010  0.5577
  927MPD2    C213562   3.762   3.985   0.414  0.1427  0.6050 -1.1166
  927MPD2    C313563   3.725   3.887   0.324  0.1022  0.2846 -0.5659
  927MPD2    C413564   3.620   3.799   0.350  0.4934 -0.1548  0.3406
  927MPD2    C513565   3.552   3.806   0.471  0.3080 -0.2590  0.0899
  927MPD2     H13566   3.841   4.059   0.402 -1.1021  1.5689 -3.2015
  927MPD2    H113567   3.594   3.720   0.282 -0.0974  0.8290 -0.5784
  927MPD2    H213568   3.535   3.923   0.648  1.4083  0.5677  1.0358
  927MPD2    H313569   3.465   3.746   0.493 -0.3285  0.9722  0.8934
  927MPD2     N13570   3.791   3.876   0.200  0.4462 -0.4099 -0.3490
  927MPD2    H513571   3.857   3.952   0.187 -1.0168  0.7909 -0.7301
  927MPD2    N113572   3.713   4.085   0.642 -0.1764  0.0246  0.0933
  927MPD2    H713573   3.653   4.074   0.723 -0.0033 -1.6415 -0.0128
  928MPD2     C13574   0.833   2.330   0.908  0.3743 -0.1447 -0.2159
  928MPD2    C113575   0.943   2.397   0.946 -0.0537  0.1521 -0.1485
  928MPD2    C213576   1.028   2.441   0.850  0.8828 -0.3739 -0.6816
  928MPD2    C313577   1.015   2.415   0.717  0.3333  0.3654 -0.0764
  928MPD2    C413578   0.906   2.348   0.670  0.1555  0.3735 -0.2830
  928MPD2    C513579   0.821   2.312   0.768  0.0002  0.0870  0.5135
  928MPD2     H13580   1.090   2.524   0.882 -0.9604  0.8658 -0.3280
  928MPD2    H113581   0.890   2.314   0.568 -1.1592 -0.3115  0.1481
  928MPD2    H213582   0.752   2.289   0.968  1.4795 -0.4371  1.0874
  928MPD2    H313583   0.740   2.248   0.733 -0.0252  0.2151  0.3411
  928MPD2     N13584   1.111   2.458   0.621  0.0603 -0.3416 -0.3159
  928MPD2    H513585   1.087   2.442   0.523  1.6786 -0.4596 -0.7015
  928MPD2    N113586   0.958   2.423   1.088  0.0293  0.3305  0.5145
  928MPD2    H713587   0.886   2.390   1.150 -0.0639 -2.5421 -1.0935
  929MPD2     C13588   2.133   2.775  10.627 -0.6472  0.0054 -0.2009
  929MPD2    C113589   2.015   2.705  10.606 -0.4466  0.7271 -0.6891
  929MPD2    C213590   1.987   2.645  10.484 -0.4071  0.2323 -0.1728
  929MPD2    C313591   2.071   2.673  10.377 -0.1476 -0.1562 -0.4555
  929MPD2    C413592   2.194   2.735  10.398 -0.2147 -0.3250  0.6444
  929MPD2    C513593   2.224   2.778  10.523  0.0007  0.5139 -0.2344
  929MPD2     H13594   1.902   2.579  10.475  0.0678 -0.1888 -1.5920
  929MPD2    H113595   2.261   2.765  10.319  0.8312  0.8414  1.9765
  929MPD2    H213596   2.149   2.823  10.723 -0.8716 -0.3325  0.0056
  929MPD2    H313597   2.313   2.840  10.528  0.5189 -0.2085 -0.3666
  929MPD2     N13598   2.019   2.666  10.244 -0.2764  0.0869  0.1097
  929MPD2    H513599   2.088   2.710  10.182 -0.6230  0.2477 -0.1650
  929MPD2    N113600   1.917   2.714  10.706  0.5061 -0.8909 -0.3014
  929MPD2    H713601   1.946   2.762  10.791  2.1283  0.7906 -1.8331
  930MPD2     C13602   3.370   0.674  14.278  0.0113  0.4362 -0.9958
  930MPD2    C113603   3.458   0.630  14.183 -0.3309 -0.3937  0.1418
  930MPD2    C213604   3.419   0.535  14.087  0.4999  0.4893 -0.3758
  930MPD2    C313605   3.294   0.480  14.095  0.1819 -0.4602  0.0010
  930MPD2    C413606   3.208   0.521  14.192  0.2363 -0.4068  0.1225
  930MPD2    C513607   3.245   0.610  14.285 -0.2923  0.0622  0.2382
  930MPD2     H13608   3.483   0.505  14.005  2.1803  2.2412  0.3001
  930MPD2    H113609   3.110   0.476  14.205  0.3357 -0.6638 -0.0137
  930MPD2    H213610   3.394   0.759  14.341  1.0922 -0.2207 -0.5304
  930MPD2    H313611   3.172   0.645  14.357  1.8881  0.0760  2.4381
  930MPD2     N13612   3.234   0.394  14.001 -0.5221  0.2036 -0.1751
  930MPD2    H513613   3.143   0.356  14.021  0.3905 -2.6061 -1.3261
  930MPD2    N113614   3.584   0.692  14.176 -0.2758 -0.2518 -0.0690
  930MPD2    H713615   3.604   0.771  14.236  0.2765  1.0784 -1.9930
  931MPD2     C13616   3.441   4.440   1.346 -0.1309  0.0583  0.1260
  931MPD2    C113617   3.462   4.329   1.264 -0.1567 -0.1264  0.5075
  931MPD2    C213618   3.378   4.219   1.272 -0.2522 -0.2858  0.2948
  931MPD2    C313619   3.273   4.220   1.365  0.7330 -0.5146  0.3553
  931MPD2    C413620   3.252   4.336   1.440 -0.5454  0.1698 -0.0266
  931MPD2    C513621   3.325   4.447   1.426  0.4811 -0.1371 -0.1079
  931MPD2     H13622   3.374   4.150   1.188  0.1856  1.6020 -1.2678
  931MPD2    H113623   3.167   4.344   1.506  0.2474 -0.2469  1.0454
  931MPD2    H213624   3.497   4.532   1.332  0.7211 -0.5063 -0.1911
  931MPD2    H313625   3.292   4.536   1.478  0.2212 -0.1974 -0.1697
  931MPD2     N13626   3.178   4.110   1.373  1.0764  0.4250  0.1315
  931MPD2    H513627   3.100   4.137   1.432 -0.4191 -2.8412 -0.3424
  931MPD2    N113628   3.553   4.350   1.157 -0.1090  0.2697 -0.1176
  931MPD2    H713629   3.607   4.435   1.160  1.2060 -0.5826  0.3908
  932MPD2     C13630   0.205   3.976  10.698  0.2728  0.2560  0.2668
  932MPD2    C113631   0.284   3.903  10.782  0.2585 -0.3042  0.3787
  932MPD2    C213632   0.251   3.770  10.803 -0.8631 -0.3986  0.0372
  932MPD2    C313633   0.141   3.707  10.750 -0.1728 -0.9820  0.8424
  932MPD2    C413634   0.065   3.778  10.665 -0.3954  0.1423  0.4504
  932MPD2    C513635   0.103   3.908  10.640 -0.3028 -0.4314  0.3237
  932MPD2     H13636   0.327   3.716  10.859  2.3182  2.3765 -1.5389
  932MPD2    H113637   4.699   3.728  10.622  0.9251 -2.2494  0.5504
  932MPD2    H213638   0.219   4.080  10.674 -0.2665 -0.0798 -1.5031
  932MPD2    H313639   0.057   3.957  10.555  1.4839 -0.7841 -0.8434
  932MPD2     N13640   0.098   3.572  10.770  0.0118  0.6271  0.7882
  932MPD2    H513641   0.001   3.559  10.743  0.3789  1.2153 -0.7632
  932MPD2    N113642   0.396   3.958  10.850 -0.5071 -0.0777  0.1845
  932MPD2    H713643   0.474   3.902  10.884  0.6201  0.3937 -1.6382
  933MPD2     C13644   0.463   2.649   1.335 -0.0354  0.1547 -0.6945
  933MPD2    C113645   0.550   2.641   1.444  0.3848  0.3731  0.2506
  933MPD2    C213646   0.523   2.718   1.555  0.0632  0.3090  0.5532
  933MPD2    C313647   0.412   2.795   1.565 -0.0866 -0.3434 -0.5487
  933MPD2    C413648   0.322   2.796   1.456 -0.1484 -0.1103 -0.7329
  933MPD2    C513649   0.347   2.725   1.345 -0.5217  0.1162  0.4199
  933MPD2     H13650   0.602   2.728   1.629 -1.2225  0.2013  1.9316
  933MPD2    H113651   0.239   2.866   1.458 -1.0203 -1.1683 -0.1143
  933MPD2    H213652   0.476   2.596   1.241 -0.6941 -0.4770 -0.4256
  933MPD2    H313653   0.280   2.719   1.260  0.8089 -0.3230 -0.6085
  933MPD2     N13654   0.395   2.873   1.680  0.0036 -0.2687  0.0280
  933MPD2    H513655   0.454   2.848   1.759  1.7319  1.0074 -0.8598
  933MPD2    N113656   0.675   2.577   1.420 -0.2315 -0.1688 -0.0733
  933MPD2    H713657   0.703   2.571   1.323 -1.0333  0.6035 -0.3620
  934MPD2     C13658   1.973   0.649   1.470 -0.2498  0.0497 -0.1795
  934MPD2    C113659   2.086   0.599   1.516 -0.0086 -0.0322  0.0523
  934MPD2    C213660   2.080   0.470   1.570 -0.0520  0.1039 -0.1372
  934MPD2    C313661   1.961   0.404   1.587 -0.1920  0.6305  0.3085
  934MPD2    C413662   1.845   0.457   1.535  0.5739 -0.1294  0.4931
  934MPD2    C513663   1.855   0.581   1.476 -0.2070 -0.4918  0.1770
  934MPD2     H13664   2.170   0.415   1.597  0.4112  0.2106 -1.4726
  934MPD2    H113665   1.746   0.415   1.541  0.7370 -0.9493 -2.9804
  934MPD2    H213666   1.962   0.748   1.426  2.5984  0.1629 -0.6314
  934MPD2    H313667   1.769   0.639   1.445  0.2468  1.2357  2.1703
  934MPD2     N13668   1.944   0.280   1.650 -0.1399  0.1267  0.1338
  934MPD2    H513669   1.853   0.237   1.650 -0.3525  0.5729  0.6873
  934MPD2    N113670   2.203   0.677   1.525  0.2271  0.6729  0.0528
  934MPD2    H713671   2.279   0.625   1.569  2.0958  3.3278 -0.0060
  935MPD2     C13672   2.508   4.345   1.331  0.3916  0.0387 -0.3349
  935MPD2    C113673   2.376   4.348   1.293 -0.5060  0.7876  0.4334
  935MPD2    C213674   2.278   4.378   1.383  0.3245  0.1829  0.2273
  935MPD2    C313675   2.313   4.423   1.508 -0.1403 -0.5937 -0.3068
  935MPD2    C413676   2.446   4.414   1.553  0.0380 -0.1392  0.0827
  935MPD2    C513677   2.543   4.375   1.463 -0.1644  0.4470  0.1647
  935MPD2     H13678   2.177   4.382   1.345 -0.6431  0.5011  2.8469
  935MPD2    H113679   2.485   4.470   1.638 -0.7094  0.7707 -0.1715
  935MPD2    H213680   2.585   4.303   1.267 -0.7256  1.0979 -2.3529
  935MPD2    H313681   2.650   4.372   1.483  0.2830  2.4371 -1.9268
  935MPD2     N13682   2.220   4.478   1.600  0.3329 -0.5375 -0.3023
  935MPD2    H513683   2.261   4.521   1.681  2.6015  0.8899 -2.1983
  935MPD2    N113684   2.331   4.304   1.168  0.1171 -0.4580 -0.3416
  935MPD2    H713685   2.236   4.279   1.145  0.0303 -0.9152  0.4913
  936MPD2     C13686   0.838   2.979  12.425  0.1168 -0.4356  0.3825
  936MPD2    C113687   0.825   2.868  12.508 -0.1180 -0.2012  0.0776
  936MPD2    C213688   0.938   2.786  12.533  0.0423  0.2039  0.3078
  936MPD2    C313689   1.055   2.812  12.471  0.1085 -0.6344  0.1644
  936MPD2    C413690   1.071   2.915  12.378 -0.6643  0.1678 -0.4560
  936MPD2    C513691   0.960   2.993  12.358 -0.5371  0.8795 -0.5009
  936MPD2     H13692   0.938   2.717  12.617  0.3333  0.3063  0.3902
  936MPD2    H113693   1.166   2.934  12.331 -0.1335 -0.1130  0.4966
  936MPD2    H213694   0.754   3.047  12.414  1.5735  1.4596  1.1078
  936MPD2    H313695   0.976   3.083  12.301 -1.1935 -0.5134 -2.8784
  936MPD2     N13696   1.180   2.756  12.511  0.1890 -0.1914 -0.0756
  936MPD2    H513697   1.262   2.799  12.471 -0.7773  0.8496 -0.9442
  936MPD2    N113698   0.722   2.858  12.605 -0.6295  0.1927 -0.0204
  936MPD2    H713699   0.723   2.776  12.666 -1.1631  0.0989 -0.1339
  937MPD2     C13700   3.989   3.558  11.215 -0.0972  0.0540  0.1392
  937MPD2    C113701   3.885   3.587  11.127  0.0027  0.5786 -0.3286
  937MPD2    C213702   3.904   3.585  10.989  0.3097 -0.3568  0.4143
  937MPD2    C313703   4.027   3.554  10.940 -0.6796 -1.0387 -0.4432
  937MPD2    C413704   4.135   3.535  11.030 -0.4727  0.3554  0.4070
  937MPD2    C513705   4.115   3.538  11.165 -0.8877 -0.1914 -0.9848
  937MPD2     H13706   3.819   3.615  10.928 -0.0224  2.8370  2.4242
  937MPD2    H113707   4.237   3.517  10.999 -0.7410  0.4071 -0.5226
  937MPD2    H213708   3.969   3.564  11.321  0.2761 -0.3592  0.2336
  937MPD2    H313709   4.201   3.520  11.229 -1.1258 -1.6532 -1.0860
  937MPD2     N13710   4.065   3.579  10.804  0.0256 -0.3035  0.1165
  937MPD2    H513711   4.164   3.574  10.783  0.4546  2.8205  1.3706
  937MPD2    N113712   3.770   3.648  11.176  0.4827 -0.6870 -0.0074
  937MPD2    H713713   3.705   3.680  11.105 -0.7964 -0.5008  1.2409
  938MPD2     C13714   0.500   4.088   1.058 -0.1509  0.4410 -0.3624
  938MPD2    C113715   0.633   4.113   1.103  1.2645 -0.9696  0.3475
  938MPD2    C213716   0.683   4.042   1.211 -0.1138 -0.2671  0.4580
  938MPD2    C313717   0.596   3.971   1.289  0.2126  0.5439 -0.4942
  938MPD2    C413718   0.465   3.952   1.253  0.5252 -0.0817  0.2647
  938MPD2    C513719   0.418   4.011   1.137  0.3873 -0.6098  0.0352
  938MPD2     H13720   0.783   4.062   1.246 -0.3344  2.9241 -0.7009
  938MPD2    H113721   0.394   3.893   1.310 -2.5251  1.8329 -1.5417
  938MPD2    H213722   0.447   4.153   0.990 -1.4091  2.1799  2.2769
  938MPD2    H313723   0.312   4.003   1.115  0.3806  0.7688 -0.4280
  938MPD2     N13724   0.640   3.905   1.407  0.8415 -0.3188 -0.1076
  938MPD2    H513725   0.566   3.875   1.470 -0.3344  1.5105 -0.6071
  938MPD2    N113726   0.716   4.214   1.051 -0.3382  0.5032  0.1214
  938MPD2    H713727   0.803   4.233   1.100  0.7727 -2.5827 -0.6264
  939MPD2     C13728   1.887   0.998   0.866 -0.6201 -0.0830 -0.0710
  939MPD2    C113729   1.939   1.124   0.846  0.4322 -1.0500  0.1085
  939MPD2    C213730   2.055   1.133   0.768  0.0875 -0.6194 -0.3282
  939MPD2    C313731   2.103   1.024   0.695 -1.1176 -0.0197 -1.8342
  939MPD2    C413732   2.042   0.902   0.718  0.1229  0.3056 -0.5059
  939MPD2    C513733   1.932   0.885   0.805 -0.1201 -0.7054 -0.1082
  939MPD2     H13734   2.108   1.226   0.750 -0.9159  0.1282  0.5129
  939MPD2    H113735   2.069   0.810   0.668 -0.1007  0.4557 -0.9085
  939MPD2    H213736   1.808   0.977   0.936 -3.2636  1.8077 -2.4953
  939MPD2    H313737   1.892   0.788   0.832 -1.0580 -0.9445 -2.3309
  939MPD2     N13738   2.217   1.041   0.617  0.5862 -0.0200  0.9535
  939MPD2    H513739   2.257   1.135   0.617 -0.0417  0.2590  3.4905
  939MPD2    N113740   1.870   1.231   0.909 -0.2248  0.1301 -0.4232
  939MPD2    H713741   1.795   1.202   0.971  0.3583  1.3004  0.8405
  940MPD2     C13742   0.815   1.331  13.419 -0.1054  0.5102 -0.5878
  940MPD2    C113743   0.951   1.351  13.409  0.3829 -0.5006  0.0650
  940MPD2    C213744   1.004   1.482  13.396  0.0846  0.4935  1.1730
  940MPD2    C313745   0.912   1.590  13.409  0.4361  0.5719 -0.1811
  940MPD2    C413746   0.783   1.561  13.441  0.2434  0.4180 -0.6129
  940MPD2    C513747   0.733   1.432  13.455 -0.1960 -0.0032  0.3167
  940MPD2     H13748   1.109   1.502  13.378  0.5140 -0.0256  3.1086
  940MPD2    H113749   0.707   1.638  13.443  0.5412  0.7025 -0.4755
  940MPD2    H213750   0.771   1.232  13.418  1.3310 -0.1225 -0.3766
  940MPD2    H313751   0.628   1.412  13.473  0.4185 -2.1542  1.5226
  940MPD2     N13752   0.935   1.724  13.377 -0.0530 -0.1343 -0.3826
  940MPD2    H513753   0.856   1.787  13.375 -1.7930 -2.3151 -1.1130
  940MPD2    N113754   1.042   1.240  13.405  0.2513 -0.2312  0.0770
  940MPD2    H713755   1.141   1.261  13.414 -0.0459  0.3587  2.0398
  941MPD2     C13756   2.211   1.658   9.828  0.4438  0.2440 -0.0701
  941MPD2    C113757   2.180   1.608   9.706 -0.5950  0.0431  0.2719
  941MPD2    C213758   2.155   1.474   9.696 -0.0053 -0.5245 -0.7042
  941MPD2    C313759   2.143   1.388   9.805  0.0820  0.5021 -0.1228
  941MPD2    C413760   2.163   1.441   9.931  0.9639 -0.4542 -0.6777
  941MPD2    C513761   2.198   1.574   9.938  0.3164  0.9789  0.0788
  941MPD2     H13762   2.128   1.447   9.595  0.8507 -2.2167 -0.4951
  941MPD2    H113763   2.151   1.380  10.021 -1.4439 -0.4094 -0.9871
  941MPD2    H213764   2.227   1.764   9.842  1.4416  0.3693 -2.2448
  941MPD2    H313765   2.216   1.618  10.036 -0.9530  0.6981  0.4371
  941MPD2     N13766   2.098   1.257   9.778 -0.4074 -0.6307  0.5193
  941MPD2    H513767   2.087   1.249   9.677  1.6929 -2.5617  0.4547
  941MPD2    N113768   2.145   1.683   9.592  0.0439  0.2416  0.0064
  941MPD2    H713769   2.115   1.637   9.507 -2.2640 -0.3058  1.1077
  942MPD2     C13770   2.135   4.548   9.057 -0.2592 -0.0533 -0.5595
  942MPD2    C113771   2.005   4.499   9.067  0.3354 -0.3035 -0.3082
  942MPD2    C213772   1.971   4.396   8.985 -0.6598 -0.2203 -0.2637
  942MPD2    C313773   2.056   4.333   8.896 -0.2653  0.3859  0.1104
  942MPD2    C413774   2.184   4.378   8.885 -0.8419 -1.1773 -0.0772
  942MPD2    C513775   2.219   4.483   8.970  1.0119 -0.5448  0.0773
  942MPD2     H13776   1.868   4.363   8.992 -0.6611 -0.1012  0.3415
  942MPD2    H113777   2.262   4.341   8.819  1.3934 -0.0427  1.9448
  942MPD2    H213778   2.177   4.616   9.130 -0.6601  0.1624 -0.5324
  942MPD2    H313779   2.321   4.518   8.970  1.3782 -1.6086 -0.5711
  942MPD2     N13780   2.012   4.229   8.805 -0.1185 -0.0631 -0.4130
  942MPD2    H513781   2.080   4.196   8.737  0.1394 -1.9005  0.7376
  942MPD2    N113782   1.913   4.558   9.158  0.0688  0.4884 -0.3748
  942MPD2    H713783   1.815   4.537   9.168  0.9628 -3.7561 -0.6254
  943MPD2     C13784   4.537   0.520   9.247 -0.3860 -0.0388  0.1783
  943MPD2    C113785   4.629   0.598   9.309  0.0868 -0.0256 -0.0859
  943MPD2    C213786   4.661   0.720   9.259 -0.1308  0.1596  0.1344
  943MPD2    C313787   4.596   0.763   9.149 -0.1284 -0.3820  0.4657
  943MPD2    C413788   4.515   0.679   9.080 -0.4455 -0.6159 -0.0574
  943MPD2    C513789   4.476   0.555   9.125  0.2100  0.0344  0.2322
  943MPD2     H13790   0.019   0.778   9.308  0.4090  0.4418 -1.0513
  943MPD2    H113791   4.457   0.712   8.994  0.0140 -2.4938 -1.0958
  943MPD2    H213792   4.508   0.427   9.295 -0.5521  0.1457  0.4323
  943MPD2    H313793   4.405   0.490   9.075  0.7822 -0.4492  0.0458
  943MPD2     N13794   4.591   0.900   9.105 -0.0366  0.5708 -0.2731
  943MPD2    H513795   4.549   0.922   9.015 -0.3333 -0.5956 -0.4178
  943MPD2    N113796   4.692   0.558   9.435 -0.2377  0.2313 -0.0949
  943MPD2    H713797   4.646   0.485   9.489 -0.1145 -0.4902 -0.9562
  944MPD2     C13798   4.418   4.540  10.684 -0.1659  0.4907 -0.5025
  944MPD2    C113799   4.428   4.665  10.629  0.0850  0.3710  0.0193
  944MPD2    C213800   4.366   0.051  10.697 -0.3333 -0.1172  0.8299
  944MPD2    C313801   4.289   0.028  10.809  0.1532 -0.5076  0.3146
  944MPD2    C413802   4.278   4.620  10.859 -0.4154 -0.3205 -0.2192
  944MPD2    C513803   4.342   4.511  10.797  0.6382  0.5338  0.6795
  944MPD2     H13804   4.371   0.151  10.655  2.9478 -0.6300  0.0506
  944MPD2    H113805   4.216   4.602  10.947 -2.0709 -2.0425 -1.7389
  944MPD2    H213806   4.470   4.459  10.634 -1.1336  0.3440 -1.2780
  944MPD2    H313807   4.323   4.412  10.839  0.0076 -0.9793 -3.1996
  944MPD2     N13808   4.216   0.136  10.863 -0.0970 -0.2056 -0.0908
  944MPD2    H513809   4.242   0.222  10.817 -1.1893  0.1191 -0.1046
  944MPD2    N113810   4.504   4.676  10.516  0.0857 -0.0287  0.2247
  944MPD2    H713811   4.555   4.590  10.498 -0.7987 -0.1991 -1.3968
    1TCq1    O113812   1.538   0.667  13.862 -0.0410 -0.2719  0.0611
    1TCq1    C113813   1.668   0.636  13.848 -0.0611  0.3843 -0.3759
    1TCq1    O213814   1.739   0.593  13.936 -0.1251  0.0625 -0.1720
    1TCq1    C213815   1.711   0.713  13.732  0.2497  0.5490  0.2808
    1TCq1    C313816   1.634   0.715  13.622 -0.5600  0.5674  0.1599
    1TCq1    C413817   1.659   0.809  13.525 -0.3082 -0.3124  0.3382
    1TCq1    C513818   1.761   0.900  13.535 -0.2657  0.0843 -0.3290
    1TCq1    C613819   1.828   0.903  13.656  0.2116 -0.6052 -0.0212
    1TCq1    C713820   1.805   0.812  13.754 -0.6478 -0.0749 -0.0006
    1TCq1    C813821   1.935   0.993  13.685 -0.3800  0.0605  0.4220
    1TCq1    O413822   1.995   0.982  13.789 -0.6017 -0.2847 -0.2487
    1TCq1    C913823   1.583   0.805  13.403 -0.5949  0.1499 -0.1374
    1TCq1    O513824   1.490   0.721  13.388 -0.3753 -0.3281  0.6241
    1TCq1    O613825   1.611   0.888  13.316 -0.8202 -0.5510  0.3007
    1TCq1    H113826   1.497   0.715  13.787 -1.4237  1.6275  2.0264
    1TCq1    H213827   1.563   0.635  13.605  1.4803 -1.0668 -0.5627
    1TCq1    H313828   1.779   0.968  13.452 -1.3160 -1.5206 -1.8753
    1TCq1    H413829   1.856   0.811  13.850 -1.0103 -2.6415  0.1690
    2MPD2     C13830   2.113   1.471  13.691 -0.3794  0.4924  0.0175
    2MPD2    C113831   2.018   1.455  13.594  0.1813 -0.2559 -0.3344
    2MPD2    C213832   1.965   1.331  13.556  0.2375 -0.8571 -0.2117
    2MPD2    C313833   2.012   1.218  13.620  0.0812 -0.3631 -0.3238
    2MPD2    C413834   2.108   1.237  13.727 -0.5334 -0.5118  0.5466
    2MPD2    C513835   2.157   1.363  13.763  0.4103 -0.2540 -0.3311
    2MPD2     H13836   1.890   1.328  13.478 -1.1527 -0.4218  1.1132
    2MPD2    H113837   2.147   1.149  13.777  0.7503 -0.9321 -1.1647
    2MPD2    H213838   2.142   1.570  13.724  1.5123 -0.3653  0.9294
    2MPD2    H313839   2.242   1.376  13.829 -0.5583  2.8049  0.3309
    2MPD2     N13840   1.935   1.101  13.598  0.0132 -0.3165  0.1418
    2MPD2    H513841   1.864   1.102  13.526  0.5491 -0.2379 -0.3886
    2MPD2    N113842   1.969   1.578  13.539 -0.0418 -0.0551  0.4301
    2MPD2    H713843   2.002   1.670  13.567  1.3892 -0.7929  1.2022
    3TMC2    C113844   1.826   1.727  13.416  0.0784  0.5416 -0.3727
    3TMC2    C213845   1.691   1.743  13.427  0.4840  0.3091 -0.6843
    3TMC2    C313846   1.643   1.869  13.468 -0.1191 -0.5427 -0.4534
    3TMC2    C413847   1.909   1.830  13.451 -0.0686  0.0693  0.3884
    3TMC2    C513848   1.859   1.951  13.482  0.5070 -0.1707  0.0100
    3TMC2    C613849   1.732   1.966  13.501  0.0498  0.2635 -0.3325
    3TMC2     C13850   1.862   1.592  13.449 -0.5692  0.4869 -0.5229
    3TMC2     O13851   1.795   1.504  13.396  0.3770 -0.2497  0.3522
    3TMC2     H13852   1.630   1.654  13.434  3.3814 -1.3715  3.1399
    3TMC2    H113853   2.015   1.806  13.453 -0.4344 -1.4196  2.0893
    3TMC2    H213854   1.684   2.059  13.532  0.8870  1.2677 -2.0356
    3TMC2    C713855   1.939   2.032  13.572 -0.1025 -0.6508  0.3110
    3TMC2    C813856   1.499   1.873  13.490 -0.0770  0.2823 -0.7546
    3TMC2    O113857   2.037   1.981  13.622  0.5359 -0.1438 -0.3429
    3TMC2    O213858   1.412   1.799  13.447 -0.2338 -0.6714  0.5501
    3TMC2    O513859   1.482   1.949  13.603 -0.1433 -0.0239  0.1391
    3TMC2    H513860   1.564   1.970  13.653 -1.7349 -1.0505  3.2029
    4MPD2     C13861   1.282   3.296  13.417 -0.2153 -0.2978 -0.0980
    4MPD2    C113862   1.331   3.205  13.323 -0.8255 -0.0443  0.1427
    4MPD2    C213863   1.459   3.154  13.339 -0.2835  0.7439  0.1544
    4MPD2    C313864   1.531   3.195  13.450  0.0769 -0.3887 -0.4314
    4MPD2    C413865   1.485   3.293  13.535 -0.0308 -0.6175  1.0061
    4MPD2    C513866   1.361   3.343  13.523 -0.3424  0.2443  0.5254
    4MPD2     H13867   1.490   3.068  13.281  0.4735 -0.4346  2.3219
    4MPD2    H113868   1.540   3.322  13.624 -0.1016  2.3990  0.0875
    4MPD2    H213869   1.176   3.321  13.412 -0.1651  0.2189  1.5148
    4MPD2    H313870   1.322   3.417  13.592 -1.4824  0.6269 -0.5128
    4MPD2     N13871   1.652   3.127  13.487  0.4233  0.3323  0.1535
    4MPD2    H513872   1.685   3.044  13.437 -1.4348  0.2219 -0.8787
    4MPD2    N113873   1.244   3.157  13.217 -0.1998 -1.0065 -0.6322
    4MPD2    H713874   1.145   3.168  13.237  0.6583  2.8967  1.4084
    5TCq2    C113875   1.739   3.158  13.595  0.8935  0.2444  0.4303
    5TCq2    O213876   1.746   3.255  13.667  0.0439 -0.4463  0.1054
    5TCq2    C213877   1.841   3.062  13.607 -0.3484 -0.8558 -0.0053
    5TCq2    C313878   1.966   3.102  13.639 -0.1713 -0.1661  0.5336
    5TCq2    C413879   2.070   3.011  13.662  0.1835  0.5178  0.3042
    5TCq2    C513880   2.049   2.877  13.643 -0.3813  0.3507  0.1964
    5TCq2    C613881   1.918   2.842  13.631 -0.8913 -0.1478  0.9462
    5TCq2    C713882   1.813   2.926  13.595 -0.3279 -0.0755  0.5181
    5TCq2    C813883   1.889   2.698  13.622  0.5167 -0.4432 -0.9054
    5TCq2    O413884   1.787   2.664  13.561 -1.2459  0.2420  0.1330
    5TCq2    C913885   2.206   3.049  13.686  0.1749 -0.7021 -0.9955
    5TCq2    O513886   2.236   3.172  13.674 -0.1557  0.2484  0.2712
    5TCq2    O613887   2.296   2.959  13.692  0.6687 -0.3268 -0.3247
    5TCq2    H213888   1.990   3.206  13.658  0.2197 -0.4373  1.5588
    5TCq2    H313889   2.130   2.806  13.656  0.5447  1.5161  0.7419
    5TCq2    H413890   1.718   2.888  13.559 -0.5575 -1.2601  2.3319
    6MPD1     C13891   0.587   4.523  12.608  0.3521 -0.7380  0.5608
    6MPD1    C113892   0.473   4.455  12.637 -0.1275  0.2160  1.1761
    6MPD1    C213893   0.480   4.323  12.651  0.5860  0.5692  0.5570
    6MPD1    C313894   0.598   4.252  12.628  0.0835 -0.9608  0.4910
    6MPD1    C413895   0.707   4.321  12.593 -0.3792 -0.0787  0.0140
    6MPD1    C513896   0.704   4.453  12.593 -0.2488  0.0342  0.5291
    6MPD1     H13897   0.396   4.261  12.681  0.8420  0.1705  0.4380
    6MPD1    H113898   0.798   4.268  12.568  0.6940  0.9882  1.6418
    6MPD1    H213899   0.595   4.631  12.603 -2.0743 -0.5830  0.1200
    6MPD1    H313900   0.800   4.501  12.582  0.3160 -0.8530  1.6794
    6MPD1     N13901   0.609   4.112  12.629  0.2852  0.0653 -0.0760
    6MPD1    H513902   0.702   4.075  12.612 -0.1436 -0.8176 -0.5096
    6MPD1    N113903   0.361   4.530  12.674 -0.2895  0.0196 -0.7488
    6MPD1    H613904   0.377   4.620  12.628 -1.2638  0.1856 -0.7627
    6MPD1    H713905   0.279   4.487  12.631 -0.1308 -0.5804 -0.4494
    7MPD2     C13906   0.442   3.379  13.042 -0.7594  0.9412 -0.4007
    7MPD2    C113907   0.514   3.376  12.923 -0.1937  0.4144 -0.3461
    7MPD2    C213908   0.620   3.293  12.918  0.4022  0.7048  0.0036
    7MPD2    C313909   0.660   3.210  13.014  0.6999 -0.1183  0.5788
    7MPD2    C413910   0.597   3.218  13.132 -0.2553  0.3270  0.2678
    7MPD2    C513911   0.490   3.303  13.146  0.0964  1.1018  0.6677
    7MPD2     H13912   0.679   3.315  12.830  1.2887  0.4241  0.5249
    7MPD2    H113913   0.624   3.157  13.217  1.2813  1.1447  0.3693
    7MPD2    H213914   0.351   3.435  13.059  0.2992  2.1801  1.0936
    7MPD2    H313915   0.430   3.297  13.237  0.4183 -3.6693  0.5942
    7MPD2     N13916   0.774   3.128  13.008  0.5271 -0.2049 -0.5344
    7MPD2    H513917   0.806   3.091  13.097 -1.2021 -1.7689 -0.5732
    7MPD2    N113918   0.494   3.468  12.817  0.3177  1.0437 -0.5324
    7MPD2    H713919   0.545   3.449  12.731 -0.6935 -0.7245 -0.7255
    8TMC3    C113920   0.972   3.053  12.916 -0.2015  0.6249 -0.3538
    8TMC3    C213921   1.052   3.074  13.026 -0.2812 -0.3500 -0.5167
    8TMC3    C313922   1.183   3.064  13.003 -0.4437  0.0053  0.0230
    8TMC3    C413923   1.020   3.018  12.799  0.1751  0.0946 -0.9265
    8TMC3    C513924   1.147   3.021  12.773 -0.1542  1.1847 -0.2920
    8TMC3    C613925   1.235   3.042  12.878 -0.1536  0.5161 -0.1520
    8TMC3     C13926   0.850   3.130  12.898 -0.0569 -0.2448  0.2885
    8TMC3     O13927   0.812   3.147  12.784  0.0433 -0.2104 -0.1516
    8TMC3     H13928   1.011   3.114  13.119  0.8403 -2.9215  1.0986
    8TMC3    H113929   0.948   2.987  12.724  0.0670 -1.3456 -0.2332
    8TMC3    H213930   1.342   3.040  12.861  0.1754 -0.8990  1.9463
    8TMC3    C713931   1.159   3.111  12.657  0.2553  0.0617  0.4435
    8TMC3    C813932   1.284   3.085  13.108 -0.4165  0.4925 -0.1857
    8TMC3    O113933   1.276   3.144  12.642 -0.5591  0.2848  0.7392
    8TMC3    O213934   1.392   3.040  13.083  0.1117 -0.3579 -0.4431
    9TMC3    C113935   0.535   3.892  12.668 -0.2448 -0.2043  0.8054
    9TMC3    C213936   0.597   3.843  12.556  0.2706  0.1531  0.1611
    9TMC3    C313937   0.605   3.705  12.529 -0.5076  0.8907 -0.5738
    9TMC3    C413938   0.453   3.809  12.738 -0.0361  0.0353 -0.4619
    9TMC3    C513939   0.453   3.671  12.712 -0.5049  0.0772  0.0548
    9TMC3    C613940   0.533   3.624  12.611  0.6611 -0.2886  0.3963
    9TMC3     C13941   0.512   4.030  12.676 -0.0700  0.1614 -0.6287
    9TMC3     O13942   0.403   4.055  12.732  0.2425 -0.1061  0.1195
    9TMC3     H13943   0.637   3.917  12.487 -2.0865 -0.5956 -1.9621
    9TMC3    H113944   0.394   3.845  12.821  0.6013  0.6844 -0.3000
    9TMC3    H213945   0.521   3.519  12.590  4.2797 -0.5234 -0.4859
    9TMC3    C713946   0.422   3.584  12.823  0.3013 -0.9662  0.4712
    9TMC3    C813947   0.725   3.651  12.461  0.0178  0.4745  0.0683
    9TMC3    O113948   0.357   3.625  12.922  0.3173  0.3538  0.0774
    9TMC3    O213949   0.796   3.730  12.398 -0.2518  0.4589  0.1137
   10MPD2     C13950   1.128   3.333  12.452 -0.3376  0.3266  0.8972
   10MPD2    C113951   1.030   3.286  12.537  0.1622  0.7091 -0.4630
   10MPD2    C213952   0.904   3.347  12.542  0.6424 -0.6430  0.3968
   10MPD2    C313953   0.885   3.464  12.475 -0.5105 -0.0500  0.8987
   10MPD2    C413954   0.989   3.514  12.391 -0.1877  0.1339 -0.2084
   10MPD2    C513955   1.101   3.443  12.372  0.0597  0.5146  0.4827
   10MPD2     H13956   0.832   3.313  12.615 -2.1273  1.3204 -1.4034
   10MPD2    H113957   0.963   3.594  12.323  0.8539  1.5932  1.1069
   10MPD2    H213958   1.226   3.290  12.442 -0.4615  0.2793 -0.1351
   10MPD2    H313959   1.175   3.481  12.303  2.3565 -1.4477  1.8433
   10MPD2     N13960   0.760   3.525  12.503  0.9245 -0.0534  0.1069
   10MPD2    H513961   0.698   3.469  12.560  0.1879 -0.0975 -0.7345
   10MPD2    N113962   1.048   3.181  12.628  0.2461 -0.2846  0.1207
   10MPD2    H713963   0.961   3.142  12.663  0.8514 -0.6135  1.2211
   11MPD2     C13964   2.032   2.229  13.779  0.0670 -0.5884  0.2913
   11MPD2    C113965   1.947   2.265  13.674 -0.5602  0.0609 -0.2722
   11MPD2    C213966   1.922   2.399  13.645 -0.0719 -1.3092 -0.0638
   11MPD2    C313967   1.973   2.497  13.732 -0.4443  0.3644  0.6130
   11MPD2    C413968   2.046   2.465  13.836 -0.2686 -0.4599 -0.3728
   11MPD2    C513969   2.081   2.335  13.858 -0.6792 -0.1793  0.8745
   11MPD2     H13970   1.869   2.427  13.555  0.3723 -1.5035 -0.3864
   11MPD2    H113971   2.078   2.540  13.907 -0.0980 -1.2635  0.3970
   11MPD2    H213972   2.052   2.127  13.807 -1.3245 -0.8441  0.3723
   11MPD2    H313973   2.160   2.326  13.932  0.9889  0.2677 -0.8195
   11MPD2     N13974   1.965   2.634  13.710  0.6541  0.5015  0.0442
   11MPD2    H513975   2.018   2.695  13.771  3.6639 -2.1682  0.0724
   11MPD2    N113976   1.895   2.165  13.587  0.2925 -0.0385  0.1802
   11MPD2    H713977   1.828   2.206  13.523  1.7195 -1.9108 -2.4823
    1MPD1     C13978   3.602   4.382  16.669  0.2831  0.8078 -0.1260
    1MPD1    C113979   3.632   4.454  16.552 -0.4756 -0.0364  0.4175
    1MPD1    C213980   3.699   4.386  16.451 -0.5204 -0.0450 -0.1290
    1MPD1    C313981   3.729   4.247  16.463 -0.4867 -0.1287  0.4187
    1MPD1    C413982   3.697   4.183  16.579 -0.3572 -0.3781  0.3184
    1MPD1    C513983   3.637   4.253  16.682 -0.2277 -1.1977 -0.1542
    1MPD1     H13984   3.714   4.431  16.354 -0.1053 -0.5839 -0.3118
    1MPD1    H113985   3.726   4.081  16.603  2.5253  0.1235 -1.0782
    1MPD1    H213986   3.546   4.430  16.748 -2.2153 -1.2125 -0.6658
    1MPD1    H313987   3.612   4.201  16.775 -1.0338 -0.0702  0.2551
    1MPD1     N13988   3.802   4.166  16.369 -0.4680  0.3311 -0.1727
    1MPD1    H513989   3.827   4.070  16.390  1.0951  1.2300  2.1646
    1MPD1    N113990   3.621   4.595  16.563 -0.0120  0.6917 -0.0128
    1MPD1    H613991   3.634   4.650  16.479 -1.2619 -0.7205 -1.1325
    1MPD1    H713992   3.537   4.623  16.614  0.3388 -1.2574  1.6360
    2MPD1     C13993   4.462   3.740  16.648  0.1046  0.4002 -0.5021
    2MPD1    C113994   4.331   3.712  16.641  0.3007  0.0012  0.2132
    2MPD1    C213995   4.251   3.774  16.548  0.3016 -0.7316 -0.1909
    2MPD1    C313996   4.302   3.854  16.452 -0.5083 -0.2568  0.2894
    2MPD1    C413997   4.442   3.873  16.442  0.2029 -0.4376 -0.1499
    2MPD1    C513998   4.519   3.807  16.541  0.4597 -0.2388  0.8642
    2MPD1     H13999   4.143   3.765  16.554  0.4229 -0.4633  2.4776
    2MPD1    H114000   4.497   3.928  16.367 -1.5454  0.2039 -0.9752
    2MPD1    H214001   4.526   3.689  16.719 -0.0590 -1.2271 -1.5409
    2MPD1    H314002   4.626   3.810  16.528  0.2830 -0.5126 -0.7430
    2MPD1     N14003   4.206   3.925  16.376  0.7571 -0.6418 -0.5183
    2MPD1    H514004   4.107   3.915  16.394  0.5304  2.6268  0.0321
    2MPD1    N114005   4.277   3.642  16.754  0.1387  0.4610 -0.1157
    2MPD1    H614006   4.183   3.608  16.737  0.3047 -0.6097  1.1259
    2MPD1    H714007   4.339   3.572  16.794 -1.0921 -1.4159 -1.5124
    3TMC3    C114008   4.117   4.003  16.180 -0.2620  0.2242  0.1257
    3TMC3    C214009   4.128   4.013  16.047 -0.4456  0.2903 -0.8143
    3TMC3    C314010   4.027   4.070  15.978  0.8151  0.1395 -0.2931
    3TMC3    C414011   4.009   4.047  16.248 -1.1016  0.4902  0.8991
    3TMC3    C514012   3.921   4.117  16.177 -1.1173 -0.6624 -0.0514
    3TMC3    C614013   3.917   4.122  16.042 -0.7485 -0.4576 -0.1207
    3TMC3     C14014   4.239   3.974  16.248 -0.0011  0.3922  0.5932
    3TMC3     O14015   4.344   3.957  16.189  0.5011 -0.3487 -0.3998
    3TMC3     H14016   4.218   3.969  16.005  0.2854 -0.3616  1.4358
    3TMC3    H114017   4.012   4.041  16.356 -0.4564 -0.1842  0.8457
    3TMC3    H214018   3.842   4.176  15.985 -1.2609 -0.0369  0.9737
    3TMC3    C714019   3.838   4.209  16.244 -0.5857 -0.3732 -0.1122
    3TMC3    C814020   4.043   4.097  15.833 -0.5215  0.4770  0.3614
    3TMC3    O114021   3.824   4.317  16.184 -0.5724 -0.1333 -0.0393
    3TMC3    O214022   3.932   4.127  15.786  0.0339  0.3254  0.7363
    4MPD1     C14023   4.230   4.005  15.365  0.1108 -0.8307  0.7782
    4MPD1    C114024   4.338   4.011  15.445 -0.5083 -0.4256 -0.0884
    4MPD1    C214025   4.320   4.026  15.583 -0.4859  0.0574  0.0594
    4MPD1    C314026   4.189   4.048  15.635  0.0785 -0.4091  0.4630
    4MPD1    C414027   4.087   4.054  15.542 -0.0915 -0.6491  1.1228
    4MPD1    C514028   4.108   4.027  15.410 -0.0526 -0.2107  0.4348
    4MPD1     H14029   4.406   4.009  15.648 -1.7706  0.0044  1.7325
    4MPD1    H114030   3.986   4.082  15.567  0.0924 -0.5266  1.7403
    4MPD1    H214031   4.239   3.981  15.259 -0.2188  0.8712  0.3557
    4MPD1    H314032   4.032   4.020  15.333 -0.0891 -0.2321  0.4725
    4MPD1     N14033   4.164   4.063  15.776 -0.1400  0.3988 -0.4472
    4MPD1    H514034   4.247   4.046  15.832 -1.2070  1.6474  1.4940
    4MPD1    N114035   4.455   3.974  15.381 -0.5217  0.6650 -0.6029
    4MPD1    H614036   4.536   4.017  15.425 -1.2648  0.0887  1.3606
    4MPD1    H714037   4.453   3.994  15.281  0.4589  1.0356 -0.5424
    1TCq1    O114038   2.436   4.183  13.251  0.2442  0.1390  0.3315
    1TCq1    C114039   2.441   4.196  13.119 -0.0177  0.2933 -0.3205
    1TCq1    O214040   2.531   4.245  13.049  0.1338  0.2872  0.2067
    1TCq1    C214041   2.349   4.095  13.068  0.5669  0.0058 -0.0820
    1TCq1    C314042   2.333   4.086  12.929 -0.3848  0.6318  0.3934
    1TCq1    C414043   2.254   3.983  12.882  0.1752  1.4937  0.3322
    1TCq1    C514044   2.200   3.888  12.964 -0.5730 -0.6948 -0.3730
    1TCq1    C614045   2.219   3.903  13.097  0.1104  0.3242  0.3160
    1TCq1    C714046   2.301   3.999  13.156 -0.0280  0.7464  0.4218
    1TCq1    C814047   2.154   3.814  13.189  0.1187  0.4635  0.2265
    1TCq1    O414048   2.152   3.855  13.302 -0.1529  0.4892  0.4807
    1TCq1    C914049   2.262   3.942  12.748 -0.5550 -0.4265 -0.4076
    1TCq1    O514050   2.334   4.026  12.681 -0.1137  0.3004 -0.0036
    1TCq1    O614051   2.185   3.858  12.699  0.2118 -0.3810 -0.4296
    1TCq1    H114052   2.346   4.169  13.288  0.6966  2.9410  2.5322
    1TCq1    H214053   2.393   4.135  12.854  0.1617  2.0207  1.7441
    1TCq1    H314054   2.155   3.802  12.916 -1.5239  0.5374 -1.6672
    1TCq1    H414055   2.322   3.996  13.262  3.3947  0.1009 -0.2876
    2MPD1     C14056   1.902   3.400  13.310  0.2763 -0.3932 -0.4048
    2MPD1    C114057   1.923   3.398  13.177 -0.0259  0.4431  0.3800
    2MPD1    C214058   2.020   3.485  13.130 -0.2938 -0.2937  0.0659
    2MPD1    C314059   2.053   3.596  13.204  0.2726  0.8142 -0.0941
    2MPD1    C414060   2.034   3.601  13.336  0.5547  0.8312  0.0398
    2MPD1    C514061   1.956   3.497  13.389 -0.8364  0.8150  0.7810
    2MPD1     H14062   2.067   3.478  13.032 -1.2200  0.3006 -0.4187
    2MPD1    H114063   2.061   3.677  13.409 -0.5233 -0.1703  1.5018
    2MPD1    H214064   1.831   3.332  13.356  1.5279 -0.4282  1.4651
    2MPD1    H314065   1.941   3.493  13.496 -0.1532  0.1498  0.8513
    2MPD1     N14066   2.119   3.700  13.135 -0.0980  0.6193 -0.6871
    2MPD1    H514067   2.139   3.694  13.036  1.3001  1.4526 -0.4559
    2MPD1    N114068   1.888   3.282  13.106 -0.7130  0.7305  0.1628
    2MPD1    H614069   1.797   3.242  13.130 -1.1826  0.5934 -1.7943
    2MPD1    H714070   1.883   3.308  13.008  2.6802 -0.2280 -0.2498
    1TCq1    O114071   3.458   0.225   1.119  0.1827  0.2550 -0.7166
    1TCq1    C114072   3.563   0.306   1.087 -0.4575 -0.0182 -0.1727
    1TCq1    O214073   3.570   0.428   1.103  0.1770 -0.5302  0.4725
    1TCq1    C214074   3.684   0.224   1.075 -1.3429 -0.2640 -0.0699
    1TCq1    C314075   3.698   0.106   1.143  0.7350 -0.2499 -0.1620
    1TCq1    C414076   3.824   0.039   1.140 -0.0223 -0.2829  0.9589
    1TCq1    C514077   3.923   0.073   1.053 -0.1164 -0.1149  0.3152
    1TCq1    C614078   3.910   0.200   0.998 -0.4771  0.2785  0.0087
    1TCq1    C714079   3.792   0.267   1.011  0.0437  0.0133  0.2009
    1TCq1    C814080   4.020   0.253   0.921 -0.1160  0.2987  0.0322
    1TCq1    O414081   4.005   0.361   0.870  0.2236 -0.1255 -0.8379
    1TCq1    C914082   3.826   4.621   1.191 -0.3744 -0.2189  0.5692
    1TCq1    O514083   3.933   4.549   1.188  0.0666  0.3040  0.1218
    1TCq1    O614084   3.708   4.577   1.219  0.2303 -0.6733  0.2864
    1TCq1    H114085   3.472   0.131   1.098 -0.9259  0.1164 -0.8221
    1TCq1    H214086   3.623   0.078   1.216 -0.3276  1.4136 -0.6294
    1TCq1    H314087   3.994   4.716   1.026 -0.3589  0.5063 -2.1430
    1TCq1    H414088   3.779   0.363   0.962 -1.8517 -0.0951  0.4713
    2MPD1     C14089   4.488   0.299   0.739 -0.6952  0.6584  0.1653
    2MPD1    C114090   4.468   0.167   0.761 -0.2072 -0.3471 -0.3571
    2MPD1    C214091   4.356   0.134   0.827 -0.3370 -0.0343 -0.2335
    2MPD1    C314092   4.253   0.223   0.853  0.1213 -0.1956 -0.1085
    2MPD1    C414093   4.272   0.356   0.817  0.1168  0.1407  0.4141
    2MPD1    C514094   4.392   0.394   0.763 -0.2729  0.2780 -0.1050
    2MPD1     H14095   4.349   0.031   0.859  2.0182  0.0145  0.4256
    2MPD1    H114096   4.200   0.435   0.832 -1.3818 -1.1232 -0.1149
    2MPD1    H214097   4.586   0.335   0.711 -1.0151 -0.6423 -2.5852
    2MPD1    H314098   4.407   0.500   0.744 -3.0359 -0.2859 -5.3382
    2MPD1     N14099   4.135   0.180   0.918 -0.7376 -0.0031 -0.4769
    2MPD1    H514100   4.135   0.089   0.963 -2.8536  0.1685 -0.1157
    2MPD1    N114101   4.576   0.086   0.752 -0.0687 -0.9134 -0.1225
    2MPD1    H614102   4.543   4.714   0.726  1.5191 -1.4534 -0.1851
    2MPD1    H714103   4.634   0.128   0.679  0.4228 -2.8930 -0.8479
    1MPD1     C14104   3.182   0.859  10.331 -0.3351  0.6008  0.1526
    1MPD1    C114105   3.249   0.742  10.294 -0.2258  0.6834  0.1670
    1MPD1    C214106   3.192   0.621  10.329 -0.4471  0.1183  0.3110
    1MPD1    C314107   3.067   0.613  10.391 -0.6377 -0.0091 -0.1089
    1MPD1    C414108   2.999   0.731  10.427 -0.1421  0.3617  0.1792
    1MPD1    C514109   3.069   0.846  10.403 -1.0631  0.5525 -0.1580
    1MPD1     H14110   3.234   0.526  10.298 -2.0337 -0.1326 -1.0728
    1MPD1    H114111   2.907   0.749  10.481  0.4475  1.6621  0.7590
    1MPD1    H214112   3.232   0.954  10.317  4.5148 -2.2805 -1.8724
    1MPD1    H314113   3.025   0.938  10.441 -0.0346  1.8137 -1.9626
    1MPD1     N14114   3.012   0.491  10.419  0.4330  0.6184  0.4798
    1MPD1    H514115   3.082   0.420  10.402  1.6090  1.6608  0.9789
    1MPD1    N114116   3.351   0.750  10.196 -0.3544  0.3697  0.4308
    1MPD1    H614117   3.399   0.840  10.200  0.7233 -0.1345 -0.8698
    1MPD1    H714118   3.414   0.675  10.223  0.3778  1.0636  0.6553
    2MPD1     C14119   1.085   3.047  11.327 -0.0190 -0.3888  0.7244
    2MPD1    C114120   1.167   3.127  11.402 -0.3913  0.1721  0.1635
    2MPD1    C214121   1.281   3.183  11.347  0.6219  0.3462  0.2623
    2MPD1    C314122   1.303   3.162  11.214  0.5832  0.0302  0.1615
    2MPD1    C414123   1.211   3.084  11.141  0.0373  0.5876  0.3170
    2MPD1    C514124   1.106   3.014  11.194  0.5381  0.5168 -0.1558
    2MPD1     H14125   1.350   3.238  11.410  0.8519  0.6810 -0.2792
    2MPD1    H114126   1.220   3.084  11.033  1.3560 -0.2164  0.4279
    2MPD1    H214127   1.012   2.986  11.379  0.9555  0.0793  2.6451
    2MPD1    H314128   1.030   2.963  11.138  0.4511  1.2456 -0.6970
    2MPD1     N14129   1.412   3.210  11.137 -0.8008 -0.0981 -0.8226
    2MPD1    H514130   1.413   3.183  11.039  3.2529 -0.3935 -0.6801
    2MPD1    N114131   1.147   3.134  11.537 -0.0695 -0.2906  1.0210
    2MPD1    H614132   1.048   3.131  11.562 -0.7628  0.5729 -1.6474
    2MPD1    H714133   1.194   3.214  11.576 -0.7337 -1.1278  3.5289
    3MPD1     C14134   1.657   2.891  10.395  0.8662  0.9813 -0.3381
    3MPD1    C114135   1.541   2.911  10.462  0.0626  0.5628  0.3896
    3MPD1    C214136   1.538   3.005  10.565 -0.0256  0.1523  0.5756
    3MPD1    C314137   1.654   3.071  10.609 -0.3863  0.5055  0.5029
    3MPD1    C414138   1.776   3.037  10.545 -0.2746 -0.1711  0.4481
    3MPD1    C514139   1.775   2.950  10.435 -0.7121 -0.1300 -0.5576
    3MPD1     H14140   1.444   3.026  10.613  0.3313 -0.0208  1.3558
    3MPD1    H114141   1.875   3.075  10.567 -1.4492  3.2522 -0.1740
    3MPD1    H214142   1.660   2.814  10.319 -0.6774  1.3200 -0.7378
    3MPD1    H314143   1.866   2.908  10.395  1.0610  2.1085  1.2038
    3MPD1     N14144   1.643   3.154  10.721  0.2419  0.3379  0.1816
    3MPD1    H514145   1.559   3.152  10.777 -0.3801  0.0718 -0.7616
    3MPD1    N114146   1.423   2.869  10.401 -0.0489 -0.4061  0.3917
    3MPD1    H614147   1.349   2.853  10.469  1.3583 -0.8713  1.8174
    3MPD1    H714148   1.438   2.781  10.353  4.0939  0.9967 -0.9120
    4MPD2     C14149   2.992   4.444  10.356  0.0011  0.2203  0.3034
    4MPD2    C114150   2.884   4.504  10.426 -0.1339  0.1991 -0.0572
    4MPD2    C214151   2.770   4.437  10.439 -0.2009  0.1234  0.4303
    4MPD2    C314152   2.754   4.311  10.386 -0.1996 -0.1035 -0.0639
    4MPD2    C414153   2.862   4.247  10.317 -0.4968 -0.7661  0.7054
    4MPD2    C514154   2.973   4.317  10.304 -0.5622  0.0293 -0.5441
    4MPD2     H14155   2.696   4.499  10.488 -0.0013  1.9210 -1.5608
    4MPD2    H114156   2.848   4.143  10.287  0.7835  0.2231 -3.2428
    4MPD2    H214157   3.087   4.492  10.336 -0.5397  0.1928 -2.4050
    4MPD2    H314158   3.049   4.269  10.243 -1.1081 -0.4898 -0.8072
    4MPD2     N14159   2.628   4.259  10.410  0.0676  0.1530 -0.6064
    4MPD2    H514160   2.562   4.328  10.445 -0.8494 -0.7187 -0.6285
    4MPD2    N114161   2.892   4.628  10.488 -0.5070 -0.9085 -0.0420
    4MPD2    H714162   2.815   4.652  10.550 -1.7711 -1.1939 -1.5092
    5TMC3    C114163   2.959   0.120  10.552  1.5142  0.0463  0.1122
    5TMC3    C214164   2.964   0.233  10.480 -0.3662 -0.4384 -0.1911
    5TMC3    C314165   2.867   0.331  10.510 -0.3832  0.4131  0.2687
    5TMC3    C414166   2.870   0.098  10.654  0.3255  0.6564  0.1038
    5TMC3    C514167   2.769   0.184  10.663  0.1113 -0.4427  0.0982
    5TMC3    C614168   2.767   0.303  10.604 -0.2630 -0.0238 -0.3279
    5TMC3     C14169   2.984   0.006  10.468  0.1310 -0.4328  0.6403
    5TMC3     O14170   3.072   0.007  10.386  0.0337 -0.2065 -0.1253
    5TMC3     H14171   3.025   0.256  10.393  0.0092  0.5371  0.3266
    5TMC3    H114172   2.868   0.012  10.719 -1.6823 -0.1323 -1.0142
    5TMC3    H214173   2.684   0.373  10.604 -0.5024 -0.3136  1.4754
    5TMC3    C714174   2.655   0.098  10.666  0.5114  0.4647  0.4665
    5TMC3    C814175   2.895   0.473  10.491 -0.2232 -0.5722  0.4363
    5TMC3    O114176   2.677   4.712  10.611 -0.3150 -0.1905 -0.2091
    5TMC3    O214177   2.826   0.553  10.553  0.0211  0.5545 -0.1484
    6TMC3    C114178   1.612   3.327  11.090  0.1501 -0.0346  0.1562
    6TMC3    C214179   1.627   3.251  10.972  0.2152  0.4037 -0.1286
    6TMC3    C314180   1.704   3.313  10.873  0.9241 -0.2160 -0.7657
    6TMC3    C414181   1.686   3.438  11.117 -0.3190  0.2305 -0.3171
    6TMC3    C514182   1.760   3.497  11.017  0.6104 -0.0975 -0.1223
    6TMC3    C614183   1.764   3.439  10.894  0.0852  0.9837 -0.5425
    6TMC3     C14184   1.514   3.286  11.192  0.7840  0.1421 -0.7941
    6TMC3     O14185   1.520   3.341  11.302 -0.0118 -0.2692 -0.2679
    6TMC3     H14186   1.589   3.151  10.951 -1.5424  0.9539  0.4407
    6TMC3    H114187   1.667   3.492  11.210  1.0458  2.4959 -1.3593
    6TMC3    H214188   1.811   3.491  10.812  0.6075  1.1498 -0.1363
    6TMC3    C714189   1.798   3.634  11.035 -0.1093  0.1320 -0.7461
    6TMC3    C814190   1.740   3.246  10.750  0.0208 -0.3717  0.0045
    6TMC3    O114191   1.766   3.686  11.140 -0.3141 -0.1159  0.8079
    6TMC3    O214192   1.834   3.286  10.681 -0.0805 -0.3950  0.0209
    7MPD2     C14193   2.173   4.663  10.761  0.1973  0.0126 -0.1715
    7MPD2    C114194   2.268   4.616  10.670 -0.2906  0.8935  1.1531
    7MPD2    C214195   2.386   4.692  10.653 -0.8361  0.5909  0.8153
    7MPD2    C314196   2.414   0.094  10.719  0.3842  0.6046 -0.3178
    7MPD2    C414197   2.306   0.149  10.785  0.5969 -0.8495 -0.2828
    7MPD2    C514198   2.193   0.068  10.812  0.7555  0.1997  0.6359
    7MPD2     H14199   2.458   4.637  10.595 -1.0602  0.8170  0.3210
    7MPD2    H114200   2.309   0.235  10.851  0.4361  0.4097 -1.9025
    7MPD2    H214201   2.077   4.614  10.775  0.9023 -0.6466  2.3317
    7MPD2    H314202   2.114   0.109  10.874  1.9599  1.2155  1.5057
    7MPD2     N14203   2.537   0.151  10.715  0.2076 -0.0227 -0.0136
    7MPD2    H514204   2.557   0.243  10.754 -0.0222 -0.8912  2.1661
    7MPD2    N114205   2.250   4.487  10.618  0.5961 -0.1431  1.1124
    7MPD2    H714206   2.175   4.435  10.662 -0.7806 -0.3642 -1.5218
    8TMC3    C114207   2.303   4.299  10.482 -0.1035 -0.2781 -0.7191
    8TMC3    C214208   2.243   4.208  10.568  0.1581  0.4876  0.1503
    8TMC3    C314209   2.293   4.083  10.570  0.6911 -0.1387 -0.9369
    8TMC3    C414210   2.388   4.253  10.385  0.2530  0.0090 -0.2175
    8TMC3    C514211   2.442   4.126  10.391  0.3751 -0.4710  0.1049
    8TMC3    C614212   2.397   4.035  10.486 -0.3820 -0.4859  0.2962
    8TMC3     C14213   2.334   4.434  10.520  1.0635 -0.4528  0.0428
    8TMC3     O14214   2.425   4.491  10.452 -0.3380 -0.1200 -0.3038
    8TMC3     H14215   2.172   4.242  10.641  0.3722 -0.3731  0.7639
    8TMC3    H114216   2.407   4.319  10.302  0.3449  0.2984  0.0340
    8TMC3    H214217   2.443   3.937  10.493 -0.2944 -0.4482  0.2495
    8TMC3    C714218   2.588   4.133  10.378 -0.5400 -0.1432 -0.3045
    8TMC3    C814219   2.229   3.980  10.658 -0.1036  0.6868 -0.0155
    8TMC3    O114220   2.656   4.029  10.381  0.0460 -0.0395  0.9608
    8TMC3    O214221   2.198   3.870  10.610 -0.4951  0.0416 -0.8146
    9MPD2     C14222   2.047   4.069  10.967 -1.1628 -0.4273 -0.2844
    9MPD2    C114223   2.081   3.986  10.867 -0.2254  0.5775 -0.5112
    9MPD2    C214224   2.022   3.865  10.848 -0.1791 -0.0308 -0.3923
    9MPD2    C314225   1.932   3.820  10.943 -0.3524  0.6007  0.1976
    9MPD2    C414226   1.894   3.913  11.039  0.3255  1.0470 -0.1428
    9MPD2    C514227   1.943   4.037  11.040 -0.3364  0.8177 -0.2327
    9MPD2     H14228   2.049   3.801  10.765  0.0314  2.2990 -2.1052
    9MPD2    H114229   1.809   3.892  11.103 -0.1095  0.3030 -0.9706
    9MPD2    H214230   2.100   4.163  10.979 -1.4131 -0.0062 -2.5079
    9MPD2    H314231   1.914   4.100  11.124  1.2834  0.3286  0.6874
    9MPD2     N14232   1.877   3.686  10.938 -0.4599 -0.6396 -0.3444
    9MPD2    H514233   1.912   3.621  10.868  2.7049 -0.5016  1.1069
    9MPD2    N114234   2.175   4.036  10.779  0.0496  0.0091 -0.2140
    9MPD2    H714235   2.202   4.132  10.797 -1.4381  0.4065 -0.1686
    1MPD1     C14236   2.357   2.535  16.383 -1.0738  0.6203 -0.1543
    1MPD1    C114237   2.306   2.425  16.446 -0.0467 -0.4212 -0.6295
    1MPD1    C214238   2.175   2.390  16.429  0.0273 -0.4293 -0.1278
    1MPD1    C314239   2.091   2.460  16.342 -0.5536 -0.3405  0.6292
    1MPD1    C414240   2.153   2.551  16.260 -0.3778  1.1750  0.2018
    1MPD1    C514241   2.278   2.602  16.281 -0.7759 -0.7039 -0.6121
    1MPD1     H14242   2.142   2.311  16.495  0.2100  0.1098  0.6023
    1MPD1    H114243   2.093   2.589  16.178 -0.2889 -0.7138 -0.7556
    1MPD1    H214244   2.459   2.569  16.397 -1.3946  0.8007  1.6672
    1MPD1    H314245   2.318   2.685  16.224 -1.8676 -0.0475 -0.4253
    1MPD1     N14246   1.952   2.432  16.319 -0.1737 -0.4527 -0.2901
    1MPD1    H514247   1.901   2.467  16.239 -0.2942  0.6429  0.2653
    1MPD1    N114248   2.381   2.375  16.557  0.0200 -0.3572  0.3696
    1MPD1    H614249   2.348   2.282  16.582 -0.4712 -0.2788  0.0229
    1MPD1    H714250   2.480   2.370  16.537 -0.1401  0.7721 -0.6401
    2MPD1     C14251   1.541   2.706  15.692 -0.5328  1.1661  0.2712
    2MPD1    C114252   1.662   2.694  15.761  0.4072 -0.4106 -0.0709
    2MPD1    C214253   1.673   2.611  15.873  0.6077 -0.3106  0.6715
    2MPD1    C314254   1.562   2.552  15.924  0.9107  0.3311 -0.3796
    2MPD1    C414255   1.442   2.568  15.861 -0.3976 -0.6620 -0.4738
    2MPD1    C514256   1.435   2.645  15.747 -0.4019 -0.3674  0.3318
    2MPD1     H14257   1.766   2.585  15.922 -0.0602 -3.7029  0.1153
    2MPD1    H114258   1.352   2.525  15.902  0.4469 -1.8055  0.1737
    2MPD1    H214259   1.533   2.758  15.597 -1.5126 -0.2374 -0.4203
    2MPD1    H314260   1.336   2.652  15.704 -0.0482 -3.0582 -0.9210
    2MPD1     N14261   1.585   2.473  16.035 -0.1640  0.4646 -0.2929
    2MPD1    H514262   1.679   2.459  16.071  0.6503  1.1668 -2.1642
    2MPD1    N114263   1.777   2.733  15.700  0.4808 -0.2913 -0.1919
    2MPD1    H614264   1.783   2.821  15.648  0.1423 -0.9449 -1.3408
    2MPD1    H714265   1.857   2.734  15.764 -0.4588  0.9081  0.9721
    3TCq2    C114266   1.487   2.417  16.118  0.0096  0.1413  0.0582
    3TCq2    O214267   1.367   2.431  16.111  0.0635  0.2203  0.1527
    3TCq2    C214268   1.546   2.362  16.233  0.6088  0.1570 -0.4422
    3TCq2    C314269   1.475   2.273  16.304 -0.1980 -0.3092  0.1078
    3TCq2    C414270   1.541   2.202  16.398 -0.1507  0.6383  0.5105
    3TCq2    C514271   1.669   2.231  16.435 -0.0651 -0.1588  0.0675
    3TCq2    C614272   1.736   2.335  16.373 -0.8508  0.0098  0.0082
    3TCq2    C714273   1.675   2.400  16.271 -0.5311  0.0134 -0.0875
    3TCq2    C814274   1.875   2.360  16.411 -0.0771  0.0750 -0.4850
    3TCq2    O414275   1.913   2.316  16.520  0.0498 -0.1375 -0.1018
    3TCq2    C914276   1.482   2.090  16.462  0.1518  0.0443  0.6095
    3TCq2    O514277   1.565   2.014  16.525  0.3587  0.5820  0.3549
    3TCq2    O614278   1.363   2.056  16.429 -0.0625  0.2829  0.6935
    3TCq2    H214279   1.372   2.247  16.283 -0.0348 -0.5299 -0.4222
    3TCq2    H314280   1.728   2.160  16.492  0.4828  0.4181  0.2209
    3TCq2    H414281   1.724   2.490  16.234  0.3714 -0.0064  1.0592
    1TCq1    O114282   4.372   1.665  12.226  0.1374  0.2774  1.2568
    1TCq1    C114283   4.454   1.773  12.219 -0.3026 -0.1009  0.0721
    1TCq1    O214284   4.536   1.787  12.130 -0.0479  0.2733 -0.5877
    1TCq1    C214285   4.495   1.763  12.354 -0.3424  0.7135 -0.0718
    1TCq1    C314286   4.408   1.813  12.451  0.4258 -0.1550 -0.1430
    1TCq1    C414287   4.460   1.795  12.577 -0.1232  0.7039 -0.0274
    1TCq1    C514288   4.589   1.764  12.603 -0.2935 -0.1316  0.5330
    1TCq1    C614289   4.674   1.725  12.502 -0.2279  0.0368 -0.8395
    1TCq1    C714290   4.626   1.722  12.372 -1.1796  0.4003 -0.0659
    1TCq1    C814291   0.099   1.760  12.520  0.3461 -0.2203 -0.1741
    1TCq1    O414292   0.181   1.698  12.456  0.8649 -0.0220  0.5919
    1TCq1    C914293   4.382   1.838  12.695 -0.3031 -0.5354 -0.2615
    1TCq1    O514294   4.441   1.847  12.804  0.2773  0.3139 -0.4509
    1TCq1    O614295   4.277   1.903  12.680  0.4549 -0.3761 -0.2458
    1TCq1    H114296   4.362   1.630  12.317 -2.4168  2.2619  1.7378
    1TCq1    H214297   4.309   1.846  12.424  0.5633  1.0008  0.7827
    1TCq1    H314298   4.617   1.754  12.708  1.3358  0.6408  0.1636
    1TCq1    H414299   4.693   1.706  12.289 -0.9978  3.0682 -0.4328
    2MPD2     C14300   0.351   1.851  12.631 -0.2686  0.2231  0.1887
    2MPD2    C114301   0.232   1.851  12.703  0.4237  0.4381 -0.2024
    2MPD2    C214302   0.235   1.914  12.830 -1.0128  0.5380 -0.4547
    2MPD2    C314303   0.353   1.950  12.894 -0.0184  0.7280 -0.5840
    2MPD2    C414304   0.473   1.945  12.821  0.2852  0.3297  0.5638
    2MPD2    C514305   0.467   1.889  12.694 -0.0557  0.3662  0.3516
    2MPD2     H14306   0.137   1.928  12.875  0.0311  1.3747  1.5705
    2MPD2    H114307   0.567   1.985  12.858 -1.0157  1.7581  2.2917
    2MPD2    H214308   0.359   1.824  12.527  0.3523  1.5580 -0.1155
    2MPD2    H314309   0.556   1.870  12.634  0.9513 -0.8098  2.2048
    2MPD2     N14310   0.343   1.992  13.027 -0.2066 -0.1108 -0.0864
    2MPD2    H514311   0.250   2.001  13.065 -1.3377 -3.3476 -2.0958
    2MPD2    N114312   0.113   1.816  12.648 -0.1737 -0.1932 -0.2139
    2MPD2    H714313   0.025   1.845  12.689 -1.1678 -1.6779 -1.2776
    3TCq1    O114314   0.220   2.414  13.438 -0.2182 -0.5485 -0.0238
    3TCq1    C114315   0.343   2.378  13.399 -0.3403  0.0207  0.6889
    3TCq1    O214316   0.436   2.456  13.374 -0.3361 -0.2692 -0.3036
    3TCq1    C214317   0.333   2.239  13.367  0.3150 -0.3256  0.5693
    3TCq1    C314318   0.239   2.157  13.423 -0.4098  0.0712 -1.2518
    3TCq1    C414319   0.217   2.025  13.376  0.5411  0.8822 -0.7028
    3TCq1    C514320   0.299   1.965  13.278  0.2089  0.1099  0.5699
    3TCq1    C614321   0.397   2.053  13.238 -0.3548 -0.1443  0.2089
    3TCq1    C714322   0.421   2.182  13.278  0.1224  0.1844  0.0727
    3TCq1    C814323   0.445   2.033  13.102 -0.2942  0.3471 -0.3361
    3TCq1    O414324   0.558   2.074  13.074 -0.0007  0.3824  0.2978
    3TCq1    C914325   0.097   1.952  13.412  0.2337  0.3558  0.8453
    3TCq1    O514326   0.051   1.867  13.332 -0.6385  0.3620  0.0319
    3TCq1    O614327   0.035   2.003  13.507  0.3705  0.3969  0.3793
    3TCq1    H114328   0.153   2.343  13.432  1.9517 -2.7463  2.0228
    3TCq1    H214329   0.161   2.191  13.490 -0.3316 -1.5762 -0.3407
    3TCq1    H314330   0.278   1.866  13.238  0.0632 -0.0261  0.9787
    3TCq1    H414331   0.489   2.246  13.223 -1.2736 -0.1933 -2.0947
    1MPD2     C14332   0.080   2.359  14.900  0.5578  0.5181 -0.1002
    1MPD2    C114333   4.716   2.338  14.794  0.3911 -0.0207  0.1671
    1MPD2    C214334   0.040   2.260  14.690  0.1910  0.4768 -0.0315
    1MPD2    C314335   0.160   2.193  14.694 -0.7665 -0.5839  0.6350
    1MPD2    C414336   0.245   2.213  14.795  0.1068 -0.2197 -0.0623
    1MPD2    C514337   0.205   2.299  14.892 -0.2250 -0.1723  0.3205
    1MPD2     H14338   4.702   2.245  14.600  0.3927  0.0784 -0.1002
    1MPD2    H114339   0.342   2.164  14.797  0.4577  0.4408 -1.5837
    1MPD2    H214340   0.048   2.419  14.984  0.3302  0.6581 -0.2881
    1MPD2    H314341   0.275   2.327  14.970 -0.2229 -0.9994  0.6130
    1MPD2     N14342   0.212   2.117  14.590 -0.0058 -0.5513  0.6838
    1MPD2    H514343   0.311   2.096  14.580  0.4026  1.3999  0.7153
    1MPD2    N114344   4.584   2.380  14.801 -0.4495 -0.1923  0.5341
    1MPD2    H714345   4.560   2.452  14.869  0.7437 -0.2903  1.0586
    2TMC3    C114346   4.353   2.392  14.754 -0.0466  0.0201 -0.2105
    2TMC3    C214347   4.256   2.308  14.717  0.3617  0.1240  0.3912
    2TMC3    C314348   4.163   2.343  14.621  0.5378  0.2626  0.6630
    2TMC3    C414349   4.358   2.515  14.704  0.1795 -0.5612  0.2216
    2TMC3    C514350   4.262   2.552  14.606  0.2513  0.7540  0.6538
    2TMC3    C614351   4.163   2.470  14.569  0.3441 -0.1956  0.3082
    2TMC3     C14352   4.481   2.338  14.723 -0.2099 -0.1533 -0.7780
    2TMC3     O14353   4.463   2.244  14.649  0.0026  0.3326 -0.0321
    2TMC3     H14354   4.262   2.204  14.750  1.7207  0.0436 -0.1418
    2TMC3    H114355   4.442   2.573  14.740 -1.2842  2.0490 -0.5765
    2TMC3    H214356   4.083   2.490  14.499 -2.3443 -0.5707  3.3123
    2TMC3    C714357   4.264   2.686  14.544  0.4036  0.7079 -0.5731
    2TMC3    C814358   4.129   2.235  14.526  0.2630  0.0506 -0.6586
    2TMC3    O114359   4.162   2.720  14.490  0.3185 -0.1494 -0.1728
    2TMC3    O214360   4.014   2.223  14.486  0.6479 -0.0038  0.3645
    3TCq1    O114361   0.367   3.522  14.291 -0.6294  0.1626 -0.7414
    3TCq1    C114362   0.461   3.427  14.321 -0.3078  0.4579  0.0348
    3TCq1    O214363   0.564   3.399  14.261 -0.2207  0.2333 -0.2128
    3TCq1    C214364   0.389   3.326  14.399 -0.3724 -0.4012 -0.7022
    3TCq1    C314365   0.464   3.243  14.473  0.6658 -0.7688  0.4268
    3TCq1    C414366   0.402   3.156  14.559  0.0633 -0.8087 -0.4191
    3TCq1    C514367   0.264   3.144  14.558 -0.1815  0.3070 -0.0734
    3TCq1    C614368   0.191   3.222  14.477 -0.1936  0.0876 -0.2615
    3TCq1    C714369   0.253   3.323  14.406 -0.4326 -0.3069  1.2874
    3TCq1    C814370   0.048   3.216  14.472  0.2812 -0.3717  0.0342
    3TCq1    O414371   4.708   3.312  14.438  0.3371 -0.1545  0.3313
    3TCq1    C914372   0.480   3.064  14.637 -0.2764 -0.0512 -0.0782
    3TCq1    O514373   0.423   2.974  14.707 -0.0973 -0.5575 -0.0527
    3TCq1    O614374   0.604   3.076  14.637 -0.1496 -0.0106  0.8655
    3TCq1    H114375   0.306   3.538  14.367  0.4860  0.7647  0.0256
    3TCq1    H214376   0.572   3.256  14.464  0.4908 -0.6147 -1.3767
    3TCq1    H314377   0.224   3.062  14.617  2.5064 -0.0796  1.2208
    3TCq1    H414378   0.193   3.396  14.353  1.7165  0.9138  0.5139
    4MPD2     C14379   4.492   3.119  14.394  0.1682  0.4007  0.4220
    4MPD2    C114380   4.574   3.052  14.485 -0.9650 -0.2236 -0.0330
    4MPD2    C214381   4.535   2.933  14.540  0.9036  0.0850  0.0697
    4MPD2    C314382   4.411   2.879  14.514  0.6041 -0.6273  0.7202
    4MPD2    C414383   4.328   2.953  14.429 -0.2268 -0.3356 -0.6708
    4MPD2    C514384   4.376   3.061  14.359  1.4955  0.3503 -0.8506
    4MPD2     H14385   4.601   2.877  14.607  1.0148  1.8406  1.4373
    4MPD2    H114386   4.231   2.915  14.399 -1.3487  2.4839 -0.6032
    4MPD2    H214387   4.510   3.203  14.328 -0.8682  1.0718  1.0027
    4MPD2    H314388   4.314   3.104  14.281 -0.5005 -0.9382  0.0325
    4MPD2     N14389   4.392   2.746  14.559  0.3031 -0.6815  0.4077
    4MPD2    H514390   4.466   2.691  14.602 -0.0581 -0.1834  1.6916
    4MPD2    N114391   4.709   3.096  14.510  0.3797  0.5809 -0.0577
    4MPD2    H714392   0.046   3.034  14.566 -2.4947  0.9806  3.2724
    5TMC2    C114393   0.081   1.836  14.255 -0.4199  0.1274  0.3757
    5TMC2    C214394   0.145   1.734  14.308 -0.1048  0.3164  0.2907
    5TMC2    C314395   0.247   1.760  14.399 -0.7296 -0.0999  0.6191
    5TMC2    C414396   0.109   1.962  14.293 -1.0634 -0.1938 -0.5425
    5TMC2    C514397   0.199   1.987  14.389 -0.0406  0.2319  0.3748
    5TMC2    C614398   0.280   1.884  14.438 -0.1284 -0.8263  0.0239
    5TMC2     C14399   4.660   1.810  14.248  0.1845 -0.4104  0.2938
    5TMC2     O14400   4.617   1.702  14.202 -0.0675  1.1750  0.7364
    5TMC2     H14401   0.124   1.629  14.290  1.5893 -0.0677  0.5620
    5TMC2    H114402   0.060   2.046  14.245 -0.1413  0.8579  0.3926
    5TMC2    H214403   0.339   1.893  14.528 -0.2478 -1.2346  0.1443
    5TMC2    C714404   0.133   2.064  14.486 -0.7589 -0.0149  1.0384
    5TMC2    C814405   0.311   1.641  14.462 -0.4697 -0.1498  0.5752
    5TMC2    O114406   0.011   2.071  14.475 -0.4340  0.4308 -0.3064
    5TMC2    O214407   0.256   1.533  14.474 -0.1368  0.5763  0.1186
    5TMC2    O514408   0.437   1.668  14.509 -0.2174  0.4757 -0.4646
    5TMC2    H514409   0.478   1.757  14.516 -0.1490  0.5438 -1.7937
    6MPD2     C14410   4.192   2.030  14.301  0.0161  0.1976  0.9299
    6MPD2    C114411   4.280   2.085  14.393  0.8101  0.6301  0.6672
    6MPD2    C214412   4.415   2.046  14.382 -0.0993  0.1882 -0.2735
    6MPD2    C314413   4.452   1.941  14.303  0.6039  0.2174  0.9800
    6MPD2    C414414   4.357   1.875  14.226  0.2971  0.7966  0.1877
    6MPD2    C514415   4.230   1.929  14.220 -0.0846 -0.5389 -0.2579
    6MPD2     H14416   4.488   2.097  14.445 -1.2473  0.8066  0.5594
    6MPD2    H114417   4.382   1.793  14.160 -2.0384  0.6466 -0.5165
    6MPD2    H214418   4.091   2.068  14.297  0.0022  0.1190  0.5468
    6MPD2    H314419   4.163   1.892  14.144 -0.0634  0.1392 -0.6073
    6MPD2     N14420   4.586   1.917  14.302 -0.0897  0.3599 -0.0185
    6MPD2    H514421   4.636   1.986  14.356  0.8038  0.0459 -0.4383
    6MPD2    N114422   4.247   2.177  14.495 -0.0289 -0.7379 -0.7157
    6MPD2    H714423   4.326   2.211  14.549 -0.6769 -0.7441  0.2446
  945NH3     N114424   3.304   3.645  16.541  0.4417  0.2328 -0.0398
  945NH3     H214425   3.211   3.670  16.575 -0.0692 -1.1047 -0.4416
  945NH3     H314426   3.334   3.565  16.595 -1.3549 -0.6154 -0.2844
  945NH3     H414427   3.271   3.606  16.453 -0.2260 -2.0063  1.2066
  946SOD     NA14428   4.440   1.720  12.986  0.4454  0.0619  0.3567
  947SOD     NA14429   1.364   3.668  16.628  0.0793 -0.0474 -0.0190
  948SOD     NA14430   1.293   2.080   0.922  0.6278  0.3337 -0.0916
  949SOD     NA14431   3.010   0.559   2.301 -0.8961 -0.8565 -0.0891
  950SOD     NA14432   0.321   0.278  10.395 -0.0517 -0.2650  0.1417
  951SOD     NA14433   2.531   1.548   0.179  0.0377  0.3379 -0.1434
  952SOD     NA14434   3.394   1.234  11.398 -0.2929 -0.5301 -0.3895
  953SOD     NA14435   1.561   1.352  10.919 -0.3866 -0.1942 -0.4787
  954SOD     NA14436   2.559   2.175  14.794 -0.0685 -0.1876 -0.1394
  955SOD     NA14437   2.240   0.053   8.274  0.2247  0.1860  0.1830
  956SOD     NA14438   1.932   4.127   2.933 -0.6814  0.6401  0.3870
  957SOD     NA14439   4.104   4.625  13.228  0.5538 -0.1231  0.4813
  958SOD     NA14440   3.430   0.969   8.829  0.1845 -0.6454 -0.3194
  959SOD     NA14441   4.550   1.583  14.020 -0.3824 -0.0987  0.2816
  960SOD     NA14442   2.413   2.874  13.538  0.3254  0.4378  0.0694
  961SOD     NA14443   0.436   0.092  10.106 -0.4085  0.0927 -0.0994
  962SOD     NA14444   1.154   1.362  12.422 -0.2899  0.2508 -0.6677
  963SOD     NA14445   4.428   4.127   4.649 -0.1438  0.0645 -0.1861
  964SOD     NA14446   1.977   1.464  14.294  0.4417  0.1045  0.2009
  965SOD     NA14447   0.748   2.692  13.587 -0.1297 -0.0648 -0.0953
  966SOD     NA14448   0.266   2.832  14.689 -0.7102 -0.1427 -0.4708
  967SOD     NA14449   0.356   0.449  10.146 -0.1542  0.3244  0.7073
  968SOD     NA14450   0.536   0.675   1.927  0.1224  0.0006  0.2281
  969SOD     NA14451   0.056   2.132   0.389 -0.1447 -0.0821 -0.2422
  970SOD     NA14452   2.269   3.876  12.500  0.6786 -0.3142  0.1904
  971SOD     NA14453   0.527   2.926  14.894 -0.1495 -0.0113 -0.0797
  972SOD     NA14454   3.555   0.781  12.677 -0.1584 -0.2679 -0.0326
  973SOD     NA14455   1.546   3.987   1.666  0.0646 -0.0202  0.4384
  974SOD     NA14456   2.366   0.484  12.605  0.0479 -0.4243  0.1432
  975SOD     NA14457   0.553   1.327   1.897 -0.3530 -0.1489  0.0167
  976SOD     NA14458   1.444   1.427  11.217  0.0693 -0.3999 -0.1007
  977SOD     NA14459   1.615   2.226  13.871 -0.8297 -0.1835  0.9182
  978SOD     NA14460   1.398   3.305  14.391  0.0244  0.0720  0.5214
  979SOD     NA14461   2.382   2.828  13.844  0.5208  0.1106  0.4221
  980SOD     NA14462   3.302   4.126  15.036 -0.5246  0.2906  0.0586
  981SOD     NA14463   1.432   1.848  16.483  0.5404 -0.1084  0.0125
  982SOD     NA14464   1.185   1.625   8.756 -0.1632  0.0112  0.0244
  983SOD     NA14465   3.521   2.553  11.794  0.0767 -0.1641  0.0653
  984SOD     NA14466   4.656   0.903   7.539  0.1222 -0.2061  0.0121
  985SOD     NA14467   4.063   1.388  11.121  0.3811  0.2992 -0.4426
  986SOD     NA14468   3.209   2.235   8.999  0.0184  0.0621  0.2327
  987SOD     NA14469   3.628   1.777   1.640  0.0104 -0.0931 -0.4589
  988SOD     NA14470   0.728   3.230  10.074  0.1566  0.1181  0.1731
  989SOD     NA14471   1.524   4.682  16.552 -0.5795  0.1254  0.0439
  990SOD     NA14472   2.069   0.618   9.424  0.2928  0.0991  0.6570
  991SOD     NA14473   1.876   0.348  12.850 -0.1785 -0.1709  0.1942
  992SOD     NA14474   1.730   2.959  12.107 -0.0008 -0.0869 -0.2699
  993SOD     NA14475   2.417   0.072  10.177  0.1109  0.0547  0.4054
  994SOD     NA14476   0.488   0.734  10.059  0.1151 -0.3386 -0.0140
  995SOD     NA14477   1.642   4.680  17.264 -0.2216  0.2625  0.5542
  996SOD     NA14478   2.662   4.219   0.419 -0.0253  0.2634 -0.2024
  997SOD     NA14479   0.438   4.244  17.372 -0.0869  0.4897 -0.1501
  998SOD     NA14480   1.377   3.014   1.002  0.3289 -0.7160 -0.3859
  999SOD     NA14481   3.744   3.373   0.470  0.0414 -0.6139 -0.2898
 1000SOD     NA14482   2.472   0.449   0.718  0.0702  0.1580  0.2095
 1001SOD     NA14483   0.144   0.504  10.363  0.3517 -0.3438  0.5886
 1002SOD     NA14484   2.922   2.368  12.886 -0.2007 -0.3993  0.0328
 1003SOD     NA14485   0.799   2.060  11.879 -0.3492  0.3322  0.0888
 1004SOD     NA14486   2.352   3.376  11.750  0.4111 -0.3550  0.0181
 1005SOD     NA14487   4.611   0.622  14.952 -0.4693 -0.5045 -0.3879
 1006SOD     NA14488   1.744   2.280   1.867  0.2329 -0.3703 -0.3546
 1007SOD     NA14489   2.853   3.941  11.388 -0.3610 -0.1179 -0.5678
 1008SOD     NA14490   2.582   3.756   6.444 -0.4708 -0.0119  0.0223
 1009SOD     NA14491   3.053   0.370  14.853  0.2582 -0.4391  0.3856
 1010SOD     NA14492   0.696   0.593  11.527  0.0995  0.2939  0.0512
 1011SOD     NA14493   3.690   1.258   1.361  0.2292 -0.0238  0.3569
 1012SOL     OW14494   1.333   1.867  15.535  0.1904  0.0192  0.0223
 1012SOL    HW114495   1.428   1.860  15.544  0.1375 -1.1511 -0.2755
 1012SOL    HW214496   1.316   1.773  15.539 -1.3182  0.1960 -2.3223
 1013SOL     OW14497   0.129   2.929  16.958  0.4206 -0.5592 -0.2338
 1013SOL    HW114498   0.188   2.895  16.891  1.9693 -0.9562  1.3125
 1013SOL    HW214499   0.193   2.985  17.004 -0.5516  0.1512  0.2562
 1014SOL     OW14500   2.089   0.246   3.383  0.9038  0.4038  0.7507
 1014SOL    HW114501   2.041   0.300   3.320  1.4430 -1.7801 -1.5201
 1014SOL    HW214502   2.017   0.188   3.410 -0.4274  1.5901 -0.2135
 1015SOL     OW14503   4.221   3.973   2.510 -0.4867  0.4857 -0.5233
 1015SOL    HW114504   4.237   4.043   2.448  2.2547  1.6301  1.4990
 1015SOL    HW214505   4.228   3.891   2.461 -0.0311 -0.3720  0.9780
 1016SOL     OW14506   4.483   0.318   2.177  0.8966  0.3694  0.3327
 1016SOL    HW114507   4.570   0.313   2.136  1.5576 -0.1113  1.7894
 1016SOL    HW214508   4.474   0.224   2.195 -2.8210  0.4163 -1.2969
 1017SOL     OW14509   2.911   1.237  11.901 -0.4283  0.9022  0.6977
 1017SOL    HW114510   2.849   1.179  11.946 -1.2450 -0.1895 -1.8701
 1017SOL    HW214511   2.844   1.304  11.886 -2.5675 -1.1559  1.0213
 1018SOL     OW14512   4.615   0.436   7.195 -0.3156 -1.0323 -0.0649
 1018SOL    HW114513   4.608   0.470   7.105 -1.0229 -0.4379  0.2151
 1018SOL    HW214514   4.533   0.385   7.197 -0.7481 -0.2651  1.1556
 1019SOL     OW14515   2.782   1.032   5.491 -0.8207 -0.0682  0.2844
 1019SOL    HW114516   2.741   1.114   5.518 -0.3818  0.0514  0.5890
 1019SOL    HW214517   2.826   1.006   5.571  0.5618  0.7877 -0.1921
 1020SOL     OW14518   2.729   2.078  13.163 -0.0387 -0.0083 -0.1674
 1020SOL    HW114519   2.649   2.056  13.209 -0.1675  0.7044 -0.0502
 1020SOL    HW214520   2.790   2.013  13.198 -0.5008 -0.5064 -0.2840
 1021SOL     OW14521   0.384   0.345   8.120  0.2772 -0.5490 -0.1450
 1021SOL    HW114522   0.432   0.332   8.038 -1.7141 -1.9360 -1.0771
 1021SOL    HW214523   0.294   0.320   8.100  0.5391 -0.5973 -1.2670
 1022SOL     OW14524   3.682   3.175   5.237  0.2546  0.1081  0.3954
 1022SOL    HW114525   3.699   3.140   5.149  1.4228  0.1083  0.6273
 1022SOL    HW214526   3.770   3.209   5.255 -0.3825  0.6158  2.4958
 1023SOL     OW14527   3.359   0.379   7.604 -0.7648 -0.6290 -0.1971
 1023SOL    HW114528   3.382   0.286   7.609 -0.0037 -0.2970  2.2244
 1023SOL    HW214529   3.392   0.408   7.519 -2.7408  0.0418 -0.7505
 1024SOL     OW14530   2.210   1.196  17.104  0.2128 -0.2798  0.1462
 1024SOL    HW114531   2.132   1.250  17.096 -1.6036 -2.9600 -0.1281
 1024SOL    HW214532   2.247   1.225  17.021  1.0126  0.1537  0.6478
 1025SOL     OW14533   3.490   0.894  17.206  0.7273  0.2078 -0.6065
 1025SOL    HW114534   3.469   0.968  17.262  1.5638  0.8860 -1.1851
 1025SOL    HW214535   3.508   0.830  17.275  0.6507  0.2490 -0.5499
 1026SOL     OW14536   4.017   0.377   2.785 -0.2232  0.2668 -0.5382
 1026SOL    HW114537   3.941   0.357   2.730 -0.0700 -1.3812 -0.1494
 1026SOL    HW214538   4.080   0.400   2.716 -1.4565  2.2807 -1.0085
 1027SOL     OW14539   0.933   0.510   6.121 -0.2150 -0.2942  0.1758
 1027SOL    HW114540   0.952   0.493   6.029  1.8680 -0.5944  0.6813
 1027SOL    HW214541   1.021   0.503   6.156  0.2388  1.3487 -0.6297
 1028SOL     OW14542   1.572   3.010   7.674  0.4206  0.2960 -0.7047
 1028SOL    HW114543   1.495   3.035   7.624 -0.3082  0.2332  0.3903
 1028SOL    HW214544   1.524   2.980   7.752 -0.4196 -0.8995 -1.6881
 1029SOL     OW14545   4.414   2.827   2.651 -0.2696  0.4101 -0.1621
 1029SOL    HW114546   4.385   2.888   2.719 -1.5196 -0.1776 -0.1687
 1029SOL    HW214547   4.459   2.887   2.592  0.1968 -1.0692 -1.3120
 1030SOL     OW14548   0.300   1.264   9.551 -0.7877 -0.2478 -0.1010
 1030SOL    HW114549   0.292   1.173   9.522 -0.6538 -0.3348  0.1377
 1030SOL    HW214550   0.226   1.261   9.612  1.1405 -1.5303  2.1687
 1031SOL     OW14551   0.978   4.124   8.025  0.6549  0.1617 -0.1259
 1031SOL    HW114552   1.011   4.037   8.003  0.4558 -0.3634  1.6446
 1031SOL    HW214553   0.976   4.115   8.121 -0.5855 -0.0027 -0.1609
 1032SOL     OW14554   4.443   2.069   7.378 -0.2577 -0.0068  0.4092
 1032SOL    HW114555   4.539   2.059   7.377 -0.1921  0.7069 -0.4542
 1032SOL    HW214556   4.407   1.980   7.380  0.9728 -0.5153  0.1816
 1033SOL     OW14557   0.981   2.938   2.526 -0.0933 -0.0775 -0.4411
 1033SOL    HW114558   0.908   2.918   2.466 -0.4524 -1.8407  0.5601
 1033SOL    HW214559   1.051   2.876   2.504 -0.0292  0.1924 -0.9810
 1034SOL     OW14560   0.937   0.937  15.667 -0.0656 -0.4851  0.7138
 1034SOL    HW114561   0.909   1.013  15.719  2.2915  0.2838  0.8713
 1034SOL    HW214562   1.026   0.968  15.647 -0.2880 -0.6933 -0.5667
 1035SOL     OW14563   2.252   2.623   4.319  0.3255 -0.2622  0.2679
 1035SOL    HW114564   2.331   2.571   4.305 -0.1262 -1.0810  0.7063
 1035SOL    HW214565   2.293   2.704   4.350  1.2644 -0.9592  0.8516
 1036SOL     OW14566   4.180   3.174   3.095 -0.1186  0.5298  0.3855
 1036SOL    HW114567   4.103   3.194   3.148 -0.5194  0.0668 -0.0190
 1036SOL    HW214568   4.152   3.099   3.042  2.3031 -0.0799 -0.0376
 1037SOL     OW14569   1.285   3.533   2.357  0.0627  0.3383 -0.3659
 1037SOL    HW114570   1.230   3.456   2.342 -0.7025  0.8054  0.0709
 1037SOL    HW214571   1.240   3.599   2.304 -0.7107  0.6480  0.6898
 1038SOL     OW14572   1.864   2.536  14.237 -0.8195 -0.5415 -0.0599
 1038SOL    HW114573   1.779   2.577  14.219 -0.9969 -1.2845 -0.8805
 1038SOL    HW214574   1.834   2.481  14.308  1.1249 -0.9348  0.4434
 1039SOL     OW14575   1.298   4.492  11.498  0.0403 -0.6213 -0.8156
 1039SOL    HW114576   1.266   4.427  11.435  0.7654 -0.5054 -1.3120
 1039SOL    HW214577   1.364   4.544  11.452  0.8714 -0.2260  0.8058
 1040SOL     OW14578   2.494   0.992   8.832  0.4787  0.1032  0.1966
 1040SOL    HW114579   2.570   1.031   8.876  2.1660 -1.6184 -1.1784
 1040SOL    HW214580   2.520   0.911   8.787 -2.1662  0.2370 -1.5864
 1041SOL     OW14581   3.214   0.191  14.848 -0.5826  0.0079  0.0685
 1041SOL    HW114582   3.147   0.133  14.812 -2.1926  2.6728 -1.2051
 1041SOL    HW214583   3.223   0.146  14.933 -0.4383 -0.3262 -0.1233
 1042SOL     OW14584   0.785   1.966   8.018  0.6886 -1.0199 -0.2125
 1042SOL    HW114585   0.690   1.962   8.021  0.5807  1.6900  0.1401
 1042SOL    HW214586   0.799   2.053   8.057  1.1201 -0.8340 -0.7860
 1043SOL     OW14587   3.665   2.362  16.201  0.1139 -0.1538  0.4405
 1043SOL    HW114588   3.730   2.324  16.142  2.4470  1.5411  1.9343
 1043SOL    HW214589   3.661   2.298  16.272 -2.6072  1.1702  1.4792
 1044SOL     OW14590   2.119   2.644   1.636  0.1562  0.1191 -0.4744
 1044SOL    HW114591   2.163   2.590   1.702  0.7306 -1.1633 -1.9057
 1044SOL    HW214592   2.031   2.606   1.641 -0.7921  2.4572  0.4102
 1045SOL     OW14593   2.105   0.120   7.478  0.3729  0.6273 -0.3874
 1045SOL    HW114594   2.174   0.103   7.413  0.5063 -3.5223  0.8516
 1045SOL    HW214595   2.031   0.089   7.427  0.6860 -2.3534  0.9632
 1046SOL     OW14596   0.845   0.113   5.777 -0.0599 -0.0770  0.3693
 1046SOL    HW114597   0.879   0.027   5.749  1.0539  0.5022 -0.0649
 1046SOL    HW214598   0.893   0.127   5.858  1.2057  0.9286 -0.5577
 1047SOL     OW14599   1.979   1.730   6.631 -0.3710 -0.3227 -0.0645
 1047SOL    HW114600   1.964   1.644   6.670  0.9666  0.4577  2.1680
 1047SOL    HW214601   2.025   1.769   6.705 -0.7819 -1.8966  1.0129
 1048SOL     OW14602   2.067   4.592  17.178 -0.4733 -0.4415 -0.1086
 1048SOL    HW114603   2.093   4.683  17.164  1.0578 -0.7584  0.6194
 1048SOL    HW214604   2.051   4.606  17.271 -0.7936 -0.4431 -0.1641
 1049SOL     OW14605   0.061   1.157  15.372 -0.2508 -0.0348  0.0955
 1049SOL    HW114606   0.018   1.100  15.436  0.2486 -1.1852 -0.5828
 1049SOL    HW214607   0.116   1.213  15.427 -0.0704 -1.0190  0.9162
 1050SOL     OW14608   0.359   4.679   6.545 -0.3962 -0.0220 -0.3769
 1050SOL    HW114609   0.264   4.684   6.537 -0.6436 -1.8816  1.5165
 1050SOL    HW214610   0.387   4.706   6.457  0.4500 -1.6884 -0.6246
 1051SOL     OW14611   3.937   0.726  15.204  0.1823  0.1326  0.2529
 1051SOL    HW114612   3.884   0.720  15.283 -1.2324 -3.5919 -1.0143
 1051SOL    HW214613   3.874   0.676  15.152 -0.4817  1.8915 -0.6593
 1052SOL     OW14614   2.560   0.169   6.950 -0.5928  0.3128  0.0217
 1052SOL    HW114615   2.586   0.201   6.864 -0.2192  1.9053  0.7205
 1052SOL    HW214616   2.485   0.229   6.954 -1.4210 -0.7028 -0.4597
 1053SOL     OW14617   0.660   4.585   3.756  0.5664 -0.3024  0.3445
 1053SOL    HW114618   0.626   4.545   3.836 -2.5090 -0.2709 -0.9476
 1053SOL    HW214619   0.595   4.652   3.735 -0.8626 -1.1187  2.1106
 1054SOL     OW14620   1.247   1.215   8.628  0.1412 -0.2380 -0.8746
 1054SOL    HW114621   1.321   1.236   8.686  0.4205 -0.3664 -1.1836
 1054SOL    HW214622   1.195   1.153   8.679 -2.0094  1.5979 -0.8397
 1055SOL     OW14623   2.154   3.177   6.397 -0.3559  0.0352  0.2995
 1055SOL    HW114624   2.124   3.262   6.429 -1.6667 -0.4924  0.4573
 1055SOL    HW214625   2.240   3.207   6.367 -1.3346  0.1118 -2.4226
 1056SOL     OW14626   0.425   2.303  15.182  0.0270  0.4197 -0.1208
 1056SOL    HW114627   0.440   2.321  15.275  0.2659  1.7458 -0.4171
 1056SOL    HW214628   0.514   2.275  15.161 -0.6958 -1.8387 -0.1946
 1057SOL     OW14629   3.575   0.441   8.707 -0.1102  0.3348  0.4796
 1057SOL    HW114630   3.506   0.387   8.667 -0.4438 -0.4347  2.1019
 1057SOL    HW214631   3.582   0.524   8.661 -0.4373  0.0420 -0.0999
 1058SOL     OW14632   2.315   1.551  12.349 -0.0934 -0.2788  0.3938
 1058SOL    HW114633   2.403   1.574  12.320 -1.0467 -0.2626 -2.4516
 1058SOL    HW214634   2.277   1.636  12.326 -0.0489 -0.6514 -1.0347
 1059SOL     OW14635   3.241   1.429  11.365  0.1285 -0.0913  0.1788
 1059SOL    HW114636   3.250   1.504  11.423 -0.7415 -1.3237  1.8730
 1059SOL    HW214637   3.147   1.436  11.345  0.6738  3.0326 -1.3960
 1060SOL     OW14638   1.283   3.513  14.459  0.1063  0.0101  0.6229
 1060SOL    HW114639   1.267   3.551  14.545  0.0052  0.9899  0.1779
 1060SOL    HW214640   1.210   3.544  14.406  0.5930 -0.7734 -0.5055
 1061SOL     OW14641   4.067   0.029  14.342 -0.7605  0.4215 -0.0800
 1061SOL    HW114642   3.996   0.086  14.312 -1.0693  0.0736 -0.0008
 1061SOL    HW214643   4.051   4.677  14.281 -0.3255  0.6583 -0.4764
 1062SOL     OW14644   2.351   2.130   4.379  0.2457  0.1748 -0.3798
 1062SOL    HW114645   2.281   2.189   4.350 -0.2410  1.0241  2.4264
 1062SOL    HW214646   2.403   2.139   4.300  0.6993 -2.9336 -0.4312
 1063SOL     OW14647   2.212   3.112   3.847 -0.2245  0.1497  0.3846
 1063SOL    HW114648   2.163   3.186   3.883 -0.9067 -0.9928  1.7839
 1063SOL    HW214649   2.241   3.056   3.919 -0.9952 -0.0780  0.5146
 1064SOL     OW14650   2.994   0.856  14.849  0.4302  0.2926  0.0598
 1064SOL    HW114651   3.032   0.788  14.793  0.0176  0.6223 -0.6287
 1064SOL    HW214652   2.917   0.813  14.886  0.0469  0.2509 -0.7930
 1065SOL     OW14653   0.456   1.876   6.188  0.4963  0.2928 -0.0832
 1065SOL    HW114654   0.501   1.957   6.166  0.7540  0.7805  2.2480
 1065SOL    HW214655   0.508   1.836   6.258  0.9167 -0.3688 -0.7727
 1066SOL     OW14656   0.964   4.156   7.082  0.2039 -0.2087 -0.0454
 1066SOL    HW114657   1.008   4.071   7.073  0.3251  0.0639 -2.1284
 1066SOL    HW214658   0.871   4.136   7.073  0.1905 -0.0152 -0.3535
 1067SOL     OW14659   4.681   0.649   6.547 -0.6415  0.0778  0.3042
 1067SOL    HW114660   4.680   0.729   6.599 -2.2235  1.6507 -2.0978
 1067SOL    HW214661   4.591   0.643   6.514 -0.1062  2.9490 -1.7396
 1068SOL     OW14662   0.876   2.347  10.517 -0.2180 -0.2917 -0.2729
 1068SOL    HW114663   0.893   2.433  10.555  0.2543 -1.3812  1.9808
 1068SOL    HW214664   0.866   2.285  10.589  2.1537  0.6576  0.8455
 1069SOL     OW14665   0.989   3.695   4.967 -0.1817  0.5259 -0.6451
 1069SOL    HW114666   1.040   3.776   4.961  0.5339  0.1705  0.6778
 1069SOL    HW214667   1.030   3.651   5.042 -1.4399  0.5880  0.0828
 1070SOL     OW14668   0.954   3.837  10.416 -0.3539  0.0919  0.4435
 1070SOL    HW114669   0.987   3.878  10.336 -1.8491 -0.3605 -0.4022
 1070SOL    HW214670   0.918   3.763  10.368 -0.0009  0.7778 -0.8970
 1071SOL     OW14671   0.980   0.780   0.938 -0.2011  0.0619 -0.5757
 1071SOL    HW114672   0.939   0.693   0.941 -0.7175  0.3349  0.1089
 1071SOL    HW214673   0.994   0.784   0.843 -0.8998 -1.1976 -0.7382
 1072SOL     OW14674   1.228   1.050   4.319  0.7090 -0.2339  0.3970
 1072SOL    HW114675   1.240   0.976   4.260 -0.9376 -1.4210  1.5338
 1072SOL    HW214676   1.137   1.069   4.298  0.7192 -0.9145 -0.2837
 1073SOL     OW14677   0.537   3.460   8.569 -0.1930  0.7197 -0.1928
 1073SOL    HW114678   0.572   3.481   8.655  0.1358 -0.7462  0.0291
 1073SOL    HW214679   0.450   3.438   8.600  0.4889 -0.6834  0.7089
 1074SOL     OW14680   3.587   2.265  10.797  0.6564 -0.1157 -0.3469
 1074SOL    HW114681   3.494   2.267  10.819 -0.0863  1.0296 -3.5215
 1074SOL    HW214682   3.637   2.231  10.871 -0.1582 -0.3515  0.0920
 1075SOL     OW14683   4.515   0.377   5.734 -0.0307 -0.0145  0.2201
 1075SOL    HW114684   4.608   0.356   5.730 -0.5076 -1.6779 -2.4068
 1075SOL    HW214685   4.500   0.321   5.810 -0.1012 -1.1628 -0.6321
 1076SOL     OW14686   2.944   1.451  16.904 -0.3521 -0.1827 -0.3797
 1076SOL    HW114687   2.926   1.528  16.849  1.8927 -0.4850 -1.5678
 1076SOL    HW214688   3.029   1.421  16.871 -0.6077  0.3857 -1.5773
 1077SOL     OW14689   2.262   2.387   7.098 -0.0033 -0.4339  0.3868
 1077SOL    HW114690   2.311   2.346   7.027  2.1347  0.3740  1.3861
 1077SOL    HW214691   2.186   2.330   7.104  1.3512 -2.5430 -2.6021
 1078SOL     OW14692   4.609   0.828  15.453  0.0553 -0.1689  0.5564
 1078SOL    HW114693   4.643   0.813  15.541  0.0739  1.3655  0.8049
 1078SOL    HW214694   4.689   0.828  15.401 -0.2030  0.3097  0.1637
 1079SOL     OW14695   1.213   1.729   3.848  0.3265 -0.0675 -0.6631
 1079SOL    HW114696   1.271   1.724   3.924 -0.2750 -1.5449 -0.2992
 1079SOL    HW214697   1.133   1.755   3.895  0.9368  1.1624 -0.3001
 1080SOL     OW14698   2.805   2.958   3.325 -0.1786 -0.2261  0.7384
 1080SOL    HW114699   2.894   2.951   3.359  0.1051  1.5733  0.3631
 1080SOL    HW214700   2.772   3.036   3.370  3.6154  1.9817 -0.3423
 1081SOL     OW14701   4.417   3.157   4.626  0.0774  0.1928 -0.5345
 1081SOL    HW114702   4.360   3.230   4.652  0.8575  0.3209  0.8463
 1081SOL    HW214703   4.440   3.170   4.534  0.9779 -1.0950 -0.4861
 1082SOL     OW14704   0.134   2.528   8.402  0.3695  0.4024 -0.1557
 1082SOL    HW114705   0.130   2.435   8.427  2.3447  0.0699 -1.0797
 1082SOL    HW214706   0.227   2.535   8.381  0.8232 -1.5297  1.1346
 1083SOL     OW14707   3.071   4.643   7.815 -0.2409 -0.1947  0.1350
 1083SOL    HW114708   3.117   4.706   7.871 -4.4483  1.3064  1.9290
 1083SOL    HW214709   2.983   4.671   7.838 -0.4962 -0.5349 -0.4436
 1084SOL     OW14710   1.400   2.439   6.471 -0.1891 -0.1829 -0.2717
 1084SOL    HW114711   1.317   2.468   6.432  1.0676  1.0582 -1.9809
 1084SOL    HW214712   1.377   2.431   6.563  0.8380  1.0105  0.0721
 1085SOL     OW14713   3.387   1.965   1.420  0.5159 -0.7082 -0.4014
 1085SOL    HW114714   3.407   1.909   1.495  0.4290  2.0445  1.6643
 1085SOL    HW214715   3.434   1.916   1.352  0.2954 -0.8482 -0.4549
 1086SOL     OW14716   2.166   0.963   6.818 -0.4057 -0.2634 -0.2043
 1086SOL    HW114717   2.234   0.923   6.872  2.2007  1.7919 -1.9756
 1086SOL    HW214718   2.107   1.004   6.882 -2.7735 -4.7155  0.5001
 1087SOL     OW14719   2.032   0.746   1.791 -0.4148  0.6385  0.6910
 1087SOL    HW114720   1.982   0.680   1.742 -0.1897  0.2138  1.0307
 1087SOL    HW214721   2.096   0.688   1.832 -0.1966  0.2238 -0.2375
 1088SOL     OW14722   0.716   3.555   4.289  0.4181  0.5219 -0.0913
 1088SOL    HW114723   0.796   3.541   4.240  1.2547 -0.8926  1.6907
 1088SOL    HW214724   0.753   3.591   4.369 -2.1335  0.0510  1.3258
 1089SOL     OW14725   3.168   0.620  12.918  0.0677 -0.1975 -0.1298
 1089SOL    HW114726   3.078   0.644  12.897  0.0295 -1.1456 -1.0428
 1089SOL    HW214727   3.165   0.663  13.004 -0.4986  2.7491 -1.6241
 1090SOL     OW14728   0.747   3.942  16.922 -0.5647 -0.1604 -0.0711
 1090SOL    HW114729   0.746   3.923  16.828 -0.3034 -4.1507  0.7348
 1090SOL    HW214730   0.674   3.885  16.947  0.1403 -0.5737  1.0330
 1091SOL     OW14731   4.489   0.355   7.581  0.0709 -0.6608 -0.2942
 1091SOL    HW114732   4.549   0.284   7.557 -0.6078 -1.8555  1.5125
 1091SOL    HW214733   4.417   0.296   7.605  0.9754 -1.8568 -0.4811
 1092SOL     OW14734   2.934   1.526   8.772  0.0125  0.4109 -0.3072
 1092SOL    HW114735   2.840   1.536   8.792 -0.0330 -4.3113  1.5995
 1092SOL    HW214736   2.944   1.486   8.686 -1.9497 -0.4733 -0.1274
 1093SOL     OW14737   0.085   2.190   5.687  0.2475 -0.3338  0.5467
 1093SOL    HW114738   0.113   2.200   5.596 -1.2476  0.0126  0.1242
 1093SOL    HW214739   0.161   2.141   5.717  1.2807  0.7879 -0.2082
 1094SOL     OW14740   4.693   3.485   6.452 -0.2530  0.1128  0.2238
 1094SOL    HW114741   0.024   3.477   6.372  0.3800  1.0445  0.5348
 1094SOL    HW214742   0.001   3.409   6.503  0.3181 -0.5500 -1.0781
 1095SOL     OW14743   4.677   0.837  14.824  0.0603 -0.8375  0.6884
 1095SOL    HW114744   4.587   0.809  14.841 -0.5870 -1.2198 -3.4094
 1095SOL    HW214745   4.658   0.925  14.790 -2.5362 -1.4859  0.4907
 1096SOL     OW14746   1.920   2.821   2.666  0.0046 -0.1101 -0.3368
 1096SOL    HW114747   1.826   2.816   2.680 -0.0894 -0.6418 -1.1303
 1096SOL    HW214748   1.921   2.873   2.585 -0.8012  0.8098  0.2560
 1097SOL     OW14749   3.458   1.530   2.861  0.3566  0.1542  0.0108
 1097SOL    HW114750   3.383   1.489   2.904 -0.4022 -1.1807 -2.5756
 1097SOL    HW214751   3.511   1.550   2.939  0.6897  2.3412 -0.7801
 1098SOL     OW14752   3.299   3.977   4.929  0.0392 -0.4934 -0.0160
 1098SOL    HW114753   3.365   3.917   4.894 -1.6282  0.8844 -5.6297
 1098SOL    HW214754   3.252   3.993   4.847  0.5688  1.0649 -0.0040
 1099SOL     OW14755   0.428   0.882   8.870 -0.2653  0.2073 -0.3426
 1099SOL    HW114756   0.409   0.820   8.799 -1.5805 -0.5533  0.7008
 1099SOL    HW214757   0.425   0.967   8.824  0.4145  1.4770  1.9686
 1100SOL     OW14758   1.675   1.589   5.263 -0.0837  0.0529 -0.3998
 1100SOL    HW114759   1.601   1.602   5.204  1.0942 -2.8091 -2.5244
 1100SOL    HW214760   1.623   1.550   5.333 -0.5414 -0.3713 -0.9779
 1101SOL     OW14761   0.248   2.088  15.124 -0.2139 -0.0809 -0.7844
 1101SOL    HW114762   0.266   2.040  15.043 -1.0974 -0.4830 -0.7403
 1101SOL    HW214763   0.264   2.178  15.094 -0.7652 -0.4187 -2.0744
 1102SOL     OW14764   4.672   0.866  10.468 -0.4269  0.2459  0.1670
 1102SOL    HW114765   4.693   0.874  10.375  0.3612  2.0426  0.5095
 1102SOL    HW214766   4.580   0.890  10.461 -0.1771  1.3932  0.8349
 1103SOL     OW14767   2.892   0.700   6.532  0.2084 -0.3449  0.1354
 1103SOL    HW114768   2.934   0.750   6.602 -0.3384 -0.6736  0.6978
 1103SOL    HW214769   2.968   0.693   6.475 -0.8812  0.4340 -1.4250
 1104SOL     OW14770   1.450   3.193   3.970 -0.3037  0.0408 -0.1780
 1104SOL    HW114771   1.420   3.268   3.918 -0.2805  0.3388  0.2370
 1104SOL    HW214772   1.471   3.131   3.900  0.7349  0.8197 -0.5592
 1105SOL     OW14773   3.384   0.627   4.450  0.1907  0.2381  0.3501
 1105SOL    HW114774   3.478   0.614   4.437  0.2727  0.2880  0.9151
 1105SOL    HW214775   3.364   0.676   4.370 -0.1464  0.9054  0.8499
 1106SOL     OW14776   3.582   0.463  12.806  0.3591 -0.9628  0.2339
 1106SOL    HW114777   3.624   0.466  12.720 -1.8528  0.6153 -0.7848
 1106SOL    HW214778   3.497   0.470  12.763  0.3366 -2.1735  0.0844
 1107SOL     OW14779   3.189   1.603   1.423  0.8215 -0.4611 -0.0098
 1107SOL    HW114780   3.246   1.615   1.347 -0.9497 -1.7506 -1.5184
 1107SOL    HW214781   3.150   1.516   1.413  0.5564 -0.2837 -0.5191
 1108SOL     OW14782   4.474   0.520   5.148 -0.3890 -0.2997 -0.0025
 1108SOL    HW114783   4.506   0.553   5.064  0.7216  0.1843  0.6199
 1108SOL    HW214784   4.558   0.478   5.166  0.0197  0.7098  0.4091
 1109SOL     OW14785   1.403   0.130   9.635 -0.2605  0.5903 -0.4213
 1109SOL    HW114786   1.451   0.201   9.678 -2.0884  0.3903  1.9260
 1109SOL    HW214787   1.323   0.128   9.687  0.8063  2.6030  1.3150
 1110SOL     OW14788   4.522   1.191   9.467 -0.5726  0.7101 -0.7071
 1110SOL    HW114789   4.430   1.218   9.460 -0.6546  0.2586 -1.3500
 1110SOL    HW214790   4.517   1.096   9.470  2.9785  0.5624 -0.3698
 1111SOL     OW14791   1.334   1.951   8.416 -0.9210 -0.0177  0.1809
 1111SOL    HW114792   1.369   2.034   8.381 -3.0311  0.8420  0.1302
 1111SOL    HW214793   1.300   1.903   8.341  1.2116 -1.6491  0.2534
 1112SOL     OW14794   3.541   4.274   4.092 -0.3449 -0.7891 -0.3955
 1112SOL    HW114795   3.633   4.278   4.065  0.0221  0.8618  1.0866
 1112SOL    HW214796   3.517   4.365   4.106 -0.4778 -0.3618 -3.2790
 1113SOL     OW14797   1.296   2.215   7.405 -0.2428 -0.3910  0.3654
 1113SOL    HW114798   1.324   2.181   7.490 -0.1397 -3.9518 -1.0586
 1113SOL    HW214799   1.363   2.180   7.346 -1.0368  0.3933 -1.0007
 1114SOL     OW14800   3.451   0.052   5.368  0.5559 -0.4344  0.1773
 1114SOL    HW114801   3.404   0.110   5.428 -0.8699 -1.3604 -0.0553
 1114SOL    HW214802   3.489   0.112   5.304 -0.2857 -1.3742 -1.1951
 1115SOL     OW14803   2.742   1.891   0.907  0.2937  0.4420  0.1973
 1115SOL    HW114804   2.670   1.954   0.900 -0.5122 -0.5092 -0.0003
 1115SOL    HW214805   2.724   1.839   0.829 -1.0148  2.3683 -0.7821
 1116SOL     OW14806   3.087   1.552   7.521  0.4410  0.1996 -0.6786
 1116SOL    HW114807   3.127   1.510   7.445 -2.3116 -1.4944 -1.1679
 1116SOL    HW214808   3.137   1.634   7.521  1.1391 -0.2237  1.1172
 1117SOL     OW14809   2.170   2.033   2.591  0.0054  0.3011  0.1344
 1117SOL    HW114810   2.166   1.982   2.671 -0.9388  0.1798  0.0077
 1117SOL    HW214811   2.189   2.119   2.629  0.8212  1.3915 -2.7212
 1118SOL     OW14812   3.494   4.523  14.793 -0.0840 -0.0044  0.2203
 1118SOL    HW114813   3.409   4.492  14.824  0.7489 -2.1935  0.2886
 1118SOL    HW214814   3.553   4.460  14.835 -2.0118 -1.6578  0.4785
 1119SOL     OW14815   2.701   2.055  10.352 -0.2557 -0.0220  0.1503
 1119SOL    HW114816   2.666   1.975  10.391  2.9145 -0.1850  2.6211
 1119SOL    HW214817   2.746   2.004  10.284 -2.2148 -1.9662  0.3169
 1120SOL     OW14818   3.451   1.455   9.633  0.6363  0.1287  0.1639
 1120SOL    HW114819   3.405   1.384   9.587 -0.6681 -0.1436  1.9061
 1120SOL    HW214820   3.377   1.513   9.651 -0.1739 -0.4600 -1.2717
 1121SOL     OW14821   0.363   1.776   7.858  0.3964  0.5682  0.6487
 1121SOL    HW114822   0.345   1.750   7.768 -1.0076  0.9727  0.8260
 1121SOL    HW214823   0.288   1.738   7.903  0.4503 -0.7280 -0.3746
 1122SOL     OW14824   3.026   2.411   5.485 -0.2735  0.1440 -0.5272
 1122SOL    HW114825   3.007   2.491   5.533  0.0820  0.5909 -1.1395
 1122SOL    HW214826   3.051   2.449   5.401 -0.2387 -1.0526 -1.0630
 1123SOL     OW14827   4.064   0.497   6.337  0.2977 -0.1802  0.4873
 1123SOL    HW114828   4.093   0.575   6.290 -0.8758  0.5611  1.0065
 1123SOL    HW214829   4.121   0.428   6.302  2.8850  1.7778  0.8146
 1124SOL     OW14830   3.497   4.143   6.310  0.2156  0.8156  0.3255
 1124SOL    HW114831   3.491   4.123   6.217  2.6759 -1.4765  0.6419
 1124SOL    HW214832   3.577   4.099   6.340  0.6753  1.5191  0.1277
 1125SOL     OW14833   2.912   3.613  12.138 -0.5487 -0.3908 -0.0171
 1125SOL    HW114834   2.823   3.603  12.105  0.0248  4.8773 -3.2016
 1125SOL    HW214835   2.950   3.646  12.057  0.4621 -1.2488  0.0973
 1126SOL     OW14836   4.575   2.090  16.807 -0.1327  0.1133  0.3592
 1126SOL    HW114837   4.590   2.116  16.716  0.1329 -2.0044 -0.1895
 1126SOL    HW214838   4.553   2.170  16.855  1.6912 -0.2740  1.8612
 1127SOL     OW14839   1.317   2.004   2.666 -0.0444 -0.2596  0.2656
 1127SOL    HW114840   1.325   1.918   2.709 -0.1303  0.6384  2.0602
 1127SOL    HW214841   1.251   2.046   2.722  0.3421  1.4571 -0.5707
 1128SOL     OW14842   2.210   1.923   2.890 -0.1125 -0.2424  0.3899
 1128SOL    HW114843   2.127   1.887   2.922  0.1538  0.2301  1.6280
 1128SOL    HW214844   2.197   2.011   2.926  1.8390 -0.5637  1.8896
 1129SOL     OW14845   2.672   1.034   2.618  0.2757  0.1471  0.3278
 1129SOL    HW114846   2.714   1.085   2.549 -2.1802  2.1631  0.3430
 1129SOL    HW214847   2.618   1.103   2.656  0.1733  0.1932  0.0947
 1130SOL     OW14848   0.551   2.142   4.372 -0.1666  0.1590  0.4074
 1130SOL    HW114849   0.615   2.213   4.366  0.2280 -0.3770 -1.7780
 1130SOL    HW214850   0.494   2.176   4.441  3.6660  1.8027  2.7354
 1131SOL     OW14851   2.821   1.510  11.092 -0.5743 -0.3222  0.1021
 1131SOL    HW114852   2.753   1.483  11.031  0.3623  2.2413 -2.0975
 1131SOL    HW214853   2.878   1.561  11.034 -0.6511  0.8194  1.0262
 1132SOL     OW14854   1.642   0.526   8.060  0.1245 -0.0820 -0.1213
 1132SOL    HW114855   1.706   0.555   8.126  1.6510 -0.9715 -1.1970
 1132SOL    HW214856   1.666   0.433   8.063 -0.7692 -0.2537  1.5550
 1133SOL     OW14857   0.204   1.664   2.573  0.1594  0.4666 -0.3019
 1133SOL    HW114858   0.122   1.711   2.585 -0.0687  0.2413 -1.0119
 1133SOL    HW214859   0.240   1.716   2.501 -1.7676  1.5235 -0.4985
 1134SOL     OW14860   1.640   2.870   9.550  0.0936  1.0581 -0.2485
 1134SOL    HW114861   1.705   2.807   9.581  0.4769  0.8119 -1.5202
 1134SOL    HW214862   1.664   2.888   9.459 -0.4694 -0.7883 -0.7763
 1135SOL     OW14863   2.377   4.211  14.054  0.1715 -0.1253  0.9721
 1135SOL    HW114864   2.393   4.145  14.122  1.2247  0.1335  0.9640
 1135SOL    HW214865   2.300   4.171  14.012  0.5081 -1.7237  1.8697
 1136SOL     OW14866   2.539   1.915  17.509 -0.4986 -0.1936  0.5514
 1136SOL    HW114867   2.550   1.937  17.417  2.2043 -2.2552  0.3869
 1136SOL    HW214868   2.614   1.954  17.552  0.3663  0.2048 -1.3399
 1137SOL     OW14869   2.424   3.877   8.007  0.3862 -0.1519  0.2084
 1137SOL    HW114870   2.498   3.931   7.978 -0.0346  0.1695 -0.2538
 1137SOL    HW214871   2.452   3.877   8.098 -1.9002 -0.4545  0.8984
 1138SOL     OW14872   0.741   1.603   8.320  0.6155 -0.1842 -0.1018
 1138SOL    HW114873   0.660   1.565   8.352  1.1402 -1.4685 -0.2984
 1138SOL    HW214874   0.788   1.521   8.305 -1.6669 -1.8823  2.0159
 1139SOL     OW14875   0.825   1.247   2.045  0.2309  0.3231 -0.1773
 1139SOL    HW114876   0.797   1.172   2.097  0.4037 -0.0589 -0.6345
 1139SOL    HW214877   0.777   1.318   2.088  0.8131 -0.4690  1.7782
 1140SOL     OW14878   3.998   1.719  16.726  0.1157 -0.0936 -0.9196
 1140SOL    HW114879   4.020   1.633  16.689 -1.7160 -0.6799 -0.6510
 1140SOL    HW214880   3.958   1.762  16.651 -1.9763 -4.2051 -2.1478
 1141SOL     OW14881   1.863   0.256   2.539 -0.7929  0.0869  0.1483
 1141SOL    HW114882   1.917   0.300   2.605 -0.3250 -0.0789 -0.1242
 1141SOL    HW214883   1.909   0.288   2.461 -0.7989  1.8485  0.8560
 1142SOL     OW14884   0.705   1.875  16.564  0.6473 -0.0558 -1.0779
 1142SOL    HW114885   0.652   1.955  16.554  3.9175  2.1703 -0.6505
 1142SOL    HW214886   0.696   1.841  16.653  2.1925  1.0527 -0.4960
 1143SOL     OW14887   4.318   3.979   2.066  0.4685 -0.2506  0.1835
 1143SOL    HW114888   4.376   4.053   2.082  0.6552 -0.4170  0.2770
 1143SOL    HW214889   4.367   3.916   2.013  0.1935 -0.3717  0.0712
 1144SOL     OW14890   4.576   0.800  12.613  0.5671  0.5971 -0.0208
 1144SOL    HW114891   4.627   0.722  12.593  1.4633  1.1477  0.0972
 1144SOL    HW214892   4.521   0.779  12.688  0.3046 -0.5315 -0.5329
 1145SOL     OW14893   3.732   3.075   8.192 -0.0651 -0.2008 -0.3345
 1145SOL    HW114894   3.686   3.158   8.206 -0.9722 -0.9931  1.3074
 1145SOL    HW214895   3.727   3.039   8.280  0.3145 -1.0490 -0.6584
 1146SOL     OW14896   4.066   0.605   9.585  0.3184 -0.0653 -0.0108
 1146SOL    HW114897   4.080   0.563   9.501  0.8827 -0.3616  0.2337
 1146SOL    HW214898   4.108   0.539   9.640  0.5648  0.8292  0.8763
 1147SOL     OW14899   2.569   1.641   6.854 -0.8538  0.3375  0.2304
 1147SOL    HW114900   2.568   1.590   6.773 -0.3454  1.1172 -0.2626
 1147SOL    HW214901   2.521   1.723   6.840 -0.2032  0.5653 -0.7177
 1148SOL     OW14902   0.921   0.158   3.240  0.4303 -0.1040 -0.0699
 1148SOL    HW114903   1.004   0.109   3.249  0.8123  0.7200  0.8665
 1148SOL    HW214904   0.946   0.249   3.254  1.2836  0.3078 -4.2193
 1149SOL     OW14905   3.665   4.336   9.650 -0.1523 -0.3764 -0.4267
 1149SOL    HW114906   3.604   4.396   9.607 -2.0175 -0.6799  1.7304
 1149SOL    HW214907   3.642   4.358   9.741 -0.2966 -0.1094 -0.5290
 1150SOL     OW14908   2.420   1.129   5.436  0.5709  0.2294 -0.2180
 1150SOL    HW114909   2.351   1.191   5.462 -0.1762 -1.0043  0.7136
 1150SOL    HW214910   2.489   1.176   5.483  2.2011  0.1633 -2.5125
 1151SOL     OW14911   1.770   3.206   2.415 -0.1135 -0.6202  0.0339
 1151SOL    HW114912   1.760   3.117   2.381 -0.6971 -1.0316  1.2595
 1151SOL    HW214913   1.830   3.190   2.488  0.5280  1.7138  0.0438
 1152SOL     OW14914   2.050   0.821   2.649 -0.2636 -0.0517 -0.4522
 1152SOL    HW114915   2.003   0.880   2.707  0.7172  0.3966 -0.1079
 1152SOL    HW214916   2.134   0.813   2.695 -0.7763 -1.8220  0.1821
 1153SOL     OW14917   0.928   2.674   6.343 -0.3914 -0.2621 -0.2756
 1153SOL    HW114918   0.860   2.706   6.284  0.8650  0.1405 -1.5145
 1153SOL    HW214919   0.870   2.614   6.389 -0.1520 -0.3095 -0.0355
 1154SOL     OW14920   0.186   1.142   7.687  0.0348  0.0957  0.0138
 1154SOL    HW114921   0.149   1.058   7.663  0.3249 -0.4630  1.4851
 1154SOL    HW214922   0.258   1.139   7.624  0.3257  0.0880  0.3478
 1155SOL     OW14923   0.946   2.673  10.209 -0.6983  0.4792  0.0339
 1155SOL    HW114924   0.896   2.694  10.288  1.8145  0.9931  1.5078
 1155SOL    HW214925   0.894   2.718  10.143  0.4359  0.8151 -0.6228
 1156SOL     OW14926   4.139   3.849   2.740 -0.1691  0.3534 -0.4264
 1156SOL    HW114927   4.148   3.866   2.647 -0.8648  0.7476 -0.4253
 1156SOL    HW214928   4.177   3.762   2.744 -2.5799 -0.7006 -0.3492
 1157SOL     OW14929   2.442   0.859   6.026  0.4911  0.3497  0.0109
 1157SOL    HW114930   2.414   0.889   6.112 -0.5023  0.1190 -0.2332
 1157SOL    HW214931   2.380   0.787   6.012 -0.0926  0.8740 -0.0817
 1158SOL     OW14932   3.727   3.981   4.184 -0.3859  0.4032 -0.0472
 1158SOL    HW114933   3.773   3.946   4.107  0.1914  1.9129 -0.3972
 1158SOL    HW214934   3.802   4.026   4.223  0.4140 -2.5522  1.7924
 1159SOL     OW14935   1.082   3.111  14.860 -0.1441  0.6184  0.0844
 1159SOL    HW114936   1.022   3.043  14.829  0.0470  1.0033 -1.1602
 1159SOL    HW214937   1.077   3.095  14.954  1.5735 -3.0973 -0.4651
 1160SOL     OW14938   2.476   0.681   8.176  0.1905  0.2974 -0.2162
 1160SOL    HW114939   2.443   0.728   8.099 -0.5457  3.3247  1.9553
 1160SOL    HW214940   2.473   0.589   8.152 -3.5730  0.2482  0.4152
 1161SOL     OW14941   4.035   4.286   2.345 -0.0065  0.2011 -0.2622
 1161SOL    HW114942   3.980   4.243   2.410 -3.2442  1.5154 -2.1173
 1161SOL    HW214943   4.115   4.235   2.358  0.3318  1.0372  0.9287
 1162SOL     OW14944   3.924   2.639  11.169  0.1880 -0.2016 -0.3888
 1162SOL    HW114945   3.994   2.665  11.110 -0.8357 -1.0173 -1.9634
 1162SOL    HW214946   3.975   2.572  11.216  0.0139  0.3260  0.5589
 1163SOL     OW14947   0.299   4.094  15.630 -0.1789  0.5914  0.2345
 1163SOL    HW114948   0.241   4.082  15.555 -0.0203 -0.7120  0.3111
 1163SOL    HW214949   0.307   4.001  15.651 -2.3045  0.5120  0.7778
 1164SOL     OW14950   0.420   4.540   5.130  0.2426 -0.4212  0.3710
 1164SOL    HW114951   0.494   4.600   5.128 -0.4048  0.2908 -2.6651
 1164SOL    HW214952   0.464   4.468   5.175  1.5946  0.8683  1.0780
 1165SOL     OW14953   2.860   2.823   8.054 -0.1810  0.1058  0.2079
 1165SOL    HW114954   2.877   2.751   8.115  1.3654  1.7849  1.7627
 1165SOL    HW214955   2.769   2.847   8.072 -0.7093 -2.6166  1.3123
 1166SOL     OW14956   3.559   1.791  12.487  0.2237 -0.1797  0.8626
 1166SOL    HW114957   3.627   1.747  12.436 -0.7979 -1.7391  0.8454
 1166SOL    HW214958   3.593   1.879  12.500  0.3333  0.0205 -0.8666
 1167SOL     OW14959   2.888   3.298   8.365 -0.5958 -0.9865 -0.2890
 1167SOL    HW114960   2.825   3.370   8.360  1.8520  1.1500 -0.4292
 1167SOL    HW214961   2.886   3.280   8.459  3.8212 -0.5168 -0.0948
 1168SOL     OW14962   3.761   2.854   7.728  0.3504  0.1539  0.5040
 1168SOL    HW114963   3.693   2.918   7.708  1.2342  0.9998  0.1909
 1168SOL    HW214964   3.815   2.915   7.778 -0.8049  2.3592 -0.8975
 1169SOL     OW14965   3.902   0.854  13.753 -0.3585 -0.2269  0.3292
 1169SOL    HW114966   3.886   0.936  13.801  0.1456  0.0358  0.0460
 1169SOL    HW214967   3.976   0.890  13.705 -1.0239 -0.9755 -1.2390
 1170SOL     OW14968   2.315   3.416   7.649  0.1934  0.3404 -0.2229
 1170SOL    HW114969   2.286   3.356   7.718  1.7154  0.1509  0.2503
 1170SOL    HW214970   2.328   3.495   7.702  0.0873 -0.3540  0.8436
 1171SOL     OW14971   1.675   1.197   4.399  0.3130  0.3059 -1.3053
 1171SOL    HW114972   1.683   1.291   4.382  0.0366  0.4326 -0.7232
 1171SOL    HW214973   1.664   1.155   4.313  0.3017  2.8415 -2.5396
 1172SOL     OW14974   0.895   2.326   6.921 -0.3242 -0.1623  0.6154
 1172SOL    HW114975   0.831   2.257   6.901 -1.5523  1.1268  0.1536
 1172SOL    HW214976   0.974   2.277   6.895 -0.7691  0.3586 -1.6558
 1173SOL     OW14977   1.755   4.114  12.770 -0.4440  0.0595 -0.0510
 1173SOL    HW114978   1.799   4.035  12.740  0.8700  0.3512  1.0876
 1173SOL    HW214979   1.745   4.156  12.684 -0.9301 -0.4901 -0.2577
 1174SOL     OW14980   0.252   0.201   7.493  0.6654 -0.1295  0.0916
 1174SOL    HW114981   0.323   0.145   7.524  0.2921 -2.2553 -2.8728
 1174SOL    HW214982   0.309   0.233   7.423  0.6150 -0.4776 -0.1089
 1175SOL     OW14983   2.525   1.267   5.189  0.0315  0.6124 -0.2131
 1175SOL    HW114984   2.446   1.266   5.135  0.7755  1.5164 -1.3183
 1175SOL    HW214985   2.495   1.252   5.279  0.2271 -0.4101 -0.3118
 1176SOL     OW14986   4.297   0.439   5.389 -0.4812 -0.0132 -0.3759
 1176SOL    HW114987   4.358   0.467   5.457 -0.1044 -0.0054 -0.7230
 1176SOL    HW214988   4.331   0.473   5.307  1.6616 -3.1464 -0.7958
 1177SOL     OW14989   1.650   1.818   5.520 -0.5043  0.2627  0.1314
 1177SOL    HW114990   1.608   1.788   5.601  0.0577  1.3031  0.8036
 1177SOL    HW214991   1.736   1.775   5.523 -1.0984 -0.9426 -0.0489
 1178SOL     OW14992   3.588   3.488   1.952  0.1991 -0.2305 -0.3862
 1178SOL    HW114993   3.539   3.543   1.892  2.1726  1.4841 -0.4203
 1178SOL    HW214994   3.657   3.474   1.888  0.8465  2.4354 -0.2656
 1179SOL     OW14995   1.672   3.179  16.106  0.0589  0.4012  0.0608
 1179SOL    HW114996   1.768   3.174  16.100  0.0571  0.2436  0.1486
 1179SOL    HW214997   1.657   3.270  16.080  1.6893  1.2797  2.1584
 1180SOL     OW14998   0.391   0.264   9.136 -0.2228 -0.5326 -0.0080
 1180SOL    HW114999   0.471   0.300   9.097  1.2174 -1.6078  1.9576
 1180SOL    HW215000   0.378   0.187   9.081  2.1805 -0.1356 -1.1560
 1181SOL     OW15001   1.172   2.989   5.643  0.0778  0.2998 -0.8611
 1181SOL    HW115002   1.176   3.038   5.725  2.7810  1.9584 -1.9965
 1181SOL    HW215003   1.251   3.025   5.603  0.3508  1.1053  0.4052
 1182SOL     OW15004   2.240   3.083   2.643  0.0047 -0.2673 -0.1520
 1182SOL    HW115005   2.209   2.997   2.672  0.3259 -0.1056  0.6769
 1182SOL    HW215006   2.310   3.050   2.586  0.9934  0.3880  0.6866
 1183SOL     OW15007   0.158   0.679   8.078  0.0625 -0.0101 -0.1634
 1183SOL    HW115008   0.232   0.728   8.113 -0.4549  1.4644 -1.1266
 1183SOL    HW215009   0.192   0.589   8.074 -0.9848 -0.5010  1.8824
 1184SOL     OW15010   0.750   0.758   5.992 -0.4117 -0.1565  0.3140
 1184SOL    HW115011   0.657   0.744   6.011 -0.2430 -1.5194  0.1132
 1184SOL    HW215012   0.786   0.670   5.989 -1.0055 -0.4098  0.7131
 1185SOL     OW15013   2.534   3.892   5.747 -0.0223  0.3656 -0.2698
 1185SOL    HW115014   2.517   3.840   5.668  0.1955 -1.5700  0.9425
 1185SOL    HW215015   2.463   3.956   5.743 -0.7617 -0.3979  0.3595
 1186SOL     OW15016   2.446   3.350   4.293  1.0858 -0.0002 -0.3531
 1186SOL    HW115017   2.489   3.349   4.378  0.8729  1.6299 -0.2187
 1186SOL    HW215018   2.473   3.262   4.265 -1.0217 -0.9516  0.5930
 1187SOL     OW15019   2.840   0.344   8.369  0.2682 -0.2433 -0.0438
 1187SOL    HW115020   2.875   0.427   8.335 -1.8055  0.1474 -1.2125
 1187SOL    HW215021   2.839   0.286   8.293 -1.2029  1.7794 -1.5855
 1188SOL     OW15022   0.101   0.249   5.389 -0.1574 -0.4168  0.7061
 1188SOL    HW115023   0.086   0.298   5.309  1.2206  2.4404  2.2247
 1188SOL    HW215024   0.070   0.162   5.362  0.0469 -0.9549  2.1842
 1189SOL     OW15025   4.595   1.522   1.449  0.0528 -0.2507 -0.2339
 1189SOL    HW115026   4.608   1.605   1.496 -0.0774  0.1777 -0.9491
 1189SOL    HW215027   4.519   1.484   1.493 -0.8342  0.6304 -1.0011
 1190SOL     OW15028   3.007   2.958   9.179  0.4839  0.3592 -0.6362
 1190SOL    HW115029   2.939   2.896   9.152 -0.8909  1.0299  1.2505
 1190SOL    HW215030   3.049   2.973   9.094  1.6246 -2.9305 -0.6404
 1191SOL     OW15031   4.423   2.509   3.109 -0.1814 -0.1992 -0.2100
 1191SOL    HW115032   4.513   2.522   3.080 -0.4163  0.0724 -0.8186
 1191SOL    HW215033   4.392   2.461   3.032  0.0525  0.1556 -0.5262
 1192SOL     OW15034   0.914   4.057   3.360 -0.0503  0.2736  0.3092
 1192SOL    HW115035   0.927   4.033   3.269 -1.5781  0.5490  0.0189
 1192SOL    HW215036   0.867   4.140   3.361 -0.8483 -0.1662 -2.3915
 1193SOL     OW15037   1.179   4.103   6.218  0.4236  0.0951  0.0344
 1193SOL    HW115038   1.100   4.052   6.204  1.3199 -1.2129 -0.2368
 1193SOL    HW215039   1.151   4.163   6.288  1.4568 -2.5408  2.7094
 1194SOL     OW15040   1.701   4.089   7.597 -0.1167  0.8613 -0.1059
 1194SOL    HW115041   1.704   4.075   7.692 -1.9244 -1.8916 -0.4500
 1194SOL    HW215042   1.781   4.141   7.589  0.9703 -0.8086 -0.0422
 1195SOL     OW15043   3.094   4.712   5.922 -0.2803 -0.1927 -0.5303
 1195SOL    HW115044   3.085   0.046   6.001  2.2705  0.5351 -0.7257
 1195SOL    HW215045   3.185   0.007   5.897  0.4281  0.8664  2.5929
 1196SOL     OW15046   3.865   3.158   5.526 -0.2474  0.7017 -0.2193
 1196SOL    HW115047   3.873   3.119   5.613 -1.0179  2.5045  0.6534
 1196SOL    HW215048   3.913   3.090   5.478 -0.7365  0.2283 -0.0335
 1197SOL     OW15049   2.475   3.180  10.999  0.4113  0.2868  0.4148
 1197SOL    HW115050   2.506   3.091  10.981 -2.8036 -0.8958  0.5976
 1197SOL    HW215051   2.470   3.218  10.912  0.0756 -0.2718  0.1892
 1198SOL     OW15052   0.835   0.351   8.661  0.5980  0.0539  0.4162
 1198SOL    HW115053   0.872   0.438   8.678 -2.1047  1.1208  0.7448
 1198SOL    HW215054   0.767   0.341   8.727  0.3520  0.0755  0.1668
 1199SOL     OW15055   4.438   0.503  12.716  0.0780 -0.0759 -0.7048
 1199SOL    HW115056   4.352   0.462  12.724 -1.7454  3.5178 -1.5355
 1199SOL    HW215057   4.429   0.589  12.756 -1.2404 -1.1653  1.3062
 1200SOL     OW15058   0.788   0.210   9.617 -0.3983  0.1053 -0.2006
 1200SOL    HW115059   0.755   0.213   9.707 -1.6990  0.8300 -0.7129
 1200SOL    HW215060   0.702   0.217   9.576  0.2838  0.7360 -1.5184
 1201SOL     OW15061   3.191   1.330   9.306 -0.2167 -0.3313 -0.1091
 1201SOL    HW115062   3.278   1.292   9.319 -0.4868 -0.8512  0.1608
 1201SOL    HW215063   3.144   1.299   9.383  1.0664 -2.0025  0.0127
 1202SOL     OW15064   2.309   3.596   2.881 -0.2148 -0.0084 -0.4420
 1202SOL    HW115065   2.378   3.530   2.871 -0.3029 -0.1725  0.0445
 1202SOL    HW215066   2.237   3.565   2.825 -1.3456 -0.1837  1.1268
 1203SOL     OW15067   0.504   2.570   0.221 -0.2154  0.0704  0.2479
 1203SOL    HW115068   0.449   2.619   0.160  0.6764 -0.7178 -1.1981
 1203SOL    HW215069   0.558   2.636   0.264  0.3268 -0.3057  0.1463
 1204SOL     OW15070   1.372   4.575   3.255  0.4432  0.2834  0.3354
 1204SOL    HW115071   1.360   4.541   3.343  1.1963 -0.0076  0.3216
 1204SOL    HW215072   1.465   4.563   3.234  0.8161 -0.5354  2.4985
 1205SOL     OW15073   4.358   3.527  10.746 -0.3361 -0.2866 -0.2613
 1205SOL    HW115074   4.368   3.433  10.761 -1.0023 -0.7544 -2.6996
 1205SOL    HW215075   4.415   3.538  10.670  0.2221 -1.0224  0.0467
 1206SOL     OW15076   3.535   2.348   1.809 -0.5046 -0.6104 -0.3620
 1206SOL    HW115077   3.543   2.377   1.719 -1.4250  0.4303 -0.1037
 1206SOL    HW215078   3.504   2.259   1.796 -4.9742  0.3542  3.7875
 1207SOL     OW15079   1.133   3.556   5.174  0.2287 -0.4254 -0.1332
 1207SOL    HW115080   1.099   3.618   5.238  0.7516 -1.2030  0.8941
 1207SOL    HW215081   1.225   3.568   5.195  0.3321  0.2092 -0.9236
 1208SOL     OW15082   1.199   1.132   8.133  0.0333  0.3130 -0.5590
 1208SOL    HW115083   1.247   1.049   8.121 -0.2884 -0.2988  2.5226
 1208SOL    HW215084   1.218   1.142   8.226 -1.3000  0.7877 -0.3394
 1209SOL     OW15085   2.145   3.445  11.020  0.2402 -0.2012 -0.0262
 1209SOL    HW115086   2.165   3.356  10.991 -3.3703 -1.3227  0.8461
 1209SOL    HW215087   2.185   3.500  10.953  0.6247  0.4104  0.7037
 1210SOL     OW15088   3.122   1.032   9.216  0.2037 -0.3758 -0.7272
 1210SOL    HW115089   3.045   1.024   9.273  0.1716  0.7510 -0.5999
 1210SOL    HW215090   3.180   1.077   9.278 -1.4985  0.5761  0.1915
 1211SOL     OW15091   1.580   3.210  12.631  0.4015 -0.3418  0.2029
 1211SOL    HW115092   1.490   3.206  12.597  0.4157  3.3039 -0.3295
 1211SOL    HW215093   1.602   3.117  12.621 -1.5215 -0.4866 -2.8042
 1212SOL     OW15094   3.498   0.469  13.216  0.2605  0.8381  0.7064
 1212SOL    HW115095   3.506   0.384  13.261  0.7480  0.9108  0.7586
 1212SOL    HW215096   3.409   0.491  13.242 -0.2016 -0.9823  0.7098
 1213SOL     OW15097   0.773   0.924   3.441 -0.0296 -0.0505  0.7592
 1213SOL    HW115098   0.708   0.892   3.378  1.7850 -0.9403 -0.6768
 1213SOL    HW215099   0.718   0.927   3.519  0.4292  0.1073  1.0734
 1214SOL     OW15100   4.306   1.917   1.005 -0.3588 -0.6190 -0.4275
 1214SOL    HW115101   4.306   1.893   0.912  1.9591 -1.5495 -0.1920
 1214SOL    HW215102   4.222   1.962   1.005 -0.4425 -0.7790 -1.8545
 1215SOL     OW15103   2.544   4.311   8.908 -0.1337  0.1499  0.2830
 1215SOL    HW115104   2.563   4.394   8.864 -0.9719  0.0716 -0.2337
 1215SOL    HW215105   2.577   4.255   8.838 -0.8922 -0.9072  0.7641
 1216SOL     OW15106   2.810   4.432   1.743 -0.1568 -0.2033 -0.3588
 1216SOL    HW115107   2.804   4.420   1.837 -2.1957 -0.9259 -0.5742
 1216SOL    HW215108   2.830   4.343   1.713 -1.6652 -0.5941 -0.1949
 1217SOL     OW15109   0.748   3.537   7.822 -0.6675  0.1263 -0.6569
 1217SOL    HW115110   0.657   3.557   7.845 -0.6824 -0.2713 -0.3770
 1217SOL    HW215111   0.775   3.629   7.817 -0.8973  0.2847  1.2277
 1218SOL     OW15112   3.286   2.004   7.639 -0.3379 -0.0215  0.4473
 1218SOL    HW115113   3.322   1.925   7.679  0.1406 -0.0988 -0.1365
 1218SOL    HW215114   3.351   2.072   7.655  0.0006 -0.3227  0.3394
 1219SOL     OW15115   4.337   1.926   8.464  0.2556 -0.0173 -0.4359
 1219SOL    HW115116   4.392   2.003   8.454 -0.3432  0.2216 -1.8364
 1219SOL    HW215117   4.325   1.902   8.372  0.9144 -0.1676 -0.4783
 1220SOL     OW15118   1.575   4.077   0.529 -0.2516 -0.3559  0.0783
 1220SOL    HW115119   1.576   4.090   0.624  0.3339  0.0766  0.0138
 1220SOL    HW215120   1.487   4.103   0.503 -0.5223 -0.9230  0.4482
 1221SOL     OW15121   0.027   0.769  10.950 -0.1582  0.3642  0.2913
 1221SOL    HW115122   0.037   0.758  10.855 -0.3406 -2.6350  0.6432
 1221SOL    HW215123   0.080   0.847  10.967  0.5015 -0.0461  0.0932
 1222SOL     OW15124   2.301   2.442  11.551 -0.0739  0.0571  0.3837
 1222SOL    HW115125   2.318   2.365  11.497  1.4703  0.3591  0.4326
 1222SOL    HW215126   2.388   2.469  11.581 -1.0189 -0.9518  3.9818
 1223SOL     OW15127   3.162   3.439   4.674  0.4806 -0.4719 -0.1793
 1223SOL    HW115128   3.149   3.344   4.676  0.2689 -0.4674 -1.2143
 1223SOL    HW215129   3.150   3.467   4.584  1.9909  1.3695  0.2001
 1224SOL     OW15130   1.404   4.045   2.966 -0.1848 -0.4843  0.3739
 1224SOL    HW115131   1.455   3.973   3.002 -0.0583  0.2586  1.6834
 1224SOL    HW215132   1.462   4.075   2.896  0.0371 -0.7207  0.4608
 1225SOL     OW15133   3.110   3.919  16.880 -0.6517  0.0961 -0.7728
 1225SOL    HW115134   3.052   3.843  16.874 -1.1275  0.5529 -2.2224
 1225SOL    HW215135   3.063   3.984  16.932  1.4481  0.8517  0.1506
 1226SOL     OW15136   4.262   0.108   2.165  0.1458 -0.1744 -0.5553
 1226SOL    HW115137   4.199   0.136   2.099  1.0390  1.7553 -0.5930
 1226SOL    HW215138   4.268   0.018   2.134  2.1136 -1.1063  2.5878
 1227SOL     OW15139   1.154   1.949  11.063 -0.2494 -0.6640  0.0571
 1227SOL    HW115140   1.132   1.979  10.975 -1.0114  0.9201  0.7933
 1227SOL    HW215141   1.135   1.855  11.059  0.0659 -0.7233 -0.0779
 1228SOL     OW15142   2.463   4.576   4.929 -0.0612 -0.0615 -0.4605
 1228SOL    HW115143   2.420   4.635   4.867  1.4653 -1.0294 -2.4311
 1228SOL    HW215144   2.392   4.575   4.993  0.7556  3.5092  0.5102
 1229SOL     OW15145   2.314   0.683  13.199  0.4615  0.4980  0.2421
 1229SOL    HW115146   2.265   0.730  13.132 -1.2091 -0.7373  0.5921
 1229SOL    HW215147   2.385   0.655  13.141  1.5396  0.8521  1.3887
 1230SOL     OW15148   1.941   3.093  12.229 -0.2495  0.1862 -0.1812
 1230SOL    HW115149   1.882   3.084  12.304  3.2900 -0.0134  2.5349
 1230SOL    HW215150   1.967   3.185  12.238  2.3414 -0.4368 -1.4909
 1231SOL     OW15151   2.418   4.564  13.488  0.5073 -0.0662 -0.2437
 1231SOL    HW115152   2.386   4.583  13.576  1.0300  1.3124 -0.3397
 1231SOL    HW215153   2.338   4.530  13.450 -0.4628  0.6616  1.1196
 1232SOL     OW15154   2.548   1.328   1.066 -0.4194 -0.0276 -0.5248
 1232SOL    HW115155   2.627   1.312   1.118  0.1418  1.4241 -0.9228
 1232SOL    HW215156   2.581   1.385   0.996  0.4648  2.0179  1.5367
 1233SOL     OW15157   4.517   0.922   7.039 -0.2997  0.2131  0.3021
 1233SOL    HW115158   4.423   0.905   7.032 -0.2377  0.0352 -0.0704
 1233SOL    HW215159   4.525   0.972   6.958  0.0695  0.0093  0.2162
 1234SOL     OW15160   1.621   2.269   5.636  0.8580 -0.0612  0.2074
 1234SOL    HW115161   1.631   2.241   5.727 -0.5362 -2.5504 -0.4147
 1234SOL    HW215162   1.709   2.255   5.601  1.3696  1.5420  0.8587
 1235SOL     OW15163   0.280   1.594   8.192  0.4608 -0.2011 -0.1513
 1235SOL    HW115164   0.248   1.611   8.103  3.1844  1.2721 -0.8498
 1235SOL    HW215165   0.210   1.640   8.239 -0.7862 -2.0448 -0.2470
 1236SOL     OW15166   4.096   3.132   4.110 -0.3646 -0.4987 -0.1697
 1236SOL    HW115167   4.188   3.104   4.107 -0.2897 -0.2129 -0.5943
 1236SOL    HW215168   4.071   3.095   4.195  3.1985  1.9049  1.9373
 1237SOL     OW15169   0.805   2.973   4.188 -0.0917  0.7590 -0.0364
 1237SOL    HW115170   0.783   2.944   4.099  1.8897 -1.6364  0.2304
 1237SOL    HW215171   0.766   3.060   4.185  0.3057  0.8677 -2.2536
 1238SOL     OW15172   0.905   3.376   5.455 -0.3311 -0.0484  0.0025
 1238SOL    HW115173   0.959   3.408   5.527 -1.7627  1.5590  0.3485
 1238SOL    HW215174   0.969   3.336   5.396  1.3214  2.2148  0.2758
 1239SOL     OW15175   1.009   0.626   2.309 -0.0355  0.0483 -0.6548
 1239SOL    HW115176   1.105   0.625   2.312 -0.0199  0.3697 -1.0234
 1239SOL    HW215177   0.995   0.535   2.285 -1.5813  0.5651 -1.6899
 1240SOL     OW15178   3.750   1.005  11.786 -0.4629 -0.1191  0.0242
 1240SOL    HW115179   3.715   0.952  11.715  0.0312  0.0581 -0.3445
 1240SOL    HW215180   3.813   1.054  11.735 -1.8530  2.1579  0.4972
 1241SOL     OW15181   0.244   4.231   2.955  0.5022  0.3386  0.4096
 1241SOL    HW115182   0.311   4.296   2.933  2.5126 -2.2061 -0.9358
 1241SOL    HW215183   0.228   4.186   2.872 -0.4989  2.1877 -0.4224
 1242SOL     OW15184   3.366   3.458   8.242 -0.0357 -0.5292  0.4813
 1242SOL    HW115185   3.272   3.451   8.229 -0.2959  0.3445  1.8062
 1242SOL    HW215186   3.397   3.381   8.196  0.5237  0.2608 -0.4717
 1243SOL     OW15187   4.264   0.860   5.127  0.1157  0.3145  0.1679
 1243SOL    HW115188   4.175   0.851   5.162 -0.6905  0.2938 -1.9303
 1243SOL    HW215189   4.322   0.838   5.201  0.1983 -1.9889 -0.5798
 1244SOL     OW15190   1.329   0.861  14.762  0.5339 -0.5378  0.0770
 1244SOL    HW115191   1.238   0.889  14.753 -0.2293 -2.6706  1.3138
 1244SOL    HW215192   1.360   0.919  14.692  0.5047 -0.6102  0.0041
 1245SOL     OW15193   1.207   2.046   3.020 -0.0015 -0.2448  0.0738
 1245SOL    HW115194   1.185   2.114   3.083 -1.4471 -1.1481  0.5450
 1245SOL    HW215195   1.302   2.050   3.028  0.0529 -3.0707  0.6533
 1246SOL     OW15196   3.230   3.535   9.554  0.1481  0.0172 -0.4087
 1246SOL    HW115197   3.156   3.531   9.613  2.2846  1.3415  2.3461
 1246SOL    HW215198   3.195   3.477   9.486 -2.0830  0.7361  0.1362
 1247SOL     OW15199   1.049   4.133  15.923  0.4652 -0.9211  0.4472
 1247SOL    HW115200   1.004   4.153  16.005 -0.6105 -0.7099 -0.1861
 1247SOL    HW215201   1.048   4.220  15.884 -1.3328 -1.0396  0.2138
 1248SOL     OW15202   0.352   3.229   1.476 -0.9546  0.4695 -0.1972
 1248SOL    HW115203   0.290   3.163   1.506 -0.4412  0.3426  0.5879
 1248SOL    HW215204   0.335   3.231   1.382 -0.1321 -2.0312 -0.3942
 1249SOL     OW15205   1.735   3.441   5.282  0.5222 -0.4866  0.1452
 1249SOL    HW115206   1.829   3.450   5.269  0.0889  0.7771 -2.0784
 1249SOL    HW215207   1.723   3.455   5.376 -0.1816  0.6105 -0.1039
 1250SOL     OW15208   0.004   1.909   1.551 -0.0143  0.1943 -0.0547
 1250SOL    HW115209   0.037   1.979   1.608  1.8960 -2.1078  1.6155
 1250SOL    HW215210   0.080   1.858   1.524 -0.1314  0.5253 -1.0234
 1251SOL     OW15211   3.896   4.107   2.486 -0.0227 -0.4646  0.4437
 1251SOL    HW115212   3.816   4.075   2.444 -0.4732 -0.0193  0.9616
 1251SOL    HW215213   3.909   4.033   2.545  0.0786 -1.9266 -1.4128
 1252SOL     OW15214   3.085   0.117   2.725  0.0341 -0.5742 -0.3572
 1252SOL    HW115215   3.104   0.075   2.809 -3.3881  0.1214  0.7994
 1252SOL    HW215216   3.173   0.135   2.693 -0.1981  0.0849 -0.6357
 1253SOL     OW15217   1.145   3.266   2.414 -0.3789 -0.5747  0.7326
 1253SOL    HW115218   1.131   3.332   2.482  0.0343  0.4499 -0.1589
 1253SOL    HW215219   1.053   3.242   2.402 -0.5153 -0.6471  1.9398
 1254SOL     OW15220   0.732   4.705  11.424 -0.7780 -0.3831 -0.0990
 1254SOL    HW115221   0.737   0.078  11.402  1.4786 -0.1182  1.4439
 1254SOL    HW215222   0.669   4.679  11.358 -2.1622  0.6283  0.8216
 1255SOL     OW15223   3.879   1.812  10.499  0.0466 -0.4589  0.4919
 1255SOL    HW115224   3.846   1.727  10.529 -0.7265 -0.1946  0.3894
 1255SOL    HW215225   3.955   1.817  10.558 -0.1632 -0.6791  0.7829
 1256SOL     OW15226   1.814   1.217  11.650  0.3998 -0.3087 -0.4776
 1256SOL    HW115227   1.838   1.130  11.619  0.2368 -0.4387 -0.2421
 1256SOL    HW215228   1.734   1.200  11.699 -0.3152  0.4207 -1.3973
 1257SOL     OW15229   2.594   3.341   3.357  0.0627  0.3662 -0.3358
 1257SOL    HW115230   2.650   3.287   3.413  0.7609 -0.6335 -1.9747
 1257SOL    HW215231   2.526   3.355   3.422  0.3066  0.2980 -0.0633
 1258SOL     OW15232   1.046   0.555  16.859  0.5229 -0.0143  0.0208
 1258SOL    HW115233   0.964   0.515  16.830  1.6356 -0.0575 -3.0087
 1258SOL    HW215234   1.010   0.636  16.895 -0.5430 -0.0435 -0.9889
 1259SOL     OW15235   2.341   1.996   8.895  0.0013  0.0317  0.2372
 1259SOL    HW115236   2.341   1.993   8.800  1.7541  0.6131  0.2269
 1259SOL    HW215237   2.277   1.931   8.924  0.3164 -0.0735  0.6984
 1260SOL     OW15238   4.028   0.458   3.708  0.2354 -0.1458  0.4298
 1260SOL    HW115239   4.051   0.413   3.627  0.7831  0.7834  0.0721
 1260SOL    HW215240   3.964   0.521   3.676 -1.4428 -2.9729 -1.7705
 1261SOL     OW15241   0.671   4.186   5.982 -0.1260  0.2907 -0.6492
 1261SOL    HW115242   0.729   4.255   5.951  0.8272 -0.2197 -0.0005
 1261SOL    HW215243   0.692   4.169   6.073  1.2700  1.0268 -0.8415
 1262SOL     OW15244   0.904   4.644   2.491  0.0167 -0.4992  0.0038
 1262SOL    HW115245   0.922   4.550   2.491 -0.1138 -0.5246  0.1924
 1262SOL    HW215246   0.832   4.656   2.429 -0.6406 -1.4903  0.5683
 1263SOL     OW15247   2.893   3.251   4.555 -0.4937 -0.3929 -0.3336
 1263SOL    HW115248   2.897   3.298   4.639  2.4333  0.3212 -0.8779
 1263SOL    HW215249   2.823   3.188   4.570  0.0362 -0.7218  0.7503
 1264SOL     OW15250   1.421   3.517   5.231 -0.3535  0.0432  0.3139
 1264SOL    HW115251   1.509   3.493   5.258  0.8250  0.7548 -2.8492
 1264SOL    HW215252   1.433   3.480   5.143  1.0255 -1.3855  1.1151
 1265SOL     OW15253   0.501   4.275   4.915 -0.6894  0.3901  0.0095
 1265SOL    HW115254   0.468   4.282   5.005  0.5646  0.7406  0.4452
 1265SOL    HW215255   0.441   4.207   4.884 -0.3185 -0.9923  2.3252
 1266SOL     OW15256   1.761   2.241   4.338  0.6694  0.5442  0.4104
 1266SOL    HW115257   1.787   2.257   4.429  0.8403 -0.5116  0.5506
 1266SOL    HW215258   1.774   2.146   4.338 -0.6661  0.3725  0.5713
 1267SOL     OW15259   2.442   4.535   4.073  0.3738  0.2140  0.2022
 1267SOL    HW115260   2.455   4.446   4.105  0.2705  0.8985  2.1366
 1267SOL    HW215261   2.348   4.524   4.056  0.2227  2.8932 -0.7110
 1268SOL     OW15262   3.364   2.406   7.852  0.6037 -0.2925 -0.0549
 1268SOL    HW115263   3.288   2.449   7.812 -0.2519 -0.1045  1.7198
 1268SOL    HW215264   3.427   2.477   7.861 -1.4335  1.6700 -1.2149
 1269SOL     OW15265   4.561   2.026   5.665 -0.3167 -0.3775  0.2905
 1269SOL    HW115266   4.644   2.049   5.708 -1.1163 -2.4158  2.9729
 1269SOL    HW215267   4.540   2.111   5.628  1.9974  0.5353  1.0529
 1270SOL     OW15268   4.197   1.254   4.813 -0.4665 -0.4990  0.0313
 1270SOL    HW115269   4.270   1.316   4.824 -0.2144 -0.8301  0.2391
 1270SOL    HW215270   4.244   1.178   4.779  0.7367  0.3172 -0.1679
 1271SOL     OW15271   2.743   0.331  15.095  0.4012 -0.4958  0.4223
 1271SOL    HW115272   2.705   0.415  15.118  1.4812  0.5870 -1.7735
 1271SOL    HW215273   2.763   0.295  15.182  2.3088  0.9458  0.5643
 1272SOL     OW15274   4.098   3.518   4.692  0.1411  0.1611 -0.1258
 1272SOL    HW115275   4.125   3.579   4.624 -1.6526 -1.0811 -1.9569
 1272SOL    HW215276   4.003   3.521   4.677  0.0467  0.3779  0.5223
 1273SOL     OW15277   0.815   2.070  17.108  0.1531 -0.3900  0.2074
 1273SOL    HW115278   0.796   1.981  17.138  4.2605 -1.0032  1.0212
 1273SOL    HW215279   0.803   2.118  17.189  2.7328 -1.7437  1.4008
 1274SOL     OW15280   3.224   2.577   3.633 -0.4469 -0.0663  0.1160
 1274SOL    HW115281   3.261   2.629   3.704 -1.1798  1.1223 -0.3697
 1274SOL    HW215282   3.252   2.489   3.658 -1.2178 -0.0788  0.9624
 1275SOL     OW15283   0.941   1.998   4.853 -0.4141 -0.4174  0.1064
 1275SOL    HW115284   0.962   2.037   4.939 -1.9568 -0.2667  0.4068
 1275SOL    HW215285   1.029   1.992   4.816 -1.1492  0.5980 -1.8148
 1276SOL     OW15286   1.190   2.072   1.825 -0.3523 -0.2465 -0.1509
 1276SOL    HW115287   1.173   2.153   1.776  0.2707  0.3562  0.6277
 1276SOL    HW215288   1.156   2.092   1.912  1.9714 -1.3559  1.0146
 1277SOL     OW15289   3.981   4.409   7.127  0.1156 -0.0695  0.6248
 1277SOL    HW115290   4.008   4.501   7.129  0.3493 -0.1811  2.7693
 1277SOL    HW215291   3.931   4.408   7.209 -1.1430  0.3257 -0.1304
 1278SOL     OW15292   2.324   2.583   3.761 -0.3223  0.2678 -0.1606
 1278SOL    HW115293   2.361   2.659   3.805  2.8786 -0.6807 -1.2589
 1278SOL    HW215294   2.240   2.594   3.808  0.7604 -0.0923  1.8749
 1279SOL     OW15295   4.103   4.415   9.484 -0.0086  0.2366  0.3362
 1279SOL    HW115296   4.164   4.364   9.536 -1.1049 -0.4435  0.9421
 1279SOL    HW215297   4.061   4.467   9.552 -1.3008 -1.4604  0.8322
 1280SOL     OW15298   1.134   1.192   7.141 -0.2200  0.4750  0.1697
 1280SOL    HW115299   1.039   1.189   7.126 -0.5579  0.4600  2.3025
 1280SOL    HW215300   1.144   1.266   7.201 -1.9855 -0.6634  1.8871
 1281SOL     OW15301   1.084   2.016  14.858 -0.5245  0.1398 -0.0133
 1281SOL    HW115302   1.039   2.090  14.818  0.2412  0.8569  0.4532
 1281SOL    HW215303   1.170   2.018  14.816  0.6485  0.6307  2.3815
 1282SOL     OW15304   3.931   0.324   4.517 -0.5801  0.0841  0.7012
 1282SOL    HW115305   3.886   0.301   4.436 -2.1804  3.1334  0.7444
 1282SOL    HW215306   3.969   0.237   4.531 -1.7395 -0.6260 -0.5214
 1283SOL     OW15307   2.657   4.367  16.600  0.0528  0.0159 -0.1478
 1283SOL    HW115308   2.649   4.317  16.681  0.6521 -1.1617 -0.8190
 1283SOL    HW215309   2.577   4.333  16.560  0.2873 -2.6448  1.6445
 1284SOL     OW15310   1.766   0.324   6.489  0.4904 -0.2695  0.0427
 1284SOL    HW115311   1.773   0.401   6.546  0.4738 -0.9954  1.0223
 1284SOL    HW215312   1.718   0.272   6.552  4.0776 -2.3706  1.0201
 1285SOL     OW15313   2.740   0.768   2.570  0.2769 -0.6813  0.3484
 1285SOL    HW115314   2.796   0.747   2.645  2.6273 -2.6344 -1.9735
 1285SOL    HW215315   2.738   0.861   2.592  0.9533 -1.1386  2.3430
 1286SOL     OW15316   3.209   1.962   4.064  0.2485 -0.3163  0.5302
 1286SOL    HW115317   3.302   1.939   4.068  0.9289  2.2553  0.0510
 1286SOL    HW215318   3.201   2.027   4.134  0.2459  0.0636  0.1776
 1287SOL     OW15319   3.315   3.746   2.332 -0.2037 -0.3774  0.4606
 1287SOL    HW115320   3.298   3.832   2.370  2.8829 -0.3724  1.7888
 1287SOL    HW215321   3.227   3.708   2.320  1.2370 -3.1751 -1.2639
 1288SOL     OW15322   1.126   1.189   7.817 -0.3505 -0.4446 -0.2979
 1288SOL    HW115323   1.204   1.244   7.814  0.7882 -2.0236  0.3588
 1288SOL    HW215324   1.150   1.124   7.883 -0.2001  1.5034  1.5781
 1289SOL     OW15325   1.952   0.979   4.535 -0.5952 -0.3984  0.0281
 1289SOL    HW115326   1.858   0.983   4.517 -0.7195 -3.0104  0.1438
 1289SOL    HW215327   1.966   0.886   4.551  1.6861  0.1832  1.5076
 1290SOL     OW15328   2.033   2.280   7.868 -0.2433 -0.4683 -0.6113
 1290SOL    HW115329   1.957   2.221   7.871 -0.7553  0.2371  0.3869
 1290SOL    HW215330   2.108   2.220   7.874 -0.9048 -1.2272  0.1954
 1291SOL     OW15331   1.825   1.520   4.064 -0.1844  0.1062  0.3540
 1291SOL    HW115332   1.802   1.552   3.977  0.7230  2.1824  0.8725
 1291SOL    HW215333   1.892   1.584   4.089  0.8124 -2.0755  3.1648
 1292SOL     OW15334   1.898   0.925   7.852  0.5990 -0.7236  0.5124
 1292SOL    HW115335   1.863   0.967   7.773  1.8685 -0.4631  0.0795
 1292SOL    HW215336   1.898   0.836   7.819 -0.5807 -0.1021 -1.1736
 1293SOL     OW15337   2.391   3.612  11.281 -0.1255  0.2710 -0.1590
 1293SOL    HW115338   2.297   3.597  11.286 -0.0021 -0.2951  0.4312
 1293SOL    HW215339   2.424   3.523  11.266  0.5858  0.4126  0.5595
 1294SOL     OW15340   3.480   1.984   6.382 -0.1453 -0.3946  0.2882
 1294SOL    HW115341   3.538   1.909   6.394 -1.1844 -0.9654  1.7554
 1294SOL    HW215342   3.497   2.029   6.464  1.6056 -0.9970  0.2596
 1295SOL     OW15343   2.657   0.359   1.957 -0.2697  0.1370  0.2109
 1295SOL    HW115344   2.722   0.390   1.895 -0.4561 -0.3538 -0.2269
 1295SOL    HW215345   2.713   0.308   2.016 -0.8894  0.3577  0.9897
 1296SOL     OW15346   4.592   1.015   2.446 -0.2488 -0.4588 -0.3279
 1296SOL    HW115347   4.645   0.950   2.399 -0.1362 -1.5180  1.2898
 1296SOL    HW215348   4.550   0.954   2.507  0.4378 -2.4935 -1.8556
 1297SOL     OW15349   4.610   0.203   6.933 -0.0202 -0.0973  0.2177
 1297SOL    HW115350   4.522   0.215   6.900 -0.5845 -0.2321  1.6624
 1297SOL    HW215351   4.598   0.163   7.020 -1.9842 -1.1456 -0.5471
 1298SOL     OW15352   3.814   1.149   3.325  0.6709  0.6513 -0.9431
 1298SOL    HW115353   3.781   1.064   3.355 -0.7499  0.9811 -1.6016
 1298SOL    HW215354   3.844   1.117   3.240 -0.9519 -2.2883 -0.4080
 1299SOL     OW15355   4.434   0.512   6.418 -0.1139 -0.5547  0.2654
 1299SOL    HW115356   4.512   0.460   6.436  1.1707  0.6572 -1.9019
 1299SOL    HW215357   4.380   0.444   6.377 -2.2373  1.2659 -0.0138
 1300SOL     OW15358   3.398   3.327   2.075 -0.0552  0.3325  0.0386
 1300SOL    HW115359   3.473   3.381   2.050 -1.4365  2.4230  0.4046
 1300SOL    HW215360   3.372   3.295   1.988  1.5907 -0.0621 -0.3121
 1301SOL     OW15361   1.759   1.698  15.392 -0.1896  0.3817 -0.1470
 1301SOL    HW115362   1.813   1.748  15.331 -1.2797  3.8276  1.7074
 1301SOL    HW215363   1.830   1.643  15.425  0.3926  1.8283  1.0277
 1302SOL     OW15364   3.821   3.088   7.937  0.0568  0.6530  0.4352
 1302SOL    HW115365   3.799   3.043   8.019 -0.6754 -1.6452 -1.0461
 1302SOL    HW215366   3.896   3.143   7.960  0.8253 -0.5996  0.8673
 1303SOL     OW15367   2.173   2.653   2.034 -0.5134  0.0607  0.3765
 1303SOL    HW115368   2.080   2.663   2.054 -1.3543  1.5092 -3.9900
 1303SOL    HW215369   2.207   2.742   2.047  0.7162 -0.3156 -0.2695
 1304SOL     OW15370   3.456   4.037  12.782 -0.1315  0.3100  0.1025
 1304SOL    HW115371   3.529   4.098  12.781  1.5448 -1.6867  0.3939
 1304SOL    HW215372   3.394   4.081  12.840 -0.8692 -0.0123 -0.4330
 1305SOL     OW15373   2.098   2.480   4.510  0.1777  0.4941  0.0330
 1305SOL    HW115374   2.094   2.523   4.424  1.0411  0.2078 -0.1530
 1305SOL    HW215375   2.032   2.532   4.556 -0.2736  1.1418 -1.3508
 1306SOL     OW15376   4.142   4.434  17.334 -0.1438  0.4366 -0.4531
 1306SOL    HW115377   4.083   4.362  17.310 -0.5586  0.3245  0.9054
 1306SOL    HW215378   4.122   4.433  17.427 -1.7054 -1.7859 -0.8209
 1307SOL     OW15379   3.572   2.097  16.274  0.0289 -0.1008 -0.6136
 1307SOL    HW115380   3.522   2.160  16.222  3.0211  1.7491 -1.2601
 1307SOL    HW215381   3.652   2.083  16.223  0.9828  0.4815  0.7215
 1308SOL     OW15382   2.044   1.356   1.635  0.2595  0.4659  0.4500
 1308SOL    HW115383   1.955   1.364   1.667 -0.1978  2.6823 -1.3937
 1308SOL    HW215384   2.027   1.385   1.546  1.1924 -0.9503 -0.1938
 1309SOL     OW15385   4.171   1.623   6.946  0.0038 -0.1863 -0.0429
 1309SOL    HW115386   4.124   1.706   6.950 -1.4539 -1.0088 -0.0511
 1309SOL    HW215387   4.258   1.659   6.963 -0.3637  0.1127  1.1565
 1310SOL     OW15388   2.193   2.458   1.817 -0.0159 -1.0444 -0.3770
 1310SOL    HW115389   2.194   2.506   1.899 -1.5824 -0.7562 -0.5211
 1310SOL    HW215390   2.276   2.410   1.819  1.0442  0.7959  0.0258
 1311SOL     OW15391   0.281   4.489   2.347 -0.3294 -0.0735  0.0975
 1311SOL    HW115392   0.351   4.473   2.410 -1.9812 -0.6981  1.7745
 1311SOL    HW215393   0.278   4.584   2.354  0.1768 -0.0013 -0.6482
 1312SOL     OW15394   4.680   4.083   4.008 -0.0810 -0.3330  0.6042
 1312SOL    HW115395   0.051   4.060   3.994  0.2155  0.4463  1.2244
 1312SOL    HW215396   4.694   4.178   4.005 -0.3801 -0.3545 -1.3607
 1313SOL     OW15397   4.012   1.358  15.645 -0.2357  0.5835 -0.1828
 1313SOL    HW115398   4.031   1.439  15.598  1.7391  0.7966  0.9878
 1313SOL    HW215399   3.982   1.298  15.576 -0.0657 -0.1403  0.3762
 1314SOL     OW15400   0.562   0.730   9.221  0.0530  0.1400  0.0252
 1314SOL    HW115401   0.480   0.685   9.205  0.3213 -0.5301  0.5311
 1314SOL    HW215402   0.602   0.669   9.283 -0.2774 -1.5884 -1.4690
 1315SOL     OW15403   3.057   3.608   7.628  0.4067 -0.0391  0.0792
 1315SOL    HW115404   2.964   3.598   7.607  0.5010  2.3428 -1.5343
 1315SOL    HW215405   3.104   3.563   7.558 -3.4506 -0.9796 -1.9102
 1316SOL     OW15406   2.185   4.004   3.248  0.3045  0.5489  0.3601
 1316SOL    HW115407   2.212   3.932   3.190  0.2766  0.4249  0.5013
 1316SOL    HW215408   2.189   3.970   3.337  0.3778  0.2629  0.2482
 1317SOL     OW15409   1.361   0.067  13.203 -0.2751 -0.3089 -0.2516
 1317SOL    HW115410   1.383   0.155  13.234 -2.2112  0.3182 -0.6763
 1317SOL    HW215411   1.266   0.069  13.198 -0.2763  0.4260  0.1200
 1318SOL     OW15412   0.608   2.689  13.409 -0.1658 -0.8031  0.1597
 1318SOL    HW115413   0.573   2.753  13.347 -0.0723  0.0156  0.9548
 1318SOL    HW215414   0.539   2.623  13.412 -0.4455 -0.4460  1.4538
 1319SOL     OW15415   2.571   1.660  17.660  0.0164 -0.6943 -0.1885
 1319SOL    HW115416   2.598   1.609  17.584  1.5773  0.1502 -0.2120
 1319SOL    HW215417   2.557   1.741  17.611  1.2926  0.4385  1.3351
 1320SOL     OW15418   3.691   3.850  16.725  0.2838 -0.3467  0.0559
 1320SOL    HW115419   3.597   3.861  16.719  0.3014 -0.3679 -0.2656
 1320SOL    HW215420   3.698   3.837  16.820 -0.3682 -0.2466  0.1123
 1321SOL     OW15421   4.071   3.768   5.458  0.1346  0.1008 -0.3784
 1321SOL    HW115422   4.053   3.856   5.489 -2.6851 -0.0379 -1.5850
 1321SOL    HW215423   4.085   3.783   5.365 -1.1944 -1.7161 -0.8812
 1322SOL     OW15424   3.077   3.479   4.141  0.5716 -0.0029  0.5615
 1322SOL    HW115425   3.040   3.394   4.167 -1.2612  0.7939  0.5666
 1322SOL    HW215426   3.102   3.452   4.053  0.0543  0.9064  0.1402
 1323SOL     OW15427   0.385   0.010   3.175  0.4717 -0.2283  0.3659
 1323SOL    HW115428   0.479   0.016   3.189  1.0123 -4.2696 -1.5387
 1323SOL    HW215429   0.373   4.635   3.170 -3.0632  0.2390 -0.4693
 1324SOL     OW15430   3.219   2.567  12.983 -0.0722  0.5923  0.1459
 1324SOL    HW115431   3.284   2.508  13.020  0.1262  0.7303  0.0117
 1324SOL    HW215432   3.202   2.529  12.897 -0.5103  0.2956  0.3582
 1325SOL     OW15433   3.033   0.014   2.134 -0.1364  0.3027  0.0644
 1325SOL    HW115434   3.050   0.076   2.064  1.5104  0.5795  0.6926
 1325SOL    HW215435   3.117   0.000   2.179 -1.0611  1.0760  2.0383
 1326SOL     OW15436   3.239   0.600   6.620 -0.5737  0.8200  0.2643
 1326SOL    HW115437   3.263   0.509   6.640 -1.1725  0.8041  0.9240
 1326SOL    HW215438   3.302   0.647   6.675  0.5634  0.9428 -1.1534
 1327SOL     OW15439   0.607   3.003   6.944  0.3912 -0.0422  0.4420
 1327SOL    HW115440   0.522   3.009   6.901  0.4037 -2.5258  0.0801
 1327SOL    HW215441   0.623   2.910   6.960 -0.6253 -0.2678  0.1116
 1328SOL     OW15442   1.618   2.448   8.695  0.0002  0.0659 -0.5877
 1328SOL    HW115443   1.686   2.396   8.738 -0.1518 -0.1815 -0.6442
 1328SOL    HW215444   1.553   2.380   8.679  0.0332 -0.6855  2.4771
 1329SOL     OW15445   1.606   1.870  14.999 -0.4703 -0.3205  0.0978
 1329SOL    HW115446   1.688   1.822  14.991 -0.5407 -0.9711  3.4491
 1329SOL    HW215447   1.593   1.897  15.090 -2.8958  1.9321 -0.9335
 1330SOL     OW15448   1.850   0.199   4.564  0.2350 -0.0003 -0.2697
 1330SOL    HW115449   1.937   0.165   4.586  0.2850 -0.0344 -0.5201
 1330SOL    HW215450   1.875   0.259   4.494 -1.3225 -1.0515 -1.7356
 1331SOL     OW15451   3.080   1.635   3.302  0.3577  0.0117 -0.1746
 1331SOL    HW115452   3.028   1.571   3.254 -1.3069  1.4696 -0.3085
 1331SOL    HW215453   3.122   1.690   3.235  2.8075  0.6693  1.8950
 1332SOL     OW15454   4.300   4.493   3.577  0.3682 -0.5256  0.1614
 1332SOL    HW115455   4.287   4.571   3.631  0.4199 -1.2639  1.2589
 1332SOL    HW215456   4.213   4.453   3.584  1.0767 -2.5347 -2.7817
 1333SOL     OW15457   2.032   2.531  15.851 -0.0778  0.6814  0.1459
 1333SOL    HW115458   2.092   2.601  15.824  0.1161 -0.0708 -1.3684
 1333SOL    HW215459   2.096   2.468  15.884 -1.2494 -1.2930 -1.3625
 1334SOL     OW15460   3.180   4.173   6.452  0.0715 -0.2173  0.1213
 1334SOL    HW115461   3.155   4.246   6.395 -1.7520 -2.5644 -2.1327
 1334SOL    HW215462   3.206   4.107   6.388 -2.8005 -0.9801 -0.2748
 1335SOL     OW15463   3.454   2.071   0.497 -0.7450  0.2553 -0.4990
 1335SOL    HW115464   3.378   2.124   0.475  1.7601  3.2406 -1.8765
 1335SOL    HW215465   3.523   2.137   0.501 -0.8602  0.4704 -2.4209
 1336SOL     OW15466   0.894   0.251   0.656 -0.2044  0.1578 -0.5377
 1336SOL    HW115467   0.901   0.160   0.627 -0.3010  0.2287 -0.7863
 1336SOL    HW215468   0.888   0.247   0.751  0.1296 -0.7939 -0.5528
 1337SOL     OW15469   4.477   1.288   2.774 -0.6782  0.5143  0.0749
 1337SOL    HW115470   4.470   1.304   2.868  0.0820 -1.6850  0.5129
 1337SOL    HW215471   4.421   1.211   2.771  0.1236  0.0155 -2.3156
 1338SOL     OW15472   3.898   1.896  15.279 -0.2664  0.3045 -0.1678
 1338SOL    HW115473   3.876   1.810  15.313  0.9659  0.2132  0.3989
 1338SOL    HW215474   3.959   1.920  15.348  1.4086 -0.5073 -1.3648
 1339SOL     OW15475   3.307   4.247   4.647  0.7305 -0.1672 -0.5998
 1339SOL    HW115476   3.311   4.291   4.732 -2.3490 -1.4485  0.2345
 1339SOL    HW215477   3.251   4.172   4.665  2.4559 -2.0928 -3.2910
 1340SOL     OW15478   4.135   2.492  14.971 -0.3016 -0.7571  0.2421
 1340SOL    HW115479   4.215   2.458  15.012  0.7898 -1.9999 -2.9388
 1340SOL    HW215480   4.072   2.440  15.021  1.4749 -2.6884  0.4681
 1341SOL     OW15481   1.329   3.111   8.309  0.6456  0.0336 -0.1706
 1341SOL    HW115482   1.261   3.059   8.352  0.8936 -0.1729 -0.0266
 1341SOL    HW215483   1.310   3.193   8.355 -2.0479  0.1034 -1.4174
 1342SOL     OW15484   2.418   4.573   5.257  0.4445  0.2276  0.1770
 1342SOL    HW115485   2.466   4.650   5.225  1.1586 -0.3838 -0.2102
 1342SOL    HW215486   2.477   4.544   5.326  0.0218  0.9152  0.8262
 1343SOL     OW15487   4.678   0.053   8.503 -0.3590 -0.0708 -0.1138
 1343SOL    HW115488   4.636   4.700   8.458 -0.9025  0.3220 -0.2328
 1343SOL    HW215489   0.025   0.034   8.569 -1.2606  1.0371  1.1065
 1344SOL     OW15490   1.019   2.256   5.996  0.2026 -0.9118  0.2341
 1344SOL    HW115491   0.963   2.198   6.048  1.3453 -0.7510  1.6436
 1344SOL    HW215492   1.010   2.333   6.053 -1.9828  0.3604 -1.8212
 1345SOL     OW15493   0.163   2.080   9.344 -0.5509 -0.1315  0.0874
 1345SOL    HW115494   0.219   2.157   9.346  0.8472 -1.1470  1.1268
 1345SOL    HW215495   0.126   2.091   9.257  1.2791 -0.5970 -0.7653
 1346SOL     OW15496   0.635   0.057  16.040 -0.2984  0.3460  0.1281
 1346SOL    HW115497   0.671   0.069  15.952  1.9965  0.7691  1.1142
 1346SOL    HW215498   0.594   4.694  16.015  0.2361  0.2466 -0.4281
 1347SOL     OW15499   1.683   1.203  10.789 -0.7245  0.2184  0.1474
 1347SOL    HW115500   1.674   1.172  10.699  1.3807  1.7072 -0.5841
 1347SOL    HW215501   1.752   1.145  10.822  1.2981  2.1058 -0.7750
 1348SOL     OW15502   0.137   3.315  13.767 -0.4222  0.5844 -0.5166
 1348SOL    HW115503   0.228   3.322  13.737  0.1589  0.3592  1.1626
 1348SOL    HW215504   0.101   3.231  13.738 -2.5141  1.1204  0.5157
 1349SOL     OW15505   0.398   1.324  14.562  0.0506  0.5881 -0.2291
 1349SOL    HW115506   0.324   1.384  14.571 -0.4317 -0.0101 -0.1546
 1349SOL    HW215507   0.458   1.362  14.626 -0.6052 -0.8719  1.2667
 1350SOL     OW15508   0.301   1.892   4.855  0.0607  0.5260  0.0295
 1350SOL    HW115509   0.395   1.873   4.855  0.3843  2.1309 -1.5030
 1350SOL    HW215510   0.299   1.987   4.850  0.1053  0.5680  0.9614
 1351SOL     OW15511   0.126   2.844   7.582 -0.7202  0.7792 -0.1162
 1351SOL    HW115512   0.140   2.938   7.594  2.2424  0.5149 -1.5205
 1351SOL    HW215513   0.031   2.845   7.572 -0.7247  1.7688  0.0125
 1352SOL     OW15514   0.621   2.064   4.934 -0.4547  0.2328  0.4305
 1352SOL    HW115515   0.645   1.978   4.901 -0.7691 -0.0727  0.9879
 1352SOL    HW215516   0.681   2.063   5.009  1.4594 -1.3488 -1.1366
 1353SOL     OW15517   0.339   2.830  16.122  0.1067  0.3499  0.4147
 1353SOL    HW115518   0.404   2.795  16.183  0.6308  0.9480  0.1997
 1353SOL    HW215519   0.317   2.912  16.166 -0.2048  0.4020  0.1591
 1354SOL     OW15520   4.612   2.764   3.151 -0.2955  0.1959  0.1718
 1354SOL    HW115521   4.638   2.682   3.109  0.7669  1.3372 -1.3971
 1354SOL    HW215522   4.620   2.742   3.243 -1.6392 -0.5705  0.1040
 1355SOL     OW15523   3.483   0.040   8.041  0.0732 -0.5153  0.6462
 1355SOL    HW115524   3.526   0.122   8.066 -1.0670  0.4815 -0.6936
 1355SOL    HW215525   3.548   0.001   7.983  0.3696 -0.3108  0.8397
 1356SOL     OW15526   0.727   1.445  11.673  0.4078 -0.5403  0.0489
 1356SOL    HW115527   0.723   1.535  11.641  2.8493 -1.3645 -2.5303
 1356SOL    HW215528   0.654   1.444  11.735  2.0061 -2.2921  1.9355
 1357SOL     OW15529   2.998   0.916   3.094  0.4460 -0.2741  0.4492
 1357SOL    HW115530   2.981   0.897   3.187 -1.0407  1.6327  0.5678
 1357SOL    HW215531   2.963   1.005   3.085  1.8045  0.3096  0.9694
 1358SOL     OW15532   4.080   0.804  16.178 -0.3714 -0.0082  0.8100
 1358SOL    HW115533   4.158   0.860  16.180 -0.5217  0.2466 -0.7198
 1358SOL    HW215534   4.133   0.724  16.182  1.2579  0.9374 -1.7165
 1359SOL     OW15535   2.071   0.035   5.727  0.0165  0.0104  0.0918
 1359SOL    HW115536   2.162   0.034   5.697  0.1218  0.2692  0.4095
 1359SOL    HW215537   2.049   4.662   5.736  1.5187 -0.4138 -0.5255
 1360SOL     OW15538   2.119   2.778   4.111 -0.0860 -0.6065  0.5905
 1360SOL    HW115539   2.063   2.853   4.132  2.0061  0.9097  0.7914
 1360SOL    HW215540   2.152   2.745   4.195 -1.2042  0.0257  1.2806
 1361SOL     OW15541   0.364   2.762   2.415 -0.2291  0.2067  0.6063
 1361SOL    HW115542   0.388   2.695   2.350 -2.3156 -0.6261  0.7151
 1361SOL    HW215543   0.318   2.823   2.357  0.4991 -1.0781 -1.3506
 1362SOL     OW15544   2.819   1.767   4.599  0.2267 -0.6023  0.0017
 1362SOL    HW115545   2.763   1.724   4.663 -0.1729  1.4432  1.0168
 1362SOL    HW215546   2.752   1.812   4.547  0.9486 -0.6647 -0.9901
 1363SOL     OW15547   1.516   2.687   5.544  0.1114  0.1880 -0.1639
 1363SOL    HW115548   1.484   2.602   5.575 -1.9241  0.8806 -0.4172
 1363SOL    HW215549   1.431   2.724   5.520  0.4071  1.0618  0.1500
 1364SOL     OW15550   3.829   0.498   8.311  0.0375  0.0200 -0.1217
 1364SOL    HW115551   3.764   0.566   8.326  1.2741  0.5990  2.6661
 1364SOL    HW215552   3.786   0.422   8.349  0.7677 -0.6099 -0.5605
 1365SOL     OW15553   4.243   1.834   5.117 -0.2077 -0.5896  0.1489
 1365SOL    HW115554   4.327   1.880   5.120  0.4057 -1.7111  0.5390
 1365SOL    HW215555   4.251   1.782   5.197 -1.0913  0.4126  0.8836
 1366SOL     OW15556   4.564   1.899  13.688  0.2301 -0.8344  0.0313
 1366SOL    HW115557   4.640   1.925  13.637 -0.7973 -0.2601 -1.2162
 1366SOL    HW215558   4.485   1.931  13.644 -0.4717 -0.5882  1.4815
 1367SOL     OW15559   3.559   0.664  14.573 -0.0594  0.0576 -0.4262
 1367SOL    HW115560   3.471   0.636  14.548  0.8616 -3.1186 -0.1277
 1367SOL    HW215561   3.617   0.592  14.549  1.0283  0.9459 -0.4944
 1368SOL     OW15562   3.232   2.669  16.158  0.0839 -0.3950  0.2188
 1368SOL    HW115563   3.326   2.679  16.140 -0.0523  1.1677  0.4186
 1368SOL    HW215564   3.241   2.593  16.216  2.0712  0.1283  0.6010
 1369SOL     OW15565   3.778   3.802   1.138 -0.6474  0.4168 -0.5604
 1369SOL    HW115566   3.690   3.793   1.172  0.8002 -1.5258  2.5984
 1369SOL    HW215567   3.765   3.754   1.056 -0.8237  0.0096 -0.2913
 1370SOL     OW15568   2.958   0.571   9.028  0.7730 -0.7026 -0.4047
 1370SOL    HW115569   3.010   0.495   9.001  1.0995 -0.3570 -0.7457
 1370SOL    HW215570   2.950   0.614   8.943 -3.1699 -0.6811  0.0039
 1371SOL     OW15571   2.061   4.696   7.696  0.6450  0.0478  0.8002
 1371SOL    HW115572   1.979   0.010   7.731  0.6882  1.3698 -0.4068
 1371SOL    HW215573   2.066   0.027   7.615 -0.0465  2.2288  2.1456
 1372SOL     OW15574   3.044   4.270   1.850 -0.0457 -0.0569  0.9060
 1372SOL    HW115575   3.086   4.356   1.856 -1.8192  0.7751  1.2554
 1372SOL    HW215576   2.973   4.283   1.912 -0.2483  2.0226  0.2585
 1373SOL     OW15577   0.332   0.557   1.138 -0.0353 -0.8171  0.7158
 1373SOL    HW115578   0.427   0.559   1.125 -0.4322 -0.9655 -2.2436
 1373SOL    HW215579   0.311   0.515   1.055 -0.1776  1.1130 -0.2290
 1374SOL     OW15580   4.158   0.563  15.364 -0.1093  0.3436  0.0560
 1374SOL    HW115581   4.146   0.593  15.275  2.6767  1.1916 -0.0386
 1374SOL    HW215582   4.250   0.538  15.377 -0.4195 -1.1673 -0.6545
 1375SOL     OW15583   2.879   4.544   3.479 -0.0176  0.1825 -0.4658
 1375SOL    HW115584   2.832   4.475   3.527  3.3894  0.6626  3.5729
 1375SOL    HW215585   2.802   4.601   3.478 -2.0377 -2.5292  0.4132
 1376SOL     OW15586   3.321   0.986  12.942 -0.9361  0.0113 -0.1994
 1376SOL    HW115587   3.412   0.958  12.928 -1.0862 -0.2597 -0.6215
 1376SOL    HW215588   3.280   0.971  12.857  1.2692 -2.5018 -0.8133
 1377SOL     OW15589   0.004   1.078  15.741  0.9205  0.0791 -0.5043
 1377SOL    HW115590   4.707   1.100  15.833  2.9703  0.8079 -0.2786
 1377SOL    HW215591   0.029   0.986  15.751 -0.3061 -0.1643  0.2663
 1378SOL     OW15592   1.004   1.904   6.349 -0.0651 -0.0355  0.7718
 1378SOL    HW115593   1.092   1.940   6.337 -0.5558  1.0236  0.3964
 1378SOL    HW215594   0.979   1.912   6.257 -2.3144 -1.1139  1.3076
 1379SOL     OW15595   4.102   4.396   4.370 -0.5462 -0.1330 -0.4833
 1379SOL    HW115596   4.062   4.399   4.283 -0.8124 -0.2743 -0.3660
 1379SOL    HW215597   4.104   4.489   4.389 -2.6909 -0.0070 -0.9014
 1380SOL     OW15598   1.300   0.430   8.146 -0.0245 -0.3657 -0.3490
 1380SOL    HW115599   1.236   0.359   8.142  2.2710 -2.5041  0.8704
 1380SOL    HW215600   1.263   0.483   8.217 -2.4002 -4.0778  1.2113
 1381SOL     OW15601   1.064   1.754   9.192  0.6575 -0.3666  1.0225
 1381SOL    HW115602   1.007   1.763   9.268  1.2219 -0.0231  1.4102
 1381SOL    HW215603   1.141   1.803   9.223 -0.4186  0.6825  2.0160
 1382SOL     OW15604   4.080   0.918   2.825 -0.2497 -0.7275  0.2903
 1382SOL    HW115605   4.158   0.971   2.809  1.3191 -2.1874  3.2710
 1382SOL    HW215606   4.081   0.859   2.749  2.0903 -1.8789  1.2063
 1383SOL     OW15607   0.300   3.697   4.319 -0.1848  0.0451 -0.3124
 1383SOL    HW115608   0.373   3.682   4.379 -0.3198  0.2072 -0.1069
 1383SOL    HW215609   0.269   3.608   4.308  0.1262 -0.0924 -0.0874
 1384SOL     OW15610   0.318   1.029   3.577 -0.2938 -1.1162  0.0270
 1384SOL    HW115611   0.329   1.116   3.617 -2.3217 -0.9268  0.1568
 1384SOL    HW215612   0.228   1.008   3.601 -0.5394 -2.2064 -1.8543
 1385SOL     OW15613   2.189   1.007   8.196 -0.3955 -0.4128 -0.8878
 1385SOL    HW115614   2.201   0.928   8.145 -1.9043 -0.2371 -1.5154
 1385SOL    HW215615   2.229   0.980   8.279 -0.9524  0.1840 -0.4274
 1386SOL     OW15616   0.161   1.314   3.483  0.2632 -0.6620  0.0774
 1386SOL    HW115617   0.112   1.233   3.498  1.7772 -2.1421 -2.7992
 1386SOL    HW215618   0.104   1.364   3.426  1.9196  1.9218  0.6973
 1387SOL     OW15619   1.705   0.179   2.885 -0.1689 -0.5046  0.0930
 1387SOL    HW115620   1.694   0.121   2.810 -1.7914  0.0877 -0.1223
 1387SOL    HW215621   1.751   0.252   2.844 -0.7478 -0.9526 -1.3467
 1388SOL     OW15622   1.201   1.913  15.767  0.1322 -0.4754 -0.2335
 1388SOL    HW115623   1.154   1.995  15.779 -0.0394 -0.7838  1.2796
 1388SOL    HW215624   1.239   1.921  15.680  0.7297 -1.3223 -0.0512
 1389SOL     OW15625   0.135   0.632   6.218  0.1900  0.0753  0.2707
 1389SOL    HW115626   0.218   0.587   6.199 -1.4768 -3.4343  1.3331
 1389SOL    HW215627   0.066   0.570   6.195 -0.7527  0.8469  1.0314
 1390SOL     OW15628   1.953   3.389   7.891  0.1148 -0.7946 -0.3964
 1390SOL    HW115629   1.864   3.413   7.865  0.1229 -0.9208 -0.5384
 1390SOL    HW215630   2.000   3.453   7.839  0.3888 -0.4076  0.3249
 1391SOL     OW15631   4.056   2.806   4.302 -0.3518 -0.1626  1.1153
 1391SOL    HW115632   4.056   2.899   4.324 -0.9920  0.6037 -2.1555
 1391SOL    HW215633   4.046   2.767   4.389 -0.2896 -1.0386  0.7253
 1392SOL     OW15634   1.088   1.213   1.927  0.1157 -0.3543  0.3021
 1392SOL    HW115635   0.994   1.219   1.944  0.0031 -4.4636  1.1364
 1392SOL    HW215636   1.123   1.271   1.994  0.4187  1.5387 -1.5246
 1393SOL     OW15637   3.577   2.802  16.790 -0.4300 -0.1161 -0.0198
 1393SOL    HW115638   3.635   2.726  16.796  0.9978  0.9952  0.4228
 1393SOL    HW215639   3.507   2.772  16.848 -2.3911 -0.5155 -2.5898
 1394SOL     OW15640   1.047   1.145  12.081  0.3325 -0.1490 -0.0333
 1394SOL    HW115641   1.035   1.175  12.171  1.1286 -0.9423  0.3386
 1394SOL    HW215642   1.070   1.228  12.040  0.0360  0.0599  0.2194
 1395SOL     OW15643   2.492   4.320   4.786 -0.4041  0.0051  0.2540
 1395SOL    HW115644   2.494   4.409   4.821 -1.5369  1.1110 -2.4823
 1395SOL    HW215645   2.400   4.292   4.788 -0.1716 -0.8140 -1.1943
 1396SOL     OW15646   4.188   0.245   9.326  0.9035  0.0631  0.4267
 1396SOL    HW115647   4.201   0.238   9.231 -0.8970  2.3750  0.0050
 1396SOL    HW215648   4.177   0.340   9.330 -0.6429 -0.2472  3.3905
 1397SOL     OW15649   2.026   3.715  14.051  0.0927 -0.2093 -0.7260
 1397SOL    HW115650   2.012   3.651  13.982  0.7381  0.0278 -1.0734
 1397SOL    HW215651   2.082   3.775  14.002  0.4646  0.8024  0.9295
 1398SOL     OW15652   4.159   0.630   4.506  0.3400 -0.1493 -0.3706
 1398SOL    HW115653   4.147   0.597   4.417 -0.4934 -0.6746 -0.0675
 1398SOL    HW215654   4.219   0.569   4.550  0.9471  0.3922 -0.4458
 1399SOL     OW15655   3.452   4.647   9.020  0.1466 -0.2979 -0.1669
 1399SOL    HW115656   3.393   4.668   9.093  0.0374 -0.7628 -0.1257
 1399SOL    HW215657   3.531   4.629   9.071  0.0941  2.9011  1.0958
 1400SOL     OW15658   2.560   2.006   6.631 -0.2033  0.1026  0.4302
 1400SOL    HW115659   2.568   1.992   6.537  0.1522 -5.3699  1.2381
 1400SOL    HW215660   2.631   2.069   6.647 -0.3783 -0.0007  1.6021
 1401SOL     OW15661   4.433   2.316  11.997 -0.1689  0.4101 -0.0619
 1401SOL    HW115662   4.350   2.286  12.035  0.3248  1.6861  2.0334
 1401SOL    HW215663   4.466   2.380  12.061  3.2421 -1.2054 -0.2253
 1402SOL     OW15664   2.886   2.116   8.908  0.0030  0.1505  0.1967
 1402SOL    HW115665   2.972   2.143   8.875 -0.2862  0.9952  0.1232
 1402SOL    HW215666   2.908   2.026   8.931  0.0135 -0.3534 -1.8293
 1403SOL     OW15667   3.409   2.704   4.845  0.2683 -0.0158  0.2364
 1403SOL    HW115668   3.342   2.636   4.850 -0.2517  0.6104  1.8583
 1403SOL    HW215669   3.423   2.719   4.752 -1.9800 -0.6818 -0.2044
 1404SOL     OW15670   3.431   2.631  11.574 -0.3321 -0.1991  0.3266
 1404SOL    HW115671   3.435   2.569  11.501  0.3123  0.3163 -0.0710
 1404SOL    HW215672   3.371   2.697  11.540 -0.0944 -1.2428 -2.0589
 1405SOL     OW15673   2.020   1.995   3.625  0.2408  0.1124 -0.4197
 1405SOL    HW115674   2.019   1.909   3.584  0.0408 -0.1749  0.1901
 1405SOL    HW215675   1.968   2.045   3.561 -0.2265  1.2418  0.8384
 1406SOL     OW15676   0.102   1.053   5.375  0.2050  0.1168 -0.3137
 1406SOL    HW115677   0.068   1.086   5.292  1.4320 -0.6323 -1.1130
 1406SOL    HW215678   0.161   0.982   5.349 -0.1131 -0.3880  0.3295
 1407SOL     OW15679   2.473   2.015   8.439  0.1295 -0.3927 -0.0031
 1407SOL    HW115680   2.411   2.006   8.512  0.6208 -2.1481  0.1954
 1407SOL    HW215681   2.486   2.110   8.435 -0.9380 -0.3766 -3.2503
 1408SOL     OW15682   1.414   4.310   5.191  0.7597  0.2575 -0.1768
 1408SOL    HW115683   1.466   4.251   5.137  1.0133  3.2649 -3.2774
 1408SOL    HW215684   1.465   4.388   5.170  1.5591 -0.4524 -0.8653
 1409SOL     OW15685   1.875   3.327   4.433  0.1915  0.3339 -0.4724
 1409SOL    HW115686   1.867   3.376   4.515 -2.5421 -0.5386 -0.2448
 1409SOL    HW215687   1.939   3.388   4.396  0.1812 -0.0794 -1.1872
 1410SOL     OW15688   1.407   0.763  11.163  0.9340  0.2620 -0.4337
 1410SOL    HW115689   1.404   0.856  11.140 -1.3536  0.1411 -0.5953
 1410SOL    HW215690   1.482   0.725  11.115 -1.1227 -2.3612 -1.5983
 1411SOL     OW15691   1.663   1.990   6.642 -0.2856  0.3598  0.3155
 1411SOL    HW115692   1.688   2.040   6.720 -0.5396  0.1246  0.5480
 1411SOL    HW215693   1.611   2.057   6.599  1.0716  1.9435  1.1448
 1412SOL     OW15694   1.834   0.655  15.752 -0.0584 -0.2890 -0.3942
 1412SOL    HW115695   1.922   0.620  15.737  0.8925  2.2274 -0.7494
 1412SOL    HW215696   1.851   0.737  15.706 -0.9220 -0.2406 -0.6307
 1413SOL     OW15697   4.503   2.301   7.827 -0.0918  0.0505  0.2566
 1413SOL    HW115698   4.453   2.220   7.828  0.9922 -0.6302 -0.7492
 1413SOL    HW215699   4.453   2.351   7.763  1.0363  0.4940 -0.2833
 1414SOL     OW15700   1.274   2.415  11.727 -0.0976  0.4960 -0.1370
 1414SOL    HW115701   1.301   2.356  11.657  1.1707  0.0711  0.7156
 1414SOL    HW215702   1.272   2.347  11.795  0.9736  0.1148 -0.4890
 1415SOL     OW15703   2.396   0.795   2.083  0.0261  0.0241 -0.7248
 1415SOL    HW115704   2.345   0.871   2.112  1.4244  0.7919 -0.2992
 1415SOL    HW215705   2.426   0.818   1.995  1.0027  0.8815 -0.1663
 1416SOL     OW15706   1.205   0.006   7.314 -0.4084 -0.4766 -0.4204
 1416SOL    HW115707   1.182   0.004   7.221 -0.3450 -0.4478 -0.4365
 1416SOL    HW215708   1.117   0.008   7.351  0.0095  3.3624  0.4123
 1417SOL     OW15709   0.060   3.235   7.911 -0.2088 -0.0841  0.1980
 1417SOL    HW115710   0.121   3.191   7.851  1.0799 -1.9706  2.9186
 1417SOL    HW215711   0.012   3.299   7.857 -1.5700 -1.0850  0.2154
 1418SOL     OW15712   0.502   2.401   9.978 -0.2738 -0.5481  0.2095
 1418SOL    HW115713   0.522   2.468   9.912 -2.4959  2.0154  2.1182
 1418SOL    HW215714   0.581   2.347   9.976  0.4846  0.5817 -0.6159
 1419SOL     OW15715   4.105   4.376   5.150  0.5367 -0.4705 -0.0144
 1419SOL    HW115716   4.162   4.450   5.127 -1.8850  0.8577 -1.7003
 1419SOL    HW215717   4.022   4.422   5.161 -0.3309 -1.8132 -0.8981
 1420SOL     OW15718   0.542   2.965   7.740 -0.5357  0.2590 -0.4781
 1420SOL    HW115719   0.474   2.902   7.720 -0.9222  1.1892 -2.1319
 1420SOL    HW215720   0.555   2.953   7.834  2.1934 -1.1682 -1.0353
 1421SOL     OW15721   2.303   2.767   6.815  0.1948 -0.0888  0.9717
 1421SOL    HW115722   2.301   2.677   6.782  0.6317  1.1239 -2.3872
 1421SOL    HW215723   2.239   2.762   6.885  1.1414 -2.0971  1.7043
 1422SOL     OW15724   0.477   2.668  14.115 -0.0422 -0.1203  0.1261
 1422SOL    HW115725   0.572   2.663  14.105  0.0222  2.0295 -0.1786
 1422SOL    HW215726   0.448   2.757  14.097 -0.5973  0.0542  1.8506
 1423SOL     OW15727   2.687   0.507   1.111 -0.1849 -0.3242 -0.0731
 1423SOL    HW115728   2.697   0.413   1.129  1.0134  0.4262  3.1028
 1423SOL    HW215729   2.676   0.548   1.197  0.9475 -1.8708  0.8225
 1424SOL     OW15730   0.770   0.702   2.719  0.5143 -0.6111 -0.9045
 1424SOL    HW115731   0.820   0.783   2.711  0.0042 -0.3637 -1.6368
 1424SOL    HW215732   0.766   0.673   2.628  0.2409 -3.1887 -0.0820
 1425SOL     OW15733   3.509   4.002   2.735  0.2677  0.5014  0.1874
 1425SOL    HW115734   3.489   3.909   2.737  2.9335 -0.0952 -0.4810
 1425SOL    HW215735   3.584   4.001   2.674 -0.4629  1.2377 -0.7309
 1426SOL     OW15736   1.731   1.505   8.067 -0.0003  0.3440  0.0039
 1426SOL    HW115737   1.806   1.484   8.011  0.9583 -0.1438  1.4802
 1426SOL    HW215738   1.764   1.478   8.153  3.4737 -1.1472 -1.7852
 1427SOL     OW15739   0.527   3.312   5.044 -0.5506  0.4946  0.2733
 1427SOL    HW115740   0.554   3.363   4.968  0.1389 -1.3940 -0.7682
 1427SOL    HW215741   0.586   3.333   5.116  0.3982  0.8356 -0.5946
 1428SOL     OW15742   1.391   3.019  12.442 -0.3111 -0.9070 -0.3283
 1428SOL    HW115743   1.395   3.068  12.360  1.9631  2.3635  1.7343
 1428SOL    HW215744   1.342   3.075  12.503  0.9325 -0.9329  0.6998
 1429SOL     OW15745   0.107   0.583  14.952 -0.1539  0.4010 -0.3757
 1429SOL    HW115746   0.149   0.575  14.866  1.7071  0.6428  0.5198
 1429SOL    HW215747   0.171   0.561  15.019  0.0467 -0.3190 -0.8005
 1430SOL     OW15748   0.244   3.967   6.088 -0.8008  0.0961  0.0095
 1430SOL    HW115749   0.241   3.887   6.035  0.4272 -0.2045  0.3893
 1430SOL    HW215750   0.219   4.028   6.019  2.3102  0.9025 -0.4164
 1431SOL     OW15751   2.393   2.922   5.198  0.6498  0.5618  0.5185
 1431SOL    HW115752   2.425   3.009   5.224 -1.0012  1.0866  0.8251
 1431SOL    HW215753   2.319   2.956   5.147  1.2280  1.0299 -0.0174
 1432SOL     OW15754   4.362   1.527  14.143 -0.6664 -0.1877  0.1036
 1432SOL    HW115755   4.270   1.550  14.130 -0.8235 -1.0176 -0.1985
 1432SOL    HW215756   4.354   1.498  14.234  0.6957  0.5214  0.4527
 1433SOL     OW15757   4.002   4.074   9.145  0.1908  0.2306 -0.0143
 1433SOL    HW115758   4.012   3.983   9.173  1.1961  0.5610  0.6519
 1433SOL    HW215759   4.021   4.107   9.232 -0.2653  0.7002 -0.0909
 1434SOL     OW15760   0.925   1.357  10.092 -0.1851 -0.0833 -0.0693
 1434SOL    HW115761   0.959   1.268  10.099  1.3834  0.5399  0.2774
 1434SOL    HW215762   0.833   1.341  10.069 -0.0115 -1.5884  0.3454
 1435SOL     OW15763   3.487   0.755   3.935 -0.0344  0.1083 -0.1940
 1435SOL    HW115764   3.414   0.816   3.925 -0.5828 -0.4739  0.2091
 1435SOL    HW215765   3.520   0.793   4.017  1.1571 -1.6437  0.1368
 1436SOL     OW15766   0.939   0.944   5.951 -0.6254 -0.4139 -0.1792
 1436SOL    HW115767   0.894   0.989   5.879  0.1412 -0.1199 -0.4684
 1436SOL    HW215768   0.871   0.883   5.982 -0.3819 -0.2832  0.6136
 1437SOL     OW15769   0.775   0.227   8.188  0.4745 -0.0008 -0.4655
 1437SOL    HW115770   0.735   0.223   8.101 -1.7329  0.4087  0.5236
 1437SOL    HW215771   0.777   0.136   8.220  2.2118 -0.4081 -1.7459
 1438SOL     OW15772   0.822   4.361   4.245  1.0641 -0.3952  0.3488
 1438SOL    HW115773   0.906   4.324   4.273  1.7352 -0.8885 -2.2617
 1438SOL    HW215774   0.844   4.454   4.252  1.0653 -0.4547  1.0728
 1439SOL     OW15775   3.738   0.126   4.259  0.3285  0.0925  0.8597
 1439SOL    HW115776   3.690   0.063   4.312  0.3450 -1.5953 -1.1256
 1439SOL    HW215777   3.720   0.094   4.171 -0.0849  0.1467  0.9256
 1440SOL     OW15778   2.328   0.861  11.874  0.3144 -0.1755 -0.4869
 1440SOL    HW115779   2.394   0.824  11.932 -0.7873 -1.4874 -0.0761
 1440SOL    HW215780   2.364   0.949  11.863 -0.9614  0.0180 -3.0849
 1441SOL     OW15781   1.862   3.232  10.322  0.0769 -0.2611 -0.8935
 1441SOL    HW115782   1.766   3.237  10.329  0.0480  0.5520 -1.9182
 1441SOL    HW215783   1.878   3.208  10.231  3.8672 -0.2426 -0.2316
 1442SOL     OW15784   3.980   2.110   1.643 -0.0889 -0.4726  0.4474
 1442SOL    HW115785   3.926   2.142   1.570  0.0386 -0.4516  0.3628
 1442SOL    HW215786   3.964   2.185   1.700 -0.2039  2.4210 -3.4032
 1443SOL     OW15787   1.367   0.684  16.490 -0.0008 -0.1972 -0.0745
 1443SOL    HW115788   1.336   0.746  16.424  0.4176  0.3614  0.2564
 1443SOL    HW215789   1.298   0.622  16.511  0.9896 -1.7901 -1.5006
 1444SOL     OW15790   2.651   2.430   4.688  0.1036 -0.2981  0.0376
 1444SOL    HW115791   2.635   2.381   4.607  0.6922  1.2089 -0.9851
 1444SOL    HW215792   2.609   2.371   4.751  0.3476 -1.2543 -0.7044
 1445SOL     OW15793   4.259   2.902   5.288  0.0333  0.2252 -0.4640
 1445SOL    HW115794   4.197   2.925   5.358  1.5887  0.8968  0.6825
 1445SOL    HW215795   4.308   2.830   5.329 -1.0982  0.1399  0.7689
 1446SOL     OW15796   0.386   1.568  17.422 -0.3929 -0.1706  0.5705
 1446SOL    HW115797   0.380   1.555  17.517 -0.9157 -1.2928  0.3709
 1446SOL    HW215798   0.293   1.561  17.401  0.1610 -2.1359 -1.1516
 1447SOL     OW15799   2.479   3.221  13.360 -0.8311  0.1518 -0.1818
 1447SOL    HW115800   2.509   3.264  13.440  1.1302  0.4110 -1.0301
 1447SOL    HW215801   2.431   3.295  13.323  0.7620  0.3349 -1.9274
 1448SOL     OW15802   3.962   4.029   5.369 -0.5997  0.3526 -0.2670
 1448SOL    HW115803   3.920   4.022   5.284  2.0921 -2.2579 -1.3788
 1448SOL    HW215804   3.990   4.121   5.374  1.0743 -0.1625 -0.2450
 1449SOL     OW15805   4.714   3.591   8.046 -0.0187  0.5067 -0.0266
 1449SOL    HW115806   4.681   3.522   7.989  0.8454  2.5889 -3.0484
 1449SOL    HW215807   0.012   3.539   8.124  1.7642  0.9656 -0.1186
 1450SOL     OW15808   0.685   0.247   0.374  0.0470 -0.5578  0.1774
 1450SOL    HW115809   0.772   0.209   0.364 -0.9893 -2.0326 -3.1372
 1450SOL    HW215810   0.644   0.204   0.450  0.8593 -0.8554  0.4432
 1451SOL     OW15811   0.426   0.177   2.073  0.3353  0.0177 -0.7567
 1451SOL    HW115812   0.394   0.137   1.992  1.6798 -1.3091 -0.6440
 1451SOL    HW215813   0.518   0.179   2.047  0.3633 -1.5009 -0.7770
 1452SOL     OW15814   0.920   0.630   4.903 -0.4815  0.3989 -0.3042
 1452SOL    HW115815   0.942   0.595   4.817 -0.5592  0.8656 -0.5093
 1452SOL    HW215816   0.827   0.649   4.890 -0.2306 -0.6207 -3.5491
 1453SOL     OW15817   2.431   3.276  10.757 -0.2010 -0.0854  0.4002
 1453SOL    HW115818   2.461   3.202  10.703  1.7241  0.8836  0.1296
 1453SOL    HW215819   2.376   3.320  10.693 -0.1736  0.5559  0.8244
 1454SOL     OW15820   4.149   1.713  10.163  0.1102 -0.2511  0.1942
 1454SOL    HW115821   4.055   1.726  10.150  0.2501 -0.9743 -1.4881
 1454SOL    HW215822   4.171   1.790  10.216  0.2053 -0.2390  0.1363
 1455SOL     OW15823   0.001   2.750   6.425  1.0350 -0.2702  0.1226
 1455SOL    HW115824   4.693   2.780   6.511  0.4703 -2.6511  0.7610
 1455SOL    HW215825   0.075   2.808   6.407 -0.9411  2.0978 -0.2635
 1456SOL     OW15826   1.470   1.534  11.455 -0.4624  0.7424 -0.0513
 1456SOL    HW115827   1.465   1.629  11.468  1.2152  0.9759 -0.9813
 1456SOL    HW215828   1.492   1.497  11.540  0.6695  0.3474 -0.5061
 1457SOL     OW15829   2.280   1.879   4.055 -0.1542  0.3384 -0.1016
 1457SOL    HW115830   2.372   1.886   4.079  0.4543 -3.6319 -1.2398
 1457SOL    HW215831   2.284   1.919   3.968 -2.2621 -0.7552 -0.6999
 1458SOL     OW15832   3.504   1.042  11.421  0.0714  0.4643 -0.1505
 1458SOL    HW115833   3.599   1.053  11.421  0.3915 -2.3144  0.2601
 1458SOL    HW215834   3.486   0.949  11.411  1.6953  0.0347  1.0760
 1459SOL     OW15835   2.727   2.510   7.466  0.3936 -0.6658  0.3140
 1459SOL    HW115836   2.679   2.545   7.391  0.1177  0.6621  1.0916
 1459SOL    HW215837   2.750   2.422   7.437  1.3016 -0.1008 -0.6683
 1460SOL     OW15838   0.168   4.463   5.015  0.1701  0.0321  0.4389
 1460SOL    HW115839   0.259   4.450   5.042  0.6419  1.0102 -0.7184
 1460SOL    HW215840   0.125   4.413   5.085  0.8671  0.3135  1.0773
 1461SOL     OW15841   3.729   1.150   4.718 -0.9645  0.5201  0.1099
 1461SOL    HW115842   3.764   1.239   4.726 -1.0313  0.5097  0.5190
 1461SOL    HW215843   3.678   1.171   4.640 -1.7696 -0.8167  0.2688
 1462SOL     OW15844   3.049   1.013  16.102 -0.0557  0.4173  0.1692
 1462SOL    HW115845   3.077   0.986  16.015 -0.3048 -1.1550  0.5677
 1462SOL    HW215846   2.953   1.007  16.097 -0.0905  0.3600  0.8724
 1463SOL     OW15847   0.347   0.061  13.377  0.1205 -0.5626  0.1818
 1463SOL    HW115848   0.389   0.014  13.304  0.8164  0.1373  0.1301
 1463SOL    HW215849   0.361   0.002  13.451  1.4910 -0.2705  0.1634
 1464SOL     OW15850   4.212   2.046   5.866 -0.1210 -0.1095  0.2870
 1464SOL    HW115851   4.253   2.068   5.950  2.0437  0.2474 -0.8699
 1464SOL    HW215852   4.232   1.953   5.864  1.5666  0.1983  2.1755
 1465SOL     OW15853   0.934   1.679   5.370  0.6125 -0.2909  0.7431
 1465SOL    HW115854   0.839   1.667   5.357  0.7339 -2.1174  1.6244
 1465SOL    HW215855   0.953   1.757   5.317 -0.5909 -0.6301 -0.2079
 1466SOL     OW15856   2.752   0.275   5.689  0.5771  0.3957 -0.5056
 1466SOL    HW115857   2.693   0.251   5.760 -0.2713 -2.4287 -2.1913
 1466SOL    HW215858   2.696   0.279   5.611  0.1701  0.7680 -0.1973
 1467SOL     OW15859   2.486   0.589  13.014 -0.1231  0.0851 -0.3601
 1467SOL    HW115860   2.539   0.515  13.045 -0.7230 -0.1490  0.1225
 1467SOL    HW215861   2.510   0.595  12.922 -0.6925 -1.9341 -0.6578
 1468SOL     OW15862   3.432   2.337   5.714  0.0202  0.2510 -0.3295
 1468SOL    HW115863   3.366   2.402   5.738 -1.8748 -1.6617 -0.3450
 1468SOL    HW215864   3.511   2.389   5.702 -0.6839  0.9426 -1.8646
 1469SOL     OW15865   3.281   1.526   4.690  0.3612 -0.4107 -0.3537
 1469SOL    HW115866   3.344   1.494   4.755 -1.3150 -2.3954  0.3017
 1469SOL    HW215867   3.217   1.456   4.679  1.0932 -0.8870 -1.4969
 1470SOL     OW15868   1.128   4.413   5.744 -0.6631 -0.7754  0.0788
 1470SOL    HW115869   1.084   4.456   5.671 -2.2577 -1.1236  0.8329
 1470SOL    HW215870   1.145   4.483   5.807 -3.2526 -0.3207  0.2757
 1471SOL     OW15871   2.773   2.085   9.245 -0.4007  0.0553  0.1188
 1471SOL    HW115872   2.684   2.054   9.263  0.1360 -0.8220  1.2741
 1471SOL    HW215873   2.798   2.130   9.326 -1.8222  0.5291  0.2943
 1472SOL     OW15874   3.309   1.690   6.520  0.1655  0.3610  0.0719
 1472SOL    HW115875   3.338   1.620   6.461  2.3373  0.9417  0.4416
 1472SOL    HW215876   3.296   1.762   6.458  1.7888 -1.5552 -2.4935
 1473SOL     OW15877   1.496   2.270   2.271 -0.2276  0.8510  0.1731
 1473SOL    HW115878   1.404   2.296   2.257 -1.2153 -2.1640  1.0835
 1473SOL    HW215879   1.486   2.217   2.351 -0.4382 -1.2612 -1.2678
 1474SOL     OW15880   0.053   3.640  14.234  0.3725  0.2101 -0.2753
 1474SOL    HW115881   0.018   3.645  14.322  2.1585 -0.6564  0.4819
 1474SOL    HW215882   0.058   3.733  14.212 -4.3621  0.6401  0.6174
 1475SOL     OW15883   0.223   1.125   5.629 -0.0359 -0.0196  0.4402
 1475SOL    HW115884   0.315   1.138   5.604 -0.2955  0.5649 -0.1746
 1475SOL    HW215885   0.188   1.091   5.547 -1.2844  3.3138 -0.3822
 1476SOL     OW15886   0.604   0.959  17.461 -0.4708  0.2888 -0.3866
 1476SOL    HW115887   0.685   0.908  17.457 -0.1159  0.9668 -1.6573
 1476SOL    HW215888   0.571   0.911  17.537 -0.1038  2.2373  1.0029
 1477SOL     OW15889   3.631   3.889   3.824 -0.1352 -0.8521 -0.1966
 1477SOL    HW115890   3.709   3.887   3.879 -1.2001  2.0447  1.3965
 1477SOL    HW215891   3.655   3.935   3.744  1.0150  2.9445  2.3432
 1478SOL     OW15892   1.562   3.612  17.088  0.0183  0.5794  0.1857
 1478SOL    HW115893   1.554   3.674  17.161 -0.4697 -3.0291  3.2095
 1478SOL    HW215894   1.522   3.528  17.111  1.7595 -0.0789  0.8463
 1479SOL     OW15895   1.795   1.554   2.230  0.2494  0.0263 -0.1441
 1479SOL    HW115896   1.776   1.590   2.143 -2.3507 -2.1281 -0.4601
 1479SOL    HW215897   1.876   1.507   2.214  0.5891  0.7301 -0.4790
 1480SOL     OW15898   1.325   2.376   6.976 -0.2197 -0.1927 -0.3665
 1480SOL    HW115899   1.269   2.394   7.051 -0.2914 -0.9085 -0.2504
 1480SOL    HW215900   1.354   2.286   6.992 -0.9722 -0.9277 -3.0748
 1481SOL     OW15901   2.221   3.276   7.886  0.4349  0.0543  0.2319
 1481SOL    HW115902   2.131   3.307   7.898  0.4037 -0.0886  0.3680
 1481SOL    HW215903   2.253   3.265   7.976  1.6247 -0.2395 -0.2318
 1482SOL     OW15904   2.709   3.118   3.975 -0.0839  0.2257  0.0193
 1482SOL    HW115905   2.755   3.038   3.998 -0.0573  0.6606  1.4320
 1482SOL    HW215906   2.620   3.103   3.945 -0.3963  2.7766 -0.3743
 1483SOL     OW15907   1.572   1.843   8.488  0.7642  0.0651  0.0173
 1483SOL    HW115908   1.492   1.875   8.447 -0.3130  0.8457  2.7379
 1483SOL    HW215909   1.628   1.921   8.489 -0.8997  1.2672 -0.4319
 1484SOL     OW15910   3.640   0.658   4.709 -0.4784 -0.7839  0.0896
 1484SOL    HW115911   3.724   0.618   4.688  1.5294  2.9403  1.0314
 1484SOL    HW215912   3.628   0.608   4.790 -1.5198  1.2800  1.1884
 1485SOL     OW15913   2.974   1.592   7.217  0.3444 -0.5196 -0.0840
 1485SOL    HW115914   3.028   1.534   7.271  0.9323 -2.1228 -2.4212
 1485SOL    HW215915   2.922   1.623   7.292  0.3288  0.3149 -0.4400
 1486SOL     OW15916   2.010   0.142  10.143  0.4786  0.4006  0.5096
 1486SOL    HW115917   2.094   0.103  10.117 -0.5089 -0.4916 -1.3353
 1486SOL    HW215918   2.002   0.220  10.089 -2.8506  0.0137  0.4345
 1487SOL     OW15919   3.958   1.097   3.088 -0.4831 -0.5538  0.1404
 1487SOL    HW115920   3.956   1.001   3.082 -2.2759 -0.4623 -0.4780
 1487SOL    HW215921   3.927   1.125   3.002 -1.5331 -2.8318 -0.2398
 1488SOL     OW15922   0.315   1.751   5.587  0.0291 -0.3970  0.3789
 1488SOL    HW115923   0.270   1.834   5.573 -1.1825 -1.3260 -1.2613
 1488SOL    HW215924   0.247   1.684   5.588  0.7731 -1.1469  0.4801
 1489SOL     OW15925   3.234   2.536   5.738  0.0209 -0.6781  0.6274
 1489SOL    HW115926   3.151   2.489   5.734  1.2086 -2.5577 -1.8432
 1489SOL    HW215927   3.225   2.574   5.825 -1.0144  0.4515  0.0219
 1490SOL     OW15928   1.598   1.964   2.064  0.1585  0.4239  0.6777
 1490SOL    HW115929   1.621   2.051   2.031 -0.2082  0.5127  0.6634
 1490SOL    HW215930   1.512   1.955   2.025  0.8577 -0.7100 -0.6022
 1491SOL     OW15931   3.571   3.850   4.579  0.4332 -0.2688 -0.1480
 1491SOL    HW115932   3.534   3.865   4.492  0.4111 -0.1376 -0.1156
 1491SOL    HW215933   3.660   3.874   4.555  0.7380  2.4172  3.7711
 1492SOL     OW15934   3.372   3.246   6.826 -0.0320 -0.1380 -0.4330
 1492SOL    HW115935   3.375   3.247   6.730 -1.7410 -0.3994 -0.4813
 1492SOL    HW215936   3.458   3.208   6.845 -0.9937 -2.0545  0.0957
 1493SOL     OW15937   1.401   1.563  14.314 -0.3018 -0.2036 -0.3270
 1493SOL    HW115938   1.433   1.518  14.236  1.4373 -1.4243  1.0947
 1493SOL    HW215939   1.447   1.647  14.315  1.6090 -1.2709 -0.1954
 1494SOL     OW15940   3.981   3.035   3.262  0.3613  0.5854 -0.4964
 1494SOL    HW115941   3.986   3.071   3.351  1.2674 -0.1367 -0.2503
 1494SOL    HW215942   4.019   2.949   3.282 -0.4608  0.0229 -1.3524
 1495SOL     OW15943   3.647   2.134   5.406  0.2678  0.4106  0.5765
 1495SOL    HW115944   3.638   2.086   5.324 -0.7877  0.9883  0.3400
 1495SOL    HW215945   3.563   2.181   5.399  1.4061  2.0168 -2.0321
 1496SOL     OW15946   3.622   4.447   1.705 -0.0764  0.1615 -0.0223
 1496SOL    HW115947   3.653   4.500   1.631 -0.6901 -1.8680 -1.7196
 1496SOL    HW215948   3.607   4.370   1.649 -1.5834  0.9747 -0.7286
 1497SOL     OW15949   3.207   0.406   4.543  0.9097  0.0902 -0.3300
 1497SOL    HW115950   3.269   0.337   4.566  0.3114  0.1029  1.3695
 1497SOL    HW215951   3.277   0.465   4.513  1.7072 -0.0666  1.2070
 1498SOL     OW15952   1.193   2.430   5.425  0.1423  0.3829 -0.0929
 1498SOL    HW115953   1.213   2.351   5.375 -1.2524  0.7756 -1.2725
 1498SOL    HW215954   1.261   2.425   5.492 -1.0510 -3.7803  0.8106
 1499SOL     OW15955   4.089   3.512  16.989  0.8445  0.3036  0.1211
 1499SOL    HW115956   4.014   3.520  16.930  0.5482 -0.3846  0.4091
 1499SOL    HW215957   4.128   3.599  16.999  2.4149 -0.4116  0.3233
 1500SOL     OW15958   0.731   0.803  16.243  0.0313  0.3228  0.0053
 1500SOL    HW115959   0.712   0.709  16.244 -1.5235  0.6410 -0.3496
 1500SOL    HW215960   0.827   0.800  16.233  0.2938  0.6714  2.2687
 1501SOL     OW15961   0.363   3.961   5.244 -0.1792  0.1776  0.3425
 1501SOL    HW115962   0.287   3.926   5.292 -1.3890 -1.1541 -2.4890
 1501SOL    HW215963   0.429   3.954   5.313 -0.7487 -2.4363  0.6332
 1502SOL     OW15964   4.231   0.995   4.502 -0.0517 -0.0441  0.1474
 1502SOL    HW115965   4.202   1.073   4.454 -0.6950 -1.7855 -2.2538
 1502SOL    HW215966   4.151   0.943   4.510  0.8016 -0.7600  3.8214
 1503SOL     OW15967   2.534   3.449  14.244  0.0465  0.1813  0.4025
 1503SOL    HW115968   2.474   3.409  14.308  2.2759 -0.1663  2.2799
 1503SOL    HW215969   2.494   3.411  14.166  0.5018  2.2755 -0.8490
 1504SOL     OW15970   1.453   0.925  15.847 -0.2548  0.3584 -0.2738
 1504SOL    HW115971   1.503   0.984  15.791 -0.6865  0.3017 -0.7179
 1504SOL    HW215972   1.427   0.852  15.791  1.2802  0.9396 -1.7195
 1505SOL     OW15973   3.849   3.311   7.260 -0.1990  0.1567 -0.2579
 1505SOL    HW115974   3.906   3.244   7.223 -0.3641 -0.5674  0.7707
 1505SOL    HW215975   3.762   3.308   7.220  0.4371  1.0208 -1.6916
 1506SOL     OW15976   3.264   2.792  10.942  0.0084  0.2684  0.2789
 1506SOL    HW115977   3.356   2.811  10.925 -0.0639  0.2096 -0.2000
 1506SOL    HW215978   3.253   2.703  10.909  1.7785  0.1186  0.1340
 1507SOL     OW15979   0.484   3.287  12.289 -0.2580  0.4151  0.4023
 1507SOL    HW115980   0.519   3.233  12.217 -0.9171 -0.8419  1.0327
 1507SOL    HW215981   0.405   3.240  12.314  1.1652 -1.3570  1.5611
 1508SOL     OW15982   3.285   1.185   3.922 -0.2108 -0.3428  0.2946
 1508SOL    HW115983   3.211   1.158   3.868 -1.6959 -0.2048  2.2460
 1508SOL    HW215984   3.264   1.278   3.922  0.0739 -0.2632  3.2850
 1509SOL     OW15985   1.107   3.627   3.246 -1.0519  0.2323  0.3269
 1509SOL    HW115986   1.110   3.550   3.302 -0.3360  1.1694  1.5819
 1509SOL    HW215987   1.017   3.615   3.216  0.1235  0.9369 -3.5803
 1510SOL     OW15988   2.262   1.843   0.757 -0.3432 -0.3919  0.3848
 1510SOL    HW115989   2.235   1.856   0.848 -1.3574  0.7790 -0.0829
 1510SOL    HW215990   2.215   1.761   0.743  0.3055 -0.5956 -0.6136
 1511SOL     OW15991   2.857   3.900   2.020  0.0688 -0.3613 -0.3526
 1511SOL    HW115992   2.926   3.834   2.029  0.5365  0.2078  0.2313
 1511SOL    HW215993   2.890   3.980   2.060  0.4369 -0.9180  0.4576
 1512SOL     OW15994   1.817   1.312   3.250 -0.1831  0.5426  0.2931
 1512SOL    HW115995   1.847   1.402   3.260  0.6640  0.2705  0.1906
 1512SOL    HW215996   1.789   1.309   3.342 -1.1266  3.0895  0.0829
 1513SOL     OW15997   2.893   0.749   6.995  0.2052  0.1282  0.2275
 1513SOL    HW115998   2.882   0.840   7.021 -1.8997  0.0950 -0.5166
 1513SOL    HW215999   2.805   0.732   6.962 -0.2999  2.6933  0.3036
 1514SOL     OW16000   2.212   3.208   3.313 -0.4609  0.0862 -1.2201
 1514SOL    HW116001   2.213   3.214   3.408 -0.4905 -1.1976 -1.1447
 1514SOL    HW216002   2.134   3.155   3.294 -1.5296  1.0773  0.4082
 1515SOL     OW16003   3.039   1.885   8.023  0.0875  0.4896 -0.4226
 1515SOL    HW116004   3.057   1.959   7.964 -0.0544  1.2348  0.4658
 1515SOL    HW216005   3.112   1.884   8.084 -0.3870  1.3821  0.1777
 1516SOL     OW16006   1.171   0.641  13.867 -0.7428  0.2055 -0.8047
 1516SOL    HW116007   1.210   0.574  13.811  0.6460  0.1901  0.1753
 1516SOL    HW216008   1.145   0.711  13.807 -0.8366  1.8742  1.1482
 1517SOL     OW16009   2.273   3.124   5.426 -0.8387  0.0037 -0.2434
 1517SOL    HW116010   2.227   3.041   5.413  2.8256 -2.1138  0.4457
 1517SOL    HW216011   2.355   3.095   5.466 -3.6557 -3.7543  2.8791
 1518SOL     OW16012   2.987   0.529  15.265  0.4894  0.0761  0.1700
 1518SOL    HW116013   2.970   0.525  15.359 -0.1284 -2.2141 -0.0357
 1518SOL    HW216014   2.901   0.525  15.224 -0.1087  1.0060  1.3250
 1519SOL     OW16015   2.840   4.546  14.837  0.2320 -0.6316 -0.2321
 1519SOL    HW116016   2.844   4.452  14.856  1.2588 -0.1121  2.1558
 1519SOL    HW216017   2.873   4.591  14.915  0.2767 -0.6941 -0.2155
 1520SOL     OW16018   0.792   2.448   2.772  0.6986  0.2641 -0.3776
 1520SOL    HW116019   0.830   2.380   2.717  0.5992  0.3018 -0.4944
 1520SOL    HW216020   0.852   2.521   2.755  1.2124  0.1424  0.9325
 1521SOL     OW16021   3.513   3.735   2.732 -0.1711 -0.5177  0.4779
 1521SOL    HW116022   3.541   3.690   2.812 -1.1070  0.1686  1.1756
 1521SOL    HW216023   3.479   3.664   2.677  0.6154  1.2993 -2.3755
 1522SOL     OW16024   3.056   4.561   4.963 -0.3318  0.5649 -0.3420
 1522SOL    HW116025   3.103   4.644   4.966 -1.8215  1.4164 -0.2488
 1522SOL    HW216026   2.976   4.585   5.010  1.8938  1.3982  3.0642
 1523SOL     OW16027   2.663   2.903   7.124 -0.0756 -0.1432 -0.0563
 1523SOL    HW116028   2.585   2.872   7.171  1.1258 -2.1664  0.6159
 1523SOL    HW216029   2.732   2.839   7.143 -0.3633  0.2932  2.4003
 1524SOL     OW16030   3.643   2.416   3.944 -0.4231  0.1973  0.5953
 1524SOL    HW116031   3.685   2.479   4.002 -0.2726  1.9523 -1.4359
 1524SOL    HW216032   3.550   2.409   3.969 -1.1831 -2.6155 -2.9526
 1525SOL     OW16033   2.623   2.776   2.438  0.1327  0.1735  0.1620
 1525SOL    HW116034   2.599   2.692   2.479  1.2538 -0.9749 -1.5362
 1525SOL    HW216035   2.671   2.737   2.365  0.3217 -0.4631  0.6241
 1526SOL     OW16036   1.277   2.020  17.566 -0.1479 -0.2191  0.5863
 1526SOL    HW116037   1.193   1.977  17.548 -0.1272  0.4060 -0.9352
 1526SOL    HW216038   1.332   1.948  17.594 -0.0231 -0.9507 -1.6252
 1527SOL     OW16039   4.381   4.638   9.632 -0.5872 -0.0652  0.4359
 1527SOL    HW116040   4.402   4.637   9.725  2.9438  2.0214 -0.3382
 1527SOL    HW216041   4.460   4.603   9.590 -3.0610 -0.4920 -3.8655
 1528SOL     OW16042   2.856   0.469  14.902 -0.0039  0.1098  1.1844
 1528SOL    HW116043   2.830   0.405  14.969  0.4013 -1.4357 -0.1490
 1528SOL    HW216044   2.770   0.490  14.865  1.3816  1.8096 -1.0093
 1529SOL     OW16045   1.394   0.592   5.962  0.5195 -0.2763  0.1493
 1529SOL    HW116046   1.310   0.638   5.963  0.4931 -0.3133 -0.4253
 1529SOL    HW216047   1.362   0.504   5.942  1.0051 -0.4489  0.1321
 1530SOL     OW16048   1.764   1.492   4.500 -0.3317 -1.2231 -0.0418
 1530SOL    HW116049   1.844   1.450   4.469  1.2403  2.2295 -0.6527
 1530SOL    HW216050   1.723   1.518   4.418 -0.6722 -0.5762  0.3247
 1531SOL     OW16051   0.905   0.689  10.605  0.3742  0.1103  0.1732
 1531SOL    HW116052   0.972   0.747  10.641  0.6343 -0.0010 -0.1200
 1531SOL    HW216053   0.963   0.614  10.618 -0.8820 -1.2634 -2.0109
 1532SOL     OW16054   3.468   2.948   3.750 -0.4172 -0.3490 -0.2516
 1532SOL    HW116055   3.400   2.962   3.816 -0.2641 -1.2569  0.1040
 1532SOL    HW216056   3.550   2.942   3.798  0.0736  1.5114 -0.8893
 1533SOL     OW16057   4.293   3.473   4.871  0.3174 -0.5839  0.7801
 1533SOL    HW116058   4.221   3.446   4.814  0.4310 -0.7746  0.7299
 1533SOL    HW216059   4.278   3.567   4.859  0.1570 -0.4769  1.8082
 1534SOL     OW16060   4.002   2.189  17.112 -0.2119  0.1504  0.2556
 1534SOL    HW116061   3.942   2.116  17.128  1.6109 -1.6814 -1.3781
 1534SOL    HW216062   3.965   2.252  17.174 -0.0869 -1.5582  2.0631
 1535SOL     OW16063   2.795   3.263  11.046 -0.2152 -0.1569 -0.3888
 1535SOL    HW116064   2.711   3.244  11.004  0.4177 -1.3452 -1.1103
 1535SOL    HW216065   2.786   3.224  11.133  0.5730  0.0138 -0.2361
 1536SOL     OW16066   2.345   3.398   5.317  0.1992  0.1749  0.1656
 1536SOL    HW116067   2.429   3.399   5.364  0.5904  2.5107 -0.5941
 1536SOL    HW216068   2.291   3.347   5.377 -0.3577  0.0939 -0.3972
 1537SOL     OW16069   4.578   0.188   4.579  0.5375  0.2618 -0.6061
 1537SOL    HW116070   4.577   0.237   4.497  1.4467 -0.6818 -1.1798
 1537SOL    HW216071   4.665   0.152   4.597 -0.8640 -2.3055  1.0794
 1538SOL     OW16072   0.902   2.578   1.911  0.2185 -0.3102 -0.1245
 1538SOL    HW116073   0.841   2.606   1.843 -0.4404 -1.0199  0.1783
 1538SOL    HW216074   0.927   2.497   1.866 -0.8450 -1.0239  0.5748
 1539SOL     OW16075   1.149   2.971   7.076 -0.2402  0.6565  0.3053
 1539SOL    HW116076   1.086   3.044   7.075  1.9804  2.5562 -1.5235
 1539SOL    HW216077   1.193   2.994   7.157  1.4848  0.4300 -0.5701
 1540SOL     OW16078   2.161   4.648  11.117 -0.2767 -0.3663 -0.0362
 1540SOL    HW116079   2.139   4.662  11.209 -0.3532  1.7386 -0.3775
 1540SOL    HW216080   2.229   4.714  11.105 -1.2365  0.7786  0.8205
 1541SOL     OW16081   1.974   4.643   5.305 -0.2723  0.0671  0.5638
 1541SOL    HW116082   2.033   4.610   5.372 -1.0539 -0.6019  0.9252
 1541SOL    HW216083   1.945   4.716   5.360  0.4095 -0.3746  1.5079
 1542SOL     OW16084   2.801   1.048   7.039  0.1503 -0.0232 -0.3857
 1542SOL    HW116085   2.843   1.122   7.083 -1.7517  1.2920 -0.7625
 1542SOL    HW216086   2.709   1.074   7.030 -0.1360 -0.2633  1.8806
 1543SOL     OW16087   2.619   0.280   6.717  0.4232  0.2939 -0.4375
 1543SOL    HW116088   2.689   0.244   6.663 -1.6021 -1.3629 -1.9818
 1543SOL    HW216089   2.644   0.371   6.730  1.4011  0.0377 -0.5360
 1544SOL     OW16090   4.439   0.487   2.623 -0.1255 -0.1028  0.6072
 1544SOL    HW116091   4.456   0.493   2.529 -1.3394 -2.6364  0.2420
 1544SOL    HW216092   4.515   0.438   2.656  1.0009 -0.3135 -2.2784
 1545SOL     OW16093   2.003   1.216   4.676 -0.2137 -1.0281 -0.1534
 1545SOL    HW116094   1.981   1.132   4.636 -1.3486 -0.0374 -1.6033
 1545SOL    HW216095   2.088   1.195   4.713  1.0771 -0.8488 -2.9703
 1546SOL     OW16096   2.352   4.108   5.036 -0.3111 -0.4686 -0.5260
 1546SOL    HW116097   2.416   4.135   5.101  0.4098 -3.4440 -0.0074
 1546SOL    HW216098   2.298   4.187   5.045  1.2803  0.5391  0.0058
 1547SOL     OW16099   4.161   4.446  14.958  0.2312  0.2181  0.0900
 1547SOL    HW116100   4.201   4.503  15.024  0.6014  0.0184  0.0362
 1547SOL    HW216101   4.240   4.419  14.911  1.8768  1.8682  1.9306
 1548SOL     OW16102   4.618   1.077   5.709  0.4941  0.0605 -0.1277
 1548SOL    HW116103   4.585   1.151   5.760 -1.7051  0.6581 -2.3912
 1548SOL    HW216104   4.707   1.106   5.689 -0.7283  3.0125 -1.3115
 1549SOL     OW16105   0.138   2.503   3.955 -0.3618  0.0365  0.3276
 1549SOL    HW116106   0.121   2.416   3.918 -0.8115  1.0153 -1.7351
 1549SOL    HW216107   0.053   2.529   3.989 -0.0125  0.8078  0.6104
 1550SOL     OW16108   1.469   0.138   0.063 -0.5615 -0.1828  0.0264
 1550SOL    HW116109   1.536   0.172   0.122  1.3212 -0.6938 -1.8427
 1550SOL    HW216110   1.449   0.052   0.100  0.3175 -0.6922 -0.6692
 1551SOL     OW16111   2.828   3.357   4.284 -0.5755  0.0437  0.1743
 1551SOL    HW116112   2.843   3.276   4.234 -0.0186  0.8433 -0.9570
 1551SOL    HW216113   2.889   3.338   4.355 -0.7254  0.8612  0.5228
 1552SOL     OW16114   2.562   1.378   7.170 -0.1221  0.0120 -0.1048
 1552SOL    HW116115   2.489   1.432   7.140 -0.3751 -0.7868 -0.9094
 1552SOL    HW216116   2.613   1.430   7.233 -0.7842 -1.6261  1.8082
 1553SOL     OW16117   4.253   2.415   8.143 -0.2741  0.0518  0.0596
 1553SOL    HW116118   4.314   2.462   8.086  0.1193  3.2925  3.2219
 1553SOL    HW216119   4.309   2.368   8.204 -0.8842 -0.5970  0.1216
 1554SOL     OW16120   2.332   3.382  12.962 -0.3329  1.0017 -0.4560
 1554SOL    HW116121   2.303   3.290  12.963 -1.5412  1.3848 -0.9716
 1554SOL    HW216122   2.273   3.418  12.896  1.2629 -1.3377 -3.1350
 1555SOL     OW16123   0.913   2.617   8.214 -0.1115 -0.0875 -0.0872
 1555SOL    HW116124   0.994   2.625   8.164  0.3641 -1.0331  0.5375
 1555SOL    HW216125   0.876   2.545   8.163  1.5767 -1.3763  0.5419
 1556SOL     OW16126   4.193   3.400  13.263 -0.1409 -0.2262  0.8310
 1556SOL    HW116127   4.271   3.346  13.250 -0.0323  0.0218  0.4599
 1556SOL    HW216128   4.203   3.440  13.350  0.2100 -0.3648  0.8554
 1557SOL     OW16129   4.001   0.010   2.481 -0.6287 -0.6108 -0.3904
 1557SOL    HW116130   3.962   4.719   2.568  2.4977  3.9211  1.6380
 1557SOL    HW216131   3.995   4.638   2.454  1.6556 -0.6322 -0.8156
 1558SOL     OW16132   3.945   0.399   5.207 -0.1555  0.1170  0.1141
 1558SOL    HW116133   3.999   0.471   5.238  3.1517 -2.5374  0.5162
 1558SOL    HW216134   3.864   0.418   5.253 -0.6202  1.9066 -1.4547
 1559SOL     OW16135   0.767   3.353   0.990  0.1821 -0.2555 -0.3007
 1559SOL    HW116136   0.727   3.316   0.912 -1.6559  0.7750  0.1582
 1559SOL    HW216137   0.845   3.299   1.006 -0.9099 -1.5029  0.9120
 1560SOL     OW16138   0.385   1.123  13.775  0.2423  0.3681 -0.0448
 1560SOL    HW116139   0.356   1.157  13.860  0.0078  3.1875 -1.2464
 1560SOL    HW216140   0.344   1.037  13.781  1.5237 -0.2167  0.4705
 1561SOL     OW16141   4.222   3.332   0.343  0.2178  0.3023 -0.1176
 1561SOL    HW116142   4.299   3.279   0.364 -0.7628 -1.7380 -1.5475
 1561SOL    HW216143   4.180   3.312   0.426 -2.5297  3.3228 -0.7763
 1562SOL     OW16144   0.840   3.538   6.882 -1.2607 -0.3541  0.0296
 1562SOL    HW116145   0.857   3.611   6.823 -1.2527 -0.8178 -0.5394
 1562SOL    HW216146   0.876   3.567   6.966 -0.0385 -1.2257 -0.1953
 1563SOL     OW16147   0.594   1.812   3.119 -0.5003 -0.1387 -0.5049
 1563SOL    HW116148   0.532   1.802   3.192 -1.1834 -2.0617 -1.3305
 1563SOL    HW216149   0.591   1.907   3.113  0.0098 -0.0411  0.7616
 1564SOL     OW16150   3.839   2.111  13.034  0.1441 -1.0554  0.1356
 1564SOL    HW116151   3.838   2.179  12.967  3.8500 -0.2954  0.8556
 1564SOL    HW216152   3.929   2.081  13.025  0.9545  1.6760 -1.0337
 1565SOL     OW16153   4.415   3.528   4.142 -0.1246 -0.1074 -0.0700
 1565SOL    HW116154   4.429   3.621   4.161  1.8552 -0.4903  0.4245
 1565SOL    HW216155   4.391   3.489   4.226  0.6744 -1.5582 -0.5196
 1566SOL     OW16156   1.610   2.503  10.419  0.1213 -0.4110 -0.5564
 1566SOL    HW116157   1.685   2.524  10.364 -2.2817  3.4079 -2.3733
 1566SOL    HW216158   1.637   2.542  10.503  3.1423  0.3675 -1.8964
 1567SOL     OW16159   3.855   2.220  16.044 -0.2811 -0.0737  0.3885
 1567SOL    HW116160   3.846   2.129  16.018 -1.3252  0.5615 -1.4957
 1567SOL    HW216161   3.951   2.221  16.050 -0.3424 -1.3653  1.6943
 1568SOL     OW16162   1.658   2.071  11.910  0.3335  0.1148  0.6253
 1568SOL    HW116163   1.582   2.121  11.939  0.4160  1.5246 -1.5616
 1568SOL    HW216164   1.648   2.077  11.815 -0.7554  2.7002  0.8904
 1569SOL     OW16165   3.750   1.793   3.381  0.5767 -0.2911  0.2810
 1569SOL    HW116166   3.816   1.860   3.401 -0.7889  0.2095  3.0462
 1569SOL    HW216167   3.792   1.753   3.305 -0.6491 -0.1349 -0.4737
 1570SOL     OW16168   4.660   1.126   7.524 -0.5764 -0.4124 -0.1291
 1570SOL    HW116169   0.024   1.169   7.539 -1.6275  1.2408  0.9460
 1570SOL    HW216170   4.604   1.203   7.528 -1.4049 -0.9563 -1.1247
 1571SOL     OW16171   4.198   3.254   5.315  0.4582 -0.1463  0.2988
 1571SOL    HW116172   4.280   3.245   5.266 -1.0735 -3.8377 -1.6749
 1571SOL    HW216173   4.232   3.269   5.403 -0.7335  2.1895  0.3386
 1572SOL     OW16174   1.375   2.008   7.236 -0.3788 -0.3838 -0.3802
 1572SOL    HW116175   1.382   1.966   7.150  1.6052  1.3967 -1.0894
 1572SOL    HW216176   1.289   2.050   7.233  0.2846  0.9174 -1.3211
 1573SOL     OW16177   2.588   2.481   7.947 -0.0389  0.3210 -0.3298
 1573SOL    HW116178   2.637   2.520   7.874 -0.0654 -0.1223 -0.5812
 1573SOL    HW216179   2.512   2.539   7.940  0.4444  1.2037  2.0138
 1574SOL     OW16180   2.548   4.228   7.199 -0.1379  0.0999 -0.3088
 1574SOL    HW116181   2.582   4.316   7.180  0.2413  0.1076  0.3977
 1574SOL    HW216182   2.567   4.175   7.121  0.9066 -1.0209  0.6934
 1575SOL     OW16183   3.754   3.227   9.487 -0.0421 -0.1403  0.1122
 1575SOL    HW116184   3.787   3.218   9.577 -0.1784  1.1518  0.2932
 1575SOL    HW216185   3.812   3.293   9.448  1.7681 -2.1446 -0.5908
 1576SOL     OW16186   1.512   3.288  14.588  0.2180 -0.2746  0.5191
 1576SOL    HW116187   1.532   3.358  14.650 -1.4597  2.6140 -2.2167
 1576SOL    HW216188   1.507   3.212  14.647  1.7151  0.7348  1.9142
 1577SOL     OW16189   3.243   2.582   4.615 -0.5500 -0.2750  0.0892
 1577SOL    HW116190   3.229   2.655   4.556  1.6650  1.1443  1.3318
 1577SOL    HW216191   3.301   2.526   4.564 -1.2517 -0.4710 -0.4845
 1578SOL     OW16192   0.639   2.987   8.619 -0.0265 -0.0856 -0.3669
 1578SOL    HW116193   0.550   3.021   8.607 -1.1801 -2.2163  2.0667
 1578SOL    HW216194   0.625   2.905   8.571 -0.8560 -0.5274  0.6270
 1579SOL     OW16195   1.104   0.126   5.098 -0.0710 -0.6291  0.2385
 1579SOL    HW116196   1.140   0.193   5.040  0.3717 -1.0408  0.0420
 1579SOL    HW216197   1.018   0.165   5.114  0.2144 -0.2668  0.8781
 1580SOL     OW16198   4.451   0.381   9.530 -0.6535  0.6337  0.5159
 1580SOL    HW116199   4.479   0.296   9.496  0.2103  1.8066 -1.7090
 1580SOL    HW216200   4.388   0.357   9.599 -0.0049  0.2636  0.9804
 1581SOL     OW16201   2.706   0.362   5.023 -0.2102  0.4969  0.7167
 1581SOL    HW116202   2.797   0.337   5.040 -0.1094  0.5233  0.2244
 1581SOL    HW216203   2.659   0.294   5.072 -2.6978 -0.1923 -2.5997
 1582SOL     OW16204   4.526   2.472   4.513 -0.3394  0.3566  0.3338
 1582SOL    HW116205   4.497   2.483   4.422  0.5003 -2.3693 -0.2703
 1582SOL    HW216206   4.544   2.563   4.536  1.1102  0.3541 -0.7968
 1583SOL     OW16207   0.796   3.195  17.417 -0.2181 -0.5113  0.0110
 1583SOL    HW116208   0.821   3.187  17.325  0.0065  0.2840  0.0045
 1583SOL    HW216209   0.703   3.172  17.419 -0.1032 -0.9380  0.5596
 1584SOL     OW16210   3.365   4.224   2.738  0.0405  0.1894  0.4195
 1584SOL    HW116211   3.402   4.246   2.652  0.3393 -0.4458  0.3828
 1584SOL    HW216212   3.431   4.158   2.758 -0.4190 -1.1728 -2.5269
 1585SOL     OW16213   2.827   0.577   4.656  0.1128  0.4068 -0.3413
 1585SOL    HW116214   2.734   0.558   4.640 -0.2694  1.4746  0.6664
 1585SOL    HW216215   2.852   0.605   4.568  3.4074 -0.4645  0.3091
 1586SOL     OW16216   0.660   1.498   3.666  0.2628  0.3756 -0.0539
 1586SOL    HW116217   0.628   1.408   3.667  0.8259  0.1452 -2.3051
 1586SOL    HW216218   0.750   1.472   3.643  0.3678  1.2095 -0.5775
 1587SOL     OW16219   0.739   0.671   3.760  0.8061  0.5013  0.3153
 1587SOL    HW116220   0.656   0.674   3.807  0.4545  0.2533 -0.2987
 1587SOL    HW216221   0.707   0.652   3.672  2.6992 -1.0333 -0.0441
 1588SOL     OW16222   3.859   2.662   2.657 -0.1363  0.4059  0.1796
 1588SOL    HW116223   3.951   2.669   2.682 -0.3090  3.9293 -0.2750
 1588SOL    HW216224   3.849   2.742   2.606  0.5971  0.9982  0.9590
 1589SOL     OW16225   4.635   0.142  11.500 -0.0412 -0.3565  0.4185
 1589SOL    HW116226   4.542   0.121  11.506 -0.7701  2.4102 -1.2161
 1589SOL    HW216227   4.639   0.221  11.446 -0.1386  0.3118  1.3799
 1590SOL     OW16228   0.779   1.704   1.526  0.7500  0.2645  0.4880
 1590SOL    HW116229   0.834   1.637   1.566 -0.2524 -1.5898 -1.2408
 1590SOL    HW216230   0.839   1.754   1.470  0.3501  2.5678  2.1153
 1591SOL     OW16231   4.134   2.858   8.061 -0.2987  0.2137 -0.5221
 1591SOL    HW116232   4.114   2.843   8.153  0.5243 -1.9712 -0.6953
 1591SOL    HW216233   4.224   2.826   8.053 -0.5211 -0.5201 -0.0733
 1592SOL     OW16234   1.144   3.409   4.740 -0.0753 -0.2209 -0.0737
 1592SOL    HW116235   1.191   3.454   4.669 -0.3489  0.1468 -0.0225
 1592SOL    HW216236   1.092   3.347   4.690  0.1945 -0.4439 -0.0770
 1593SOL     OW16237   0.168   0.674   6.795 -0.0201  0.0473  0.2476
 1593SOL    HW116238   0.137   0.764   6.781  0.6191  0.5283  1.8134
 1593SOL    HW216239   0.105   0.630   6.852  0.1085 -0.4856 -0.0274
 1594SOL     OW16240   0.054   2.875  16.306  0.5320  0.0520 -0.3583
 1594SOL    HW116241   0.034   2.838  16.220 -1.8754  0.0928  0.1850
 1594SOL    HW216242   0.043   2.969  16.292  1.7158  0.1385 -0.6790
 1595SOL     OW16243   1.971   0.631  12.626  0.2026 -0.4508  0.2030
 1595SOL    HW116244   1.998   0.689  12.698  0.2400 -0.7670  0.4418
 1595SOL    HW216245   1.889   0.615  12.672  0.1046 -1.5473 -0.3598
 1596SOL     OW16246   1.344   2.156   4.472  0.5323  0.6782  0.6536
 1596SOL    HW116247   1.297   2.207   4.405 -0.2563 -2.1235 -0.9141
 1596SOL    HW216248   1.398   2.225   4.513  0.4276  0.3043  1.4112
 1597SOL     OW16249   1.714   0.304  17.421  0.1940 -0.1961  0.3887
 1597SOL    HW116250   1.785   0.357  17.459 -0.2426  0.7876 -0.1721
 1597SOL    HW216251   1.640   0.364  17.422  0.7088  0.4867 -4.0875
 1598SOL     OW16252   1.574   2.069   7.626 -0.6028 -0.4171 -0.2724
 1598SOL    HW116253   1.660   2.045   7.662  0.0427  0.6341 -1.1294
 1598SOL    HW216254   1.528   2.082   7.709 -2.4070 -2.0703 -1.0228
 1599SOL     OW16255   4.153   1.163  15.755  0.1875  0.3603  0.0419
 1599SOL    HW116256   4.076   1.211  15.723 -1.0409 -0.3592  1.9643
 1599SOL    HW216257   4.211   1.212  15.696 -1.2668 -1.6935 -3.0971
 1600SOL     OW16258   4.087   1.214  12.741 -0.1038 -0.3710 -0.3176
 1600SOL    HW116259   4.126   1.149  12.684  1.3836 -0.1765  0.4902
 1600SOL    HW216260   4.027   1.159  12.791 -1.2894 -0.3886 -1.7598
 1601SOL     OW16261   1.965   2.758   6.553 -0.0369  0.2495  0.3691
 1601SOL    HW116262   2.010   2.818   6.492  1.6007  1.1595  2.4604
 1601SOL    HW216263   1.877   2.748   6.517 -0.6929  0.9798  1.7949
 1602SOL     OW16264   3.287   0.185  15.669  0.3242 -0.3536 -0.6608
 1602SOL    HW116265   3.207   0.234  15.650  1.1617  0.8869 -1.0564
 1602SOL    HW216266   3.352   0.255  15.677  0.6198 -0.4827 -1.8464
 1603SOL     OW16267   2.012   4.266   4.999 -0.1381  0.3218  0.1866
 1603SOL    HW116268   1.941   4.291   5.058 -2.7953 -3.2536 -1.5036
 1603SOL    HW216269   2.076   4.328   5.034  0.3587  0.6840 -1.3694
 1604SOL     OW16270   1.148   0.876   6.211 -0.0174 -0.5834 -0.0741
 1604SOL    HW116271   1.239   0.892   6.236 -0.5606  2.1280  0.1126
 1604SOL    HW216272   1.121   0.829   6.290 -0.5691 -1.9518 -1.0665
 1605SOL     OW16273   3.535   0.256   2.917 -0.7729  0.7698 -0.2376
 1605SOL    HW116274   3.539   0.178   2.973 -0.4260 -0.5497 -2.0939
 1605SOL    HW216275   3.622   0.291   2.933 -0.6148 -0.3126  1.2661
 1606SOL     OW16276   0.722   4.348   2.705 -0.1786  0.4765 -0.3430
 1606SOL    HW116277   0.802   4.387   2.739 -0.3528  0.4629  0.0804
 1606SOL    HW216278   0.745   4.255   2.703 -1.6900  0.0826  0.5569
 1607SOL     OW16279   2.376   2.277   2.764 -0.2344  0.3665 -0.4679
 1607SOL    HW116280   2.438   2.288   2.692 -2.1296 -0.3666 -2.2224
 1607SOL    HW216281   2.436   2.259   2.836  0.5448 -1.0131 -1.4708
 1608SOL     OW16282   3.574   0.721   1.053  0.3716 -0.3761  0.4411
 1608SOL    HW116283   3.667   0.712   1.072 -0.0069 -1.2833  1.8809
 1608SOL    HW216284   3.557   0.627   1.038 -1.1961 -0.0358  0.0725
 1609SOL     OW16285   2.055   2.274   7.477 -0.3865  0.5131 -0.4641
 1609SOL    HW116286   1.999   2.262   7.553  1.3104 -2.1318  0.3706
 1609SOL    HW216287   2.133   2.320   7.507 -0.0564 -0.5153  0.2721
 1610SOL     OW16288   2.121   4.588  13.601 -0.1373 -0.2475 -0.0662
 1610SOL    HW116289   2.155   4.511  13.649 -0.0142  0.0580  0.3418
 1610SOL    HW216290   2.046   4.604  13.658 -1.0004  0.1176 -1.3089
 1611SOL     OW16291   0.769   3.134   1.514 -0.3414  0.0320  0.8118
 1611SOL    HW116292   0.775   3.183   1.432 -4.0096 -0.1057  0.5026
 1611SOL    HW216293   0.834   3.181   1.566 -0.1085  1.8754 -1.1290
 1612SOL     OW16294   1.637   1.898   0.756  0.1757 -0.1969  0.1818
 1612SOL    HW116295   1.591   1.843   0.693 -1.2163 -1.9840  2.7810
 1612SOL    HW216296   1.729   1.875   0.740  0.9286  0.6758  3.3239
 1613SOL     OW16297   3.125   1.102  14.957  0.2923 -0.4232 -0.3095
 1613SOL    HW116298   3.108   1.117  15.050  1.2786  1.5701 -0.4665
 1613SOL    HW216299   3.072   1.026  14.933 -1.8624  0.5126  1.4267
 1614SOL     OW16300   2.687   3.381   2.875 -0.2641 -0.0849  0.0499
 1614SOL    HW116301   2.680   3.414   2.965  1.2498 -3.6683  1.5094
 1614SOL    HW216302   2.621   3.312   2.878 -2.2156  1.6013 -4.9981
 1615SOL     OW16303   0.817   4.676   7.107  0.1258 -0.4305  0.4649
 1615SOL    HW116304   0.871   4.603   7.078  0.2026  1.7233 -4.7720
 1615SOL    HW216305   0.737   4.641   7.067  0.1470 -1.5570  1.4281
 1616SOL     OW16306   2.680   4.532   9.045 -0.2397 -0.1147  0.0497
 1616SOL    HW116307   2.632   4.541   9.127  1.2819  1.6011  0.7625
 1616SOL    HW216308   2.630   4.463   9.001 -1.8558 -0.3244  2.2143
 1617SOL     OW16309   1.742   1.425   2.812 -0.8817 -0.2544 -0.5705
 1617SOL    HW116310   1.808   1.484   2.775 -0.4484  0.0907  0.7765
 1617SOL    HW216311   1.719   1.475   2.890  3.1914 -0.2505  0.6119
 1618SOL     OW16312   1.873   1.114  12.804  0.3375 -0.0873 -0.1879
 1618SOL    HW116313   1.799   1.150  12.853  2.3468  2.0487  1.2742
 1618SOL    HW216314   1.951   1.133  12.857 -0.4488  1.1776  0.5187
 1619SOL     OW16315   3.008   1.415   5.190  0.0350  0.0180 -0.5012
 1619SOL    HW116316   2.930   1.422   5.244  0.4912  1.4860 -0.0095
 1619SOL    HW216317   3.036   1.326   5.210  4.4871  1.4901 -0.1103
 1620SOL     OW16318   2.407   1.859   6.780 -0.1415 -0.1182  0.5444
 1620SOL    HW116319   2.453   1.914   6.716  2.2763 -0.6755  1.7753
 1620SOL    HW216320   2.322   1.900   6.768 -0.8254 -2.5032 -2.8555
 1621SOL     OW16321   1.555   0.298  15.468  0.0791  0.2517  0.1877
 1621SOL    HW116322   1.548   0.204  15.453 -1.3477  0.4996 -0.6722
 1621SOL    HW216323   1.639   0.300  15.513 -0.2292 -1.1005  0.8028
 1622SOL     OW16324   0.547   0.126   0.612 -0.1708  0.0970 -0.1833
 1622SOL    HW116325   0.619   0.065   0.597  0.4262  0.0167  3.0211
 1622SOL    HW216326   0.483   0.075   0.661  0.8168 -1.4088 -0.4808
 1623SOL     OW16327   3.590   4.021   5.021  0.2853 -0.3443  0.1507
 1623SOL    HW116328   3.572   4.103   5.067  2.0967  0.4921 -0.6428
 1623SOL    HW216329   3.571   4.047   4.931  2.1503  3.0142  0.7109
 1624SOL     OW16330   0.619   2.626   8.164 -0.2049  0.1734 -0.2686
 1624SOL    HW116331   0.669   2.558   8.119  0.5779 -0.5227  1.6732
 1624SOL    HW216332   0.613   2.591   8.253  0.4258 -1.5736 -0.8929
 1625SOL     OW16333   4.551   4.446   5.623  0.4308 -0.1389 -0.1883
 1625SOL    HW116334   4.507   4.375   5.576 -1.4811 -1.0359  3.0338
 1625SOL    HW216335   4.551   4.424   5.716 -2.7135  0.7218  0.0168
 1626SOL     OW16336   0.979   3.010   6.593  0.3702 -0.3886 -0.2062
 1626SOL    HW116337   0.918   3.030   6.664 -0.6091  0.6737 -1.3549
 1626SOL    HW216338   1.036   3.085   6.613  1.3042 -1.0738 -0.3183
 1627SOL     OW16339   4.067   0.818   4.744  0.1377  0.7030  0.0263
 1627SOL    HW116340   4.033   0.904   4.719  0.8525  1.0739  0.3228
 1627SOL    HW216341   4.060   0.768   4.663 -0.3123  0.3004  0.3176
 1628SOL     OW16342   1.921   2.791   7.805  0.0056 -0.7394 -1.1274
 1628SOL    HW116343   1.927   2.696   7.817 -2.1738 -0.9780 -2.1308
 1628SOL    HW216344   1.850   2.826   7.859  2.6396  3.3596 -0.2833
 1629SOL     OW16345   3.610   1.084   1.733 -0.3415 -0.4061 -0.3551
 1629SOL    HW116346   3.542   1.139   1.772  1.9622  2.8270 -0.9365
 1629SOL    HW216347   3.574   1.051   1.651 -1.7331 -2.6996  1.1550
 1630SOL     OW16348   2.650   4.101   3.760 -0.4758 -0.1684 -0.1829
 1630SOL    HW116349   2.716   4.044   3.723 -0.2145  0.4024 -0.5948
 1630SOL    HW216350   2.647   4.074   3.852  2.0220 -2.4620 -0.7683
 1631SOL     OW16351   3.045   0.263   7.803  0.6421 -0.1241  0.0553
 1631SOL    HW116352   3.107   0.270   7.876 -1.3274  0.2116  1.6997
 1631SOL    HW216353   3.099   0.252   7.724 -0.8177 -0.8071 -0.8343
 1632SOL     OW16354   4.483   4.383  14.400 -0.1793  0.1830  0.2167
 1632SOL    HW116355   4.485   4.427  14.484  0.4814 -0.2121  0.4124
 1632SOL    HW216356   4.485   4.293  14.433 -0.1105  0.0742 -0.0806
 1633SOL     OW16357   0.335   1.267   7.922 -0.3240  0.2219 -0.1523
 1633SOL    HW116358   0.251   1.302   7.893 -0.2475 -1.0172 -1.8770
 1633SOL    HW216359   0.317   1.240   8.012  0.2688  0.0002 -0.1030
 1634SOL     OW16360   1.901   0.932   7.251  0.0509  0.0297 -0.0734
 1634SOL    HW116361   1.977   0.884   7.218  0.7899 -0.0541  1.7532
 1634SOL    HW216362   1.893   0.998   7.182 -1.6071  3.2775  3.2192
 1635SOL     OW16363   4.178   0.594   3.915 -0.0738 -0.3267  0.1610
 1635SOL    HW116364   4.107   0.630   3.967  1.6730  2.2918  0.7564
 1635SOL    HW216365   4.125   0.552   3.847 -2.3052  1.3789  0.8644
 1636SOL     OW16366   1.269   0.907  16.318 -0.6045  0.4020  0.0935
 1636SOL    HW116367   1.297   0.992  16.285 -0.2209 -0.2305 -1.2199
 1636SOL    HW216368   1.201   0.931  16.381  0.3366  2.2322  0.4135
 1637SOL     OW16369   0.509   1.402   6.532  0.1381  0.3518  0.5914
 1637SOL    HW116370   0.542   1.348   6.604 -0.0949 -1.3503 -0.5707
 1637SOL    HW216371   0.473   1.478   6.578  0.4483  0.2098  1.0693
 1638SOL     OW16372   1.118   1.581   8.005  0.5084  0.4418  0.0446
 1638SOL    HW116373   1.148   1.491   8.010  0.4801  0.3408 -1.5620
 1638SOL    HW216374   1.047   1.571   7.941 -0.4874  1.3770  1.0032
 1639SOL     OW16375   0.958   2.666   3.723  0.0397 -0.8275 -0.1816
 1639SOL    HW116376   0.946   2.748   3.771 -3.1169 -1.4039  0.0255
 1639SOL    HW216377   1.030   2.625   3.769  0.5060  0.2652  0.0601
 1640SOL     OW16378   1.283   1.175   6.766 -0.3263 -0.0898 -0.0472
 1640SOL    HW116379   1.330   1.249   6.805 -0.3251  1.2671 -2.6594
 1640SOL    HW216380   1.275   1.112   6.838  1.0142  2.2617  2.1591
 1641SOL     OW16381   0.950   3.426   7.244  0.0558  0.5904 -0.2018
 1641SOL    HW116382   1.003   3.500   7.215  1.6008  0.2551  1.8391
 1641SOL    HW216383   0.876   3.466   7.289  0.0059 -0.7366  0.9023
 1642SOL     OW16384   2.580   0.583   5.196 -0.6062  0.3244  0.2711
 1642SOL    HW116385   2.620   0.656   5.244  0.0309  0.9806 -1.2430
 1642SOL    HW216386   2.653   0.533   5.158 -1.0099 -1.1476  1.4364
 1643SOL     OW16387   4.677   2.743   7.967  0.0635  0.3273 -0.1738
 1643SOL    HW116388   4.670   2.838   7.970  2.5295  0.4338  2.4147
 1643SOL    HW216389   4.707   2.719   8.055  1.7756 -2.7294 -1.5614
 1644SOL     OW16390   2.652   4.361   6.759  0.2747  0.7770 -0.1896
 1644SOL    HW116391   2.626   4.448   6.729  0.8580  1.0693  0.1692
 1644SOL    HW216392   2.684   4.331   6.674  0.3928 -0.2163  0.2099
 1645SOL     OW16393   3.778   2.446  15.904  0.2452 -0.1854 -0.1983
 1645SOL    HW116394   3.803   2.365  15.949  0.0440  0.4472  1.0791
 1645SOL    HW216395   3.683   2.436  15.904  0.5056 -2.4978 -0.5423
 1646SOL     OW16396   2.896   2.605   4.134 -0.4622 -0.3723 -0.4833
 1646SOL    HW116397   2.967   2.668   4.125  0.0745 -0.8243  0.5472
 1646SOL    HW216398   2.944   2.536   4.088  1.3189  1.5363 -1.4788
 1647SOL     OW16399   4.482   2.299   3.980  0.3282  0.0425 -0.1123
 1647SOL    HW116400   4.486   2.205   3.968 -0.4163 -0.1953  1.5234
 1647SOL    HW216401   4.404   2.309   3.924  0.5060  1.8703 -0.0621
 1648SOL     OW16402   3.109   0.815   7.972  0.0146  0.1472  0.4953
 1648SOL    HW116403   3.105   0.745   7.907  3.1061 -1.3313  1.8849
 1648SOL    HW216404   3.118   0.887   7.911 -0.7410 -1.4806 -1.5347
 1649SOL     OW16405   3.098   2.618   1.650  0.3450  0.3674  0.6384
 1649SOL    HW116406   3.128   2.606   1.740 -0.8824  2.6457  1.3538
 1649SOL    HW216407   3.178   2.633   1.601  0.3199  2.4437  1.2405
 1650SOL     OW16408   1.823   3.744   8.315  0.4644 -0.2260 -0.3445
 1650SOL    HW116409   1.805   3.650   8.309 -0.5116 -0.0256 -0.5731
 1650SOL    HW216410   1.738   3.774   8.285 -0.7261 -0.8783  2.3525
 1651SOL     OW16411   4.298   3.749   7.270  0.4263 -0.2850  0.5057
 1651SOL    HW116412   4.239   3.674   7.262 -1.0618  0.9447  0.0431
 1651SOL    HW216413   4.250   3.815   7.221  0.2427 -0.0430  1.0169
 1652SOL     OW16414   1.902   0.644   4.268  0.4432 -0.1458  0.1454
 1652SOL    HW116415   1.983   0.676   4.227 -0.9087  0.7887 -1.7787
 1652SOL    HW216416   1.857   0.727   4.281  0.7118  0.0392 -0.0830
 1653SOL     OW16417   0.593   4.447   8.777 -0.4112  0.1624  0.1374
 1653SOL    HW116418   0.596   4.362   8.820 -2.1587  0.1324  0.1819
 1653SOL    HW216419   0.587   4.424   8.684 -0.9987  2.3655 -0.3588
 1654SOL     OW16420   2.994   0.108   4.815  0.0846  0.0443  0.1837
 1654SOL    HW116421   2.980   0.197   4.784 -0.9095 -0.1592  0.0515
 1654SOL    HW216422   3.077   0.090   4.769 -1.0058 -0.5237 -1.5596
 1655SOL     OW16423   1.439   2.595   4.448  0.0797 -0.6644 -0.3228
 1655SOL    HW116424   1.512   2.657   4.451 -0.4745  0.0699 -1.8759
 1655SOL    HW216425   1.383   2.636   4.382  1.4228  0.9991 -0.4377
 1656SOL     OW16426   1.313   1.922   9.934 -0.7837  0.5169  0.0186
 1656SOL    HW116427   1.259   1.911  10.012 -0.2844  2.6618  0.6607
 1656SOL    HW216428   1.304   1.837   9.892  0.8703  0.2487  0.2086
 1657SOL     OW16429   4.566   2.560   7.249 -0.3943  0.0379 -0.2497
 1657SOL    HW116430   4.518   2.488   7.292 -0.5709  0.4092  0.1705
 1657SOL    HW216431   4.645   2.560   7.303 -0.9452  0.2260  0.5620
 1658SOL     OW16432   2.546   0.324  12.698 -0.1408 -0.6992 -0.1548
 1658SOL    HW116433   2.630   0.279  12.688  0.2741  0.1001 -0.2460
 1658SOL    HW216434   2.559   0.372  12.780 -1.1015 -0.4507 -0.1473
 1659SOL     OW16435   2.414   0.226   6.347 -0.7697  0.0946  0.1159
 1659SOL    HW116436   2.362   0.231   6.427 -1.4245  1.8460 -0.4250
 1659SOL    HW216437   2.440   0.318   6.349  0.2122 -0.1574 -0.7241
 1660SOL     OW16438   2.613   4.226  10.920  0.2483 -0.3935 -0.3057
 1660SOL    HW116439   2.702   4.196  10.939  0.0825  1.3515  3.2065
 1660SOL    HW216440   2.625   4.319  10.938  2.0513 -1.1248  2.2856
 1661SOL     OW16441   0.315   2.274   9.272 -0.5036  0.5787  0.2014
 1661SOL    HW116442   0.389   2.217   9.292 -1.1807  0.4724  2.3549
 1661SOL    HW216443   0.361   2.358   9.272  0.8976 -0.1906  1.7511
 1662SOL     OW16444   3.641   3.376   3.288 -0.5116  0.0753  0.1548
 1662SOL    HW116445   3.693   3.452   3.263 -1.1950  0.2612 -0.6830
 1662SOL    HW216446   3.692   3.339   3.360  1.4372 -0.8151 -1.6974
 1663SOL     OW16447   0.626   1.242   8.755  0.0390  0.6367 -0.2486
 1663SOL    HW116448   0.532   1.251   8.740  0.2012  1.5539 -0.7098
 1663SOL    HW216449   0.626   1.277   8.844 -2.9471 -0.8748  0.3381
 1664SOL     OW16450   2.935   2.545   3.213  0.2903  0.0505 -0.0654
 1664SOL    HW116451   2.972   2.550   3.301  1.1322  0.0741 -0.4190
 1664SOL    HW216452   2.948   2.634   3.180 -1.4186  0.7938  1.3113
 1665SOL     OW16453   4.332   3.632   2.089 -0.6831 -0.2324  0.5937
 1665SOL    HW116454   4.375   3.550   2.112 -1.1343 -0.4285  0.7295
 1665SOL    HW216455   4.387   3.678   2.025 -1.2434  1.0934  1.0658
 1666SOL     OW16456   0.788   0.113   9.135  0.2472 -0.2374  0.2429
 1666SOL    HW116457   0.760   0.139   9.223 -1.0936  0.6336 -0.4403
 1666SOL    HW216458   0.808   0.019   9.143  0.6316  0.1793  4.0996
 1667SOL     OW16459   1.201   0.030  11.595  0.0531 -0.2428 -0.1748
 1667SOL    HW116460   1.232   4.671  11.551 -1.6348 -0.0641 -1.6728
 1667SOL    HW216461   1.111   0.034  11.563 -0.2460 -2.3215  0.4318
 1668SOL     OW16462   2.898   0.250  13.233  0.0031 -0.0553 -1.0999
 1668SOL    HW116463   2.907   0.276  13.141  1.6839 -0.0792 -0.9480
 1668SOL    HW216464   2.989   0.219  13.239 -0.7036 -1.5893  1.7802
 1669SOL     OW16465   0.319   1.260   8.240 -0.2934  0.4737 -0.0146
 1669SOL    HW116466   0.385   1.328   8.227  0.6879 -0.1473  1.7401
 1669SOL    HW216467   0.366   1.189   8.283 -0.1358 -0.8205 -2.3636
 1670SOL     OW16468   2.297   1.785   5.377 -0.4575 -0.3409  0.1140
 1670SOL    HW116469   2.335   1.871   5.356  1.5622 -1.4197 -0.6538
 1670SOL    HW216470   2.205   1.791   5.351 -1.4040  2.0494  3.9451
 1671SOL     OW16471   4.252   2.111   2.666  0.8798  0.0456 -0.0278
 1671SOL    HW116472   4.252   2.204   2.643 -1.9846 -0.0472 -0.3515
 1671SOL    HW216473   4.203   2.104   2.748  1.1307  1.6306  0.2587
 1672SOL     OW16474   0.637   4.610   1.924  0.3097  0.1885  0.2071
 1672SOL    HW116475   0.653   4.640   1.834 -0.5332 -2.2366 -0.7502
 1672SOL    HW216476   0.668   4.520   1.916  1.5157  0.6101  0.1445
 1673SOL     OW16477   3.517   3.244   4.554 -0.0207  0.4099 -1.0923
 1673SOL    HW116478   3.502   3.320   4.610 -1.0611 -0.2494 -0.4611
 1673SOL    HW216479   3.489   3.276   4.469 -1.9282 -0.4751 -0.8043
 1674SOL     OW16480   2.937   4.482   2.871  0.1219  0.0626  0.0672
 1674SOL    HW116481   3.002   4.438   2.817 -1.5251  0.1983 -2.0543
 1674SOL    HW216482   2.893   4.406   2.909  0.7828 -0.8405 -0.9794
 1675SOL     OW16483   4.514   1.792  13.937 -0.2879 -0.2636 -0.2399
 1675SOL    HW116484   4.532   1.861  14.001  2.2189  0.5849 -1.8816
 1675SOL    HW216485   4.548   1.830  13.856 -0.4449 -0.9080 -0.6043
 1676SOL     OW16486   0.016   4.524   3.546  0.5402  0.2464  0.0467
 1676SOL    HW116487   0.051   4.436   3.561  1.6971  0.4847 -1.3212
 1676SOL    HW216488   4.655   4.509   3.595  1.1193 -0.1933  0.8821
 1677SOL     OW16489   3.712   4.597   7.887 -0.4477 -0.4699 -0.2134
 1677SOL    HW116490   3.684   4.507   7.870 -3.5935  0.3655  0.6096
 1677SOL    HW216491   3.749   4.614   7.800  0.2473  0.9056  0.3530
 1678SOL     OW16492   0.122   3.068   9.119 -0.0295 -0.0197  0.3779
 1678SOL    HW116493   0.192   3.127   9.093 -1.6695  3.0353  2.9067
 1678SOL    HW216494   0.166   3.008   9.179  0.1164 -1.1574 -0.8476
 1679SOL     OW16495   2.410   4.219   6.785 -0.1312  0.0602 -0.6863
 1679SOL    HW116496   2.499   4.245   6.810 -0.1876 -0.1354 -0.2914
 1679SOL    HW216497   2.398   4.277   6.709  1.2214  2.6151  1.0199
 1680SOL     OW16498   0.021   0.441   5.184 -0.3403  0.1157 -0.2065
 1680SOL    HW116499   0.050   0.531   5.197 -0.4653 -0.0057  0.9856
 1680SOL    HW216500   0.061   0.418   5.100 -0.4987 -1.3906  0.1216
 1681SOL     OW16501   2.033   0.928   2.322  0.2019  0.1775  0.5957
 1681SOL    HW116502   2.023   0.905   2.414  2.8355  0.7802  1.0437
 1681SOL    HW216503   2.123   0.960   2.313 -0.0936  1.2875  1.6356
 1682SOL     OW16504   0.862   3.091   6.853  0.0018  0.2860 -0.0851
 1682SOL    HW116505   0.897   3.122   6.937  0.3645  0.9504 -0.4845
 1682SOL    HW216506   0.780   3.052   6.883 -1.0890  0.8473 -2.3586
 1683SOL     OW16507   4.414   4.151   6.413  0.6434  0.0986 -0.0870
 1683SOL    HW116508   4.358   4.103   6.352 -0.1862  1.4662 -0.4106
 1683SOL    HW216509   4.348   4.164   6.482 -1.7124 -2.8390 -1.7915
 1684SOL     OW16510   1.092   2.005   5.597 -0.1465  0.0156 -0.1971
 1684SOL    HW116511   1.183   2.023   5.620  0.4776 -2.2360 -0.9698
 1684SOL    HW216512   1.105   1.990   5.504  0.7491  0.3689 -0.1292
 1685SOL     OW16513   3.835   4.072  11.863  0.4799 -0.2343 -0.0256
 1685SOL    HW116514   3.909   4.133  11.865  0.3470 -0.0567 -0.5089
 1685SOL    HW216515   3.809   4.081  11.772  1.9043  1.0414 -0.3151
 1686SOL     OW16516   0.539   2.126   9.367 -0.4163 -0.1088 -0.0529
 1686SOL    HW116517   0.630   2.110   9.342 -0.8585 -3.5349  0.5193
 1686SOL    HW216518   0.541   2.181   9.445 -1.0392 -1.5966  1.0097
 1687SOL     OW16519   4.591   0.160   9.448  0.1300  0.3572 -0.2650
 1687SOL    HW116520   4.633   0.082   9.484 -0.3176  1.9297  3.6459
 1687SOL    HW216521   4.543   0.116   9.377  0.6838  1.6078 -1.4276
 1688SOL     OW16522   1.943   2.540   5.799  0.5185  0.4400 -0.4267
 1688SOL    HW116523   1.864   2.529   5.746  0.4566 -0.6047 -0.1174
 1688SOL    HW216524   1.930   2.478   5.871  0.5662  1.2488  0.2775
 1689SOL     OW16525   0.617   3.083   7.484 -0.0259 -0.4537 -0.1826
 1689SOL    HW116526   0.631   3.052   7.574 -1.7935  1.1258  0.6375
 1689SOL    HW216527   0.575   3.005   7.448  0.0816 -0.0282 -1.2324
 1690SOL     OW16528   0.343   0.586   9.311  0.1414  0.5291 -0.0377
 1690SOL    HW116529   0.305   0.499   9.317  0.8491  0.2997  1.0232
 1690SOL    HW216530   0.277   0.631   9.364 -1.0684  0.1564 -1.2464
 1691SOL     OW16531   0.244   0.932   0.375  0.3443 -0.1629  0.7885
 1691SOL    HW116532   0.168   0.983   0.346  0.6225  0.1513  0.6084
 1691SOL    HW216533   0.309   0.929   0.304  0.1976  0.1097  0.6431
 1692SOL     OW16534   2.877   0.119  15.622  0.3500  0.1597  0.0851
 1692SOL    HW116535   2.835   0.203  15.639 -0.1649  0.6808 -3.6609
 1692SOL    HW216536   2.862   0.071  15.704 -0.2838 -0.0567 -0.1572
 1693SOL     OW16537   0.177   2.350  10.235  0.2525 -0.7560  0.3908
 1693SOL    HW116538   0.196   2.325  10.145 -0.5831  0.7270 -0.1850
 1693SOL    HW216539   0.258   2.392  10.263 -1.4443  0.3975  3.6680
 1694SOL     OW16540   4.441   3.850   3.906 -0.3810 -0.4012 -0.4408
 1694SOL    HW116541   4.453   3.942   3.882 -0.6881  0.3278  2.2632
 1694SOL    HW216542   4.503   3.798   3.854  1.4114  0.4253  0.8709
 1695SOL     OW16543   3.674   2.805   3.858 -0.5450 -0.3127  0.0742
 1695SOL    HW116544   3.719   2.727   3.824 -0.0484 -0.6004  1.4144
 1695SOL    HW216545   3.741   2.836   3.918 -1.0899 -1.7200  1.4041
 1696SOL     OW16546   3.591   0.845   9.522 -0.0628 -0.4627  0.6314
 1696SOL    HW116547   3.667   0.793   9.497 -0.2939  0.0037 -1.0480
 1696SOL    HW216548   3.542   0.786   9.579  0.7581 -2.0175 -0.2844
 1697SOL     OW16549   1.588   1.375   2.167 -0.5972  0.1887 -0.1188
 1697SOL    HW116550   1.654   1.433   2.204 -0.3665  1.0308 -1.8456
 1697SOL    HW216551   1.526   1.364   2.239  0.5298  1.7974  1.0904
 1698SOL     OW16552   2.096   2.268  10.213  0.1315 -0.1216  0.0382
 1698SOL    HW116553   2.157   2.281  10.141  0.5312 -1.6520  0.1091
 1698SOL    HW216554   2.009   2.261  10.175  0.5025  1.2408 -1.0344
 1699SOL     OW16555   1.224   0.121   5.816 -0.2507  0.0435  0.4721
 1699SOL    HW116556   1.184   0.060   5.878 -0.2936  0.9290  1.3051
 1699SOL    HW216557   1.281   0.072   5.755 -0.3205 -1.6614  1.7769
 1700SOL     OW16558   3.654   1.783   6.465  0.1615 -0.3787  0.2539
 1700SOL    HW116559   3.609   1.700   6.479 -1.5761  0.6949  1.0284
 1700SOL    HW216560   3.728   1.747   6.416  0.7237  1.2286 -0.0638
 1701SOL     OW16561   4.663   0.764   2.036  0.0740 -0.1314 -0.8592
 1701SOL    HW116562   0.003   0.795   1.968  0.5698  0.9261  0.0488
 1701SOL    HW216563   4.714   0.690   2.068  0.6263  0.0505 -1.3154
 1702SOL     OW16564   1.999   0.879  15.637  0.4013 -0.2646 -0.3289
 1702SOL    HW116565   1.988   0.942  15.566  1.8938  0.1457 -0.1966
 1702SOL    HW216566   1.946   0.933  15.696  0.7517 -1.1321  0.7867
 1703SOL     OW16567   2.479   4.491   8.176 -0.0602 -0.9025  0.4454
 1703SOL    HW116568   2.475   4.585   8.158 -1.5434 -0.6310  2.1538
 1703SOL    HW216569   2.395   4.454   8.150 -0.9387  0.7143  0.9802
 1704SOL     OW16570   2.270   0.766  14.734  0.0719 -0.4334  0.2600
 1704SOL    HW116571   2.342   0.774  14.672  0.1281  0.4441  0.4375
 1704SOL    HW216572   2.236   0.692  14.685  0.0847  1.6759 -2.9236
 1705SOL     OW16573   3.724   2.788   1.013 -0.4519  0.1254  0.4539
 1705SOL    HW116574   3.794   2.734   1.048 -0.8104 -0.0115  0.9655
 1705SOL    HW216575   3.764   2.828   0.936  0.5790  0.0215  0.9462
 1706SOL     OW16576   1.403   0.902   5.843 -0.6206  0.0675  0.2622
 1706SOL    HW116577   1.336   0.856   5.895  0.3046 -1.1044  0.4087
 1706SOL    HW216578   1.456   0.831   5.805  0.2802 -0.0522  1.7450
 1707SOL     OW16579   1.898   1.854   4.877  0.0769 -0.2681  0.1937
 1707SOL    HW116580   1.880   1.764   4.853 -2.9999  0.7962 -1.3917
 1707SOL    HW216581   1.849   1.862   4.959  0.0515  2.6689 -0.0889
 1708SOL     OW16582   1.306   1.299  12.725 -0.2175  0.5676 -0.3532
 1708SOL    HW116583   1.312   1.233  12.656  1.3883 -0.4684  0.7727
 1708SOL    HW216584   1.214   1.324  12.718  0.1565  1.5441 -1.7222
 1709SOL     OW16585   0.730   1.679   8.045 -0.3089 -0.1911  0.2900
 1709SOL    HW116586   0.721   1.626   8.124 -0.5032 -0.2691  0.2182
 1709SOL    HW216587   0.667   1.750   8.058 -1.8789 -1.3345 -0.9874
 1710SOL     OW16588   4.432   3.465   3.878 -0.0333 -0.4411  0.3086
 1710SOL    HW116589   4.488   3.543   3.868  0.7187 -0.7198  2.3728
 1710SOL    HW216590   4.424   3.463   3.974  0.7364  1.2046  0.4175
 1711SOL     OW16591   0.225   2.332   1.086  0.2531 -0.1472  0.2029
 1711SOL    HW116592   0.184   2.395   1.027  0.5249  1.5315  1.7945
 1711SOL    HW216593   0.313   2.369   1.093  0.1973  0.0674 -0.2373
 1712SOL     OW16594   1.948   2.520   8.985  0.0411  0.2449 -0.1505
 1712SOL    HW116595   1.965   2.429   8.960  0.5187 -0.2862  2.0622
 1712SOL    HW216596   2.038   2.550   9.000  0.2756 -0.9912  1.0076
 1713SOL     OW16597   1.040   1.556  17.275 -0.0035 -0.0619  0.9698
 1713SOL    HW116598   1.009   1.469  17.250  0.6463 -0.4998  1.7053
 1713SOL    HW216599   1.025   1.603  17.193 -0.9126 -1.3789  0.3781
 1714SOL     OW16600   1.777   0.643   8.517 -0.1925  0.0725 -0.7588
 1714SOL    HW116601   1.777   0.673   8.608  3.2269 -1.2279 -0.3441
 1714SOL    HW216602   1.706   0.579   8.523 -0.4058  0.3756 -0.0306
 1715SOL     OW16603   4.720   0.651   2.543  0.1751 -0.2595  0.0837
 1715SOL    HW116604   4.693   0.589   2.611 -1.6630  1.0199  0.5264
 1715SOL    HW216605   0.060   0.590   2.500 -0.3355 -2.6496  2.7513
 1716SOL     OW16606   1.903   2.506   2.927  0.1544 -0.1139 -0.1017
 1716SOL    HW116607   1.932   2.523   2.838  1.4473 -2.2396 -0.0628
 1716SOL    HW216608   1.911   2.411   2.932  0.7160 -0.0748 -0.2001
 1717SOL     OW16609   2.817   0.674   3.066  0.6327  0.2230  0.0975
 1717SOL    HW116610   2.872   0.612   3.019 -2.4915 -1.2026 -1.7115
 1717SOL    HW216611   2.864   0.757   3.069  0.6412  0.1798  1.2913
 1718SOL     OW16612   2.642   3.145  13.827  0.4439  0.2499  0.5769
 1718SOL    HW116613   2.597   3.117  13.907  0.3582  1.5487  0.9968
 1718SOL    HW216614   2.707   3.202  13.867  0.9529 -0.5968  0.9413
 1719SOL     OW16615   3.205   0.825   5.980  0.1381  0.0638  0.4704
 1719SOL    HW116616   3.230   0.911   5.946 -1.0885 -1.1584 -3.4817
 1719SOL    HW216617   3.154   0.788   5.908 -0.6327  0.4054  0.8499
 1720SOL     OW16618   1.414   1.896  13.160  0.0922 -0.0159 -0.0442
 1720SOL    HW116619   1.458   1.849  13.089 -1.3398 -1.9492  0.3570
 1720SOL    HW216620   1.396   1.834  13.231  0.2515 -0.2040 -0.1688
 1721SOL     OW16621   2.105   1.541   8.236 -0.5856  0.1320  0.4723
 1721SOL    HW116622   2.122   1.451   8.261 -0.1929 -0.0400 -0.4037
 1721SOL    HW216623   2.052   1.522   8.158  0.9872 -0.0922 -0.5523
 1722SOL     OW16624   0.969   3.106   9.554 -0.1621  0.2414 -0.7139
 1722SOL    HW116625   0.909   3.139   9.621 -0.8642  0.1837 -1.3240
 1722SOL    HW216626   1.049   3.095   9.606 -0.8251 -0.2491  0.2123
 1723SOL     OW16627   0.001   0.406   2.698 -0.3598  0.1932 -0.3499
 1723SOL    HW116628   0.030   0.319   2.670  0.5277 -0.2081  1.7889
 1723SOL    HW216629   0.066   0.435   2.762 -1.9690  2.2453  0.3618
 1724SOL     OW16630   4.005   4.520  16.264 -0.0966 -0.1806 -0.6166
 1724SOL    HW116631   3.956   4.438  16.254 -0.0808 -0.1075 -1.3086
 1724SOL    HW216632   4.014   4.549  16.173  2.2131  1.9445  0.2698
 1725SOL     OW16633   0.364   3.535   2.732 -0.4642 -0.3986  0.3597
 1725SOL    HW116634   0.269   3.537   2.744 -0.3749  0.7327  0.9220
 1725SOL    HW216635   0.392   3.448   2.758 -0.7672 -0.9524 -1.1839
 1726SOL     OW16636   1.157   0.225   1.572  0.2776  0.3764 -0.1378
 1726SOL    HW116637   1.145   0.315   1.603 -0.9406  0.6531 -1.4069
 1726SOL    HW216638   1.246   0.217   1.539 -0.1506  1.0118 -1.4392
 1727SOL     OW16639   1.932   0.033  11.589 -1.0206 -0.6468 -0.0876
 1727SOL    HW116640   1.853   0.005  11.543 -0.8937  0.5795 -1.0702
 1727SOL    HW216641   1.888   0.099  11.643 -1.2336 -0.8681  0.0107
 1728SOL     OW16642   0.288   1.418   5.361 -0.5414 -0.3285 -0.2237
 1728SOL    HW116643   0.218   1.383   5.307 -0.4601 -1.6693  0.5412
 1728SOL    HW216644   0.244   1.467   5.430 -1.8383 -0.2429 -1.1169
 1729SOL     OW16645   1.610   1.876  15.569 -0.4298  0.4991  0.2391
 1729SOL    HW116646   1.650   1.811  15.511 -1.1667 -1.2000  1.6169
 1729SOL    HW216647   1.604   1.817  15.644 -0.2361  0.2935  0.0922
 1730SOL     OW16648   4.438   2.581   6.921 -0.8831  0.5894 -0.0543
 1730SOL    HW116649   4.415   2.513   6.858  0.4701 -1.1038  1.2572
 1730SOL    HW216650   4.524   2.545   6.944 -1.5288 -0.0407  1.3891
 1731SOL     OW16651   4.175   0.390   8.745  0.2314 -0.0365 -0.1994
 1731SOL    HW116652   4.099   0.357   8.697  0.5838  0.0605 -0.8315
 1731SOL    HW216653   4.243   0.396   8.678 -1.2905 -1.0212 -1.8404
 1732SOL     OW16654   4.255   3.531   3.343 -0.1322 -0.2148  0.5671
 1732SOL    HW116655   4.207   3.556   3.421  1.3786  2.6159  0.5992
 1732SOL    HW216656   4.219   3.582   3.271  0.4319 -0.3794  0.1679
 1733SOL     OW16657   1.984   0.226   6.610 -0.6446 -0.0396  0.5932
 1733SOL    HW116658   1.915   0.277   6.569 -1.7389 -1.1448  1.0683
 1733SOL    HW216659   1.937   0.204   6.690  0.3721 -0.5732  1.0509
 1734SOL     OW16660   2.824   0.964  15.514  0.0357 -0.5211 -0.2967
 1734SOL    HW116661   2.834   0.931  15.425 -0.3349  1.2190 -0.9857
 1734SOL    HW216662   2.842   1.056  15.492  0.1262 -0.2941  0.7233
 1735SOL     OW16663   2.029   1.278   4.975  0.4992  0.3708 -0.1215
 1735SOL    HW116664   1.964   1.274   4.905  1.1877 -0.0424 -0.7290
 1735SOL    HW216665   1.979   1.236   5.045  1.2464  0.0649  0.2217
 1736SOL     OW16666   0.568   2.455   1.820  0.0292  0.0886  0.0375
 1736SOL    HW116667   0.638   2.491   1.766  0.9715 -1.0864  0.4728
 1736SOL    HW216668   0.524   2.398   1.757  0.6449  0.2745 -0.5553
 1737SOL     OW16669   1.020   2.241  14.714 -0.0178 -0.3853 -0.0458
 1737SOL    HW116670   1.094   2.251  14.653  0.4712  0.5797  0.7075
 1737SOL    HW216671   1.037   2.293  14.792  0.0203 -1.0859  0.4042
 1738SOL     OW16672   1.468   2.984   9.841 -0.0366 -0.7255 -0.2973
 1738SOL    HW116673   1.378   3.015   9.838  0.3682  0.3939 -0.7070
 1738SOL    HW216674   1.481   2.975   9.935  0.9431 -1.4920 -0.4976
 1739SOL     OW16675   1.026   4.471   4.542  0.2188  0.2110  0.4109
 1739SOL    HW116676   1.059   4.494   4.456  1.4581 -1.0830  0.5509
 1739SOL    HW216677   0.994   4.559   4.563  1.5513  0.6462  0.5869
 1740SOL     OW16678   3.871   1.779   1.583  0.1193  0.7423 -0.0894
 1740SOL    HW116679   3.937   1.829   1.631 -2.6337  1.8562  2.6166
 1740SOL    HW216680   3.929   1.758   1.510 -0.9854  2.1854 -1.3687
 1741SOL     OW16681   2.648   2.864   6.508 -0.3703  0.3816  0.0178
 1741SOL    HW116682   2.650   2.956   6.480  2.5294  0.8845  1.8818
 1741SOL    HW216683   2.605   2.872   6.593  1.7417 -0.5302  1.1602
 1742SOL     OW16684   2.732   0.076   3.458  0.4823  0.6848  0.0830
 1742SOL    HW116685   2.676   0.142   3.497 -0.6051 -0.1713 -0.0489
 1742SOL    HW216686   2.822   0.091   3.489 -0.2971  1.0411  2.1768
 1743SOL     OW16687   4.661   3.735   2.936  0.0153  0.4074 -0.8003
 1743SOL    HW116688   4.621   3.732   2.849 -1.1721 -0.8350 -0.2313
 1743SOL    HW216689   0.005   3.664   2.924 -0.6654 -0.0794 -1.5747
 1744SOL     OW16690   1.840   4.231   6.702  0.4155  0.1663  0.2119
 1744SOL    HW116691   1.759   4.202   6.744  0.4577 -1.1615 -0.6048
 1744SOL    HW216692   1.899   4.155   6.706 -2.1491 -1.8087  0.3334
 1745SOL     OW16693   1.488   4.138  11.646  0.2711 -0.3009 -0.1290
 1745SOL    HW116694   1.404   4.113  11.608  0.1880  0.5212 -0.4913
 1745SOL    HW216695   1.490   4.069  11.712 -1.7634  0.7484  1.0000
 1746SOL     OW16696   0.298   1.477   9.385  0.1959  0.5219  0.0321
 1746SOL    HW116697   0.365   1.521   9.438 -0.8777  1.5391  0.5428
 1746SOL    HW216698   0.288   1.407   9.450 -0.2285 -2.1771 -2.9285
 1747SOL     OW16699   1.549   3.803   3.372  0.4150  0.1956 -0.2295
 1747SOL    HW116700   1.506   3.880   3.407 -0.5723  0.2668 -1.5659
 1747SOL    HW216701   1.484   3.737   3.398  3.1261 -1.6337  1.9369
 1748SOL     OW16702   4.414   4.471  12.922 -0.1960 -0.1685 -0.0199
 1748SOL    HW116703   4.407   4.500  12.831  0.2099  1.0489  0.3351
 1748SOL    HW216704   4.467   4.392  12.913 -0.3436 -0.5114  1.9942
 1749SOL     OW16705   3.788   3.015   3.592 -0.6792 -0.5378 -0.5199
 1749SOL    HW116706   3.838   2.942   3.555  0.3764  0.0761 -0.3152
 1749SOL    HW216707   3.731   2.956   3.642  0.9345 -0.3250  1.5912
 1750SOL     OW16708   1.538   2.358   8.144  0.3150 -0.2515 -0.0453
 1750SOL    HW116709   1.458   2.378   8.194 -1.0715  0.7503 -2.6730
 1750SOL    HW216710   1.594   2.316   8.209  0.8516  1.2495  0.4644
 1751SOL     OW16711   2.632   2.023  16.983 -0.2483  0.1504 -0.1939
 1751SOL    HW116712   2.602   2.108  17.016  1.8113  1.4102 -1.5742
 1751SOL    HW216713   2.595   1.971  17.055 -0.1382  0.1250 -0.1559
 1752SOL     OW16714   3.655   2.161   8.066  0.3367  0.0775 -0.1792
 1752SOL    HW116715   3.686   2.227   8.004  2.4863 -1.0128 -0.2635
 1752SOL    HW216716   3.664   2.216   8.143 -1.5319  1.6404 -1.0548
 1753SOL     OW16717   1.949   3.081   5.482  0.2743  0.1413  0.0718
 1753SOL    HW116718   1.971   3.136   5.407 -1.1534 -0.8723 -1.0924
 1753SOL    HW216719   1.997   2.998   5.482 -0.7080 -0.4252 -2.8344
 1754SOL     OW16720   3.606   0.046   3.060 -0.2544 -0.2693 -0.0271
 1754SOL    HW116721   3.628   4.688   3.009 -0.4423 -0.3111 -0.0461
 1754SOL    HW216722   3.620   0.002   3.144 -0.4242 -1.0355 -0.3951
 1755SOL     OW16723   0.815   3.479  10.597 -0.2121  0.2692 -0.2314
 1755SOL    HW116724   0.911   3.481  10.607 -0.2224 -1.3438  0.2061
 1755SOL    HW216725   0.794   3.572  10.606 -0.4992  0.1311  0.5539
 1756SOL     OW16726   3.692   1.956  14.713 -0.1491  0.1471 -0.0051
 1756SOL    HW116727   3.782   1.967  14.745  0.1895 -0.0456 -0.9038
 1756SOL    HW216728   3.665   2.048  14.721 -1.4076 -0.1124 -1.3876
 1757SOL     OW16729   2.688   0.939   6.068 -0.0336 -0.6649 -0.1131
 1757SOL    HW116730   2.731   0.859   6.038  1.5868 -0.5449  1.9248
 1757SOL    HW216731   2.597   0.919   6.042  0.0560  0.7632 -1.5153
 1758SOL     OW16732   4.459   1.399  17.276 -0.5377  0.0101 -0.4063
 1758SOL    HW116733   4.519   1.451  17.222 -2.6474  1.3767 -1.4200
 1758SOL    HW216734   4.470   1.309  17.245  1.4502  0.8622 -2.2366
 1759SOL     OW16735   3.659   3.582   2.930  0.1184  0.0688 -0.4393
 1759SOL    HW116736   3.605   3.506   2.951  0.3434 -0.5192 -1.9510
 1759SOL    HW216737   3.745   3.540   2.923  1.4009  2.9505 -2.1747
 1760SOL     OW16738   4.419   3.291   1.120  0.4645  0.6870  0.0099
 1760SOL    HW116739   4.434   3.379   1.156 -0.5845  0.9769 -0.2546
 1760SOL    HW216740   4.460   3.240   1.190 -0.7292 -0.0985  0.1226
 1761SOL     OW16741   3.554   3.688   2.428  0.0921  0.2416 -0.8658
 1761SOL    HW116742   3.591   3.664   2.343  0.5982  1.3721 -0.9615
 1761SOL    HW216743   3.484   3.748   2.402 -0.5487 -0.5715 -1.0144
 1762SOL     OW16744   1.328   1.874   3.314  0.1786  0.4023 -0.4401
 1762SOL    HW116745   1.310   1.780   3.315  0.4845  0.3610  0.7786
 1762SOL    HW216746   1.273   1.902   3.387 -1.3006 -0.1355 -1.3414
 1763SOL     OW16747   0.816   1.026  16.368 -0.0121  0.8175 -0.3199
 1763SOL    HW116748   0.891   0.997  16.420 -0.5186 -0.6398 -0.4148
 1763SOL    HW216749   0.784   0.943  16.333  0.1551  0.6537 -0.0791
 1764SOL     OW16750   2.291   2.569   7.928 -0.1885  0.4574 -0.0152
 1764SOL    HW116751   2.198   2.583   7.942 -0.0632 -1.2381  2.4729
 1764SOL    HW216752   2.294   2.624   7.850 -0.9458  1.1009  0.4179
 1765SOL     OW16753   1.188   3.405   0.735 -0.7996  0.0050  0.1845
 1765SOL    HW116754   1.228   3.423   0.649 -0.0724  0.2450  0.5699
 1765SOL    HW216755   1.269   3.388   0.784 -0.1619  0.3029 -0.7447
 1766SOL     OW16756   4.606   4.224   1.738  0.7191 -0.2939 -0.6318
 1766SOL    HW116757   4.652   4.252   1.817  1.3444 -0.6445 -0.8708
 1766SOL    HW216758   4.553   4.302   1.722 -0.4940 -0.8768  0.5091
 1767SOL     OW16759   0.541   3.748   0.751  0.6860 -0.0527  0.2980
 1767SOL    HW116760   0.590   3.816   0.798  0.1080  1.6833 -1.5736
 1767SOL    HW216761   0.476   3.739   0.820  1.3104 -1.0301  0.7514
 1768SOL     OW16762   0.707   0.839   8.163 -0.1287  0.7203 -0.3019
 1768SOL    HW116763   0.789   0.804   8.199 -0.6915  1.1358  1.4162
 1768SOL    HW216764   0.726   0.920   8.116 -0.6334  0.3897 -1.0558
 1769SOL     OW16765   2.016   4.499   0.433 -0.8715 -0.1373  0.0267
 1769SOL    HW116766   1.932   4.455   0.447 -1.1938 -0.2646 -2.1897
 1769SOL    HW216767   2.064   4.420   0.411 -0.9712  0.1444 -1.2410
 1770SOL     OW16768   0.321   2.716   6.203 -0.1013 -0.1366 -0.3837
 1770SOL    HW116769   0.332   2.811   6.191  0.3021 -0.4582 -2.4971
 1770SOL    HW216770   0.265   2.697   6.128 -1.7009  1.7752  0.3310
 1771SOL     OW16771   3.697   3.002   3.227  0.7218  0.6633  0.1546
 1771SOL    HW116772   3.792   3.006   3.225  0.7712 -0.9915 -1.3972
 1771SOL    HW216773   3.666   3.081   3.184 -0.6721  0.3248  0.5234
 1772SOL     OW16774   2.940   1.850   5.720 -0.1909  0.8744  0.4664
 1772SOL    HW116775   3.022   1.898   5.731  0.6519 -0.1188 -1.5141
 1772SOL    HW216776   2.896   1.893   5.647  1.7784  0.8696 -0.7281
 1773SOL     OW16777   3.036   2.508   8.758 -0.2845  0.1417  0.6433
 1773SOL    HW116778   2.964   2.556   8.799  0.7308  2.4497 -0.2394
 1773SOL    HW216779   3.095   2.566   8.710  1.6813 -0.5886  2.1768
 1774SOL     OW16780   0.700   0.091   7.349 -0.0062 -0.1934 -0.1778
 1774SOL    HW116781   0.713   0.066   7.257  0.8776 -2.4234  0.5573
 1774SOL    HW216782   0.783   0.079   7.395  0.2672 -0.6119 -0.7867
 1775SOL     OW16783   3.316   0.665   8.405  0.6527  0.4153 -0.1121
 1775SOL    HW116784   3.378   0.609   8.359 -0.4049  0.4035 -1.5426
 1775SOL    HW216785   3.241   0.628   8.357  2.1501 -1.7002 -0.8265
 1776SOL     OW16786   1.100   0.556  11.837  0.1982  0.0903  0.0628
 1776SOL    HW116787   1.178   0.593  11.878  0.5942  0.5506 -1.0995
 1776SOL    HW216788   1.034   0.558  11.906 -0.2561 -1.3008 -0.3285
 1777SOL     OW16789   0.444   2.253   3.900 -0.0757  0.2836  0.0346
 1777SOL    HW116790   0.501   2.283   3.830  1.0666 -0.5520  0.6136
 1777SOL    HW216791   0.360   2.290   3.873 -1.1022  0.1941  3.0683
 1778SOL     OW16792   0.834   4.202  10.034 -0.0930  0.3163 -0.1926
 1778SOL    HW116793   0.893   4.276  10.049 -1.4706  1.8863 -2.4717
 1778SOL    HW216794   0.794   4.189  10.120 -0.3795  1.6259 -0.1245
 1779SOL     OW16795   0.059   2.609   6.767  0.3367 -0.2591 -0.8005
 1779SOL    HW116796   0.079   2.594   6.859  0.5750 -1.1434 -1.0021
 1779SOL    HW216797   0.145   2.606   6.725  0.2124 -2.4224 -0.8632
 1780SOL     OW16798   1.204   2.920   3.810 -0.0475  0.0922 -0.6390
 1780SOL    HW116799   1.188   2.876   3.894 -0.7147  1.6030  0.0305
 1780SOL    HW216800   1.114   2.948   3.794 -0.4476 -0.9603 -0.2450
 1781SOL     OW16801   2.811   2.637  11.863 -0.6225  0.2051  0.2258
 1781SOL    HW116802   2.750   2.703  11.897  0.8540  0.8974  1.5360
 1781SOL    HW216803   2.747   2.573  11.831  0.8006 -2.7967  3.4612
 1782SOL     OW16804   4.152   0.602  17.476  0.2057 -0.5344 -0.3898
 1782SOL    HW116805   4.142   0.697  17.471 -0.5174 -0.3990  3.0803
 1782SOL    HW216806   4.077   0.581  17.532  1.0601 -1.2777  0.4855
 1783SOL     OW16807   2.445   3.060   4.790 -0.2270  0.5714 -0.1228
 1783SOL    HW116808   2.434   3.133   4.852  0.0652 -0.2841  0.9273
 1783SOL    HW216809   2.383   2.999   4.828  1.1904 -1.1115 -0.5152
 1784SOL     OW16810   0.995   3.678   7.452 -0.0727  0.2569 -0.5709
 1784SOL    HW116811   0.927   3.611   7.462 -0.9392  0.7831 -3.0666
 1784SOL    HW216812   0.941   3.756   7.441  0.1910  0.3528 -1.1578
 1785SOL     OW16813   1.631   3.793  15.331 -0.3839  0.2309  0.1065
 1785SOL    HW116814   1.682   3.721  15.294  1.6946  0.3144  2.8298
 1785SOL    HW216815   1.646   3.854  15.259 -0.5348  0.6503  0.4299
 1786SOL     OW16816   1.179   0.063   3.268  0.1850  0.7037 -0.3147
 1786SOL    HW116817   1.234   0.126   3.315  1.2719 -1.0332  0.7616
 1786SOL    HW216818   1.232   4.704   3.276 -0.0683  0.3513 -2.2278
 1787SOL     OW16819   0.876   0.476  11.484 -0.5149 -0.0081  0.0327
 1787SOL    HW116820   0.926   0.441  11.558  1.3097  1.9130 -0.2817
 1787SOL    HW216821   0.938   0.534  11.440  1.1827 -1.2369  0.8415
 1788SOL     OW16822   1.869   2.906   8.174 -0.3367  0.4239 -0.1078
 1788SOL    HW116823   1.932   2.971   8.206  0.7341 -1.4993  1.6830
 1788SOL    HW216824   1.806   2.913   8.247  0.7465  2.7272  0.6097
 1789SOL     OW16825   1.780   2.096   1.210 -0.1971 -0.4069  0.9342
 1789SOL    HW116826   1.756   2.015   1.164  2.9961 -0.9186  0.1249
 1789SOL    HW216827   1.791   2.153   1.134  1.6786 -1.4147  0.4516
 1790SOL     OW16828   4.595   4.683   5.320  0.0832  0.1725 -0.2002
 1790SOL    HW116829   4.596   0.053   5.288  0.1488  0.1288 -0.3192
 1790SOL    HW216830   4.605   4.698   5.414 -0.0785  0.6981 -0.2664
 1791SOL     OW16831   2.181   2.912   7.401  0.2604 -0.1910 -0.0104
 1791SOL    HW116832   2.271   2.943   7.411  1.0381 -1.4922 -2.8995
 1791SOL    HW216833   2.143   2.930   7.487 -0.7561  1.0142 -0.7095
 1792SOL     OW16834   0.421   3.507   4.691  0.0287  0.6003  0.5308
 1792SOL    HW116835   0.496   3.500   4.750 -0.6663  1.7125  1.5479
 1792SOL    HW216836   0.373   3.584   4.721 -1.3475 -0.1512  0.2927
 1793SOL     OW16837   3.648   1.790   1.885 -0.1632 -0.1226 -0.6552
 1793SOL    HW116838   3.710   1.838   1.941  0.7466 -2.8584  0.7263
 1793SOL    HW216839   3.582   1.765   1.950 -0.6101 -2.8210 -2.1785
 1794SOL     OW16840   0.145   1.373  17.425  0.1817  0.0737 -0.6370
 1794SOL    HW116841   0.060   1.336  17.400 -0.1206  0.0901  0.3704
 1794SOL    HW216842   0.178   1.314  17.493 -0.4554 -0.0276 -0.4153
 1795SOL     OW16843   0.474   3.215  11.465  0.2929 -0.6003  0.0552
 1795SOL    HW116844   0.457   3.134  11.418 -2.0698 -0.9698  1.4885
 1795SOL    HW216845   0.566   3.229  11.443  0.4626 -1.3118  0.3082
 1796SOL     OW16846   1.150   2.380   4.988  0.2350  0.3952 -0.9208
 1796SOL    HW116847   1.215   2.402   5.055  0.0059  2.0907 -1.2410
 1796SOL    HW216848   1.099   2.461   5.000  0.8700  0.7181 -0.3877
 1797SOL     OW16849   3.779   1.535  16.671 -0.4901 -0.3108 -0.1432
 1797SOL    HW116850   3.874   1.543  16.671 -0.6924  2.2639  1.1235
 1797SOL    HW216851   3.741   1.617  16.702 -2.9810 -1.8370  0.8800
 1798SOL     OW16852   3.919   4.237   4.567  0.4650 -0.1349  0.1358
 1798SOL    HW116853   3.980   4.241   4.493 -0.3087  1.3253 -0.4309
 1798SOL    HW216854   3.929   4.321   4.612  0.1765  0.2698 -0.5522
 1799SOL     OW16855   3.064   3.943  17.472  0.6784  0.0706 -0.0652
 1799SOL    HW116856   3.110   4.014  17.516 -0.2684  0.6498 -0.0092
 1799SOL    HW216857   3.133   3.876  17.474  0.3086 -0.2646  1.0463
 1800SOL     OW16858   4.434   3.848  13.564  0.0201  0.0108 -0.0967
 1800SOL    HW116859   4.524   3.849  13.597  0.7604 -4.1479 -1.9781
 1800SOL    HW216860   4.449   3.822  13.473  1.8555  1.9322 -0.3461
 1801SOL     OW16861   3.418   0.238   1.834  0.3001 -0.8910 -0.1110
 1801SOL    HW116862   3.370   0.253   1.753  0.1166 -1.6827 -0.1519
 1801SOL    HW216863   3.420   0.143   1.824  2.7123 -0.6962 -1.3747
 1802SOL     OW16864   4.382   0.579   6.786 -0.4948 -0.3897 -0.2833
 1802SOL    HW116865   4.405   0.645   6.720  3.0784  0.9813  2.3089
 1802SOL    HW216866   4.287   0.585   6.794 -0.7332 -1.5886 -2.2741
 1803SOL     OW16867   3.678   3.191   6.856 -0.2350 -0.5006  0.2248
 1803SOL    HW116868   3.757   3.138   6.851 -1.8611 -2.8451 -0.7575
 1803SOL    HW216869   3.691   3.244   6.778 -1.2596 -1.0455 -0.3317
 1804SOL     OW16870   0.562   1.301   2.915  0.0424  0.1028  0.1552
 1804SOL    HW116871   0.650   1.327   2.943  0.2437 -0.6361  0.1978
 1804SOL    HW216872   0.520   1.387   2.914  1.2331  0.6865 -0.5342
 1805SOL     OW16873   0.353   3.132   3.307  0.2677 -1.0214  0.1607
 1805SOL    HW116874   0.444   3.125   3.279  0.4919 -1.8298  1.0546
 1805SOL    HW216875   0.297   3.129   3.230  0.2904  2.8575  0.0263
 1806SOL     OW16876   3.974   4.535   6.632 -0.4009  0.6715 -0.4237
 1806SOL    HW116877   4.044   4.572   6.578 -1.4078  2.6581 -0.3475
 1806SOL    HW216878   3.992   4.583   6.713  1.8132  0.6925 -0.9430
 1807SOL     OW16879   2.509   2.717   0.100 -0.0344 -0.2010  0.0355
 1807SOL    HW116880   2.476   2.798   0.140  0.0090 -0.8462  1.3721
 1807SOL    HW216881   2.594   2.697   0.140 -0.1869 -0.7550  0.0811
 1808SOL     OW16882   3.733   4.152   8.705 -0.3971 -0.0755 -0.3020
 1808SOL    HW116883   3.643   4.130   8.681 -0.5503  0.1973  0.0193
 1808SOL    HW216884   3.758   4.090   8.773 -2.0802  1.1911  1.4942
 1809SOL     OW16885   2.841   3.250   7.821 -0.3004 -0.4544 -0.5160
 1809SOL    HW116886   2.774   3.313   7.845  0.2002  0.0646 -0.4897
 1809SOL    HW216887   2.917   3.272   7.876  0.8120 -0.7594 -1.9235
 1810SOL     OW16888   2.277   3.076   4.111 -0.7780  0.2192 -0.8689
 1810SOL    HW116889   2.200   3.125   4.141 -1.4956 -1.4519  0.0547
 1810SOL    HW216890   2.339   3.094   4.181 -0.3408  0.8415 -1.4228
 1811SOL     OW16891   1.456   2.878  16.017  0.4321 -0.3761  0.1218
 1811SOL    HW116892   1.523   2.822  15.977 -0.3998 -1.4780  0.2854
 1811SOL    HW216893   1.463   2.842  16.105 -0.5053 -1.1034 -0.0980
 1812SOL     OW16894   2.741   0.839  14.988 -0.5064 -0.0036  0.1329
 1812SOL    HW116895   2.650   0.826  14.962 -0.5569 -0.2913  0.4568
 1812SOL    HW216896   2.752   0.933  14.976  3.0498 -0.5194 -0.6495
 1813SOL     OW16897   1.019   0.475   3.987 -0.6452  0.5472  0.1300
 1813SOL    HW116898   1.101   0.451   3.944 -2.9123 -2.8746 -2.3326
 1813SOL    HW216899   1.019   0.399   4.046 -0.1151  0.0183 -0.5502
 1814SOL     OW16900   1.983   4.531   2.743 -0.0161 -0.3142 -0.3191
 1814SOL    HW116901   1.899   4.499   2.709  0.2390 -0.5931 -0.6895
 1814SOL    HW216902   2.009   4.593   2.676  1.1671  0.1716  0.6071
 1815SOL     OW16903   2.919   4.269   5.546  0.7785  0.6161  0.0843
 1815SOL    HW116904   2.961   4.187   5.572 -0.0394 -0.8117 -3.0594
 1815SOL    HW216905   2.966   4.284   5.463  2.0429  0.3630  0.7585
 1816SOL     OW16906   0.790   1.737   3.735 -0.5954 -0.3238  0.3242
 1816SOL    HW116907   0.755   1.807   3.790 -2.3413  0.0554 -1.2845
 1816SOL    HW216908   0.721   1.672   3.734 -0.9980  0.0822  1.6327
 1817SOL     OW16909   0.796   2.947   2.240  0.4016 -0.1845 -0.6326
 1817SOL    HW116910   0.839   2.880   2.187  0.9476  2.3394 -3.3498
 1817SOL    HW216911   0.706   2.923   2.216 -0.5115  1.1483  1.4811
 1818SOL     OW16912   1.138   4.352   4.767 -0.0647 -0.6342 -0.2711
 1818SOL    HW116913   1.095   4.397   4.694  2.7361  1.4635 -0.5894
 1818SOL    HW216914   1.212   4.314   4.720 -1.0156 -0.3600 -1.9986
 1819SOL     OW16915   2.471   3.317   8.211  0.3687 -0.7272 -0.4508
 1819SOL    HW116916   2.527   3.305   8.288  0.4990  1.6979 -0.1599
 1819SOL    HW216917   2.536   3.349   8.147 -0.0017  0.0085 -0.4609
 1820SOL     OW16918   2.158   2.137   6.461  0.1183  0.2264  0.1010
 1820SOL    HW116919   2.205   2.075   6.405 -0.1624  1.1003 -1.1123
 1820SOL    HW216920   2.102   2.075   6.508 -1.3038  0.8513 -0.7552
 1821SOL     OW16921   3.350   3.166   0.632  0.3820  0.1199  0.1601
 1821SOL    HW116922   3.310   3.204   0.710  1.8729  2.6437 -0.3381
 1821SOL    HW216923   3.280   3.109   0.599  1.0110 -0.4352 -0.2060
 1822SOL     OW16924   2.817   1.915   2.928  0.5173  0.2308 -0.1090
 1822SOL    HW116925   2.756   1.930   3.000  0.5722 -2.9952  0.6017
 1822SOL    HW216926   2.820   1.821   2.913 -0.5476  0.4660 -1.8077
 1823SOL     OW16927   4.116   2.556   9.682 -0.0442 -0.8019  0.4672
 1823SOL    HW116928   4.186   2.499   9.648 -0.3537 -1.5041  0.9991
 1823SOL    HW216929   4.081   2.606   9.609 -1.0103  0.7272  1.9786
 1824SOL     OW16930   4.262   3.646   6.711  0.7177  0.4089 -0.4168
 1824SOL    HW116931   4.212   3.651   6.629 -0.7328  2.3930  0.5985
 1824SOL    HW216932   4.341   3.599   6.684  2.2077  2.6067  0.0772
 1825SOL     OW16933   2.746   3.101  10.518  0.0603 -0.0008  0.3640
 1825SOL    HW116934   2.832   3.101  10.475  0.6288  0.9633  1.4992
 1825SOL    HW216935   2.709   3.018  10.486 -0.2595  1.4957 -3.1728
 1826SOL     OW16936   1.877   0.972  15.331 -0.0590 -0.1742  0.0842
 1826SOL    HW116937   1.851   0.890  15.289 -1.2431  1.4986 -2.4599
 1826SOL    HW216938   1.971   0.957  15.328 -0.1559 -0.9944  1.1617
 1827SOL     OW16939   4.307   3.727   9.222  0.1174  0.1623  0.2894
 1827SOL    HW116940   4.286   3.812   9.262  0.3642 -0.1540  1.0853
 1827SOL    HW216941   4.386   3.700   9.268  1.4759  4.0221  0.2291
 1828SOL     OW16942   2.355   2.804   3.984 -0.3039  0.2023 -0.4819
 1828SOL    HW116943   2.264   2.813   4.015  0.2238 -2.7394  1.9530
 1828SOL    HW216944   2.408   2.826   4.061 -0.2419 -2.0802  0.1449
 1829SOL     OW16945   4.325   2.689  14.939  0.1614  0.1056 -0.3006
 1829SOL    HW116946   4.232   2.673  14.927  0.3261 -0.6026 -0.6266
 1829SOL    HW216947   4.317   2.767  14.994  1.7202 -0.3404  0.5587
 1830SOL     OW16948   3.496   3.907   8.051 -0.3236 -0.1714 -0.7696
 1830SOL    HW116949   3.448   3.879   8.129  0.3015  0.3893 -0.1824
 1830SOL    HW216950   3.444   3.867   7.982 -0.1487  0.2993 -1.1770
 1831SOL     OW16951   1.958   0.451   3.249  0.5367 -0.8519 -0.8764
 1831SOL    HW116952   1.892   0.520   3.246  0.2933 -1.0696 -0.5081
 1831SOL    HW216953   1.992   0.458   3.160 -0.2558 -0.3982 -1.1487
 1832SOL     OW16954   3.942   2.536   1.459  0.9628  0.1519  0.1210
 1832SOL    HW116955   4.021   2.542   1.513  1.4725 -0.0681 -0.6063
 1832SOL    HW216956   3.884   2.599   1.502 -1.9763 -0.7074 -2.5793
 1833SOL     OW16957   1.774   1.002  10.514  0.0226 -0.0862 -0.2813
 1833SOL    HW116958   1.707   0.962  10.460 -0.8739  1.1347 -0.0754
 1833SOL    HW216959   1.754   1.092  10.489  0.7253 -0.0059 -0.5498
 1834SOL     OW16960   0.534   1.183  16.142 -0.3852  0.1862 -0.2137
 1834SOL    HW116961   0.550   1.122  16.070  0.6653 -2.0107  1.8839
 1834SOL    HW216962   0.454   1.227  16.115  1.7742  2.9363 -2.1570
 1835SOL     OW16963   0.189   1.155   3.894 -0.0776  0.4004 -0.1952
 1835SOL    HW116964   0.279   1.132   3.917  0.0756  0.2719 -0.9327
 1835SOL    HW216965   0.217   1.221   3.831  3.0831 -1.3462 -0.6395
 1836SOL     OW16966   2.384   2.322   5.021 -0.0630  0.5005 -0.1024
 1836SOL    HW116967   2.302   2.306   5.068 -0.5485 -0.7491 -1.3999
 1836SOL    HW216968   2.346   2.381   4.955  3.1503  1.8506 -0.7454
 1837SOL     OW16969   0.627   0.745   2.119 -0.5044  0.5685 -0.3084
 1837SOL    HW116970   0.721   0.763   2.123 -0.3247 -0.3280 -0.5845
 1837SOL    HW216971   0.596   0.764   2.208  0.6170 -0.0190  0.1991
 1838SOL     OW16972   4.094   1.580   4.429 -0.5723  0.0861  0.0141
 1838SOL    HW116973   4.173   1.537   4.395 -0.7674 -2.0691  2.3268
 1838SOL    HW216974   4.079   1.559   4.521 -1.1804 -1.2900 -0.4025
 1839SOL     OW16975   0.002   0.399   6.760  0.0875  0.0940  0.1472
 1839SOL    HW116976   4.697   0.328   6.819 -1.9178 -3.4366 -5.0627
 1839SOL    HW216977   4.682   0.479   6.794 -1.8292  0.0005 -1.9331
 1840SOL     OW16978   2.928   3.652   3.056 -0.6017  0.3884  0.5777
 1840SOL    HW116979   2.976   3.575   3.087 -0.8710  0.4403  1.1339
 1840SOL    HW216980   2.842   3.635   3.095 -0.8139 -0.8262 -0.4165
 1841SOL     OW16981   0.587   1.732  17.536  0.1608  0.1193  0.1632
 1841SOL    HW116982   0.587   1.827  17.525 -2.4106 -0.0766 -1.5836
 1841SOL    HW216983   0.542   1.700  17.458 -0.4170  1.4541 -0.0509
 1842SOL     OW16984   1.033   0.036   2.187 -0.2933 -0.4805  0.0831
 1842SOL    HW116985   1.038   0.100   2.116  1.5091  0.1322  0.7560
 1842SOL    HW216986   0.941   0.013   2.177 -0.3514 -0.4439  0.5314
 1843SOL     OW16987   4.685   4.009  13.407  0.0025  0.2345  0.8300
 1843SOL    HW116988   0.055   3.986  13.385  0.2664  1.2704  0.8256
 1843SOL    HW216989   4.657   3.924  13.441  0.3143 -0.4398 -0.5958
 1844SOL     OW16990   1.761   2.433   0.448  0.1626  0.1621  0.2142
 1844SOL    HW116991   1.806   2.432   0.364 -0.4785 -0.3555 -0.1259
 1844SOL    HW216992   1.830   2.483   0.491 -0.7161  0.3817  1.3669
 1845SOL     OW16993   3.348   3.450   7.175 -0.2899 -0.2339  0.3963
 1845SOL    HW116994   3.378   3.398   7.249 -0.3916  0.1595  0.7127
 1845SOL    HW216995   3.339   3.380   7.110  2.6509  1.2921 -1.6768
 1846SOL     OW16996   1.361   3.127   5.504  0.5569 -0.1331  0.0886
 1846SOL    HW116997   1.452   3.148   5.528  1.0837 -0.9848 -1.1363
 1846SOL    HW216998   1.380   3.086   5.419 -2.5999  4.1525 -2.6569
 1847SOL     OW16999   0.207   0.189   6.680  0.5928 -0.4775  0.4238
 1847SOL    HW117000   0.161   0.209   6.599  2.7627  2.0487 -0.2087
 1847SOL    HW217001   0.165   0.250   6.740 -0.7164 -0.6709 -0.3058
 1848SOL     OW17002   3.421   0.667   0.497 -0.4172 -0.3438 -0.6098
 1848SOL    HW117003   3.429   0.640   0.589 -1.1004 -2.4163 -1.1572
 1848SOL    HW217004   3.331   0.636   0.493 -0.3151 -0.6280 -0.7055
 1849SOL     OW17005   2.517   1.260  14.563  0.5213 -0.2374  0.2363
 1849SOL    HW117006   2.476   1.340  14.594 -1.7951 -0.1078 -3.1616
 1849SOL    HW217007   2.523   1.278  14.469 -0.3074 -0.8702  0.0625
 1850SOL     OW17008   4.666   2.348   7.581 -0.2002  0.1894 -0.1863
 1850SOL    HW117009   0.008   2.417   7.559 -0.4126  0.2709 -0.5324
 1850SOL    HW217010   4.656   2.359   7.676  2.5723 -0.4677  0.1690
 1851SOL     OW17011   1.603   2.380   4.146  0.0854  0.2271  0.0956
 1851SOL    HW117012   1.627   2.372   4.239  1.0816  1.4864 -0.0682
 1851SOL    HW217013   1.616   2.287   4.125 -1.3997  0.2022 -0.6693
 1852SOL     OW17014   4.203   2.635  15.248 -0.4116 -0.1097 -0.0472
 1852SOL    HW117015   4.268   2.647  15.317  0.2070  0.3326 -0.6970
 1852SOL    HW217016   4.248   2.563  15.203  0.5122  1.3624 -1.4953
 1853SOL     OW17017   3.965   1.430  10.702  0.0532 -0.7028  0.2735
 1853SOL    HW117018   3.968   1.525  10.709  1.8018 -0.7404 -0.1211
 1853SOL    HW217019   3.982   1.402  10.792 -0.3141  1.3384  0.9746
 1854SOL     OW17020   1.755   1.500  12.964  0.1422  0.2829  0.1468
 1854SOL    HW117021   1.689   1.439  12.931 -1.0460  1.5187  0.2581
 1854SOL    HW217022   1.818   1.486  12.894  0.0288 -2.4731  0.5828
 1855SOL     OW17023   4.633   3.823   0.586  0.1454  0.0301  0.3682
 1855SOL    HW117024   4.639   3.826   0.490  1.5757  1.1247  0.4955
 1855SOL    HW217025   0.005   3.818   0.612 -0.4919  0.1321  2.5968
 1856SOL     OW17026   2.684   1.913   5.139 -0.0548 -0.7828 -0.0038
 1856SOL    HW117027   2.735   1.884   5.064 -0.9241  0.5548 -1.1071
 1856SOL    HW217028   2.760   1.935   5.192 -0.0837  0.3494 -0.4504
 1857SOL     OW17029   0.175   2.133   1.413  0.2162 -0.2713  0.2358
 1857SOL    HW117030   0.164   2.094   1.327 -4.1593  0.5231  0.4563
 1857SOL    HW217031   0.268   2.156   1.423  0.2782 -0.7848  0.8324
 1858SOL     OW17032   3.709   4.284   4.892  0.4699  0.1380  0.2845
 1858SOL    HW117033   3.617   4.295   4.915  0.1129  0.0118 -1.0675
 1858SOL    HW217034   3.691   4.237   4.811 -0.3055 -1.2176  1.2471
 1859SOL     OW17035   3.967   0.659   4.094 -0.8218 -0.2657  0.4316
 1859SOL    HW117036   3.912   0.704   4.030  0.6674 -1.1511 -1.4851
 1859SOL    HW217037   3.957   0.719   4.168 -0.1423  1.6144 -0.9923
 1860SOL     OW17038   3.008   0.743   2.673  0.8273  0.5272  0.3864
 1860SOL    HW117039   3.004   0.738   2.578 -0.6418  0.4584  0.4501
 1860SOL    HW217040   3.039   0.657   2.701 -0.1828  0.5557  1.6114
 1861SOL     OW17041   1.578   4.612   8.433  0.3181  0.3854 -0.2074
 1861SOL    HW117042   1.485   4.617   8.454  0.6107  2.8398  0.5752
 1861SOL    HW217043   1.608   4.657   8.513  0.0698  2.7680 -1.4418
 1862SOL     OW17044   3.665   2.252   0.446  0.2558  0.2646  0.0721
 1862SOL    HW117045   3.643   2.339   0.478  0.0157  0.9291 -1.9323
 1862SOL    HW217046   3.719   2.209   0.512 -0.3087 -0.2142  0.2208
 1863SOL     OW17047   2.916   4.349   2.261  0.3482 -0.3723  0.2341
 1863SOL    HW117048   2.920   4.428   2.315 -0.8859 -1.1573  1.4635
 1863SOL    HW217049   3.003   4.309   2.266  0.4572  0.1201  2.2705
 1864SOL     OW17050   1.578   0.384   3.324 -0.0981  0.4421 -0.4059
 1864SOL    HW117051   1.584   0.479   3.334  0.6279  0.1033  2.2331
 1864SOL    HW217052   1.663   0.357   3.289  0.2730 -0.8959  1.5767
 1865SOL     OW17053   2.887   2.598   2.346 -0.4404  0.3404  0.3982
 1865SOL    HW117054   2.892   2.559   2.433 -1.0802 -1.3910 -0.3447
 1865SOL    HW217055   2.828   2.530   2.313  3.0928 -3.3584  1.7252
 1866SOL     OW17056   0.185   1.723   3.741 -0.0290  0.2848 -0.1103
 1866SOL    HW117057   0.259   1.671   3.711  0.9764  1.1431  0.8901
 1866SOL    HW217058   0.136   1.678   3.810  0.2948 -0.8894 -0.6520
 1867SOL     OW17059   3.089   1.788   3.055  0.5806  0.0375 -0.0939
 1867SOL    HW117060   3.042   1.728   2.998  1.6266 -0.7052 -0.1828
 1867SOL    HW217061   3.169   1.796   3.003  1.1727 -1.5097  0.5940
 1868SOL     OW17062   2.377   0.216   2.853 -1.1205 -0.5585  0.2447
 1868SOL    HW117063   2.377   0.312   2.853 -1.2220 -0.5498  1.2456
 1868SOL    HW217064   2.472   0.207   2.867 -1.0380 -0.7207 -0.4176
 1869SOL     OW17065   1.015   3.727   8.558  0.2746  0.2041 -0.0666
 1869SOL    HW117066   0.923   3.725   8.582 -0.0921 -2.0746 -1.7109
 1869SOL    HW217067   1.041   3.637   8.577 -1.7546 -0.4923 -0.6459
 1870SOL     OW17068   1.260   2.198  14.560 -0.1345  0.2564 -0.2288
 1870SOL    HW117069   1.238   2.219  14.469 -1.0300 -0.3448 -0.1565
 1870SOL    HW217070   1.351   2.227  14.551 -0.8300  1.2528 -4.0237
 1871SOL     OW17071   3.645   3.286   7.997  0.3127  0.7826  0.2564
 1871SOL    HW117072   3.683   3.366   7.960  1.2511 -0.3671 -1.2844
 1871SOL    HW217073   3.715   3.223   7.979 -1.6297 -1.4667  0.5434
 1872SOL     OW17074   3.594   2.732   5.922  0.5959 -0.3038  0.0635
 1872SOL    HW117075   3.521   2.782   5.886  0.9702 -0.3518 -0.7773
 1872SOL    HW217076   3.642   2.791   5.980  1.1390 -0.8497  0.1786
 1873SOL     OW17077   2.136   1.717  10.837  0.2491  0.0293 -0.1644
 1873SOL    HW117078   2.209   1.656  10.823 -0.1002  0.3666 -3.6122
 1873SOL    HW217079   2.055   1.667  10.825  0.9442 -0.9942 -0.6656
 1874SOL     OW17080   0.865   3.000   7.822  0.0587 -0.0245 -0.3409
 1874SOL    HW117081   0.821   3.085   7.813 -0.4104  0.0316  2.5142
 1874SOL    HW217082   0.793   2.945   7.853 -0.9175  1.4273 -0.0342
 1875SOL     OW17083   0.526   3.507   3.044 -0.0309  0.7737  0.8845
 1875SOL    HW117084   0.529   3.585   2.989 -2.4413  0.1865 -0.0925
 1875SOL    HW217085   0.443   3.471   3.014 -0.2070  0.0994  2.1794
 1876SOL     OW17086   2.178   2.101  16.651  0.1356  0.4055  0.1364
 1876SOL    HW117087   2.217   2.145  16.726  2.9935 -0.5578 -0.7880
 1876SOL    HW217088   2.088   2.092  16.681  0.5243 -2.0718  0.5467
 1877SOL     OW17089   2.110   2.085   2.306 -0.8749 -0.4277  0.2109
 1877SOL    HW117090   2.101   2.057   2.397 -0.5642 -0.9937  0.0695
 1877SOL    HW217091   2.193   2.132   2.317 -1.2766  0.1342  0.7767
 1878SOL     OW17092   0.589   2.393   7.484  0.0524 -0.0800 -0.2168
 1878SOL    HW117093   0.660   2.336   7.512  0.2842  0.5447  0.4672
 1878SOL    HW217094   0.552   2.347   7.409  1.4694 -1.2892 -0.1652
 1879SOL     OW17095   1.993   4.325  10.787 -0.2332  0.2209 -0.2641
 1879SOL    HW117096   2.000   4.350  10.879  1.4208 -2.2632  0.2805
 1879SOL    HW217097   1.919   4.384  10.774  0.3004  0.7098 -1.1091
 1880SOL     OW17098   3.289   1.464   8.322 -0.1710 -0.2405  0.1099
 1880SOL    HW117099   3.262   1.507   8.241  2.6711  3.3142  1.0394
 1880SOL    HW217100   3.227   1.392   8.334  1.1757 -1.4699 -0.3159
 1881SOL     OW17101   3.034   3.419   6.186  0.3028  0.2195 -0.0299
 1881SOL    HW117102   3.109   3.384   6.234 -0.3999  0.5709  1.3397
 1881SOL    HW217103   3.036   3.377   6.101 -4.3785 -2.3051  1.1400
 1882SOL     OW17104   3.242   0.049   4.706  0.3341  0.5557 -0.3495
 1882SOL    HW117105   3.281   0.007   4.783 -1.9648  2.3720  1.7936
 1882SOL    HW217106   3.200   4.691   4.672 -1.3535  0.2552  2.4626
 1883SOL     OW17107   2.178   0.323  12.609 -0.5667 -0.4156  0.5711
 1883SOL    HW117108   2.090   0.324  12.647 -0.1373  0.6789  1.5128
 1883SOL    HW217109   2.187   0.230  12.589 -1.5605 -0.4185  0.1255
 1884SOL     OW17110   0.838   0.978   6.574  0.6991 -0.6345 -0.4236
 1884SOL    HW117111   0.813   0.960   6.483 -4.4124 -1.1303  1.0593
 1884SOL    HW217112   0.768   0.932   6.620  1.0796 -1.1884 -0.4046
 1885SOL     OW17113   4.393   3.932   8.412 -0.3422  0.6923 -0.1914
 1885SOL    HW117114   4.439   3.923   8.328 -1.4511 -1.2550 -0.5945
 1885SOL    HW217115   4.312   3.976   8.386  0.0492  1.4094 -0.1751
 1886SOL     OW17116   1.570   2.809   3.021  0.1418  0.1570  0.1709
 1886SOL    HW117117   1.561   2.729   2.969  1.3936  0.9938 -1.3046
 1886SOL    HW217118   1.615   2.772   3.097 -0.8550  1.6137  1.4767
 1887SOL     OW17119   1.965   3.159  12.782  0.6031  0.2376  0.3433
 1887SOL    HW117120   2.060   3.160  12.780  0.6575  0.7458  3.4374
 1887SOL    HW217121   1.946   3.082  12.836  0.6092 -1.3069 -1.8684
 1888SOL     OW17122   3.646   4.692   2.232 -0.6070  0.5014 -0.3841
 1888SOL    HW117123   3.631   4.630   2.161  2.4041  0.4593 -0.9669
 1888SOL    HW217124   3.661   0.050   2.178  0.4145 -0.4715 -1.4912
 1889SOL     OW17125   4.288   0.698  16.737  0.7283 -0.0462 -0.0121
 1889SOL    HW117126   4.265   0.723  16.647  0.8226 -0.0051 -0.0245
 1889SOL    HW217127   4.247   0.612  16.736  0.5004  0.0561  0.4015
 1890SOL     OW17128   2.188   2.490   5.995 -0.5610  0.1827 -0.1320
 1890SOL    HW117129   2.095   2.503   6.014 -0.0979  1.0551  1.4630
 1890SOL    HW217130   2.231   2.472   6.078 -0.5355  0.2097 -0.1392
 1891SOL     OW17131   4.572   2.720   6.187 -0.6096  0.6450 -0.2342
 1891SOL    HW117132   4.621   2.686   6.262 -0.5629 -0.4835 -0.7651
 1891SOL    HW217133   4.545   2.808   6.212 -1.1231  0.3174  0.3741
 1892SOL     OW17134   3.172   2.997   9.389  0.4324 -0.3283 -0.3506
 1892SOL    HW117135   3.105   2.992   9.457 -1.8792 -0.0422 -2.5957
 1892SOL    HW217136   3.123   2.989   9.307 -2.2950  0.5747  1.1874
 1893SOL     OW17137   0.220   3.344   4.754 -0.4457 -0.5197 -0.4129
 1893SOL    HW117138   0.297   3.394   4.726 -0.0854 -0.1200  1.2482
 1893SOL    HW217139   0.165   3.329   4.677 -0.0091 -0.9555 -0.6396
 1894SOL     OW17140   4.621   0.834   3.752  0.3123  1.1143  0.0941
 1894SOL    HW117141   4.531   0.830   3.787  0.3308  1.2027  0.1525
 1894SOL    HW217142   4.639   0.741   3.759  0.9503  1.1249 -1.6903
 1895SOL     OW17143   3.170   2.310  17.440 -0.3087  0.2292  0.1477
 1895SOL    HW117144   3.103   2.264  17.388  1.2039  0.9675 -2.4358
 1895SOL    HW217145   3.202   2.240  17.498 -1.5677 -1.1126 -0.7729
 1896SOL     OW17146   2.010   4.715   2.516  0.3848  0.4313  0.2452
 1896SOL    HW117147   1.948   0.057   2.555  0.4980  0.5648  0.2102
 1896SOL    HW217148   1.961   4.696   2.435  2.4982 -1.3130 -0.6286
 1897SOL     OW17149   2.905   2.765  10.524  0.1072  0.3450  0.3486
 1897SOL    HW117150   2.891   2.787  10.432 -0.8256  0.4782  0.5208
 1897SOL    HW217151   2.939   2.852  10.546  2.0701 -0.8120  1.9287
 1898SOL     OW17152   1.403   4.263  10.135 -0.1852  0.0157  0.6897
 1898SOL    HW117153   1.364   4.187  10.093 -1.9091 -0.0286  2.3790
 1898SOL    HW217154   1.333   4.328  10.128  0.0621  0.0723 -1.0858
 1899SOL     OW17155   2.377   2.124  12.692 -0.0524  0.1875 -0.4374
 1899SOL    HW117156   2.464   2.127  12.734  0.1372  0.0820 -0.8257
 1899SOL    HW217157   2.347   2.212  12.713  1.7419  0.9768 -1.1910
 1900SOL     OW17158   3.388   3.300  11.192  0.0045  0.6689 -0.5702
 1900SOL    HW117159   3.455   3.314  11.126  0.2088  0.0198 -0.5039
 1900SOL    HW217160   3.370   3.208  11.171 -0.8734  0.6652  0.1848
 1901SOL     OW17161   4.322   1.026   5.441 -0.1019  0.2437 -0.0479
 1901SOL    HW117162   4.283   0.971   5.509  1.1052 -1.8957 -1.0846
 1901SOL    HW217163   4.341   0.965   5.370  1.1737  0.0442  0.4845
 1902SOL     OW17164   2.769   3.197   3.526 -0.1660  0.2391 -0.3564
 1902SOL    HW117165   2.778   3.114   3.574  2.0036 -0.0293 -1.2304
 1902SOL    HW217166   2.851   3.240   3.549 -0.6163 -0.3645  2.4187
 1903SOL     OW17167   0.907   4.224  11.522 -0.1185 -0.0202  0.1538
 1903SOL    HW117168   0.870   4.136  11.530 -0.9536 -0.0794 -4.1284
 1903SOL    HW217169   0.833   4.274  11.488 -1.3993 -1.8664  0.2642
 1904SOL     OW17170   3.495   0.763  13.530 -0.0308  0.1347  0.0019
 1904SOL    HW117171   3.423   0.817  13.562  0.4625  1.2295 -0.7597
 1904SOL    HW217172   3.509   0.703  13.603  0.3360 -2.4261 -2.1496
 1905SOL     OW17173   2.946   4.392   6.629  0.4650  0.4670  0.0513
 1905SOL    HW117174   2.953   4.297   6.632 -1.5325  0.2313 -3.0269
 1905SOL    HW217175   2.948   4.410   6.723  0.3303 -0.6885  0.2774
 1906SOL     OW17176   0.210   3.267   6.666 -0.6068  0.5839 -0.2585
 1906SOL    HW117177   0.290   3.316   6.686 -0.4304  1.4495 -3.0715
 1906SOL    HW217178   0.207   3.207   6.740 -0.9608 -0.0305 -0.7718
 1907SOL     OW17179   0.699   2.934   8.886 -0.4915  0.0635 -0.2853
 1907SOL    HW117180   0.684   2.936   8.792 -0.8935  1.1197 -0.2077
 1907SOL    HW217181   0.622   2.890   8.923 -0.0639 -0.9121 -0.5556
 1908SOL     OW17182   2.155   4.559   5.487  0.1645  0.1275  0.0634
 1908SOL    HW117183   2.197   4.644   5.498  1.1246 -0.5373  1.4698
 1908SOL    HW217184   2.161   4.525   5.576 -2.4709  2.1682  1.0179
 1909SOL     OW17185   0.333   1.361   3.216  0.2244  0.2313  0.3970
 1909SOL    HW117186   0.275   1.344   3.141 -0.0373  0.3653  0.5663
 1909SOL    HW217187   0.361   1.272   3.238 -1.4563 -0.4303 -0.1313
 1910SOL     OW17188   3.852   1.217  13.313 -0.1405 -0.6825 -0.0244
 1910SOL    HW117189   3.819   1.233  13.402  0.8151  0.0731  0.1841
 1910SOL    HW217190   3.872   1.300  13.271  0.2218 -0.5733  0.3703
 1911SOL     OW17191   2.355   2.274   8.911 -0.0803  0.0734 -0.0065
 1911SOL    HW117192   2.326   2.183   8.909  2.1472 -0.5715 -2.5564
 1911SOL    HW217193   2.448   2.254   8.924 -0.2318 -0.2594  0.5837
 1912SOL     OW17194   3.988   4.048   4.309  0.4434  0.0085 -0.0784
 1912SOL    HW117195   4.035   3.965   4.313 -1.8787 -1.4048 -1.7198
 1912SOL    HW217196   4.048   4.106   4.262 -0.5699  1.2642  0.1665
 1913SOL     OW17197   4.232   0.303   8.461 -0.1069  0.6400 -0.0470
 1913SOL    HW117198   4.181   0.223   8.471 -0.0246  0.3073 -2.3210
 1913SOL    HW217199   4.316   0.284   8.503  0.5190  1.2303 -1.0385
 1914SOL     OW17200   3.326   0.819   6.262 -0.2575 -0.7030 -0.1408
 1914SOL    HW117201   3.320   0.801   6.168  0.4910  2.1291 -0.7321
 1914SOL    HW217202   3.411   0.863   6.265 -0.5022 -0.2914  0.7245
 1915SOL     OW17203   3.083   2.955  10.631 -0.0609  0.3815  0.3977
 1915SOL    HW117204   3.176   2.936  10.643 -0.0152  1.4196  1.7295
 1915SOL    HW217205   3.066   3.038  10.676  0.5432  2.3168 -2.8964
 1916SOL     OW17206   1.215   0.318  15.662 -0.6026 -0.0736 -0.0460
 1916SOL    HW117207   1.257   0.259  15.726 -0.3389  0.2819  0.1100
 1916SOL    HW217208   1.284   0.371  15.622  0.1618  0.6272  2.1616
 1917SOL     OW17209   0.381   3.667   0.455  0.7307  0.2270  0.3368
 1917SOL    HW117210   0.381   3.658   0.359  1.7225 -1.1142  0.4724
 1917SOL    HW217211   0.471   3.699   0.455  0.9302 -0.3361  1.0215
 1918SOL     OW17212   3.955   4.038   3.416  0.0509  0.3871  0.3992
 1918SOL    HW117213   3.951   3.948   3.382 -1.2069  1.0914 -1.2809
 1918SOL    HW217214   4.034   4.076   3.377  0.7618  1.7963  3.2095
 1919SOL     OW17215   0.599   2.772  13.739  0.1169 -0.2195 -0.2491
 1919SOL    HW117216   0.507   2.759  13.717 -0.1763 -0.7377  1.2844
 1919SOL    HW217217   0.618   2.863  13.760 -0.8787  0.1896 -1.1474
 1920SOL     OW17218   4.357   0.457   4.597  0.3652  0.4470 -0.3437
 1920SOL    HW117219   4.398   0.524   4.652  1.5003  1.1028 -1.9856
 1920SOL    HW217220   4.421   0.445   4.527  0.8866  1.3799 -0.0306
 1921SOL     OW17221   4.309   1.436   1.208  0.7772  0.2983 -0.0045
 1921SOL    HW117222   4.283   1.506   1.149 -0.7831 -0.9013 -0.7324
 1921SOL    HW217223   4.352   1.366   1.158 -1.6955 -1.2727  0.0458
 1922SOL     OW17224   1.094   1.292  16.452 -0.4796  0.2809 -0.8664
 1922SOL    HW117225   1.126   1.327  16.535 -1.0298 -0.7878 -0.1986
 1922SOL    HW217226   1.006   1.316  16.482  0.1769  2.2946 -0.5548
 1923SOL     OW17227   3.901   0.831   3.020  0.5599 -0.4070 -0.2845
 1923SOL    HW117228   3.973   0.857   2.961  0.4403  0.2588 -0.1385
 1923SOL    HW217229   3.915   0.736   3.014  2.2242 -0.0793 -1.6977
 1924SOL     OW17230   3.806   3.515   6.325  0.4736 -0.5745  0.4596
 1924SOL    HW117231   3.749   3.528   6.249  0.8045 -0.6271  0.2021
 1924SOL    HW217232   3.860   3.440   6.299 -3.9867 -3.2692 -1.0776
 1925SOL     OW17233   4.604   1.987   3.155  0.0132 -0.0704  0.6853
 1925SOL    HW117234   4.590   2.070   3.199 -2.2847  0.4766 -1.0953
 1925SOL    HW217235   4.682   1.995   3.101  0.2252  1.3065  1.2072
 1926SOL     OW17236   0.261   3.722   3.016  0.0361 -0.0334  0.0852
 1926SOL    HW117237   0.238   3.639   3.057  1.7499 -1.0822 -1.0644
 1926SOL    HW217238   0.253   3.782   3.091 -1.8313 -0.6357  0.3702
 1927SOL     OW17239   3.454   0.184   4.545 -0.0525 -0.5447  0.4918
 1927SOL    HW117240   3.523   0.164   4.608 -0.2774 -0.3055  0.8116
 1927SOL    HW217241   3.382   0.166   4.607  1.8702 -2.4933  2.1553
 1928SOL     OW17242   1.599   1.485   9.059 -0.4679  0.6316 -0.6975
 1928SOL    HW117243   1.523   1.519   9.012 -0.7840  2.3503  1.0401
 1928SOL    HW217244   1.576   1.392   9.064 -0.4676  0.7539  1.9498
 1929SOL     OW17245   0.360   1.710   4.618 -0.0043 -0.5638 -0.4548
 1929SOL    HW117246   0.363   1.754   4.702 -0.0136 -1.1510 -0.1464
 1929SOL    HW217247   0.279   1.738   4.575  0.4617 -1.9154 -2.2319
 1930SOL     OW17248   3.025   3.352   3.572  0.9139 -0.8937  0.3619
 1930SOL    HW117249   3.028   3.338   3.477  1.2712 -0.1135  0.2558
 1930SOL    HW217250   2.948   3.409   3.576  1.8294  0.3389  0.3154
 1931SOL     OW17251   3.681   0.353   6.475 -0.1294 -0.1982  0.2419
 1931SOL    HW117252   3.765   0.390   6.447 -0.3293  0.0756 -0.0056
 1931SOL    HW217253   3.624   0.411   6.423 -0.4312 -0.2792  0.4811
 1932SOL     OW17254   2.786   4.263  13.153  0.7583  0.1581 -0.1952
 1932SOL    HW117255   2.833   4.307  13.082  2.5014 -1.2333  0.0847
 1932SOL    HW217256   2.698   4.258  13.117  1.4774  0.1151 -1.9292
 1933SOL     OW17257   4.627   4.235   9.470 -0.3397 -0.2939 -0.5006
 1933SOL    HW117258   4.576   4.165   9.511 -1.8847  1.8689  1.2618
 1933SOL    HW217259   4.643   4.195   9.384  1.3050 -0.8450  0.0713
 1934SOL     OW17260   3.156   0.817   4.982 -0.3020  0.0742  0.2333
 1934SOL    HW117261   3.102   0.755   4.933  0.8489 -1.1550  0.5307
 1934SOL    HW217262   3.115   0.899   4.954 -1.7927 -1.5133 -2.2800
 1935SOL     OW17263   3.260   3.222   3.077  0.6799  0.3415  0.3099
 1935SOL    HW117264   3.301   3.140   3.052  0.4856  0.4377 -0.3361
 1935SOL    HW217265   3.248   3.203   3.170  0.8915 -0.1109  0.2426
 1936SOL     OW17266   1.728   0.664   2.355 -0.4176 -0.2322  0.1813
 1936SOL    HW117267   1.780   0.676   2.434  0.0416  0.5421 -0.2326
 1936SOL    HW217268   1.798   0.642   2.293 -0.5923 -0.1196 -0.0566
 1937SOL     OW17269   1.689   4.606   0.998  0.5394 -0.3919 -0.0568
 1937SOL    HW117270   1.643   4.540   0.945  0.6709  1.0079 -1.9166
 1937SOL    HW217271   1.621   4.673   0.991  1.0123  0.0977  0.0584
 1938SOL     OW17272   0.637   0.848   4.225  0.2821  0.3032 -0.2048
 1938SOL    HW117273   0.680   0.790   4.287 -0.4003  0.7379  0.6791
 1938SOL    HW217274   0.643   0.932   4.271 -0.3392 -1.2992  2.7468
 1939SOL     OW17275   4.615   3.647   5.849 -0.3461 -0.8481 -0.3695
 1939SOL    HW117276   4.642   3.575   5.792  0.3362 -0.9664  0.1092
 1939SOL    HW217277   4.549   3.603   5.903  0.4496  0.4469  1.6515
 1940SOL     OW17278   1.092   1.171  16.027 -0.6671 -0.1027 -0.2088
 1940SOL    HW117279   1.123   1.081  16.034 -0.4142 -0.0960 -1.1982
 1940SOL    HW217280   0.998   1.157  16.020 -1.2114  0.6700  5.1866
 1941SOL     OW17281   0.675   0.804   9.938  0.4422 -0.5551  0.0355
 1941SOL    HW117282   0.763   0.787   9.973 -0.1777 -0.9624  1.4155
 1941SOL    HW217283   0.704   0.871   9.876 -1.7032  0.9039  0.6019
 1942SOL     OW17284   3.817   2.321   6.047 -0.0171 -0.7332 -0.0354
 1942SOL    HW117285   3.834   2.263   6.121  0.5118 -0.3809  0.1200
 1942SOL    HW217286   3.899   2.366   6.064 -0.0852 -1.1681  1.4862
 1943SOL     OW17287   0.377   1.346   7.000  0.2537 -0.2242 -0.0743
 1943SOL    HW117288   0.343   1.389   7.078  1.1820 -0.2233  0.3383
 1943SOL    HW217289   0.316   1.368   6.931 -1.1294 -2.0612  0.5488
 1944SOL     OW17290   0.746   0.678  11.737 -0.7698 -0.4664  0.2562
 1944SOL    HW117291   0.785   0.645  11.818 -0.9428  0.6858  0.8071
 1944SOL    HW217292   0.681   0.733  11.781  1.2933  1.4552  0.8932
 1945SOL     OW17293   1.219   2.890  10.019 -0.1804  0.7024 -0.2812
 1945SOL    HW117294   1.189   2.836  10.092 -1.2025  0.1679 -1.0987
 1945SOL    HW217295   1.313   2.887  10.038 -0.2383  1.8058  0.1638
 1946SOL     OW17296   2.429   3.970  12.028  0.3434 -0.6295  0.0985
 1946SOL    HW117297   2.507   4.025  12.038  0.3209 -0.7633  1.0197
 1946SOL    HW217298   2.468   3.884  12.009  3.1743  0.5083  0.7784
 1947SOL     OW17299   0.460   4.040   9.571  0.0189  0.2208 -0.0209
 1947SOL    HW117300   0.412   3.984   9.633  1.0232  1.2850  1.7200
 1947SOL    HW217301   0.530   4.076   9.625 -1.2909  3.2904 -0.3775
 1948SOL     OW17302   2.443   3.086   6.534 -0.0959 -0.1889  0.5607
 1948SOL    HW117303   2.491   3.133   6.602  1.0063 -2.6171  1.4721
 1948SOL    HW217304   2.447   3.147   6.461 -0.1575  0.1906  0.8751
 1949SOL     OW17305   3.762   3.598  12.790  0.0542  0.8960  0.0231
 1949SOL    HW117306   3.802   3.664  12.847  0.4357  0.6436  0.0451
 1949SOL    HW217307   3.838   3.541  12.798 -1.1598 -0.9138 -1.4604
 1950SOL     OW17308   1.096   2.494  17.365 -0.3539  0.9329  0.6567
 1950SOL    HW117309   1.126   2.448  17.443  0.5938  1.2151  0.4582
 1950SOL    HW217310   1.178   2.530  17.330  0.9673 -1.6519  1.1403
 1951SOL     OW17311   2.671   1.131  17.459  0.3874 -0.1405 -0.2395
 1951SOL    HW117312   2.615   1.190  17.509  3.0331  0.8564  1.5973
 1951SOL    HW217313   2.752   1.182  17.446 -0.6538  1.8181  0.9844
 1952SOL     OW17314   1.594   0.453   0.110  0.0389  0.1587 -0.0549
 1952SOL    HW117315   1.563   0.434   0.022  0.4185 -1.4160  0.1426
 1952SOL    HW217316   1.639   0.371   0.132  1.4936  1.1378  0.6658
 1953SOL     OW17317   3.584   2.239   6.823 -0.5336  0.2830 -0.3860
 1953SOL    HW117318   3.589   2.160   6.877 -0.0093 -0.0422 -0.9164
 1953SOL    HW217319   3.641   2.297   6.873 -2.2201  1.0483  0.6776
 1954SOL     OW17320   3.597   3.184   5.585 -0.3708 -0.5135  0.0983
 1954SOL    HW117321   3.614   3.110   5.644 -0.5608 -1.7724 -1.4291
 1954SOL    HW217322   3.676   3.176   5.531 -0.3750 -1.2266  0.1880
 1955SOL     OW17323   0.443   3.384   6.731 -0.0302  0.2314  0.2678
 1955SOL    HW117324   0.531   3.348   6.738 -0.1201 -0.2697 -1.1379
 1955SOL    HW217325   0.464   3.454   6.792  2.2283  1.0734 -1.5002
 1956SOL     OW17326   2.511   2.290   8.440 -0.3662  0.5656  0.4190
 1956SOL    HW117327   2.606   2.300   8.435 -0.1501 -0.8501  1.5473
 1956SOL    HW217328   2.482   2.379   8.421  0.9841  0.7053 -0.9124
 1957SOL     OW17329   0.862   3.708  11.574 -0.1604 -0.1159  0.0937
 1957SOL    HW117330   0.789   3.663  11.616 -0.2319  0.3130  0.4326
 1957SOL    HW217331   0.898   3.626  11.540 -0.3338 -0.4286  0.6603
 1958SOL     OW17332   0.662   0.768  14.591  0.3984  0.4373  0.4371
 1958SOL    HW117333   0.591   0.705  14.579 -1.0950  2.1573  0.3318
 1958SOL    HW217334   0.708   0.771  14.507  1.2179 -2.5767  0.7395
 1959SOL     OW17335   0.039   2.622   2.662  1.0883 -0.8314  0.0948
 1959SOL    HW117336   0.012   2.631   2.571  0.7203 -2.2686  0.0661
 1959SOL    HW217337   0.118   2.676   2.666 -0.7696  1.8898 -0.4382
 1960SOL     OW17338   0.729   4.691   8.228  0.0510 -0.0529  0.8555
 1960SOL    HW117339   0.642   0.009   8.227 -0.1026 -0.4425  0.0596
 1960SOL    HW217340   0.717   4.644   8.146  0.9651 -0.2817  0.8454
 1961SOL     OW17341   4.249   3.555   5.548  0.3146  0.5126  0.3966
 1961SOL    HW117342   4.176   3.610   5.519  0.2113  0.4908  0.6152
 1961SOL    HW217343   4.324   3.599   5.508 -0.3281 -1.2166 -2.7741
 1962SOL     OW17344   3.813   2.234   3.216  0.1834 -0.3589  0.7207
 1962SOL    HW117345   3.908   2.231   3.211  0.2077 -2.1350  2.0173
 1962SOL    HW217346   3.803   2.155   3.162 -1.2984 -0.9040  1.7826
 1963SOL     OW17347   0.002   4.071   8.301 -0.1023 -0.1784 -0.0822
 1963SOL    HW117348   0.089   4.034   8.316  0.7916  3.0160  2.4729
 1963SOL    HW217349   4.678   3.998   8.257 -0.0068 -0.8415  0.9234
 1964SOL     OW17350   3.985   3.740   2.425 -0.8510  0.3723  0.3903
 1964SOL    HW117351   4.074   3.737   2.389 -0.9109 -0.3625  0.2954
 1964SOL    HW217352   3.941   3.659   2.400  0.8656 -0.5980  0.4862
 1965SOL     OW17353   0.771   3.865   8.421 -0.1651  0.1138 -0.0560
 1965SOL    HW117354   0.770   3.837   8.512  1.3000 -2.9696 -0.9620
 1965SOL    HW217355   0.765   3.959   8.435 -2.1198 -0.0644  0.3380
 1966SOL     OW17356   4.458   4.451   6.244 -0.3282 -0.0016  0.1605
 1966SOL    HW117357   4.549   4.426   6.256 -0.3260 -0.3005 -0.4727
 1966SOL    HW217358   4.416   4.380   6.195 -0.8237  1.4037 -1.4729
 1967SOL     OW17359   2.032   0.482  15.701  0.3510 -0.0247 -0.4971
 1967SOL    HW117360   2.063   0.491  15.791  2.0155 -0.3088 -1.0277
 1967SOL    HW217361   2.110   0.495  15.646  0.2081  3.7946  0.2184
 1968SOL     OW17362   2.189   3.927   3.906  0.1203 -0.6452  0.4641
 1968SOL    HW117363   2.136   3.936   3.985  0.0578 -1.2002  0.4861
 1968SOL    HW217364   2.134   3.866   3.856  0.8288 -1.6252  0.8862
 1969SOL     OW17365   2.198   4.234  12.612 -0.2581  0.0902 -0.4869
 1969SOL    HW117366   2.274   4.292  12.603  0.3823 -0.6397  0.1354
 1969SOL    HW217367   2.241   4.156  12.647  1.7396  1.8263  0.9025
 1970SOL     OW17368   4.150   3.926   3.905 -0.1265  0.4168 -0.2041
 1970SOL    HW117369   4.160   4.020   3.889 -2.5953  0.4794 -1.3618
 1970SOL    HW217370   4.239   3.894   3.914 -0.5860 -0.5380  1.0785
 1971SOL     OW17371   4.547   0.916   3.370  0.0411 -0.0992  0.3473
 1971SOL    HW117372   4.613   0.902   3.438  0.4140 -2.5782 -0.5644
 1971SOL    HW217373   4.469   0.937   3.422  0.1240  0.6464  0.1788
 1972SOL     OW17374   1.617   3.434  15.970 -0.2243  0.2564  0.0242
 1972SOL    HW117375   1.535   3.413  15.924 -0.5647  0.0966  0.7039
 1972SOL    HW217376   1.599   3.520  16.008  0.2374 -0.4295  1.7780
 1973SOL     OW17377   0.939   3.220   9.999 -0.4772 -0.0077 -0.3099
 1973SOL    HW117378   0.893   3.216   9.915  1.1359 -0.0784 -1.1708
 1973SOL    HW217379   1.027   3.240   9.970 -1.0846 -1.8920 -3.4423
 1974SOL     OW17380   1.568   3.736  12.738 -0.0506  0.1674 -0.4181
 1974SOL    HW117381   1.590   3.658  12.789 -1.4320 -0.7302 -1.2073
 1974SOL    HW217382   1.545   3.802  12.803 -0.4769  0.3831 -0.7908
 1975SOL     OW17383   1.943   0.134  13.223  0.0294  0.1170 -0.6474
 1975SOL    HW117384   1.948   0.229  13.226  2.1060 -0.0314  0.4502
 1975SOL    HW217385   1.848   0.122  13.228  0.3035 -1.2736  1.1240
 1976SOL     OW17386   3.437   2.743   6.834 -0.2529  0.0059  0.0042
 1976SOL    HW117387   3.372   2.734   6.765 -1.5908 -0.1188  1.2853
 1976SOL    HW217388   3.460   2.650   6.834 -0.0633  0.0498  1.1946
 1977SOL     OW17389   2.754   0.482   7.629  0.2104 -0.1317 -0.0123
 1977SOL    HW117390   2.691   0.553   7.616 -0.0526 -0.4857 -0.6798
 1977SOL    HW217391   2.719   0.449   7.712  3.1257 -0.6969  0.9908
 1978SOL     OW17392   2.900   3.036   8.304  0.3625 -0.3211 -0.2618
 1978SOL    HW117393   2.909   3.130   8.324  0.4327 -0.7162  1.4802
 1978SOL    HW217394   2.975   3.025   8.245  1.9199 -0.2080  1.6839
 1979SOL     OW17395   2.229   1.918  13.309 -0.5544  0.0218 -0.1764
 1979SOL    HW117396   2.191   2.005  13.317 -1.5575 -0.4672  0.2784
 1979SOL    HW217397   2.281   1.933  13.230 -2.8009  1.0192 -1.4676
 1980SOL     OW17398   0.874   1.785   9.634 -0.4643  0.4801  0.4527
 1980SOL    HW117399   0.945   1.834   9.676  1.1771  0.4161 -2.2306
 1980SOL    HW217400   0.805   1.808   9.696  1.5687  1.3245  2.3957
 1981SOL     OW17401   1.331   1.335  13.547  0.0051 -0.3301  0.0169
 1981SOL    HW117402   1.324   1.375  13.633  1.0329 -0.9323  0.3756
 1981SOL    HW217403   1.361   1.411  13.497 -0.1955 -0.2229  0.0603
 1982SOL     OW17404   3.227   0.580   3.027  0.2645 -0.0863  0.2370
 1982SOL    HW117405   3.282   0.532   3.090  0.7927 -0.4033 -0.4630
 1982SOL    HW217406   3.271   0.544   2.950 -1.8422 -1.1346 -0.4730
 1983SOL     OW17407   0.132   0.289   7.235  0.5065  0.2208 -0.0977
 1983SOL    HW117408   0.185   0.350   7.287 -2.1499  0.3064  2.5054
 1983SOL    HW217409   0.049   0.331   7.213 -1.1268 -1.0912  3.5689
 1984SOL     OW17410   3.074   1.359  12.932 -0.2292  0.1108 -0.2853
 1984SOL    HW117411   3.163   1.395  12.925  0.1013 -0.3937  1.2387
 1984SOL    HW217412   3.088   1.309  13.012  0.6809  1.6880  0.5455
 1985SOL     OW17413   2.071   1.004  10.487 -0.3537  0.1753 -0.0260
 1985SOL    HW117414   2.009   0.990  10.416  0.8300  0.2728 -1.0889
 1985SOL    HW217415   2.155   0.984  10.445 -0.3771  1.1703 -0.5555
 1986SOL     OW17416   0.177   3.177   8.456  0.6314 -0.2175  0.3780
 1986SOL    HW117417   0.187   3.113   8.386  1.4684 -1.6773  1.8158
 1986SOL    HW217418   0.226   3.142   8.531 -1.4152 -2.6242  0.5878
 1987SOL     OW17419   2.308   0.032   5.617 -1.1178  0.3747  0.3739
 1987SOL    HW117420   2.394   0.006   5.649 -0.3085  1.6211 -0.8049
 1987SOL    HW217421   2.322   0.116   5.575 -1.5228  0.1778 -0.1573
 1988SOL     OW17422   0.165   1.599   7.927 -0.0618 -0.7180 -0.0468
 1988SOL    HW117423   0.133   1.516   7.892 -1.4285 -0.6252  0.9754
 1988SOL    HW217424   0.093   1.659   7.908  1.4548  0.6220 -1.5515
 1989SOL     OW17425   1.196   4.488   4.985 -0.0890  0.3526  0.4572
 1989SOL    HW117426   1.115   4.535   4.962  0.5599  1.1631 -0.1491
 1989SOL    HW217427   1.197   4.424   4.913  0.1909 -1.0367  1.7105
 1990SOL     OW17428   3.866   1.180   2.830 -0.1074 -0.2217  0.1264
 1990SOL    HW117429   3.870   1.112   2.764  1.3126 -1.9215  1.9647
 1990SOL    HW217430   3.821   1.249   2.782 -0.4396 -0.6512 -0.1800
 1991SOL     OW17431   3.666   1.596  17.538  0.0394  0.4434 -0.5877
 1991SOL    HW117432   3.729   1.526  17.523  1.6752  1.5634  1.1264
 1991SOL    HW217433   3.588   1.548  17.568  1.2540 -2.5314 -2.1429
 1992SOL     OW17434   3.099   3.256   6.779  0.2824  0.0469  0.2308
 1992SOL    HW117435   3.192   3.251   6.803 -0.0481 -0.3646  1.4527
 1992SOL    HW217436   3.059   3.250   6.866  2.9756  0.6889  1.5225
 1993SOL     OW17437   0.248   2.015   5.510  0.6665 -0.1180 -0.3188
 1993SOL    HW117438   0.194   1.975   5.443 -0.5462  1.6097 -0.3774
 1993SOL    HW217439   0.334   2.017   5.467  0.9975  0.2148  0.3466
 1994SOL     OW17440   2.358   0.774  15.966 -0.3994 -0.3042 -0.2949
 1994SOL    HW117441   2.337   0.847  15.907  2.8378  0.3644 -0.6535
 1994SOL    HW217442   2.290   0.792  16.031  0.7104 -3.3598  1.6852
 1995SOL     OW17443   0.897   0.964   1.102 -0.3672 -0.0117  0.1419
 1995SOL    HW117444   0.922   0.903   1.033 -0.8756 -0.7027  0.5587
 1995SOL    HW217445   0.806   0.941   1.123  0.1157 -0.8454  1.3120
 1996SOL     OW17446   3.233   3.304   6.346 -0.1823 -0.0554 -0.3856
 1996SOL    HW117447   3.313   3.259   6.320 -0.7053 -1.3436  0.2313
 1996SOL    HW217448   3.187   3.239   6.399 -0.5703 -1.2467 -2.1558
 1997SOL     OW17449   3.318   4.086   5.165  0.2398 -0.0240 -0.8255
 1997SOL    HW117450   3.322   4.053   5.075 -3.5273 -1.6687 -0.3839
 1997SOL    HW217451   3.408   4.116   5.170  0.1412  0.4317 -1.7721
 1998SOL     OW17452   0.158   3.432   3.867  0.5880 -0.4562 -0.1284
 1998SOL    HW117453   0.111   3.453   3.948 -0.2317  0.4525 -0.8502
 1998SOL    HW217454   0.195   3.516   3.839  0.5113 -0.6734 -0.8868
 1999SOL     OW17455   4.043   1.878   9.942 -0.1986  0.5777 -0.2304
 1999SOL    HW117456   4.057   1.929   9.862  1.2546 -1.5869 -1.3570
 1999SOL    HW217457   4.131   1.860   9.976 -0.3397  0.3706  0.0269
 2000SOL     OW17458   0.118   0.840   5.805  0.1219  0.0827  0.3022
 2000SOL    HW117459   0.150   0.843   5.895  0.3114  3.3953  0.1250
 2000SOL    HW217460   0.080   0.928   5.795  1.0853  0.3855 -0.6541
 2001SOL     OW17461   1.117   3.142   3.571  0.3404  0.0907 -0.1984
 2001SOL    HW117462   1.032   3.155   3.530 -0.2635  0.5218  1.1932
 2001SOL    HW217463   1.089   3.064   3.618  2.6140  0.4053  1.6978
 2002SOL     OW17464   1.912   1.418  11.502  0.3391  0.0983 -0.0450
 2002SOL    HW117465   1.894   1.342  11.557  0.1937  0.4075  0.3277
 2002SOL    HW217466   1.933   1.372  11.421 -0.4195 -2.3861  1.1828
 2003SOL     OW17467   3.932   3.091   7.130 -0.2419  0.1513 -0.5403
 2003SOL    HW117468   3.955   3.018   7.188 -0.2821  0.5334 -0.0388
 2003SOL    HW217469   4.011   3.080   7.078  0.0939 -2.6574  0.5506
 2004SOL     OW17470   1.400   2.572   2.382  0.2068  0.5786  0.0212
 2004SOL    HW117471   1.493   2.596   2.387  0.2047  0.2761  1.6074
 2004SOL    HW217472   1.416   2.485   2.419 -2.6994 -0.0518 -0.2592
 2005SOL     OW17473   2.961   1.416  11.313  0.3954  0.4694  0.1431
 2005SOL    HW117474   2.920   1.443  11.231  1.0825 -2.0398 -1.0193
 2005SOL    HW217475   2.894   1.429  11.380 -0.1115  1.7276 -0.6091
 2006SOL     OW17476   0.511   2.435   6.555 -0.5278 -0.6470  0.6481
 2006SOL    HW117477   0.593   2.480   6.533 -1.0497 -0.7017 -1.4059
 2006SOL    HW217478   0.449   2.478   6.496 -0.3157 -1.2787 -0.0379
 2007SOL     OW17479   3.568   0.740  11.634  0.0846  0.1797 -0.0351
 2007SOL    HW117480   3.622   0.813  11.605  0.3716 -1.2420 -3.1066
 2007SOL    HW217481   3.636   0.674  11.649 -0.6892 -0.3834  1.0034
 2008SOL     OW17482   2.867   3.463   2.131 -0.1765 -0.0893  0.5995
 2008SOL    HW117483   2.911   3.548   2.133  1.2255 -0.7863 -0.7090
 2008SOL    HW217484   2.933   3.395   2.117 -2.4347 -2.3173  0.7200
 2009SOL     OW17485   1.760   0.930   8.358 -0.2303  0.0871  0.1851
 2009SOL    HW117486   1.718   0.845   8.368  1.1165 -0.9583 -3.1626
 2009SOL    HW217487   1.817   0.911   8.284  1.2488  0.8082  1.1384
 2010SOL     OW17488   0.779   0.033  14.737 -0.0408  0.1919  0.2269
 2010SOL    HW117489   0.813   4.712  14.658 -1.7150  0.8169 -0.8367
 2010SOL    HW217490   0.848   0.098  14.751  0.2999  0.0699 -0.8433
 2011SOL     OW17491   4.232   3.570   5.827 -0.4854 -0.3144  0.3749
 2011SOL    HW117492   4.261   3.585   5.738  2.6617  1.0223  1.6268
 2011SOL    HW217493   4.137   3.565   5.817 -0.2097 -1.2214 -1.6048
 2012SOL     OW17494   0.372   2.572   7.512  0.5044 -0.0491 -0.5217
 2012SOL    HW117495   0.458   2.532   7.527  0.8568  0.6900 -0.6021
 2012SOL    HW217496   0.326   2.520   7.578  2.0123  2.5691  2.5640
 2013SOL     OW17497   3.069   0.810   2.402 -0.3007  0.5371  0.5679
 2013SOL    HW117498   3.151   0.804   2.353 -0.8934 -0.1688 -0.3422
 2013SOL    HW217499   3.059   0.904   2.413  2.0527  0.7825  0.5233
 2014SOL     OW17500   0.980   3.369   6.614  0.3089 -0.3228 -0.5509
 2014SOL    HW117501   0.992   3.459   6.584  0.6377  0.0383  0.6444
 2014SOL    HW217502   1.010   3.371   6.705 -0.2005  1.1092 -0.4017
 2015SOL     OW17503   4.511   1.061  15.166 -0.4983 -0.1193  0.4995
 2015SOL    HW117504   4.450   0.989  15.149 -0.5700  0.1671 -0.4346
 2015SOL    HW217505   4.554   1.071  15.081  0.3759 -1.2013  0.8083
 2016SOL     OW17506   3.555   2.256   0.193 -0.3425  0.4557 -0.1020
 2016SOL    HW117507   3.597   2.278   0.276 -0.0792  2.8555 -0.8862
 2016SOL    HW217508   3.587   2.167   0.181  0.8240  0.7527  0.8313
 2017SOL     OW17509   4.526   4.437   4.362 -0.5298 -0.0591  0.2391
 2017SOL    HW117510   4.515   4.532   4.365 -2.8535 -0.3471  0.5560
 2017SOL    HW217511   4.506   4.405   4.450  0.1631 -0.7612  0.1441
 2018SOL     OW17512   2.515   2.000  12.498 -0.4770 -0.8703  0.2135
 2018SOL    HW117513   2.611   2.001  12.497 -0.4889 -1.3754 -1.7501
 2018SOL    HW217514   2.493   2.085  12.535  1.1880  0.7019 -2.3996
 2019SOL     OW17515   3.839   2.056   7.065 -0.3809 -0.1736 -0.4612
 2019SOL    HW117516   3.746   2.050   7.043 -0.5125  0.2052  0.0060
 2019SOL    HW217517   3.876   1.980   7.020 -0.2434  0.2632 -1.0965
 2020SOL     OW17518   1.016   0.272   4.175 -0.0334  0.2532 -0.4353
 2020SOL    HW117519   1.033   0.198   4.117 -0.6678  0.8225 -1.3537
 2020SOL    HW217520   1.083   0.255   4.241 -1.0506 -0.6659  0.3483
 2021SOL     OW17521   3.518   4.568   4.101  0.5074  0.0136 -0.0067
 2021SOL    HW117522   3.597   4.618   4.083  0.0323 -0.0038 -2.2078
 2021SOL    HW217523   3.508   4.580   4.195 -1.0241 -0.1559 -0.1531
 2022SOL     OW17524   0.019   4.714   2.656 -0.0759 -0.4837 -0.1447
 2022SOL    HW117525   4.710   4.636   2.704  0.8961 -1.0711 -0.5051
 2022SOL    HW217526   0.054   0.047   2.728 -2.6842 -2.2474  2.4529
 2023SOL     OW17527   4.220   1.446   6.391  0.3295  0.2993 -0.0403
 2023SOL    HW117528   4.143   1.502   6.396  0.6359  0.7765 -0.6054
 2023SOL    HW217529   4.273   1.490   6.457 -0.0413 -1.5580  1.5084
 2024SOL     OW17530   2.778   0.765   3.627 -0.5407  0.7835  0.1196
 2024SOL    HW117531   2.810   0.675   3.617  1.0987  1.4036 -0.2690
 2024SOL    HW217532   2.704   0.753   3.687  0.6320 -2.0681  0.9930
 2025SOL     OW17533   0.911   2.729  14.686  0.0908 -0.5722 -0.0340
 2025SOL    HW117534   0.875   2.780  14.613 -1.6124 -1.4159  0.2336
 2025SOL    HW217535   0.849   2.657  14.682 -0.3346 -0.1789 -0.6345
 2026SOL     OW17536   2.786   4.364   8.535 -0.1700 -0.7313  0.3049
 2026SOL    HW117537   2.711   4.422   8.546 -1.0935 -2.2735  1.9590
 2026SOL    HW217538   2.808   4.352   8.627  0.8719 -0.5518  0.0886
 2027SOL     OW17539   2.359   3.809  10.232 -0.6886 -0.3850 -0.6005
 2027SOL    HW117540   2.361   3.735  10.170  3.4113 -1.7781  1.2010
 2027SOL    HW217541   2.418   3.778  10.301  1.2340  2.4256 -0.9871
 2028SOL     OW17542   2.563   1.501   9.034 -0.9653 -0.1883  0.1751
 2028SOL    HW117543   2.579   1.496   8.940 -0.0141  1.3034  0.2554
 2028SOL    HW217544   2.643   1.463   9.068 -0.6843  0.1442 -0.1167
 2029SOL     OW17545   4.425   2.730   1.022  0.1360  0.1419 -0.2606
 2029SOL    HW117546   4.452   2.793   1.089  1.5055  0.1153 -0.7697
 2029SOL    HW217547   4.330   2.733   1.011 -0.0435  0.9901  1.4595
 2030SOL     OW17548   0.909   1.727   7.858  0.0131  0.5588 -0.3227
 2030SOL    HW117549   0.957   1.810   7.853  2.9185 -1.1675 -0.7893
 2030SOL    HW217550   0.864   1.746   7.940  0.9677  3.1468 -0.3946
 2031SOL     OW17551   1.000   0.880   9.159  0.3738 -0.3358  0.1669
 2031SOL    HW117552   1.064   0.902   9.226  0.1473  0.3832  0.1490
 2031SOL    HW217553   0.947   0.959   9.173  0.3932 -0.1446 -0.8650
 2032SOL     OW17554   3.196   2.777  11.881 -0.0457  0.3917 -0.3146
 2032SOL    HW117555   3.152   2.862  11.888 -0.4846 -0.1123  2.9223
 2032SOL    HW217556   3.267   2.791  11.818  0.0059 -0.2593 -0.3970
 2033SOL     OW17557   3.019   1.990   3.272 -0.3244 -0.5788 -0.4216
 2033SOL    HW117558   3.003   2.062   3.211  0.6258 -1.3930 -1.6289
 2033SOL    HW217559   3.063   1.929   3.213  0.2086  0.6030 -1.2374
 2034SOL     OW17560   2.319   3.034  11.648 -0.0266  0.1350 -0.5618
 2034SOL    HW117561   2.349   3.033  11.739  0.2416  0.4407 -0.6469
 2034SOL    HW217562   2.285   3.123  11.638 -0.3692  0.2001  1.1506
 2035SOL     OW17563   0.888   3.133   1.134  0.2954 -0.3352 -0.2177
 2035SOL    HW117564   0.886   3.046   1.173 -1.4171  0.7727  2.1592
 2035SOL    HW217565   0.977   3.168   1.141 -0.1973  0.7277  0.7686
 2036SOL     OW17566   3.691   0.521   0.043 -0.7831  0.1583 -0.2166
 2036SOL    HW117567   3.639   0.441   0.049 -2.8536  1.0373 -6.5255
 2036SOL    HW217568   3.652   0.560   0.121  1.5882  2.1254  0.0020
 2037SOL     OW17569   1.381   2.884  15.452 -0.0366 -0.4692  0.1496
 2037SOL    HW117570   1.298   2.930  15.442  0.4328  0.7608  1.8613
 2037SOL    HW217571   1.354   2.794  15.434 -0.8524 -0.5558  1.8868
 2038SOL     OW17572   3.971   0.134   7.669  0.5852 -0.0558 -0.1393
 2038SOL    HW117573   3.893   0.079   7.660  0.4964  0.0824 -0.2406
 2038SOL    HW217574   4.030   0.075   7.714  0.5644 -0.7823 -1.0693
 2039SOL     OW17575   4.280   4.177   4.823 -0.2507 -0.1014  0.6548
 2039SOL    HW117576   4.278   4.272   4.813  0.3457  0.0079  1.6320
 2039SOL    HW217577   4.188   4.157   4.808 -0.1848 -0.8890  1.3271
 2040SOL     OW17578   3.031   0.988   8.210  0.3308 -0.2579  0.4091
 2040SOL    HW117579   2.965   0.999   8.278 -0.0994 -0.7384  0.0708
 2040SOL    HW217580   3.011   0.921   8.145 -1.3444  0.5228  0.1148
 2041SOL     OW17581   1.053   0.035   8.308 -0.4297  0.6180 -0.2904
 2041SOL    HW117582   1.079   0.111   8.360  0.4495 -0.8054  1.3476
 2041SOL    HW217583   1.000   4.704   8.368  2.2501 -0.5915  1.0697
 2042SOL     OW17584   1.969   1.285   7.441  0.3487  0.0859 -0.0698
 2042SOL    HW117585   2.010   1.319   7.362  0.4323 -0.2655 -0.1755
 2042SOL    HW217586   2.039   1.230   7.476  0.6451  0.2344 -0.4355
 2043SOL     OW17587   3.448   1.907   8.974 -0.6018  0.7570 -0.2725
 2043SOL    HW117588   3.357   1.878   8.987  0.0019 -1.1523 -0.2921
 2043SOL    HW217589   3.432   2.000   8.986  0.6877  1.2026 -2.0260
 2044SOL     OW17590   1.721   2.047   1.794  0.2444  0.1125 -0.2489
 2044SOL    HW117591   1.665   2.019   1.721  0.2283 -0.2722 -0.0919
 2044SOL    HW217592   1.787   1.978   1.801  0.5304  0.0560 -3.4183
 2045SOL     OW17593   0.638   3.491   4.886  0.1385  0.2091 -1.1357
 2045SOL    HW117594   0.715   3.435   4.895 -0.6050 -0.4867  0.7817
 2045SOL    HW217595   0.666   3.573   4.927  0.0870 -0.0531 -0.5813
 2046SOL     OW17596   2.363   4.387   7.807 -0.4769  0.6231  0.1199
 2046SOL    HW117597   2.326   4.299   7.801 -4.8387  2.3507  1.1310
 2046SOL    HW217598   2.364   4.398   7.712  1.9220 -0.7981 -0.0264
 2047SOL     OW17599   0.383   4.702   4.385 -0.3708  0.1469 -0.8769
 2047SOL    HW117600   0.356   4.685   4.294  2.3044  1.4679 -1.9243
 2047SOL    HW217601   0.427   4.624   4.417 -2.8748 -1.3120 -0.9533
 2048SOL     OW17602   0.701   1.688  16.347 -0.0969 -0.7314 -0.5345
 2048SOL    HW117603   0.702   1.748  16.421 -2.6721 -1.9773  0.5079
 2048SOL    HW217604   0.637   1.622  16.375 -0.7839 -0.0962 -0.6346
 2049SOL     OW17605   2.597   3.384  17.035 -0.1145  0.2042 -0.3654
 2049SOL    HW117606   2.679   3.336  17.029 -0.2037 -0.1043  1.0762
 2049SOL    HW217607   2.608   3.456  16.972 -1.5963  1.1185  0.4056
 2050SOL     OW17608   0.595   3.471   5.999 -0.0515  0.3854  0.5816
 2050SOL    HW117609   0.628   3.398   5.947 -0.1149  1.6051 -1.1708
 2050SOL    HW217610   0.548   3.525   5.936 -1.0753 -0.1122  0.9162
 2051SOL     OW17611   0.896   4.407   7.352 -0.3860 -0.1595 -0.3928
 2051SOL    HW117612   0.886   4.351   7.429  0.8574  0.9300  0.5722
 2051SOL    HW217613   0.832   4.374   7.289 -1.5141  0.0072  0.6741
 2052SOL     OW17614   4.262   0.783   7.430  0.4522  0.0198 -0.7865
 2052SOL    HW117615   4.338   0.725   7.437  1.3307  1.0793 -1.4699
 2052SOL    HW217616   4.218   0.750   7.508  0.2022  1.4068 -0.3459
 2053SOL     OW17617   3.403   3.341  11.459  0.0918  0.3704 -0.4425
 2053SOL    HW117618   3.427   3.324  11.369  0.1000 -1.6262 -0.0706
 2053SOL    HW217619   3.361   3.259  11.486  1.5516 -0.4788 -0.8065
 2054SOL     OW17620   1.422   0.808   8.077 -0.0647  0.3681 -0.0271
 2054SOL    HW117621   1.496   0.766   8.033 -0.6256 -1.6843  1.0406
 2054SOL    HW217622   1.450   0.899   8.090 -2.1010  0.9529  0.1406
 2055SOL     OW17623   1.471   1.387   1.628 -0.2174 -0.0751  0.1406
 2055SOL    HW117624   1.527   1.464   1.641 -1.1895  1.0101 -2.0763
 2055SOL    HW217625   1.436   1.376   1.716 -2.1841 -1.0768 -0.7766
 2056SOL     OW17626   4.513   3.700  10.886  0.1882  0.4770 -0.0410
 2056SOL    HW117627   4.452   3.627  10.878  1.1626 -0.5212  1.7529
 2056SOL    HW217628   4.488   3.773  10.829  1.7838  0.4091 -0.8216
 2057SOL     OW17629   4.668   2.636  14.672 -0.1887 -0.7959  0.4461
 2057SOL    HW117630   0.038   2.619  14.700  1.8927  3.5891 -3.5435
 2057SOL    HW217631   4.667   2.584  14.592 -0.2317 -0.1863  0.0480
 2058SOL     OW17632   1.201   4.452   6.208  0.3836  0.2218  0.2327
 2058SOL    HW117633   1.266   4.448   6.279  0.4259  0.8079  0.2201
 2058SOL    HW217634   1.133   4.507   6.247 -0.1674 -0.4289  0.1883
 2059SOL     OW17635   4.362   0.624   7.933 -0.2349  0.2597  0.2148
 2059SOL    HW117636   4.442   0.581   7.964  1.3750 -0.2331 -4.6230
 2059SOL    HW217637   4.343   0.672   8.014  0.3679 -0.5917  0.8615
 2060SOL     OW17638   0.885   3.561   1.177  0.1837  0.1238 -0.1210
 2060SOL    HW117639   0.819   3.630   1.172 -0.0249 -0.3109 -3.7002
 2060SOL    HW217640   0.895   3.535   1.085  3.2294  2.4083 -0.4294
 2061SOL     OW17641   1.122   4.624   5.965  0.1337  0.4422 -0.2018
 2061SOL    HW117642   1.137   4.552   6.026  2.9998  0.0810 -1.3363
 2061SOL    HW217643   1.051   4.662   6.017  0.5962  3.5465 -1.8205
 2062SOL     OW17644   1.175   0.703   7.444 -0.2631  0.1098  0.1888
 2062SOL    HW117645   1.231   0.666   7.512  0.8224 -2.6573 -2.1919
 2062SOL    HW217646   1.109   0.633   7.450  0.0817 -0.2523 -0.2391
 2063SOL     OW17647   3.377   1.735   1.597  0.0948  0.2169 -0.0892
 2063SOL    HW117648   3.370   1.673   1.669 -0.1500 -0.9401 -1.1123
 2063SOL    HW217649   3.312   1.701   1.536  0.5819  0.8253 -0.9549
 2064SOL     OW17650   2.323   1.490   0.655 -0.2131  0.6497 -0.4556
 2064SOL    HW117651   2.364   1.461   0.573  0.1568  0.5922 -0.2523
 2064SOL    HW217652   2.388   1.481   0.724 -1.6924 -2.0789  0.5875
 2065SOL     OW17653   2.069   0.828  10.718  0.6556 -0.0728  0.2769
 2065SOL    HW117654   2.142   0.768  10.700 -0.9208 -1.5578 -1.1246
 2065SOL    HW217655   2.082   0.883  10.641  2.8455 -0.5431  0.2880
 2066SOL     OW17656   3.352   4.420   5.932  0.4159 -0.1557  0.0852
 2066SOL    HW117657   3.273   4.377   5.898 -0.2205 -1.2551  2.9112
 2066SOL    HW217658   3.321   4.509   5.948  2.7639  0.7446 -0.3225
 2067SOL     OW17659   1.182   4.490   5.256 -0.4593  0.4428  0.3592
 2067SOL    HW117660   1.215   4.515   5.170 -1.2514  1.4471  0.3490
 2067SOL    HW217661   1.195   4.395   5.253 -1.4502  0.2229  2.8737
 2068SOL     OW17662   3.981   2.742   6.808  0.9793  0.1750 -0.2902
 2068SOL    HW117663   4.052   2.770   6.750 -2.5086  0.3557 -4.4767
 2068SOL    HW217664   4.027   2.677   6.861 -0.2637  2.4014  3.4634
 2069SOL     OW17665   3.723   4.096  17.000  1.0838  0.6522  0.6262
 2069SOL    HW117666   3.706   4.018  16.946  0.5311  1.1462  0.0981
 2069SOL    HW217667   3.804   4.070  17.044 -0.6198  0.3717  3.5851
 2070SOL     OW17668   3.051   1.869   8.763 -0.3285 -0.6419 -0.4104
 2070SOL    HW117669   3.018   1.845   8.676  0.3616 -1.6244 -0.4044
 2070SOL    HW217670   3.047   1.789   8.815 -0.6691  1.5274  2.8982
 2071SOL     OW17671   0.653   3.647   6.301  0.4079  0.0438 -0.0522
 2071SOL    HW117672   0.607   3.673   6.221  1.6218 -2.3048 -1.4937
 2071SOL    HW217673   0.573   3.617   6.343  0.0143 -0.7827 -1.4002
 2072SOL     OW17674   3.442   0.992   7.838 -1.0277  0.0486 -0.7858
 2072SOL    HW117675   3.377   0.972   7.770 -1.5836 -2.4616  0.4919
 2072SOL    HW217676   3.431   0.922   7.902 -0.4342  0.1094 -0.6226
 2073SOL     OW17677   4.217   0.216  12.980 -0.0499 -0.4290  0.1866
 2073SOL    HW117678   4.308   0.241  12.995 -0.3366  0.3332  0.6643
 2073SOL    HW217679   4.186   0.306  12.971 -0.7578 -0.7754 -0.8071
 2074SOL     OW17680   1.259   4.279   3.611  0.2764 -0.5395  0.0990
 2074SOL    HW117681   1.234   4.358   3.659 -0.3826 -0.1380 -0.9023
 2074SOL    HW217682   1.319   4.316   3.546 -0.6154  0.9089  0.0970
 2075SOL     OW17683   0.376   0.934   1.201 -0.0478 -0.2583  0.4853
 2075SOL    HW117684   0.288   0.944   1.237 -0.7663 -2.2097 -0.7452
 2075SOL    HW217685   0.352   0.974   1.118 -1.7680  1.1383  1.6673
 2076SOL     OW17686   1.870   4.192   1.612  0.2216  0.0836 -0.0239
 2076SOL    HW117687   1.918   4.259   1.563 -0.5693  0.6363 -0.0348
 2076SOL    HW217688   1.938   4.138   1.652  0.2359  1.9037  2.4769
 2077SOL     OW17689   0.152   2.561   7.016  0.3340  0.0346  0.4923
 2077SOL    HW117690   0.246   2.579   7.007  0.4458  0.3125  2.1610
 2077SOL    HW217691   0.160   2.488   7.078  1.0658  0.6150  1.0903
 2078SOL     OW17692   0.969   4.439  10.042  0.1320  0.0207 -0.1010
 2078SOL    HW117693   1.063   4.437  10.021  0.0830  0.4178 -0.3492
 2078SOL    HW217694   0.920   4.441   9.960 -0.9893 -1.1655  0.5513
 2079SOL     OW17695   0.686   3.283   5.799 -0.3960 -0.4197 -0.1284
 2079SOL    HW117696   0.778   3.266   5.778 -0.2137  0.5660 -0.1006
 2079SOL    HW217697   0.652   3.328   5.722  4.0691  0.8348 -1.3137
 2080SOL     OW17698   3.628   4.256   7.566 -0.1211 -0.1059  0.5931
 2080SOL    HW117699   3.537   4.254   7.538  0.6032  1.9381 -1.8657
 2080SOL    HW217700   3.623   4.265   7.661  2.3332  2.3675  0.4874
 2081SOL     OW17701   2.188   0.165   5.970 -0.3136 -0.2038  0.2709
 2081SOL    HW117702   2.266   0.169   5.914  0.4105 -0.6009  1.2366
 2081SOL    HW217703   2.123   0.127   5.912  0.6499 -1.2289 -0.1313
 2082SOL     OW17704   0.124   2.080   1.697 -0.5803 -0.3119  0.3466
 2082SOL    HW117705   0.193   2.066   1.761 -0.0381 -1.0093 -0.3918
 2082SOL    HW217706   0.169   2.134   1.631 -2.8646  1.0650 -0.0871
 2083SOL     OW17707   1.183   3.632   6.832  0.0436  0.0151  0.7025
 2083SOL    HW117708   1.146   3.715   6.801 -2.4078 -1.7659 -1.1258
 2083SOL    HW217709   1.269   3.655   6.867 -0.0685  1.3402  0.1140
 2084SOL     OW17710   2.548   2.028   7.414 -0.1147 -0.2005  0.2813
 2084SOL    HW117711   2.467   2.078   7.424  0.5678  1.0700 -0.5776
 2084SOL    HW217712   2.546   1.983   7.498  2.0066  0.9552  0.9336
 2085SOL     OW17713   3.890   4.153   1.526  0.2318  0.0626 -0.9401
 2085SOL    HW117714   3.803   4.167   1.565  1.4100  0.1794  1.6550
 2085SOL    HW217715   3.896   4.205   1.446  1.3301  0.3373 -0.6793
 2086SOL     OW17716   2.708   3.223   7.442 -0.2744  0.2828  0.1872
 2086SOL    HW117717   2.696   3.218   7.347  0.7590  0.0173  0.0764
 2086SOL    HW217718   2.644   3.293   7.452  1.1116  1.7985 -1.5382
 2087SOL     OW17719   3.959   3.977  10.432 -0.4568 -0.0636 -0.0949
 2087SOL    HW117720   3.896   3.906  10.447  1.4146 -1.6596  0.2502
 2087SOL    HW217721   3.925   4.023  10.355  1.2057 -1.6825 -1.8091
 2088SOL     OW17722   2.244   2.969   9.601 -0.3154  0.2590  0.4418
 2088SOL    HW117723   2.315   2.910   9.577  0.4066  1.2851  0.0515
 2088SOL    HW217724   2.275   3.052   9.564  1.4882 -1.0384 -0.9417
 2089SOL     OW17725   0.723   3.945   2.821  0.1502 -0.1401  0.0971
 2089SOL    HW117726   0.716   3.941   2.916 -2.5277  1.7058 -0.0214
 2089SOL    HW217727   0.645   3.991   2.789  0.2647 -0.9676 -1.3889
 2090SOL     OW17728   0.790   4.694  11.011  0.2688 -0.3896 -0.1233
 2090SOL    HW117729   0.740   0.017  10.942  1.5040  0.5526 -0.4259
 2090SOL    HW217730   0.721   4.688  11.078  0.6634 -0.7532  0.2488
 2091SOL     OW17731   1.867   2.301   4.581 -0.3176  0.2105  0.1889
 2091SOL    HW117732   1.890   2.217   4.622 -0.4081  0.3150  0.4516
 2091SOL    HW217733   1.957   2.315   4.550 -0.3852 -0.8255 -0.4981
 2092SOL     OW17734   2.923   2.295   9.405 -0.1467 -0.5415  0.6154
 2092SOL    HW117735   2.986   2.354   9.446 -0.0768 -1.1967  1.4414
 2092SOL    HW217736   2.896   2.252   9.486 -1.7395  0.7440  0.7650
 2093SOL     OW17737   1.199   1.482   8.561  0.6656  0.3742  0.2862
 2093SOL    HW117738   1.239   1.520   8.482 -1.2297 -1.0783 -1.3825
 2093SOL    HW217739   1.227   1.391   8.571  1.6614  0.8502  1.6449
 2094SOL     OW17740   3.568   0.087   1.512 -0.1122  0.4134  0.0653
 2094SOL    HW117741   3.476   0.076   1.538 -0.4502  1.9676 -0.4557
 2094SOL    HW217742   3.578   0.181   1.502  1.5121  0.3559  1.1253
 2095SOL     OW17743   3.597   2.149   6.574 -0.0387  0.4734  0.0362
 2095SOL    HW117744   3.690   2.128   6.585 -0.5008 -1.1743  0.6932
 2095SOL    HW217745   3.579   2.180   6.662  0.7508  3.2165 -0.7631
 2096SOL     OW17746   2.851   3.517   3.491 -0.0711  0.0502  0.4817
 2096SOL    HW117747   2.782   3.531   3.427 -0.1693 -2.4837  0.0106
 2096SOL    HW217748   2.908   3.584   3.454  1.4378 -0.1770  2.3985
 2097SOL     OW17749   0.573   0.481  14.787 -0.0059  0.0408  0.6933
 2097SOL    HW117750   0.649   0.528  14.822  0.0341 -0.3149  1.0983
 2097SOL    HW217751   0.506   0.536  14.826 -1.2512  0.4703 -2.0758
 2098SOL     OW17752   0.347   2.901   5.180  0.3826 -0.1656  0.2978
 2098SOL    HW117753   0.301   2.821   5.157 -2.6028  1.4023  0.7120
 2098SOL    HW217754   0.336   2.954   5.101 -2.6658 -0.5315  0.4901
 2099SOL     OW17755   4.686   0.419  13.557 -0.0125  0.0975 -0.1792
 2099SOL    HW117756   4.638   0.337  13.544 -0.6473  0.2247  1.3200
 2099SOL    HW217757   0.031   0.403  13.489  0.4125 -0.2010  0.2915
 2100SOL     OW17758   4.336   0.400   6.035  0.2408 -0.2428 -0.0430
 2100SOL    HW117759   4.364   0.331   5.975 -0.1927 -0.6589  0.2240
 2100SOL    HW217760   4.377   0.478   5.999  0.6497 -0.1177  0.7032
 2101SOL     OW17761   1.532   0.467   7.054  0.2099 -0.5854  1.1861
 2101SOL    HW117762   1.507   0.504   7.138 -3.2927 -0.4505  0.1069
 2101SOL    HW217763   1.512   0.536   6.991 -0.3031 -2.0976 -0.2955
 2102SOL     OW17764   2.049   2.350  11.390 -0.5798  0.3192  0.3010
 2102SOL    HW117765   2.104   2.378  11.463 -0.4609 -0.7765  0.6419
 2102SOL    HW217766   2.007   2.271  11.423  0.0764 -0.0276  0.3171
 2103SOL     OW17767   3.870   3.415   7.521  0.3676 -0.1108  0.7033
 2103SOL    HW117768   3.803   3.351   7.547 -0.1012  0.5261  1.0881
 2103SOL    HW217769   3.876   3.391   7.429  1.4596 -0.7454  0.9430
 2104SOL     OW17770   3.842   3.610   3.269 -0.0926  0.4777 -0.1742
 2104SOL    HW117771   3.888   3.682   3.226 -0.0553  2.1516  2.6587
 2104SOL    HW217772   3.835   3.646   3.357  1.0092 -1.1019  0.5449
 2105SOL     OW17773   3.179   1.169  11.463  0.1337  0.0558  0.1951
 2105SOL    HW117774   3.101   1.171  11.518  1.4966  1.0018  2.1044
 2105SOL    HW217775   3.145   1.115  11.392 -0.5191 -0.8501  1.1955
 2106SOL     OW17776   4.190   2.314   6.379 -0.0926 -0.3461  0.0984
 2106SOL    HW117777   4.262   2.351   6.430 -0.5474  0.4107  0.1961
 2106SOL    HW217778   4.225   2.226   6.368 -2.1652 -1.2666  0.7651
 2107SOL     OW17779   0.680   4.499  10.113 -0.0921 -0.7493 -0.1783
 2107SOL    HW117780   0.638   4.570  10.161  0.3424 -0.6059 -0.0098
 2107SOL    HW217781   0.676   4.536  10.025 -2.8152 -1.1849 -0.2480
 2108SOL     OW17782   0.366   0.871   4.256  0.3469 -0.3452  0.0375
 2108SOL    HW117783   0.452   0.873   4.215  0.0710  0.2602 -0.5032
 2108SOL    HW217784   0.387   0.820   4.334  0.7644 -2.0301 -1.1712
 2109SOL     OW17785   3.200   3.600  17.462  0.0862  0.3112  0.4234
 2109SOL    HW117786   3.191   3.505  17.451 -1.1761  0.5484 -0.6372
 2109SOL    HW217787   3.266   3.623  17.397 -0.7345 -1.7550 -1.1590
 2110SOL     OW17788   1.728   1.854   5.082 -0.1364 -0.2285  0.4639
 2110SOL    HW117789   1.727   1.886   5.172  0.3702 -0.8226  0.6796
 2110SOL    HW217790   1.645   1.807   5.081 -1.3810  1.9747 -1.0234
 2111SOL     OW17791   3.151   4.527   7.464  0.5138  0.0260 -0.2772
 2111SOL    HW117792   3.126   4.462   7.398 -0.7574  1.3946 -1.1441
 2111SOL    HW217793   3.150   4.474   7.544  0.1498 -0.3280 -0.5158
 2112SOL     OW17794   4.078   0.657   2.266  0.1403 -0.3943 -0.0315
 2112SOL    HW117795   4.096   0.583   2.208  1.6076 -0.8492  1.0017
 2112SOL    HW217796   4.101   0.725   2.203  0.8680 -1.3672 -0.8130
 2113SOL     OW17797   0.837   2.982  15.198 -0.5041  0.0885  0.3349
 2113SOL    HW117798   0.852   3.038  15.122 -2.1524 -0.3155 -0.2898
 2113SOL    HW217799   0.870   3.036  15.270  2.4776 -1.2886 -0.0195
 2114SOL     OW17800   3.013   0.490  16.554 -0.2110 -0.1834 -0.3426
 2114SOL    HW117801   3.053   0.575  16.570  2.5960 -1.9074  1.8007
 2114SOL    HW217802   3.092   0.441  16.529 -0.2510 -0.8677  0.9009
 2115SOL     OW17803   2.572   1.713   7.312 -0.5033  0.0586  0.1149
 2115SOL    HW117804   2.480   1.709   7.338 -0.4842 -0.3676  0.1103
 2115SOL    HW217805   2.567   1.771   7.236 -0.1074  1.0717  0.8594
 2116SOL     OW17806   1.311   3.320  15.943 -0.0639  0.2171  0.2096
 2116SOL    HW117807   1.318   3.225  15.950  0.0789  0.2614  0.6782
 2116SOL    HW217808   1.253   3.341  16.016 -0.0708  0.3024  0.1800
 2117SOL     OW17809   0.317   3.947   7.767  0.5055  0.8125  0.3149
 2117SOL    HW117810   0.371   3.868   7.772  1.5205  1.5256  0.7913
 2117SOL    HW217811   0.245   3.916   7.822  0.7453  1.4669  1.0059
 2118SOL     OW17812   0.426   2.906  11.046 -0.4840  0.5078 -0.5833
 2118SOL    HW117813   0.390   2.818  11.053  1.7538 -0.2453  1.4525
 2118SOL    HW217814   0.478   2.908  10.965  1.8764 -1.5411  0.9058
 2119SOL     OW17815   1.734   2.124   7.995  0.0373  0.3565  0.1010
 2119SOL    HW117816   1.805   2.161   8.047 -0.5113 -1.5008  2.1909
 2119SOL    HW217817   1.712   2.055   8.058  3.3186 -1.0684 -0.3475
 2120SOL     OW17818   4.384   0.018   6.780  0.2297  0.1403 -0.2041
 2120SOL    HW117819   4.311   0.033   6.721 -2.1425 -0.9030  2.4490
 2120SOL    HW217820   4.333   4.695   6.849  2.5363  0.2084  1.5508
 2121SOL     OW17821   2.965   3.310  15.143  0.3704  0.2102  0.1601
 2121SOL    HW117822   3.014   3.355  15.074  0.4285 -1.5952 -0.9749
 2121SOL    HW217823   3.026   3.331  15.214  1.8844  2.5651 -1.8222
 2122SOL     OW17824   4.685   1.176   3.689  0.1945 -0.1523  0.4502
 2122SOL    HW117825   4.616   1.128   3.736 -0.0959 -0.5202 -0.3659
 2122SOL    HW217826   4.703   1.240   3.758 -1.1972  2.5116 -1.6792
 2123SOL     OW17827   2.032   1.810   5.321 -0.3627  0.7152 -0.5446
 2123SOL    HW117828   2.036   1.825   5.226 -0.2956  0.7680 -0.5336
 2123SOL    HW217829   1.962   1.747   5.305  0.2525  0.6803 -3.2719
 2124SOL     OW17830   2.102   2.103   5.386 -0.1474  0.0127 -0.1323
 2124SOL    HW117831   2.016   2.075   5.355  0.7174 -2.1966 -0.5629
 2124SOL    HW217832   2.155   2.060   5.318  0.1457 -0.1150  0.1779
 2125SOL     OW17833   4.098   0.695   7.868 -0.7487 -0.0262  0.5185
 2125SOL    HW117834   4.185   0.656   7.882 -0.0077  0.9387 -1.3159
 2125SOL    HW217835   4.044   0.645   7.928 -1.0836 -1.1791 -0.7482
 2126SOL     OW17836   3.478   1.940   2.264  0.1036 -0.5719  0.7132
 2126SOL    HW117837   3.515   1.992   2.193 -1.4525 -0.0656  0.2600
 2126SOL    HW217838   3.548   1.953   2.328  0.7175 -0.8029  0.0758
 2127SOL     OW17839   3.930   1.946   8.647  0.3546  0.1121 -0.0311
 2127SOL    HW117840   3.868   1.874   8.638 -0.6307  0.8854  0.5828
 2127SOL    HW217841   3.918   1.997   8.567 -0.2559 -3.0875 -1.9794
 2128SOL     OW17842   3.940   0.702  13.221 -0.0935  0.3712  0.5724
 2128SOL    HW117843   3.947   0.793  13.250  1.3399  0.4167  0.1161
 2128SOL    HW217844   3.846   0.689  13.208 -0.5227  2.3728  1.7285
 2129SOL     OW17845   3.775   3.325   4.178  0.4902 -0.0073  0.1251
 2129SOL    HW117846   3.846   3.305   4.117  1.4996  0.2145  1.2338
 2129SOL    HW217847   3.752   3.414   4.154 -0.9509 -0.5431 -0.5125
 2130SOL     OW17848   2.946   2.342   7.367 -0.3576 -0.4497 -0.3167
 2130SOL    HW117849   2.903   2.261   7.340  1.2379 -0.9292 -1.4242
 2130SOL    HW217850   2.973   2.338   7.459 -0.4775  0.1639 -0.2541
 2131SOL     OW17851   2.512   2.057   0.521  0.0310 -0.1324  0.2454
 2131SOL    HW117852   2.430   2.008   0.533 -0.7928  1.2302  0.1487
 2131SOL    HW217853   2.479   2.135   0.476  1.2447  0.8576  1.1105
 2132SOL     OW17854   3.161   0.174   8.706  0.4438 -0.0148  0.1332
 2132SOL    HW117855   3.162   0.102   8.769  0.9123 -0.7879 -0.7534
 2132SOL    HW217856   3.135   0.129   8.626 -0.8940  1.3657 -0.1928
 2133SOL     OW17857   0.384   4.333   8.033  0.1902  0.4425 -0.2547
 2133SOL    HW117858   0.307   4.348   7.977 -1.4356  0.4357  1.9727
 2133SOL    HW217859   0.396   4.238   8.032 -0.4210  0.3714 -0.6848
 2134SOL     OW17860   0.174   0.127   4.516  0.3894  0.0716  0.5834
 2134SOL    HW117861   0.168   0.222   4.506  1.3301 -0.0010 -0.6093
 2134SOL    HW217862   0.246   0.105   4.458 -1.8550 -0.3176 -2.0449
 2135SOL     OW17863   1.548   1.740  15.806  0.1977  0.5906 -0.2414
 2135SOL    HW117864   1.481   1.679  15.775  1.5270 -2.5105  2.9170
 2135SOL    HW217865   1.509   1.784  15.881 -2.9799 -1.4547 -0.6855
 2136SOL     OW17866   3.504   4.554   3.812  0.2018  0.2757 -0.0792
 2136SOL    HW117867   3.482   4.515   3.896 -2.3932  0.3074 -0.7428
 2136SOL    HW217868   3.437   4.621   3.811  0.8245  0.9366  2.4229
 2137SOL     OW17869   0.599   2.894   2.516  0.1883 -0.9175 -0.0630
 2137SOL    HW117870   0.612   2.979   2.474  0.6998 -0.7721  0.3965
 2137SOL    HW217871   0.528   2.853   2.467 -1.0632 -0.2184  1.1795
 2138SOL     OW17872   2.538   3.937   4.934 -0.6074  0.1562  0.1271
 2138SOL    HW117873   2.516   3.927   4.841  0.1823 -1.8211  0.1617
 2138SOL    HW217874   2.465   3.993   4.961  1.9306  3.7015 -0.3441
 2139SOL     OW17875   2.117   3.229   3.620  0.5736  0.6287 -0.4037
 2139SOL    HW117876   2.182   3.173   3.663 -1.5143 -1.7814 -0.4146
 2139SOL    HW217877   2.040   3.207   3.672  1.4786 -0.5038  0.4422
 2140SOL     OW17878   3.403   2.008   2.736  0.0436 -0.0301 -0.0761
 2140SOL    HW117879   3.406   1.959   2.654  0.8250 -0.9259  0.4856
 2140SOL    HW217880   3.328   2.067   2.730 -0.7208 -1.4439 -4.4747
 2141SOL     OW17881   1.278   0.260   1.852 -0.3763  0.3233  0.2942
 2141SOL    HW117882   1.306   0.256   1.760 -1.8595  0.0068 -0.1328
 2141SOL    HW217883   1.201   0.203   1.853 -0.6625  0.6929 -0.8522
 2142SOL     OW17884   2.017   0.671   5.925  0.2969  0.3381 -0.7843
 2142SOL    HW117885   2.013   0.586   5.969 -0.3399  1.3180  1.0330
 2142SOL    HW217886   2.111   0.690   5.936 -0.4579  3.7726 -0.2465
 2143SOL     OW17887   3.428   4.366   3.629 -0.2128 -0.7632  0.0026
 2143SOL    HW117888   3.423   4.445   3.682  1.0230 -2.3131  2.3939
 2143SOL    HW217889   3.454   4.294   3.685 -1.2695  0.1746  1.6901
 2144SOL     OW17890   3.093   0.358   8.942  0.3863 -0.0553 -0.1836
 2144SOL    HW117891   3.173   0.358   8.996 -0.5198 -2.0665  1.1654
 2144SOL    HW217892   3.126   0.318   8.862  1.5283 -0.5485  0.5250
 2145SOL     OW17893   3.236   0.923   8.967 -0.0822  0.0238 -0.0718
 2145SOL    HW117894   3.230   0.997   9.027  1.8213 -0.2762  0.5058
 2145SOL    HW217895   3.226   0.853   9.032 -0.8685  0.0743 -0.1370
 2146SOL     OW17896   2.367   0.365   6.956  0.4828 -0.2808  0.1241
 2146SOL    HW117897   2.307   0.435   6.933  0.2754 -1.1677 -2.0311
 2146SOL    HW217898   2.420   0.399   7.028  0.0764  2.2359 -0.7940
 2147SOL     OW17899   2.174   0.977  10.951  0.3362 -0.0175  0.2909
 2147SOL    HW117900   2.264   0.944  10.950  1.0363  1.9522 -0.2903
 2147SOL    HW217901   2.129   0.945  10.873  2.7595  1.3039 -1.6605
 2148SOL     OW17902   2.905   2.791  13.613  0.0727  0.0532 -0.3356
 2148SOL    HW117903   2.959   2.817  13.687  0.0861  0.0024 -0.3273
 2148SOL    HW217904   2.843   2.735  13.660  1.4395 -2.9014 -2.0155
 2149SOL     OW17905   2.815   4.213   7.424 -0.0633 -0.5263  0.3824
 2149SOL    HW117906   2.842   4.128   7.459 -2.0273 -1.2482  0.1445
 2149SOL    HW217907   2.721   4.195   7.414  0.0351 -0.7478 -0.1563
 2150SOL     OW17908   0.647   4.610   9.880 -0.0645  0.1973 -0.2680
 2150SOL    HW117909   0.571   4.644   9.833  1.0634  0.5322 -1.8297
 2150SOL    HW217910   0.710   4.611   9.808  1.6564  0.1156  1.2361
 2151SOL     OW17911   3.547   2.965  13.848 -0.0050 -0.2434 -0.1652
 2151SOL    HW117912   3.495   2.916  13.785  0.3479  0.7891 -1.2601
 2151SOL    HW217913   3.632   2.928  13.825  0.5136  0.8177  0.0059
 2152SOL     OW17914   4.450   0.559   7.401  0.1502  0.2545 -0.1419
 2152SOL    HW117915   4.496   0.535   7.321 -0.3016  0.0023 -0.3199
 2152SOL    HW217916   4.486   0.495   7.463  1.4895  0.9839 -0.1500
 2153SOL     OW17917   4.335   4.554  14.622  0.4150 -0.2506  0.2511
 2153SOL    HW117918   4.281   4.594  14.689 -0.6332 -0.3145 -0.5682
 2153SOL    HW217919   4.270   4.496  14.584 -2.1705  1.7712  1.6125
 2154SOL     OW17920   2.604   3.952   8.853 -0.0029  0.1525 -0.3451
 2154SOL    HW117921   2.547   3.988   8.920  0.3339  1.3605 -0.7132
 2154SOL    HW217922   2.657   4.028   8.828  0.5326  0.6259  2.1867
 2155SOL     OW17923   4.473   0.817  10.729 -0.2156 -0.5232 -0.4576
 2155SOL    HW117924   4.560   0.851  10.709 -1.0878  1.0071 -1.7157
 2155SOL    HW217925   4.423   0.894  10.757  1.1830  0.1127  0.2962
 2156SOL     OW17926   3.548   1.922   9.873 -0.3354  0.1519  0.4740
 2156SOL    HW117927   3.595   1.840   9.886 -0.4619 -0.2325 -1.4923
 2156SOL    HW217928   3.551   1.961   9.961 -0.3771 -0.3574  0.6987
 2157SOL     OW17929   1.028   2.270   2.065 -0.3602  0.3160  0.4041
 2157SOL    HW117930   0.970   2.277   1.988  3.1908  1.0535 -2.1892
 2157SOL    HW217931   1.051   2.362   2.079  0.0362  0.1245  0.9986
 2158SOL     OW17932   4.648   1.604   3.131  0.3511  0.6461  0.3976
 2158SOL    HW117933   4.681   1.525   3.087  0.1187  0.9957 -0.3995
 2158SOL    HW217934   4.628   1.569   3.218 -4.1235 -3.4936 -2.2760
 2159SOL     OW17935   1.766   1.894   3.365  0.4641  0.1186 -0.0940
 2159SOL    HW117936   1.688   1.949   3.362 -0.6631 -1.3872  1.7316
 2159SOL    HW217937   1.836   1.955   3.344 -0.7549  1.8601  0.9049
 2160SOL     OW17938   0.585   2.460  10.430 -0.5084 -0.6659  0.7052
 2160SOL    HW117939   0.550   2.383  10.475 -2.3176 -0.0205  0.3798
 2160SOL    HW217940   0.516   2.485  10.369  0.7178  4.7134  1.4838
 2161SOL     OW17941   4.046   1.113   2.401 -0.5122 -0.0276 -1.0614
 2161SOL    HW117942   4.047   1.206   2.376  0.3138  0.6896  1.6469
 2161SOL    HW217943   3.998   1.121   2.483  0.8583  1.1279 -0.3770
 2162SOL     OW17944   0.150   2.042  10.118 -0.9007  0.7260 -0.5332
 2162SOL    HW117945   0.071   2.029  10.067 -0.8649  1.4702 -0.7796
 2162SOL    HW217946   0.201   2.096  10.058  0.6167  1.2358  1.2268
 2163SOL     OW17947   3.783   1.936   7.916 -0.3776 -0.5691  0.0072
 2163SOL    HW117948   3.826   1.940   7.831  0.3337 -2.1817  0.2946
 2163SOL    HW217949   3.775   2.029   7.941 -0.7184  0.2497 -3.2243
 2164SOL     OW17950   1.208   2.635  10.170 -0.1154 -0.0887 -0.0262
 2164SOL    HW117951   1.209   2.598  10.081 -0.7264 -0.6743  0.2103
 2164SOL    HW217952   1.115   2.652  10.183  0.0612  0.6283  0.2685
 2165SOL     OW17953   0.268   1.976   8.596  0.0911 -0.1369 -0.4571
 2165SOL    HW117954   0.201   2.017   8.652 -0.2127  1.1149 -1.7330
 2165SOL    HW217955   0.350   1.982   8.644 -1.0619  1.6694  1.2871
 2166SOL     OW17956   2.678   2.490   5.863 -0.4487  0.0357 -0.3416
 2166SOL    HW117957   2.630   2.434   5.924 -0.6482 -0.0020 -0.5348
 2166SOL    HW217958   2.666   2.460   5.774 -1.2555 -1.8306  0.4058
 2167SOL     OW17959   3.816   2.294   1.517  0.1936 -0.5367  0.1019
 2167SOL    HW117960   3.734   2.331   1.548  0.6787  0.4671  0.1981
 2167SOL    HW217961   3.851   2.377   1.483  0.2578 -1.1980 -1.4586
 2168SOL     OW17962   4.152   3.015   0.289 -0.5414  0.5269  0.3672
 2168SOL    HW117963   4.077   2.958   0.304  1.1560 -2.2573 -1.7889
 2168SOL    HW217964   4.147   3.008   0.194  1.3772 -0.2451  0.3293
 2169SOL     OW17965   3.107   4.331   7.295  0.1440  0.2988 -0.0486
 2169SOL    HW117966   3.105   4.281   7.377  0.4131 -2.4079 -1.6792
 2169SOL    HW217967   3.054   4.274   7.240  0.5277 -0.5718  0.4862
 2170SOL     OW17968   1.902   2.535   7.248  0.2593  0.4896 -0.0632
 2170SOL    HW117969   1.912   2.623   7.211  0.8761  0.2060 -0.5703
 2170SOL    HW217970   1.870   2.551   7.337 -0.5909  2.2531 -0.6826
 2171SOL     OW17971   0.367   4.002   7.243  0.3594  0.3688 -0.1382
 2171SOL    HW117972   0.311   4.023   7.169  0.4438  1.5367  0.1342
 2171SOL    HW217973   0.347   3.909   7.257 -2.3189  0.9368 -0.2870
 2172SOL     OW17974   2.243   0.052   3.078 -0.1388 -0.1120  0.0874
 2172SOL    HW117975   2.315   4.717   3.107  1.3527  1.9997  0.4253
 2172SOL    HW217976   2.289   0.101   3.009 -0.5480  1.4106  0.8815
 2173SOL     OW17977   1.188   0.184   3.643  0.5800  0.0313 -0.0336
 2173SOL    HW117978   1.145   0.263   3.610 -0.6968 -1.3147 -1.5850
 2173SOL    HW217979   1.278   0.217   3.642  0.2226  1.0191  1.0050
 2174SOL     OW17980   2.482   3.906  16.458 -0.1016  0.2287 -0.4590
 2174SOL    HW117981   2.506   3.850  16.532  1.4402  0.6994 -0.5993
 2174SOL    HW217982   2.387   3.918  16.452  0.1649  2.4451 -0.2863
 2175SOL     OW17983   0.143   1.519   5.573  0.1758 -1.1157  0.0556
 2175SOL    HW117984   0.142   1.475   5.658 -0.3994  1.9648  1.6581
 2175SOL    HW217985   0.060   1.566   5.576  0.6698 -0.3645  1.8363
 2176SOL     OW17986   1.139   1.967  15.126  0.1681  0.9190  0.3292
 2176SOL    HW117987   1.142   1.989  15.033 -0.6059  2.5907  0.6942
 2176SOL    HW217988   1.129   1.872  15.130 -0.6554  1.0339  1.0024
 2177SOL     OW17989   0.673   0.389   8.393  0.0144  0.3230  0.5057
 2177SOL    HW117990   0.745   0.346   8.440 -0.7434 -1.3898  0.1005
 2177SOL    HW217991   0.676   0.341   8.310 -0.4157 -1.8493  1.7392
 2178SOL     OW17992   3.524   4.641   4.375  0.1658  0.4032 -0.1229
 2178SOL    HW117993   3.489   4.555   4.398 -1.5631  1.6453  1.8135
 2178SOL    HW217994   3.502   4.704   4.443 -0.0630  0.9145 -0.6723
 2179SOL     OW17995   3.604   0.591  12.536  0.2780  0.2440 -0.0787
 2179SOL    HW117996   3.698   0.590  12.519  0.4885  0.2482  1.0840
 2179SOL    HW217997   3.580   0.548  12.454  1.7523  1.2549 -1.0358
 2180SOL     OW17998   2.610   1.534   0.884  0.2098 -0.0228 -0.0645
 2180SOL    HW117999   2.626   1.595   0.812 -1.7719  0.2939 -0.2245
 2180SOL    HW218000   2.572   1.594   0.947 -0.3563  0.3777 -0.7939
 2181SOL     OW18001   0.699   1.360   4.531 -0.2550  0.5126  0.1937
 2181SOL    HW118002   0.739   1.439   4.497 -0.0917  0.2089 -0.3231
 2181SOL    HW218003   0.630   1.398   4.586  1.2823  2.2935  0.8653
 2182SOL     OW18004   4.067   4.041   1.691  0.0227  0.0278  0.0443
 2182SOL    HW118005   4.008   4.081   1.628 -0.5328  0.9487  1.1576
 2182SOL    HW218006   4.081   4.111   1.754  0.9521 -1.3286  1.3450
 2183SOL     OW18007   0.634   3.545   8.833 -0.3303 -0.0285 -0.2359
 2183SOL    HW118008   0.552   3.560   8.881  0.6911 -2.4250  2.2863
 2183SOL    HW218009   0.691   3.488   8.884 -1.1070 -0.8879 -0.3245
 2184SOL     OW18010   1.881   4.120  10.626  0.2334 -0.2260  0.3855
 2184SOL    HW118011   1.938   4.148  10.697 -0.4283  2.4731 -0.1221
 2184SOL    HW218012   1.792   4.128  10.662 -0.2592  2.1337 -1.3024
 2185SOL     OW18013   1.562   1.636   8.319  0.3842  0.1439 -0.0420
 2185SOL    HW118014   1.558   1.707   8.383  0.5036  0.1230 -0.0108
 2185SOL    HW218015   1.481   1.587   8.334 -0.7475  1.6286 -1.4091
 2186SOL     OW18016   1.864   0.857   8.127 -1.0742  0.1087  0.0789
 2186SOL    HW118017   1.858   0.764   8.148  1.4453  0.0239  0.3773
 2186SOL    HW218018   1.837   0.858   8.035 -0.3750 -0.7720 -0.1360
 2187SOL     OW18019   1.967   4.085  14.191 -0.1785 -0.3651  0.0335
 2187SOL    HW118020   2.037   4.098  14.127 -0.8443 -1.4595 -0.9100
 2187SOL    HW218021   2.023   4.031  14.248  0.1925  0.8465  0.8170
 2188SOL     OW18022   1.937   0.660   4.567 -0.5933 -0.2510  0.0560
 2188SOL    HW118023   1.905   0.618   4.488 -1.3456 -0.5160  0.5071
 2188SOL    HW218024   1.860   0.710   4.592 -0.2393  0.2535  0.1479
 2189SOL     OW18025   4.371   1.717   0.156 -0.4839 -0.0929  0.2782
 2189SOL    HW118026   4.388   1.645   0.095 -1.4552  1.4425 -1.8032
 2189SOL    HW218027   4.304   1.672   0.208 -2.8422  0.5457 -2.1887
 2190SOL     OW18028   3.406   1.512   4.416  0.3571  0.3194  0.6355
 2190SOL    HW118029   3.331   1.453   4.431  1.3414 -0.5839  1.9983
 2190SOL    HW218030   3.428   1.482   4.328  2.4637  0.8851  0.9859
 2191SOL     OW18031   4.469   3.632   5.359  0.6045 -0.0836 -0.1926
 2191SOL    HW118032   4.447   3.718   5.322 -1.7480  0.4403  2.4485
 2191SOL    HW218033   4.435   3.580   5.286  0.1186  0.6230 -0.4725
 2192SOL     OW18034   3.090   4.306   0.115  0.6089 -0.1408 -0.0911
 2192SOL    HW118035   3.097   4.230   0.057 -2.9876 -0.5536  0.0091
 2192SOL    HW218036   3.162   4.360   0.083  0.2931  1.0909  1.2736
 2193SOL     OW18037   0.111   3.964   8.878 -0.4902  0.0831  0.0277
 2193SOL    HW118038   0.166   3.930   8.949 -1.0094  1.0613  0.8951
 2193SOL    HW218039   0.027   3.971   8.923 -2.0223 -0.2427 -2.7737
 2194SOL     OW18040   0.697   2.255   5.683  0.3884 -0.4866 -0.1051
 2194SOL    HW118041   0.620   2.308   5.704  0.8323  0.1080  0.0173
 2194SOL    HW218042   0.735   2.227   5.766  0.1442  2.8595  1.1133
 2195SOL     OW18043   2.137   3.718  12.376  0.5750 -0.1795 -0.6057
 2195SOL    HW118044   2.100   3.784  12.318 -0.8730 -0.3335  0.1546
 2195SOL    HW218045   2.060   3.690  12.425  0.4443  1.0320 -0.1053
 2196SOL     OW18046   1.314   2.885  13.976 -0.4998  0.1454 -0.0559
 2196SOL    HW118047   1.297   2.933  13.895 -0.2276  1.2854  0.5653
 2196SOL    HW218048   1.225   2.865  14.003 -0.4257  0.4715  0.4220
 2197SOL     OW18049   0.558   3.115  12.114 -0.1495  0.2920 -0.2427
 2197SOL    HW118050   0.611   3.079  12.042 -0.2520  2.1085 -1.2209
 2197SOL    HW218051   0.481   3.057  12.118  1.4371 -1.7574  0.5931
 2198SOL     OW18052   1.542   1.477   7.370 -0.3763  0.1826  0.1291
 2198SOL    HW118053   1.625   1.504   7.330 -0.1009 -0.5490  0.2033
 2198SOL    HW218054   1.575   1.407   7.425 -0.0748  0.8558  0.7972
 2199SOL     OW18055   1.636   3.246  13.946 -0.1964 -0.1128 -0.1240
 2199SOL    HW118056   1.666   3.251  13.855  1.1420  2.3733  0.4728
 2199SOL    HW218057   1.716   3.282  13.984 -0.4070  0.8053 -0.5636
 2200SOL     OW18058   2.392   3.637   5.141  0.1103 -1.2817  0.1501
 2200SOL    HW118059   2.469   3.610   5.192  0.7291 -0.9327 -0.6004
 2200SOL    HW218060   2.326   3.578   5.177  0.3733 -0.9207  1.2497
 2201SOL     OW18061   0.580   2.373   8.884 -0.2772 -0.2310  0.8140
 2201SOL    HW118062   0.611   2.326   8.962 -1.4027 -1.5549  0.4500
 2201SOL    HW218063   0.565   2.457   8.929  0.5058  2.2519 -3.5980
 2202SOL     OW18064   0.379   0.016  12.059  0.7250  0.0097 -0.2590
 2202SOL    HW118065   0.389   0.018  12.154 -0.8183  0.2562 -0.1026
 2202SOL    HW218066   0.417   4.651  12.038  1.8378 -0.2061  2.5592
 2203SOL     OW18067   3.689   1.753   2.536 -0.1060  0.0825 -0.3999
 2203SOL    HW118068   3.781   1.730   2.527 -0.1328 -0.1380 -0.1050
 2203SOL    HW218069   3.647   1.666   2.531 -2.5052  1.0870  2.3544
 2204SOL     OW18070   0.916   2.951   9.309  0.4003  0.3488 -0.1733
 2204SOL    HW118071   1.005   2.963   9.275  1.0488  1.4916  1.9026
 2204SOL    HW218072   0.938   2.991   9.393 -0.4332  1.7611 -0.6195
 2205SOL     OW18073   4.189   2.378   2.687  0.6683 -0.0624 -0.3335
 2205SOL    HW118074   4.259   2.443   2.691  0.3917  0.1700  0.6244
 2205SOL    HW218075   4.131   2.394   2.761 -0.2226 -1.0757 -0.8169
 2206SOL     OW18076   3.872   4.622  13.225  0.3089 -0.0758 -0.3620
 2206SOL    HW118077   3.798   4.594  13.171  1.8164  2.0487 -3.5104
 2206SOL    HW218078   3.846   4.608  13.316 -2.1665 -1.3171 -1.2628
 2207SOL     OW18079   1.571   4.673  12.367  0.2155 -0.1421 -0.5744
 2207SOL    HW118080   1.484   4.705  12.391  0.8190  2.1720 -1.5695
 2207SOL    HW218081   1.556   4.586  12.330 -0.7766 -0.7236  1.1668
 2208SOL     OW18082   3.160   1.994  13.387 -0.1717  0.1222 -0.0467
 2208SOL    HW118083   3.241   2.045  13.392 -0.1013 -0.3336  3.4742
 2208SOL    HW218084   3.118   2.045  13.318 -1.9869 -0.4976  0.6145
 2209SOL     OW18085   4.652   4.121   7.072 -0.6460  0.3282 -0.4313
 2209SOL    HW118086   4.653   4.033   7.111  0.6992  0.3994 -0.3296
 2209SOL    HW218087   4.638   4.175   7.150  0.7344 -3.5793  2.5758
 2210SOL     OW18088   2.621   1.442  14.075 -0.5137  0.6342  0.3560
 2210SOL    HW118089   2.689   1.463  14.011 -0.3203 -1.6824 -0.1987
 2210SOL    HW218090   2.609   1.530  14.110 -1.7088 -0.2623  2.2299
 2211SOL     OW18091   2.529   3.412   7.433 -0.1677  0.1190  0.2834
 2211SOL    HW118092   2.473   3.409   7.356  1.5084 -1.9755 -0.8490
 2211SOL    HW218093   2.464   3.430   7.501  0.5761  3.2499  0.1392
 2212SOL     OW18094   3.941   0.523  12.733  0.2212  0.6709  0.2960
 2212SOL    HW118095   3.915   0.571  12.654  1.7645  0.0003 -0.6347
 2212SOL    HW218096   3.964   0.600  12.785  2.7451 -2.3566  3.6811
 2213SOL     OW18097   0.014   2.599  12.343  0.1482 -0.3936 -0.5401
 2213SOL    HW118098   0.033   2.690  12.367  2.1281 -1.0451  0.4176
 2213SOL    HW218099   0.079   2.600  12.273  2.6677 -0.5991  1.7848
 2214SOL     OW18100   4.651   1.509  15.414  0.1402  0.1226 -0.0719
 2214SOL    HW118101   4.702   1.479  15.338  0.3823  1.4675 -0.4258
 2214SOL    HW218102   4.653   1.424  15.459  1.5057  0.1881 -0.0088
 2215SOL     OW18103   0.411   4.632  13.601  0.1708  0.0742  0.2534
 2215SOL    HW118104   0.354   4.582  13.660 -0.2668 -1.4400 -1.4575
 2215SOL    HW218105   0.493   4.622  13.649  0.6015 -0.3965 -0.5908
 2216SOL     OW18106   3.333   2.795   7.794 -0.0965 -0.4737 -0.2699
 2216SOL    HW118107   3.344   2.874   7.740  0.1804 -0.8550 -0.7738
 2216SOL    HW218108   3.329   2.726   7.728 -1.6496 -0.7129  0.0659
 2217SOL     OW18109   4.573   2.728   5.423 -0.2383 -0.2112 -0.2033
 2217SOL    HW118110   4.628   2.795   5.382 -0.6101 -0.3899 -0.9992
 2217SOL    HW218111   4.535   2.761   5.505 -0.2968 -1.3463  0.2166
 2218SOL     OW18112   4.462   2.544   8.048  0.7525 -0.5911  0.2662
 2218SOL    HW118113   4.488   2.577   8.134 -2.3737  0.4026  0.8297
 2218SOL    HW218114   4.531   2.583   7.995  1.1824  2.5041  3.0615
 2219SOL     OW18115   1.795   4.116   4.309 -0.4388  0.0628 -0.0661
 2219SOL    HW118116   1.849   4.143   4.235  0.2133 -0.7957  0.1007
 2219SOL    HW218117   1.741   4.052   4.263 -1.0433  1.0065 -0.6759
 2220SOL     OW18118   1.094   3.889   6.756 -0.1353 -0.2893  0.1554
 2220SOL    HW118119   1.082   3.904   6.662  0.7336 -0.5078  0.0082
 2220SOL    HW218120   1.164   3.950   6.773 -0.4198  0.3595 -0.9828
 2221SOL     OW18121   3.417   1.167   9.306  0.7554  0.3999 -0.5648
 2221SOL    HW118122   3.404   1.074   9.285  1.1296  0.0238  0.9179
 2221SOL    HW218123   3.506   1.177   9.271  1.2514 -2.0950 -0.0291
 2222SOL     OW18124   0.152   4.689   5.713  0.2331  0.3774  0.2934
 2222SOL    HW118125   0.209   4.643   5.651 -1.3815  0.4941 -1.2577
 2222SOL    HW218126   0.189   0.057   5.723  0.6806  0.0671  1.4433
 2223SOL     OW18127   3.012   1.498   8.496 -0.7455  0.3906  0.3164
 2223SOL    HW118128   2.963   1.535   8.423 -3.5591 -2.9475  0.5318
 2223SOL    HW218129   2.992   1.405   8.487  0.3274  0.1710  0.1635
 2224SOL     OW18130   2.465   1.430   2.470  0.1874  0.0755  0.0454
 2224SOL    HW118131   2.371   1.447   2.477  0.0592 -1.3496  1.8796
 2224SOL    HW218132   2.485   1.513   2.428  0.4044  0.1293  0.2575
 2225SOL     OW18133   2.103   0.907  14.937  0.5795 -0.2540  0.2540
 2225SOL    HW118134   2.139   0.866  14.860 -0.1219  1.0968 -0.8031
 2225SOL    HW218135   2.131   0.849  15.007  0.8122  0.4616  0.7610
 2226SOL     OW18136   4.400   2.614   4.970 -0.6118 -0.8951 -0.2723
 2226SOL    HW118137   4.419   2.578   5.057  1.2248 -0.9197 -0.6758
 2226SOL    HW218138   4.463   2.684   4.955  0.5841 -1.9919 -0.3820
 2227SOL     OW18139   1.818   4.648  14.677 -0.4140  0.8830 -0.0240
 2227SOL    HW118140   1.853   4.628  14.590 -1.1236  0.5220 -0.2237
 2227SOL    HW218141   1.741   4.591  14.679  1.0776 -1.1020  0.9046
 2228SOL     OW18142   1.723   2.416   8.436  0.6529 -0.2252  0.0345
 2228SOL    HW118143   1.804   2.467   8.440  1.4096 -1.5083  1.4883
 2228SOL    HW218144   1.684   2.432   8.522 -0.8815 -0.2708 -0.6639
 2229SOL     OW18145   1.336   0.905   2.902 -0.2625  0.3417 -0.1378
 2229SOL    HW118146   1.286   0.984   2.881 -0.5691  0.3297  0.5776
 2229SOL    HW218147   1.427   0.928   2.880 -0.4954  1.3166 -0.0615
 2230SOL     OW18148   2.130   0.855  12.749  0.0331  0.3041 -0.1789
 2230SOL    HW118149   2.186   0.909  12.694 -1.1064  1.3805 -0.2709
 2230SOL    HW218150   2.108   0.908  12.826  0.4523 -2.0910  1.5864
 2231SOL     OW18151   0.483   0.211  13.760 -0.2653 -0.0811  0.3745
 2231SOL    HW118152   0.554   0.157  13.724  0.9031  0.9748  1.0493
 2231SOL    HW218153   0.493   0.186  13.852  0.4700 -0.5487  0.1724
 2232SOL     OW18154   2.414   2.242   2.304 -0.1999  0.2806  0.3759
 2232SOL    HW118155   2.437   2.150   2.316 -1.2006 -0.0256 -0.0093
 2232SOL    HW218156   2.410   2.236   2.208  1.9283 -2.2190  0.4269
 2233SOL     OW18157   1.317   2.529   6.154  0.1947 -0.9454  0.0512
 2233SOL    HW118158   1.399   2.576   6.140  0.7252 -2.5194 -2.2037
 2233SOL    HW218159   1.260   2.589   6.202  2.1422  0.5575  0.4926
 2234SOL     OW18160   1.166   3.906   4.916 -0.1201 -0.1417 -0.0094
 2234SOL    HW118161   1.116   3.954   4.850  0.4460 -1.4588 -1.3897
 2234SOL    HW218162   1.182   3.974   4.981 -1.2776  1.1658 -1.0892
 2235SOL     OW18163   2.488   2.316   6.675  0.1111  0.2258  0.0029
 2235SOL    HW118164   2.462   2.353   6.590 -0.2651 -0.1089 -0.0280
 2235SOL    HW218165   2.556   2.252   6.654 -0.1104 -0.4204  1.2683
 2236SOL     OW18166   2.568   1.501   4.019  0.3219 -0.5057 -0.2414
 2236SOL    HW118167   2.619   1.421   4.032 -0.6976 -1.2238 -0.7190
 2236SOL    HW218168   2.621   1.557   3.962  0.1267 -0.7820 -0.6932
 2237SOL     OW18169   2.374   3.874   0.408 -0.3118 -0.3942  0.5819
 2237SOL    HW118170   2.326   3.909   0.334 -0.4181 -1.2142  0.2674
 2237SOL    HW218171   2.362   3.959   0.452 -0.0633 -0.8631  1.5589
 2238SOL     OW18172   1.839   0.184   5.412  0.0740  0.0977 -0.5611
 2238SOL    HW118173   1.744   0.187   5.418  0.2722  2.1180  1.3828
 2238SOL    HW218174   1.849   0.270   5.372  2.4707  0.6113  1.0895
 2239SOL     OW18175   1.501   3.587  11.750 -0.0481  0.1513  0.3278
 2239SOL    HW118176   1.529   3.499  11.723 -0.3401 -0.3002  1.5119
 2239SOL    HW218177   1.496   3.578  11.845  2.1282 -1.2185  0.3257
 2240SOL     OW18178   2.545   2.800   4.218 -0.2102 -0.4743  0.7219
 2240SOL    HW118179   2.555   2.712   4.253 -0.4937  0.2184  2.5595
 2240SOL    HW218180   2.624   2.839   4.256 -0.0921 -1.1363  1.1508
 2241SOL     OW18181   0.216   1.668   9.211 -0.2241 -0.3938 -0.2280
 2241SOL    HW118182   0.124   1.644   9.201 -0.7552  1.0870  0.9800
 2241SOL    HW218183   0.258   1.587   9.239 -0.8470 -0.6505 -0.0542
 2242SOL     OW18184   1.825   4.473   9.605 -0.4049 -0.4723  0.0502
 2242SOL    HW118185   1.819   4.378   9.618  0.4038 -0.1752  2.6916
 2242SOL    HW218186   1.916   4.490   9.582 -0.0499 -0.2324  1.6480
 2243SOL     OW18187   4.098   2.234  13.030 -0.6141  0.0808 -0.6577
 2243SOL    HW118188   4.065   2.269  13.113 -0.9405  3.5673 -2.2185
 2243SOL    HW218189   4.085   2.307  12.969 -1.3038 -0.1258 -0.7564
 2244SOL     OW18190   0.665   0.576   4.635  0.1189 -0.1398  0.2550
 2244SOL    HW118191   0.685   0.618   4.718 -1.4173  0.5990  0.2410
 2244SOL    HW218192   0.625   0.492   4.656  1.8470 -1.0252 -0.0088
 2245SOL     OW18193   2.428   1.986   5.043  0.3307 -0.2528 -0.3587
 2245SOL    HW118194   2.447   1.984   4.949  1.6782  1.5846 -0.1150
 2245SOL    HW218195   2.512   1.963   5.083  0.8312  1.4815 -0.4259
 2246SOL     OW18196   1.323   3.686   3.419  0.3148  0.1507 -0.8637
 2246SOL    HW118197   1.294   3.631   3.492  1.0332 -2.0589 -2.2251
 2246SOL    HW218198   1.268   3.659   3.345  0.4269 -0.5179 -0.7026
 2247SOL     OW18199   3.950   0.353   5.735  0.7656  0.2558 -0.4477
 2247SOL    HW118200   3.997   0.304   5.802  1.2263  1.7902  0.3469
 2247SOL    HW218201   4.010   0.337   5.662  0.6446 -0.5106 -0.3784
 2248SOL     OW18202   1.462   1.220  10.377  0.1082  0.3075 -0.3303
 2248SOL    HW118203   1.455   1.237  10.283 -2.1813 -1.4130 -0.4798
 2248SOL    HW218204   1.492   1.304  10.410  0.4173  0.1716 -0.2689
 2249SOL     OW18205   1.202   2.980   8.516 -0.7625 -0.0739 -0.4907
 2249SOL    HW118206   1.158   2.896   8.506 -0.8068 -0.0250 -0.7203
 2249SOL    HW218207   1.131   3.026   8.560 -0.7933  0.6729 -1.3181
 2250SOL     OW18208   4.250   3.404   6.242 -0.4444  0.0108 -0.0178
 2250SOL    HW118209   4.280   3.370   6.326 -2.2782 -0.8014  0.3017
 2250SOL    HW218210   4.231   3.326   6.191  0.4326 -0.1850 -0.0449
 2251SOL     OW18211   3.993   3.952  10.789  0.3374  0.4648 -0.4615
 2251SOL    HW118212   3.938   3.957  10.867  0.2573  2.4054 -0.6619
 2251SOL    HW218213   3.943   3.998  10.722  2.4453  1.5096 -1.3069
 2252SOL     OW18214   1.875   1.110   1.968  0.0426 -0.0991  0.2246
 2252SOL    HW118215   1.806   1.146   1.913  0.9580  2.2311  0.5958
 2252SOL    HW218216   1.828   1.039   2.011 -1.7110  2.0827  1.9067
 2253SOL     OW18217   4.077   0.327   3.451 -0.0568  0.0021  0.6529
 2253SOL    HW118218   4.098   0.234   3.445  0.4079  0.2380 -1.1691
 2253SOL    HW218219   4.142   0.368   3.395 -0.1886 -0.8220 -0.1150
 2254SOL     OW18220   1.317   1.414   5.084  0.0970 -0.2143 -0.0354
 2254SOL    HW118221   1.233   1.396   5.127 -0.2763 -0.6065 -0.9294
 2254SOL    HW218222   1.331   1.352   5.013 -0.0913 -0.0978 -0.1760
 2255SOL     OW18223   4.234   0.629   2.790  0.4673  0.0296  0.0693
 2255SOL    HW118224   4.298   0.566   2.760 -0.7211 -1.3671  0.4686
 2255SOL    HW218225   4.195   0.660   2.709  1.2835 -0.2403 -0.4241
 2256SOL     OW18226   2.208   2.565   3.425 -0.2720  0.5341  0.0303
 2256SOL    HW118227   2.194   2.584   3.332 -0.4493  0.1900 -0.0141
 2256SOL    HW218228   2.302   2.580   3.428 -0.3748  1.8213 -2.5397
 2257SOL     OW18229   4.439   4.054  15.927 -0.5517 -0.0600  0.0185
 2257SOL    HW118230   4.414   4.028  16.016  0.9025 -1.5599  0.0024
 2257SOL    HW218231   4.498   3.983  15.900 -0.0851 -0.0651  1.0371
 2258SOL     OW18232   4.159   0.401   2.574 -0.1064 -0.2324  0.1228
 2258SOL    HW118233   4.243   0.447   2.567 -1.1356  1.0186 -3.9569
 2258SOL    HW218234   4.165   0.326   2.515 -0.4405  0.4584 -0.7739
 2259SOL     OW18235   4.236   0.321   6.256  0.2884 -0.2630 -0.0889
 2259SOL    HW118236   4.272   0.356   6.175 -1.5253 -0.1345 -0.8442
 2259SOL    HW218237   4.276   0.234   6.258 -1.0514 -0.8478  1.6193
 2260SOL     OW18238   2.407   3.055   7.425  0.3034  1.0589  0.7574
 2260SOL    HW118239   2.482   3.114   7.430  1.3902 -0.3558  0.7443
 2260SOL    HW218240   2.368   3.070   7.512  0.7863 -1.3809  1.3689
 2261SOL     OW18241   3.004   2.044   3.537 -0.2821  0.5862 -0.3474
 2261SOL    HW118242   3.022   1.950   3.536 -0.8661  0.4645  1.3867
 2261SOL    HW218243   3.001   2.058   3.442 -1.8934  1.9440 -0.0933
 2262SOL     OW18244   2.022   1.840   2.121 -0.0711 -0.0895 -0.1625
 2262SOL    HW118245   2.096   1.899   2.117 -0.8678  1.1228  2.5052
 2262SOL    HW218246   1.990   1.844   2.212  1.6065 -3.3219  0.5567
 2263SOL     OW18247   0.119   3.577   5.272 -0.0715 -0.5414 -0.5139
 2263SOL    HW118248   0.195   3.565   5.215 -1.2731 -0.0457 -2.2079
 2263SOL    HW218249   0.126   3.489   5.308 -0.6088  0.2398  1.4872
 2264SOL     OW18250   2.661   0.144   8.439  0.3080 -0.3007  0.6229
 2264SOL    HW118251   2.750   0.179   8.446 -0.3871  1.4908  0.5656
 2264SOL    HW218252   2.604   0.217   8.413  0.2294 -1.0155 -1.2654
 2265SOL     OW18253   3.016   1.638   5.462 -0.0827 -0.3900  0.3114
 2265SOL    HW118254   3.076   1.658   5.390  0.0783 -3.2819 -0.3558
 2265SOL    HW218255   3.070   1.659   5.539  0.3632 -1.9824  0.4380
 2266SOL     OW18256   1.043   0.208   7.779 -0.2779 -1.0073 -0.4031
 2266SOL    HW118257   1.116   0.178   7.724  2.4802  1.1072  2.1557
 2266SOL    HW218258   1.083   0.221   7.864  0.2425 -0.1836 -0.7757
 2267SOL     OW18259   0.998   1.691   5.789 -0.5855  0.2141  0.0502
 2267SOL    HW118260   0.962   1.677   5.877 -0.5830 -0.5529 -0.0710
 2267SOL    HW218261   1.089   1.716   5.807 -0.3900 -0.5780  0.1719
 2268SOL     OW18262   4.677   1.305  15.194  0.5447  0.3266 -0.3679
 2268SOL    HW118263   0.004   1.242  15.249  1.3615  0.3461 -1.0491
 2268SOL    HW218264   4.594   1.257  15.182  1.1581 -0.1767 -2.7239
 2269SOL     OW18265   2.336   2.421   8.141  0.0170 -0.5024 -0.2862
 2269SOL    HW118266   2.340   2.485   8.070  0.1503  1.7853  1.8149
 2269SOL    HW218267   2.309   2.341   8.095  0.4772 -0.0257 -1.3951
 2270SOL     OW18268   0.964   0.775   8.296 -0.1940  0.3406 -0.1691
 2270SOL    HW118269   1.058   0.769   8.276 -0.0362 -0.5027  0.8255
 2270SOL    HW218270   0.961   0.816   8.382  0.9389 -0.5488  0.3012
 2271SOL     OW18271   0.068   4.490   6.809  0.0322  0.3116 -0.2509
 2271SOL    HW118272   0.002   4.455   6.749 -0.7223  0.3330  0.5574
 2271SOL    HW218273   0.034   4.579   6.813  0.9971  0.6134  1.0528
 2272SOL     OW18274   1.575   2.263   0.572 -0.2819 -0.5900  0.1805
 2272SOL    HW118275   1.635   2.328   0.535  0.9333 -1.8620 -0.1064
 2272SOL    HW218276   1.588   2.186   0.518  3.4450  0.7278 -0.8291
 2273SOL     OW18277   1.787   4.491   3.992  0.3972 -0.0153  0.1185
 2273SOL    HW118278   1.812   4.446   3.911 -0.5613 -3.2345  1.6046
 2273SOL    HW218279   1.691   4.490   3.988  0.4769  1.2544 -2.2326
 2274SOL     OW18280   3.983   1.223  16.847 -0.2658  0.1678  0.0559
 2274SOL    HW118281   3.915   1.213  16.914 -2.4099  0.5518 -2.0450
 2274SOL    HW218282   3.932   1.183  16.777  1.3140 -0.3472 -0.7919
 2275SOL     OW18283   1.339   1.036   9.226  0.3313  0.3791 -0.3624
 2275SOL    HW118284   1.314   1.054   9.316  3.4077 -0.1279  0.5929
 2275SOL    HW218285   1.258   1.058   9.179 -1.1969  2.1685  3.1381
 2276SOL     OW18286   2.389   3.042   3.598 -0.1843  0.2046 -0.2480
 2276SOL    HW118287   2.460   3.007   3.651 -1.6890  0.6951  2.0751
 2276SOL    HW218288   2.416   3.134   3.592 -2.9783  0.9474 -1.7079
 2277SOL     OW18289   0.574   2.997   1.333 -0.7017 -0.2422  0.2098
 2277SOL    HW118290   0.501   2.978   1.392 -0.8137 -0.8704 -0.1315
 2277SOL    HW218291   0.644   3.008   1.398 -0.3763 -1.4778  0.0732
 2278SOL     OW18292   0.495   1.795   6.573 -0.1105  0.2454  0.5573
 2278SOL    HW118293   0.458   1.710   6.596  0.1951  0.4656  1.8378
 2278SOL    HW218294   0.428   1.853   6.608 -0.3232  0.0836  0.4166
 2279SOL     OW18295   0.575   2.010   6.433  0.0228 -0.0713 -0.0282
 2279SOL    HW118296   0.545   1.926   6.468  0.2508  0.2288  0.9020
 2279SOL    HW218297   0.599   2.052   6.516  0.9472 -0.2901 -0.1883
 2280SOL     OW18298   3.725   0.553  13.068 -0.3428 -0.3840  0.0462
 2280SOL    HW118299   3.706   0.500  12.990  0.4851  0.7193 -0.8998
 2280SOL    HW218300   3.683   0.502  13.137  0.6554  0.6967  1.4392
 2281SOL     OW18301   4.145   3.298   0.609  0.4953 -0.9017  0.2066
 2281SOL    HW118302   4.145   3.227   0.673  0.6914 -0.5160  0.6398
 2281SOL    HW218303   4.218   3.351   0.643 -0.9766  1.8726 -0.9425
 2282SOL     OW18304   4.064   4.173   0.972 -0.2721 -0.5049 -0.0216
 2282SOL    HW118305   4.113   4.150   1.051 -1.5498  2.2089  1.5679
 2282SOL    HW218306   4.054   4.266   0.990  0.3749 -0.8902  2.3541
 2283SOL     OW18307   1.179   4.411   7.947  0.0434  0.1490 -0.3668
 2283SOL    HW118308   1.122   4.485   7.923  0.4874  0.5409 -0.2131
 2283SOL    HW218309   1.265   4.452   7.937 -0.2237  1.3190  2.3815
 2284SOL     OW18310   1.632   4.083   5.291  0.0213 -0.1300  0.0168
 2284SOL    HW118311   1.651   4.116   5.203  0.7629 -0.2596  0.1262
 2284SOL    HW218312   1.695   4.124   5.350 -0.5238  0.6660  0.0430
 2285SOL     OW18313   0.616   1.794  10.107 -0.1527 -0.3453  0.4139
 2285SOL    HW118314   0.592   1.724  10.047 -4.2414  1.3662  0.0795
 2285SOL    HW218315   0.526   1.821  10.122 -0.3904 -0.5345 -0.6386
 2286SOL     OW18316   3.981   1.163  15.399  0.3361  0.1464 -0.1206
 2286SOL    HW118317   4.014   1.150  15.310 -0.0799  0.0974 -0.2661
 2286SOL    HW218318   3.958   1.071  15.416 -0.9804  0.6783  0.9601
 2287SOL     OW18319   3.902   3.983   2.255  0.2309  0.0237 -0.0163
 2287SOL    HW118320   3.971   3.933   2.298  0.4864 -1.4690 -2.1535
 2287SOL    HW218321   3.936   4.071   2.273  0.4734  0.3369 -1.9619
 2288SOL     OW18322   1.468   4.576   4.385  0.3495  0.4010  0.6672
 2288SOL    HW118323   1.549   4.627   4.385  0.3300  0.4344  1.1023
 2288SOL    HW218324   1.487   4.497   4.436  1.0569  0.9164  1.2057
 2289SOL     OW18325   0.556   3.946  10.537  0.2699 -0.4312 -0.5951
 2289SOL    HW118326   0.595   4.029  10.508 -2.8855  0.1671 -3.1164
 2289SOL    HW218327   0.622   3.904  10.592  0.4636  0.1443 -0.3898
 2290SOL     OW18328   3.028   1.640   5.012 -0.3812 -0.1004 -0.2548
 2290SOL    HW118329   3.033   1.572   4.945  0.4452 -2.1141  1.8393
 2290SOL    HW218330   3.011   1.577   5.082 -1.3520  1.2133  0.6843
 2291SOL     OW18331   0.584   3.319  10.625 -0.1640  0.0648 -0.5377
 2291SOL    HW118332   0.672   3.354  10.612 -0.0012 -0.1485 -0.0098
 2291SOL    HW218333   0.550   3.372  10.697  0.1918 -0.5391  0.0785
 2292SOL     OW18334   1.896   1.677   8.827  0.0909  0.1582  0.3820
 2292SOL    HW118335   1.948   1.598   8.834 -1.0247 -0.7396 -1.4218
 2292SOL    HW218336   1.871   1.695   8.918 -0.8507  0.2423  0.1126
 2293SOL     OW18337   2.832   1.160   1.850 -0.5098 -0.5886 -0.6290
 2293SOL    HW118338   2.765   1.093   1.845 -0.7724 -0.4161  0.6046
 2293SOL    HW218339   2.779   1.236   1.874  0.3333 -1.3865  3.6847
 2294SOL     OW18340   0.175   3.293   5.012 -0.4137 -0.3435 -0.0259
 2294SOL    HW118341   0.202   3.370   5.062  0.1987 -0.1216 -0.7052
 2294SOL    HW218342   0.189   3.325   4.923 -0.3038 -0.1190  0.0712
 2295SOL     OW18343   2.017   1.827   4.095  0.0706  0.1649  0.2378
 2295SOL    HW118344   2.023   1.888   4.168  0.4035  0.7526 -0.2783
 2295SOL    HW218345   2.109   1.826   4.067 -0.3355  0.7908 -1.1094
 2296SOL     OW18346   1.233   3.318  14.193 -0.3629 -0.1751 -0.2498
 2296SOL    HW118347   1.166   3.253  14.171 -1.1774  0.8761 -0.8616
 2296SOL    HW218348   1.179   3.397  14.199  0.4299  0.2564  1.2176
 2297SOL     OW18349   1.922   1.314   8.861  0.0278  0.0908  0.2944
 2297SOL    HW118350   1.997   1.275   8.814  0.3038  1.3118 -0.2766
 2297SOL    HW218351   1.946   1.318   8.953 -0.6093  0.0225  0.4645
 2298SOL     OW18352   1.191   3.312   7.371 -1.0384  0.1819  0.2015
 2298SOL    HW118353   1.104   3.336   7.339 -0.1506  0.5467 -1.9603
 2298SOL    HW218354   1.244   3.346   7.299  1.5318 -1.1936  1.4280
 2299SOL     OW18355   3.313   4.137  12.976  0.4263  0.3557  0.5182
 2299SOL    HW118356   3.360   4.190  13.040  1.5226 -2.6314  2.2341
 2299SOL    HW218357   3.223   4.139  13.009 -0.1131 -1.1447 -0.8603
 2300SOL     OW18358   1.097   1.353  15.529  0.3921  0.3836 -0.6790
 2300SOL    HW118359   1.163   1.287  15.548 -0.5813 -0.6408 -0.8487
 2300SOL    HW218360   1.068   1.373  15.618  1.5175  0.7452 -0.3903
 2301SOL     OW18361   2.427   2.240   6.185 -0.0274 -0.3927 -0.2232
 2301SOL    HW118362   2.443   2.245   6.090  0.6721  2.6967  0.0400
 2301SOL    HW218363   2.482   2.165   6.206  0.7357  0.0238 -0.7258
 2302SOL     OW18364   1.076   0.109   9.316  0.0338  0.2862 -0.6362
 2302SOL    HW118365   1.014   0.176   9.288 -0.6538  0.5721  1.5649
 2302SOL    HW218366   1.070   0.119   9.411  0.1366  1.0377 -0.7124
 2303SOL     OW18367   0.682   3.985   7.951 -1.0484  0.1362 -0.1828
 2303SOL    HW118368   0.761   3.978   7.897 -0.6604  1.1773  0.2568
 2303SOL    HW218369   0.678   3.904   8.002 -0.3554  0.8745  1.0377
 2304SOL     OW18370   4.672   1.819  17.435  0.1881 -0.2359 -0.4648
 2304SOL    HW118371   4.678   1.767  17.354  0.1495  0.0356 -0.6414
 2304SOL    HW218372   0.010   1.894  17.423  0.3238 -0.2248  0.2548
 2305SOL     OW18373   1.860   4.305   3.819 -0.2140 -0.0426  0.1107
 2305SOL    HW118374   1.941   4.266   3.787 -0.8920 -0.7483 -0.7442
 2305SOL    HW218375   1.799   4.237   3.790  0.8482 -0.6413 -0.7220
 2306SOL     OW18376   1.235   1.706  16.507 -0.5189  0.4610  0.1828
 2306SOL    HW118377   1.145   1.736  16.499 -0.4707  1.2881  2.6820
 2306SOL    HW218378   1.241   1.653  16.427 -0.4246  2.4709 -1.1534
 2307SOL     OW18379   3.993   2.485   5.595 -0.2526 -0.4208 -0.1803
 2307SOL    HW118380   3.946   2.481   5.679  0.0619  0.0903  0.0239
 2307SOL    HW218381   3.964   2.402   5.557  1.3181 -2.0703  2.2317
 2308SOL     OW18382   1.826   3.577   1.473  0.0580  0.6614 -0.6201
 2308SOL    HW118383   1.907   3.535   1.444 -0.4050  1.2295 -2.7378
 2308SOL    HW218384   1.864   3.638   1.537  2.2278 -3.3656  1.9119
 2309SOL     OW18385   4.107   0.120   7.424  0.1039 -0.4068  0.6016
 2309SOL    HW118386   4.042   0.146   7.489 -0.6821  1.0095 -0.7534
 2309SOL    HW218387   4.142   0.208   7.411  1.4558 -1.2244 -1.2984
 2310SOL     OW18388   2.060   1.550   7.286  0.0347  0.6724  0.0241
 2310SOL    HW118389   2.105   1.628   7.319 -0.2191 -0.2154  2.4900
 2310SOL    HW218390   2.028   1.589   7.205  0.7398 -0.2857 -0.7106
 2311SOL     OW18391   0.172   0.427   4.424  0.5033  0.0548 -0.2446
 2311SOL    HW118392   0.077   0.437   4.417  0.4987  0.9081  1.0718
 2311SOL    HW218393   0.204   0.450   4.337  1.2185  0.2632  0.0688
 2312SOL     OW18394   2.276   1.590   3.957  0.0269 -0.3368  0.1034
 2312SOL    HW118395   2.355   1.574   4.010 -0.7312  1.2241  1.6889
 2312SOL    HW218396   2.247   1.673   3.995  1.6368 -0.3517  1.3681
 2313SOL     OW18397   2.240   0.037   6.207  0.3039  0.8339 -0.3494
 2313SOL    HW118398   2.215   0.086   6.129 -1.7002  0.6486  0.1913
 2313SOL    HW218399   2.322   0.083   6.226  1.0469 -0.3918 -0.5760
 2314SOL     OW18400   4.218   0.464   3.208  0.2332  0.0541 -0.1540
 2314SOL    HW118401   4.153   0.407   3.167 -2.2190  1.2835  2.0020
 2314SOL    HW218402   4.282   0.465   3.137 -3.8791 -0.1374 -3.8546
 2315SOL     OW18403   1.073   2.197  17.488  0.1113 -0.0612  0.3683
 2315SOL    HW118404   1.067   2.280  17.535  0.1618  0.6958 -0.9563
 2315SOL    HW218405   1.147   2.163  17.538 -0.9956  1.3792  2.9848
 2316SOL     OW18406   3.370   1.322  11.612 -0.8281  0.1222  0.5120
 2316SOL    HW118407   3.363   1.276  11.695 -0.1470 -0.8517  0.0296
 2316SOL    HW218408   3.294   1.380  11.604 -0.3955  0.6145 -0.0192
 2317SOL     OW18409   0.294   4.547   7.509 -0.3081  0.5992  0.0074
 2317SOL    HW118410   0.369   4.607   7.518 -0.5589  1.0495 -0.8499
 2317SOL    HW218411   0.227   4.600   7.552  1.0680  2.9280 -0.7383
 2318SOL     OW18412   2.851   1.353   9.584  0.0965  0.0741 -0.5286
 2318SOL    HW118413   2.895   1.434   9.609 -1.5798  0.5122  0.9688
 2318SOL    HW218414   2.772   1.391   9.545 -1.1525 -1.5018  0.4910
 2319SOL     OW18415   4.589   2.624   9.571  0.1721 -0.0924 -0.4590
 2319SOL    HW118416   4.662   2.637   9.631  0.0863  1.2481 -0.6485
 2319SOL    HW218417   4.609   2.538   9.535  1.4920  0.1802 -0.3735
 2320SOL     OW18418   1.532   0.665   8.320  0.4855 -0.0846  0.0674
 2320SOL    HW118419   1.494   0.687   8.235  0.6459 -1.4863 -0.3787
 2320SOL    HW218420   1.563   0.575   8.306 -2.3389 -1.2347  1.2377
 2321SOL     OW18421   3.535   0.293   0.032 -0.1512  0.2195  0.5550
 2321SOL    HW118422   3.504   0.237  17.644 -0.1487  1.0277 -0.0816
 2321SOL    HW218423   3.543   0.230   0.104  0.4297  3.0839  2.9828
 2322SOL     OW18424   0.294   0.835   5.288  0.0962  0.1354  0.6381
 2322SOL    HW118425   0.324   0.886   5.213 -2.2629 -0.1885 -0.4979
 2322SOL    HW218426   0.376   0.819   5.335 -0.7845  0.6938  2.3442
 2323SOL     OW18427   2.263   2.339  12.400  0.3648 -0.7971 -0.1267
 2323SOL    HW118428   2.315   2.303  12.472 -0.4753 -1.2091  0.2727
 2323SOL    HW218429   2.330   2.365  12.337 -0.4136  0.3122 -0.4986
 2324SOL     OW18430   4.062   1.214  10.137  0.2241  0.1652 -0.2562
 2324SOL    HW118431   4.128   1.158  10.178 -1.3962 -0.6961  1.1394
 2324SOL    HW218432   4.041   1.264  10.216  1.0341 -1.3634  0.9273
 2325SOL     OW18433   4.415   3.983   7.334 -0.1119  0.6254  0.6676
 2325SOL    HW118434   4.417   3.930   7.413 -0.0177  1.2492  1.0804
 2325SOL    HW218435   4.400   3.908   7.275 -1.4128  1.2332  0.2361
 2326SOL     OW18436   3.379   4.635  16.671  0.4660  0.1481 -0.7411
 2326SOL    HW118437   3.351   4.606  16.758  2.1897  0.2880 -0.1284
 2326SOL    HW218438   3.329   4.582  16.610  0.0160  0.7010 -0.8493
 2327SOL     OW18439   0.024   0.530   7.443  0.4425  0.4067  0.2007
 2327SOL    HW118440   4.678   0.527   7.374  1.8415  0.8738 -1.1583
 2327SOL    HW218441   4.711   0.599   7.500  0.8534  0.1223  0.7752
 2328SOL     OW18442   2.310   2.219   6.885  0.1260  0.0069 -0.8752
 2328SOL    HW118443   2.359   2.218   6.804  2.1267  1.9387  0.3230
 2328SOL    HW218444   2.219   2.215   6.854 -1.2369 -0.0253  3.0269
 2329SOL     OW18445   4.090   3.641   3.541 -0.5839 -0.2506 -0.3327
 2329SOL    HW118446   4.132   3.726   3.530  1.3894 -1.1910  0.0107
 2329SOL    HW218447   4.131   3.619   3.624 -1.2149  0.2588  0.1123
 2330SOL     OW18448   1.965   3.762   1.645  0.1759 -0.3894 -0.9396
 2330SOL    HW118449   1.994   3.853   1.654  0.7059 -0.5551 -0.9965
 2330SOL    HW218450   2.042   3.714   1.616  1.1975  1.1303 -0.7481
 2331SOL     OW18451   0.978   3.475   4.339 -0.1117  0.6237 -0.3851
 2331SOL    HW118452   1.029   3.429   4.272  0.4832  5.0749 -3.0025
 2331SOL    HW218453   0.932   3.404   4.384  0.0918 -0.3327 -1.6792
 2332SOL     OW18454   0.126   2.658  17.170 -0.1163 -0.0988  0.7109
 2332SOL    HW118455   0.070   2.735  17.157 -0.9840 -1.5300 -3.8833
 2332SOL    HW218456   0.195   2.671  17.105  0.8582 -1.7235  1.4383
 2333SOL     OW18457   0.067   2.041   6.735 -0.6491 -0.0023  0.3209
 2333SOL    HW118458   0.082   2.100   6.661 -1.3772 -1.7804 -1.2378
 2333SOL    HW218459   0.000   1.994   6.685  0.6372 -0.0822 -1.3475
 2334SOL     OW18460   3.093   2.793   4.102 -0.1383  0.1038 -0.1767
 2334SOL    HW118461   3.115   2.847   4.178 -0.0790 -2.9947  2.0040
 2334SOL    HW218462   3.166   2.733   4.085 -0.9908 -0.7474 -0.7836
 2335SOL     OW18463   4.231   2.771  11.218 -0.8285  0.3310 -0.6766
 2335SOL    HW118464   4.249   2.859  11.186  1.5907  0.0458 -0.1361
 2335SOL    HW218465   4.188   2.737  11.140 -1.4401 -1.8281  0.5904
 2336SOL     OW18466   4.189   0.414   7.816  0.5677  0.3379 -0.2382
 2336SOL    HW118467   4.242   0.335   7.814 -2.3995 -1.6151 -2.3220
 2336SOL    HW218468   4.247   0.479   7.778  0.0294  0.4111 -0.9452
 2337SOL     OW18469   1.543   3.839   3.061  0.2234  0.0091 -0.6155
 2337SOL    HW118470   1.555   3.831   3.156  1.4990  1.9223 -0.6224
 2337SOL    HW218471   1.577   3.752   3.038  1.2622  0.1871  0.2715
 2338SOL     OW18472   3.051   3.769   5.436  0.1475 -0.6712 -0.8199
 2338SOL    HW118473   3.028   3.812   5.354  0.8491  0.7108 -0.2914
 2338SOL    HW218474   3.116   3.832   5.467 -0.9453 -0.4869  1.0846
 2339SOL     OW18475   2.239   2.602   6.488 -0.5223 -0.4436  0.0681
 2339SOL    HW118476   2.258   2.512   6.514 -0.3597 -0.9223 -1.7533
 2339SOL    HW218477   2.194   2.621   6.570  1.1079 -0.1336  0.9085
 2340SOL     OW18478   3.917   1.006   5.038  1.0182 -0.1467 -0.3064
 2340SOL    HW118479   3.870   0.923   5.040 -1.0102  0.9805 -1.5074
 2340SOL    HW218480   3.842   1.064   5.025  0.4586 -0.9651 -0.7046
 2341SOL     OW18481   1.702   1.725   3.573  0.3103  0.9916  0.3711
 2341SOL    HW118482   1.607   1.713   3.577  0.1787  1.8689 -0.0302
 2341SOL    HW218483   1.709   1.778   3.493  1.7874 -2.0111 -1.4817
 2342SOL     OW18484   1.995   1.822   8.584 -0.5129 -0.5795  0.0631
 2342SOL    HW118485   1.962   1.912   8.586 -0.0562 -0.4725  2.7260
 2342SOL    HW218486   1.970   1.780   8.666  2.1373 -0.6451  0.8262
 2343SOL     OW18487   3.994   0.543   8.106 -0.2200 -0.1895  0.9748
 2343SOL    HW118488   4.070   0.527   8.161  1.3576  2.6712 -0.3566
 2343SOL    HW218489   3.917   0.545   8.163  0.4995 -0.5594  1.9552
 2344SOL     OW18490   2.754   0.907   9.980  0.6779 -0.4309 -0.2152
 2344SOL    HW118491   2.824   0.966   9.952 -0.4072  0.2250 -1.5357
 2344SOL    HW218492   2.743   0.853   9.901 -1.6411 -0.5076  0.1452
 2345SOL     OW18493   4.491   0.804   5.752  0.4822 -0.1084  0.6468
 2345SOL    HW118494   4.513   0.890   5.788  1.7711 -1.1894  2.4568
 2345SOL    HW218495   4.483   0.748   5.829 -1.9943  0.8779  1.1157
 2346SOL     OW18496   0.335   3.413   9.109 -0.1541  0.0683 -0.0377
 2346SOL    HW118497   0.314   3.362   9.187 -1.6223 -0.2480 -0.6494
 2346SOL    HW218498   0.250   3.404   9.068 -1.1692  2.7182  1.4690
 2347SOL     OW18499   2.822   1.812  16.299 -0.3541  0.1871  0.3309
 2347SOL    HW118500   2.767   1.877  16.254 -1.3872 -1.8564 -1.3577
 2347SOL    HW218501   2.830   1.755  16.223  2.1723  0.4810  0.3803
 2348SOL     OW18502   1.529   3.604   6.491  0.6031 -0.1345  0.0344
 2348SOL    HW118503   1.565   3.591   6.579  0.1513  0.0367  0.2475
 2348SOL    HW218504   1.442   3.637   6.514  0.8179  0.8259 -0.5261
 2349SOL     OW18505   4.394   1.510   5.731  0.0020 -0.7784 -0.3725
 2349SOL    HW118506   4.360   1.431   5.687 -0.1974 -0.3141 -1.0603
 2349SOL    HW218507   4.317   1.567   5.727  1.4987  1.2132 -0.4906
 2350SOL     OW18508   2.102   2.499  17.043 -0.4982 -0.0771 -0.0870
 2350SOL    HW118509   2.084   2.434  16.975 -0.9720 -0.9698  0.8963
 2350SOL    HW218510   2.103   2.580  16.993 -1.7543  0.9809  1.5999
 2351SOL     OW18511   4.463   0.679   1.872 -0.0609 -0.2670  0.5200
 2351SOL    HW118512   4.467   0.583   1.866  0.8096  0.0186 -3.2685
 2351SOL    HW218513   4.530   0.689   1.940  0.5041 -3.1351  0.3974
 2352SOL     OW18514   3.740   2.755  15.402  0.1048 -0.2803  0.1913
 2352SOL    HW118515   3.830   2.752  15.370  0.2440 -2.1154  0.7704
 2352SOL    HW218516   3.714   2.847  15.405  4.8440  1.0464 -0.7190
 2353SOL     OW18517   3.805   3.771   6.394 -0.2165  0.0643  0.4340
 2353SOL    HW118518   3.835   3.686   6.362  0.4020 -0.0697  1.3788
 2353SOL    HW218519   3.735   3.748   6.455 -1.0741  1.4612 -0.0152
 2354SOL     OW18520   1.578   3.624   7.037  0.2417  0.1423  0.0605
 2354SOL    HW118521   1.568   3.541   7.083  2.8666  0.2937  0.9151
 2354SOL    HW218522   1.581   3.685   7.111 -0.9096  0.1676  0.0870
 2355SOL     OW18523   1.563   2.970   4.474 -0.4143  0.8802 -0.7794
 2355SOL    HW118524   1.472   2.962   4.499 -0.2560  0.0166 -0.4835
 2355SOL    HW218525   1.610   2.931   4.548 -0.6698  2.3806  0.1690
 2356SOL     OW18526   3.945   2.828   7.232  0.6013 -0.3965 -0.5833
 2356SOL    HW118527   3.911   2.802   7.318 -3.4328  1.4807 -1.6224
 2356SOL    HW218528   4.017   2.767   7.213  0.6403 -0.5243 -0.0513
 2357SOL     OW18529   3.252   4.704   2.927 -0.4012  0.5027 -0.2982
 2357SOL    HW118530   3.236   4.618   2.964 -0.5778 -0.4436 -2.5325
 2357SOL    HW218531   3.319   4.678   2.864  1.7046  2.1510  1.2790
 2358SOL     OW18532   2.692   0.673  17.464  0.0665 -0.0254  0.1398
 2358SOL    HW118533   2.747   0.751  17.472 -1.1545  1.0015 -1.4526
 2358SOL    HW218534   2.611   0.713  17.494 -0.5414 -0.9004 -0.3430
 2359SOL     OW18535   0.208   0.524   6.587  0.4605  0.3049 -0.0580
 2359SOL    HW118536   0.120   0.550   6.560  0.1727 -1.2432 -0.6263
 2359SOL    HW218537   0.210   0.580   6.665 -1.3729 -1.8754  1.5746
 2360SOL     OW18538   0.577   3.409   3.624 -0.0248 -0.0230 -0.5218
 2360SOL    HW118539   0.634   3.405   3.547  2.8543 -0.0852  1.6120
 2360SOL    HW218540   0.589   3.320   3.656 -0.1294  0.2351  0.2509
 2361SOL     OW18541   1.693   3.159   5.541 -0.0731 -0.5757 -0.1005
 2361SOL    HW118542   1.678   3.082   5.596  1.6538 -1.0662 -0.3028
 2361SOL    HW218543   1.783   3.135   5.519 -0.0032  0.1499 -0.6115
 2362SOL     OW18544   3.829   2.354  14.768 -0.0397  0.2758  0.0224
 2362SOL    HW118545   3.735   2.344  14.779 -0.3749 -1.0028 -4.1186
 2362SOL    HW218546   3.868   2.266  14.766 -0.2852  0.1254  1.4362
 2363SOL     OW18547   0.898   4.627   4.275  0.1535 -0.0155 -0.1505
 2363SOL    HW118548   0.989   4.650   4.292  0.5845 -1.9745  0.0971
 2363SOL    HW218549   0.854   4.679   4.343 -0.6890 -2.0554  0.8762
 2364SOL     OW18550   0.952   3.161  13.339  0.1307  0.2589 -1.0741
 2364SOL    HW118551   0.994   3.161  13.425  1.4981 -0.4715 -1.7343
 2364SOL    HW218552   0.859   3.159  13.361 -0.1998 -0.3022 -2.5173
 2365SOL     OW18553   2.144   0.695   6.352 -0.2928  0.4267 -0.2631
 2365SOL    HW118554   2.165   0.776   6.399 -0.4281 -0.1023  0.7014
 2365SOL    HW218555   2.229   0.652   6.355 -0.4192  0.3837  2.3810
 2366SOL     OW18556   1.331   0.921  12.425 -0.7373 -0.0979  0.0388
 2366SOL    HW118557   1.408   0.865  12.413  0.0673  0.8687  0.7144
 2366SOL    HW218558   1.345   0.961  12.510 -0.4960  1.7555 -0.8646
 2367SOL     OW18559   3.190   1.767   4.597  0.3069  0.2565 -0.0229
 2367SOL    HW118560   3.214   1.676   4.614  2.4505  0.5279 -1.6359
 2367SOL    HW218561   3.277   1.805   4.610  0.9723 -0.4282 -2.4662
 2368SOL     OW18562   1.622   4.362   7.803  0.0492  0.1613  0.3141
 2368SOL    HW118563   1.692   4.342   7.740 -0.3495  2.6563 -0.9240
 2368SOL    HW218564   1.610   4.276   7.844  2.2240  0.4322  1.5062
 2369SOL     OW18565   4.606   3.042   7.140 -0.2807 -0.3988 -0.4429
 2369SOL    HW118566   4.678   3.011   7.085 -0.0058  0.4828 -0.5667
 2369SOL    HW218567   4.572   2.956   7.167  0.6642 -0.2950  1.0707
 2370SOL     OW18568   3.976   3.501   5.939  0.3224  0.0337  0.3287
 2370SOL    HW118569   4.031   3.566   5.985  2.4451 -2.5715  1.4809
 2370SOL    HW218570   3.926   3.467   6.013  2.3577 -1.2850  1.1085
 2371SOL     OW18571   3.640   1.371   3.337 -0.4237 -0.0345 -0.1175
 2371SOL    HW118572   3.690   1.393   3.416  0.1748  2.2666 -1.1565
 2371SOL    HW218573   3.669   1.282   3.319  0.5635  0.1699  0.4772
 2372SOL     OW18574   2.557   4.589   9.668 -0.1553 -0.1345 -0.3235
 2372SOL    HW118575   2.600   4.665   9.707  1.0961 -1.2417  0.4430
 2372SOL    HW218576   2.547   4.532   9.744  0.8973  1.3692  0.9430
 2373SOL     OW18577   1.357   1.524  13.750 -0.0233 -0.6066 -0.1562
 2373SOL    HW118578   1.381   1.464  13.820 -0.6869  0.1803  0.7554
 2373SOL    HW218579   1.444   1.549  13.718 -0.9260  0.3011 -1.8810
 2374SOL     OW18580   4.421   1.811   3.072  0.1124  0.0147 -0.2084
 2374SOL    HW118581   4.489   1.870   3.104  1.2686 -1.7401  0.5570
 2374SOL    HW218582   4.466   1.727   3.086  2.1721  1.0448 -0.7240
 2375SOL     OW18583   2.420   4.630  13.099 -0.5003  0.4302 -0.8423
 2375SOL    HW118584   2.358   4.595  13.162  0.3231  0.5780  0.0581
 2375SOL    HW218585   2.460   4.701  13.149 -0.2273  0.8107 -1.5978
 2376SOL     OW18586   2.026   2.299  14.351  0.4500 -0.7003 -0.0422
 2376SOL    HW118587   2.013   2.267  14.262  0.5351 -1.5150  0.2369
 2376SOL    HW218588   2.099   2.358  14.332 -0.7188  0.7498 -0.0424
 2377SOL     OW18589   0.454   4.395  10.748 -0.0083  0.1422 -0.1036
 2377SOL    HW118590   0.391   4.440  10.692 -1.3465 -1.5807  0.0449
 2377SOL    HW218591   0.394   4.347  10.804  0.6732  1.5824  1.8640
 2378SOL     OW18592   4.350   0.831   8.482  0.2967  0.2045  0.1974
 2378SOL    HW118593   4.333   0.877   8.400 -1.1249 -0.4748  0.1192
 2378SOL    HW218594   4.439   0.862   8.502 -0.0985  0.6570  1.2471
 2379SOL     OW18595   2.288   2.834   1.850  0.3333 -0.3467 -0.4672
 2379SOL    HW118596   2.222   2.770   1.823  1.7649 -1.6114 -0.9989
 2379SOL    HW218597   2.364   2.777   1.839 -0.9893 -2.1299 -0.3625
 2380SOL     OW18598   2.596   0.283   3.615  0.0531  0.5960  0.0212
 2380SOL    HW118599   2.609   0.341   3.540 -0.5129  1.8965  0.9239
 2380SOL    HW218600   2.656   0.325   3.676 -1.8273  3.1455  0.1494
 2381SOL     OW18601   1.190   2.347  13.221 -0.0965  0.1724 -0.0746
 2381SOL    HW118602   1.174   2.400  13.143  0.6729  3.3453  1.9272
 2381SOL    HW218603   1.268   2.393  13.254  0.3659  0.0813 -1.0359
 2382SOL     OW18604   4.547   1.088   0.337  0.0954 -0.1069  0.0067
 2382SOL    HW118605   4.495   1.076   0.416  0.6460 -2.3801  0.0368
 2382SOL    HW218606   4.521   1.007   0.292 -2.0995  1.5147 -1.6092
 2383SOL     OW18607   3.379   3.300   8.030 -0.2585  0.0945  0.2769
 2383SOL    HW118608   3.344   3.211   8.035 -0.4740  0.0814 -1.7609
 2383SOL    HW218609   3.467   3.302   7.991  0.2300  1.5492  1.4440
 2384SOL     OW18610   2.831   0.264   2.159 -0.4429 -0.4544 -0.1690
 2384SOL    HW118611   2.872   0.243   2.243  1.7464  1.0629 -0.8552
 2384SOL    HW218612   2.800   0.173   2.152 -0.4679 -0.5326  0.8803
 2385SOL     OW18613   2.774   3.292  11.412  0.3464 -0.2591  0.6444
 2385SOL    HW118614   2.764   3.333  11.499 -1.8831  1.1460 -0.2645
 2385SOL    HW218615   2.716   3.216  11.423 -0.8517  0.3967 -1.3108
 2386SOL     OW18616   1.980   1.565  14.506  0.6649 -0.0810  0.4691
 2386SOL    HW118617   1.899   1.523  14.534  0.3523  1.6519  2.1178
 2386SOL    HW218618   2.037   1.581  14.581  0.2223  1.2041  0.5296
 2387SOL     OW18619   1.576   0.511  13.206 -0.1423  0.1372  0.0027
 2387SOL    HW118620   1.617   0.585  13.161  0.7798  0.0286  0.6512
 2387SOL    HW218621   1.562   0.545  13.295 -1.2262  2.3333 -1.0104
 2388SOL     OW18622   3.422   1.379   8.109 -0.3115  0.4207 -0.0106
 2388SOL    HW118623   3.513   1.407   8.112 -0.8277  1.9968  0.7722
 2388SOL    HW218624   3.409   1.362   8.203  2.0961 -1.0916  0.0308
 2389SOL     OW18625   3.757   2.548   4.656  0.5033  0.1539  0.7669
 2389SOL    HW118626   3.807   2.479   4.613  0.6303  0.4709  0.4121
 2389SOL    HW218627   3.670   2.508   4.659  0.0111  1.2599  1.1628
 2390SOL     OW18628   4.177   2.691   7.228 -0.1637  0.5364  0.6064
 2390SOL    HW118629   4.254   2.634   7.228  1.0420  2.1960  0.0395
 2390SOL    HW218630   4.210   2.764   7.280  2.0529  0.8905 -1.3240
 2391SOL     OW18631   2.347   3.655   6.660 -0.1274  0.1854  0.1478
 2391SOL    HW118632   2.388   3.596   6.597  2.0395  1.5896  0.2557
 2391SOL    HW218633   2.400   3.662   6.739  0.5577 -1.0840 -0.1931
 2392SOL     OW18634   4.589   0.284  11.946  0.3851 -0.3916 -0.4789
 2392SOL    HW118635   4.545   0.335  11.878 -0.4049 -1.3372 -0.6821
 2392SOL    HW218636   4.650   0.235  11.890 -0.2372 -0.8964 -0.7137
 2393SOL     OW18637   1.059   4.129  16.957 -0.0830  0.3477  0.3091
 2393SOL    HW118638   1.114   4.053  16.977 -0.8243 -0.6358 -1.4617
 2393SOL    HW218639   1.010   4.124  17.040 -1.4957 -1.7481 -0.6492
 2394SOL     OW18640   4.619   1.630   5.618 -0.5806  0.3954 -0.7279
 2394SOL    HW118641   4.561   1.629   5.694  0.1668  0.9122 -0.1576
 2394SOL    HW218642   4.566   1.590   5.549 -1.0291  2.1786 -1.4276
 2395SOL     OW18643   1.552   0.177   5.358  0.2257  0.0529 -0.7224
 2395SOL    HW118644   1.530   0.193   5.267 -0.5024  0.7843 -0.4178
 2395SOL    HW218645   1.487   0.120   5.397  0.4729  0.8831  0.9203
 2396SOL     OW18646   4.527   2.203   3.295 -0.5161  0.7985 -0.0870
 2396SOL    HW118647   4.482   2.245   3.222 -0.6929  0.2619 -0.2903
 2396SOL    HW218648   4.495   2.258   3.366  0.6543  1.3449  0.0112
 2397SOL     OW18649   2.085   1.484   4.721 -0.0596 -0.1782  0.8330
 2397SOL    HW118650   2.094   1.501   4.815  2.8685  0.1457  0.5118
 2397SOL    HW218651   2.033   1.404   4.728  1.2940 -1.0172  1.3207
 2398SOL     OW18652   4.339   3.797   4.154 -0.0743 -0.1992 -0.0834
 2398SOL    HW118653   4.403   3.864   4.178  0.1899 -0.2558 -0.6318
 2398SOL    HW218654   4.354   3.786   4.060 -1.2649  0.2873 -0.3373
 2399SOL     OW18655   3.078   3.794   7.819  0.1826 -0.8055  0.2948
 2399SOL    HW118656   3.075   3.746   7.737 -1.3657  2.7036 -1.7376
 2399SOL    HW218657   2.987   3.826   7.824  0.8674  1.0835  0.8154
 2400SOL     OW18658   0.852   3.637  11.098 -0.1306 -0.4297  1.0066
 2400SOL    HW118659   0.936   3.592  11.091 -0.9300 -1.6663 -0.5507
 2400SOL    HW218660   0.822   3.631  11.007 -0.1301 -0.0291  0.9806
 2401SOL     OW18661   1.336   4.015  12.333 -0.1043 -0.2802 -0.2285
 2401SOL    HW118662   1.284   4.091  12.306 -1.8300 -1.8419 -1.3172
 2401SOL    HW218663   1.322   4.006  12.428  0.9118  2.3651  0.1762
 2402SOL     OW18664   2.821   4.100   4.805 -0.0044  0.2108  0.2818
 2402SOL    HW118665   2.750   4.049   4.766 -0.9606  1.7807 -0.0101
 2402SOL    HW218666   2.873   4.027   4.840 -0.9557 -0.3683  0.4903
 2403SOL     OW18667   1.747   3.044   2.780 -0.4698  0.0383  0.1304
 2403SOL    HW118668   1.788   2.993   2.850 -2.3725 -2.9023 -0.9019
 2403SOL    HW218669   1.786   3.131   2.772 -0.7155  0.3253  2.1003
 2404SOL     OW18670   0.474   1.633   7.012  0.2466  0.4914 -0.4172
 2404SOL    HW118671   0.529   1.671   7.080 -1.2880  2.9973 -0.5637
 2404SOL    HW218672   0.483   1.539   7.029 -1.3899  0.5448  0.7429
 2405SOL     OW18673   2.740   1.743   2.185 -0.3791  0.0017 -0.1154
 2405SOL    HW118674   2.742   1.822   2.132 -0.4404 -0.1947 -0.4121
 2405SOL    HW218675   2.815   1.691   2.156 -1.8010 -2.2368  0.1545
 2406SOL     OW18676   2.206   4.478  14.692  0.0835 -0.1757  0.2903
 2406SOL    HW118677   2.208   4.531  14.612  0.1701 -0.8494 -0.1558
 2406SOL    HW218678   2.132   4.423  14.667  0.1021  0.0959 -0.3753
 2407SOL     OW18679   1.270   4.018  12.621 -0.6150  0.2938  0.0110
 2407SOL    HW118680   1.190   4.064  12.596  0.2455  0.8836 -1.6651
 2407SOL    HW218681   1.248   4.008  12.714  2.5342 -1.7586  0.5294
 2408SOL     OW18682   3.095   2.197   5.625 -0.3237 -0.3060 -0.1726
 2408SOL    HW118683   3.076   2.275   5.573 -1.4003  0.3370  1.1718
 2408SOL    HW218684   3.143   2.144   5.561 -1.6496 -1.6064 -0.0805
 2409SOL     OW18685   3.247   3.450   1.311  0.0232 -0.5488  1.0419
 2409SOL    HW118686   3.209   3.364   1.331 -1.1450 -0.2133  0.2704
 2409SOL    HW218687   3.202   3.454   1.227 -1.0857 -0.4107  1.6335
 2410SOL     OW18688   2.069   3.806   4.354  0.2994 -0.7072  0.1060
 2410SOL    HW118689   2.041   3.720   4.322 -1.4627 -0.6462  1.4674
 2410SOL    HW218690   2.134   3.801   4.424 -0.6437  0.0465  1.0393
 2411SOL     OW18691   1.864   0.319   7.375  0.1279  0.2028 -0.2160
 2411SOL    HW118692   1.785   0.270   7.399  1.2838 -1.5376  0.0882
 2411SOL    HW218693   1.929   0.253   7.349  1.6114  0.5366  2.5206
 2412SOL     OW18694   0.431   2.597  16.442  0.7448 -0.1064  0.2198
 2412SOL    HW118695   0.448   2.522  16.386 -1.2686 -2.0402  2.2147
 2412SOL    HW218696   0.486   2.666  16.405  1.3534 -1.3263 -1.1229
 2413SOL     OW18697   4.160   1.866   3.137  0.4387 -0.4845  0.7655
 2413SOL    HW118698   4.130   1.856   3.047  1.1636  1.0172  0.3450
 2413SOL    HW218699   4.253   1.843   3.136  0.5358 -0.0886  0.4077
 2414SOL     OW18700   1.985   0.676   2.188  0.1168 -0.2462  0.4342
 2414SOL    HW118701   1.992   0.769   2.209  2.8957 -0.1246 -0.9992
 2414SOL    HW218702   2.071   0.646   2.216 -1.0213 -0.9836  3.0956
 2415SOL     OW18703   0.154   0.608   3.136 -0.1644 -0.3100  0.4583
 2415SOL    HW118704   0.067   0.589   3.172 -0.5577  1.0842  0.2277
 2415SOL    HW218705   0.163   0.702   3.152 -0.1000  0.1162 -2.2065
 2416SOL     OW18706   0.104   1.883  17.681 -0.1307  0.0759 -0.5589
 2416SOL    HW118707   0.038   1.836  17.630 -0.4513 -0.0382 -0.0380
 2416SOL    HW218708   0.156   1.921  17.610 -0.4343  0.5404 -0.5372
 2417SOL     OW18709   0.870   2.867  12.095 -0.6629 -0.1972 -0.8889
 2417SOL    HW118710   0.848   2.847  12.186  0.8175 -1.9841 -0.9170
 2417SOL    HW218711   0.944   2.810  12.074 -2.2095 -2.4716 -0.2002
 2418SOL     OW18712   4.647   1.487   7.651 -0.1108  0.0907 -0.5398
 2418SOL    HW118713   4.586   1.449   7.588  0.5381  0.3781 -1.3457
 2418SOL    HW218714   4.591   1.538   7.709  3.4228  2.3497  0.8967
 2419SOL     OW18715   2.760   0.748  15.631 -0.6567 -0.1615 -0.3904
 2419SOL    HW118716   2.778   0.834  15.592  2.4439  0.1410  1.6613
 2419SOL    HW218717   2.710   0.768  15.710  1.8985  0.4160  1.0878
 2420SOL     OW18718   3.958   0.746  11.542 -0.4012 -0.1482  0.0815
 2420SOL    HW118719   3.971   0.674  11.481  2.0242  1.1443 -0.8788
 2420SOL    HW218720   3.904   0.693  11.602 -0.0816 -2.7596 -1.9407
 2421SOL     OW18721   3.698   1.079  17.446 -0.7025 -0.3303  0.2441
 2421SOL    HW118722   3.612   1.087  17.404 -0.3407 -0.2616 -0.4781
 2421SOL    HW218723   3.673   1.049  17.533  1.0050 -0.6708  0.6185
 2422SOL     OW18724   3.747   1.775   5.390 -0.1933  0.0346 -0.7833
 2422SOL    HW118725   3.842   1.779   5.392 -0.2390  1.4994 -1.8698
 2422SOL    HW218726   3.712   1.842   5.449 -1.2068 -0.9259 -0.2885
 2423SOL     OW18727   0.849   1.357   8.305 -0.1881  0.5970  0.4925
 2423SOL    HW118728   0.893   1.330   8.225  1.8143 -0.2191  1.8766
 2423SOL    HW218729   0.778   1.293   8.311  0.6272 -0.5417 -2.4740
 2424SOL     OW18730   2.369   1.571  10.779  0.3012  0.0798 -0.5576
 2424SOL    HW118731   2.312   1.495  10.767  1.0908 -0.4168 -1.1869
 2424SOL    HW218732   2.410   1.578  10.693  0.2753  0.3180 -0.5505
 2425SOL     OW18733   0.560   3.313   7.911  0.2912 -0.0661 -0.0183
 2425SOL    HW118734   0.633   3.281   7.859  0.2410 -0.1056 -0.0639
 2425SOL    HW218735   0.535   3.228   7.947  0.4869 -1.3102 -2.8294
 2426SOL     OW18736   1.324   1.108   8.375  0.3526 -0.6716 -0.2198
 2426SOL    HW118737   1.293   1.154   8.453  0.6086  1.7025 -1.5402
 2426SOL    HW218738   1.326   1.017   8.405  1.1222 -1.2368 -1.9969
 2427SOL     OW18739   1.892   0.991   1.600 -0.0167  0.2159  0.0059
 2427SOL    HW118740   1.874   0.995   1.694 -0.1708 -0.9109  0.0294
 2427SOL    HW218741   1.986   0.974   1.591  0.1485  1.7162 -1.0118
 2428SOL     OW18742   3.964   3.788   7.496 -0.5210  0.1885 -0.8979
 2428SOL    HW118743   4.044   3.798   7.548 -1.6179  2.0335  0.4367
 2428SOL    HW218744   3.946   3.881   7.484 -0.6574  0.5712  2.4574
 2429SOL     OW18745   1.286   0.406   3.970 -0.0482  0.1799 -0.4144
 2429SOL    HW118746   1.354   0.352   4.011 -0.7875 -1.0171 -0.7710
 2429SOL    HW218747   1.340   0.485   3.964  0.2384  0.3982  4.8618
 2430SOL     OW18748   1.380   2.198  13.471  0.5878 -0.0238  0.7023
 2430SOL    HW118749   1.318   2.271  13.468 -1.3379 -1.6847  0.1432
 2430SOL    HW218750   1.420   2.196  13.384  1.4810  0.4169  1.0947
 2431SOL     OW18751   3.119   1.417  11.913 -0.1990 -0.6291 -0.1156
 2431SOL    HW118752   3.043   1.362  11.927 -0.7775 -0.0581 -0.9778
 2431SOL    HW218753   3.193   1.357  11.920  1.1057  0.9653 -0.2242
 2432SOL     OW18754   3.761   2.168  10.588 -0.7574 -0.8508  0.0653
 2432SOL    HW118755   3.748   2.221  10.667  0.9426  1.4299 -1.1769
 2432SOL    HW218756   3.831   2.114  10.626 -1.1013 -1.5753 -0.3308
 2433SOL     OW18757   1.327   1.741   0.027 -0.3167  0.1014 -0.5011
 2433SOL    HW118758   1.390   1.696  17.654 -0.2085 -0.7246  0.2752
 2433SOL    HW218759   1.349   1.713   0.116 -0.2033 -0.7685 -0.7954
 2434SOL     OW18760   3.183   1.996  16.250 -0.7101  0.0649 -0.5048
 2434SOL    HW118761   3.091   1.973  16.235 -0.3451 -1.9311  0.2594
 2434SOL    HW218762   3.167   2.082  16.287  1.3043 -0.7456  2.2437
 2435SOL     OW18763   4.088   2.061   7.330 -0.3304  0.4838 -0.1445
 2435SOL    HW118764   4.133   1.977   7.338 -0.4045  0.3418 -1.1422
 2435SOL    HW218765   4.116   2.097   7.414 -0.2071  0.6233 -0.2436
 2436SOL     OW18766   2.648   1.996   8.706  0.7354 -0.1253  0.0995
 2436SOL    HW118767   2.687   2.028   8.625 -1.3791  1.3420 -0.3543
 2436SOL    HW218768   2.664   2.068   8.766  2.1797  0.1265 -0.5843
 2437SOL     OW18769   4.280   0.347  13.351  0.1816 -0.3528  0.3344
 2437SOL    HW118770   4.303   0.329  13.442  2.1978  0.1053 -0.0861
 2437SOL    HW218771   4.307   0.434  13.322 -1.2437 -0.3469 -0.9665
 2438SOL     OW18772   0.927   1.210   2.750  0.3873 -0.5556 -0.8295
 2438SOL    HW118773   0.937   1.272   2.677 -2.9895 -1.4959 -2.0752
 2438SOL    HW218774   0.884   1.269   2.813  1.5692 -1.0470  0.4331
 2439SOL     OW18775   2.754   3.057  10.819 -0.4948  0.0737 -0.3087
 2439SOL    HW118776   2.736   3.058  10.725  0.9650 -2.0365 -0.5916
 2439SOL    HW218777   2.668   3.023  10.845 -0.5450 -0.2886 -0.9663
 2440SOL     OW18778   0.280   1.128   5.881 -0.0533 -0.3925  0.2615
 2440SOL    HW118779   0.251   1.128   5.790 -0.6230 -2.2605  0.4438
 2440SOL    HW218780   0.366   1.089   5.868  0.8556  2.0317 -0.9699
 2441SOL     OW18781   2.347   1.808   1.754  0.4629 -0.3313 -0.4467
 2441SOL    HW118782   2.413   1.783   1.818  1.3042 -2.5521 -2.1725
 2441SOL    HW218783   2.398   1.836   1.678 -0.6022 -0.9992 -1.4064
 2442SOL     OW18784   1.015   3.287   0.893 -0.4161  0.7167  0.8890
 2442SOL    HW118785   1.073   3.345   0.843  0.9236 -1.5204 -0.1387
 2442SOL    HW218786   0.950   3.260   0.829 -1.3644  0.7977  1.8129
 2443SOL     OW18787   3.306   0.690  11.492 -0.3479 -0.4181 -0.0115
 2443SOL    HW118788   3.335   0.708  11.402 -0.2267  1.5563  0.4176
 2443SOL    HW218789   3.389   0.703  11.537 -1.0097  0.8959  0.8228
 2444SOL     OW18790   0.958   3.183   7.113  0.1666 -0.4709  0.1337
 2444SOL    HW118791   0.982   3.134   7.192  0.8740  0.2926  0.3941
 2444SOL    HW218792   0.937   3.273   7.139  0.7446 -0.5557  0.8951
 2445SOL     OW18793   2.382   3.089   8.929 -0.5293 -0.5496  0.1591
 2445SOL    HW118794   2.390   3.183   8.944  2.5748 -0.5282 -1.5495
 2445SOL    HW218795   2.366   3.056   9.018  1.8047 -0.3499  0.6686
 2446SOL     OW18796   3.849   1.421   7.407 -0.1299 -0.0289 -0.9217
 2446SOL    HW118797   3.776   1.483   7.419 -0.5229 -0.0539 -3.2447
 2446SOL    HW218798   3.848   1.393   7.498  3.6318 -0.7636 -1.1234
 2447SOL     OW18799   3.849   0.567  12.427  0.5426  0.9731  0.2189
 2447SOL    HW118800   3.871   0.627  12.355  1.8851  1.8640  1.3578
 2447SOL    HW218801   3.913   0.503  12.396  1.2397  1.4220  0.7305
 2448SOL     OW18802   1.517   4.600  16.762  0.1556 -0.0941 -0.3128
 2448SOL    HW118803   1.452   4.558  16.818  1.0372  0.2530  0.9734
 2448SOL    HW218804   1.598   4.559  16.792 -0.6828 -1.0045  0.7164
 2449SOL     OW18805   3.527   4.539  12.846  0.7996 -0.6110  0.3710
 2449SOL    HW118806   3.483   4.456  12.865  0.5634 -1.1493 -2.5265
 2449SOL    HW218807   3.587   4.514  12.776 -2.3628 -3.5636 -1.2999
 2450SOL     OW18808   1.146   2.018   3.970 -0.2172 -0.3388  0.1041
 2450SOL    HW118809   1.221   1.982   4.018  1.4606 -0.2632 -2.4800
 2450SOL    HW218810   1.086   2.047   4.039  0.1234  0.9725 -0.1566
 2451SOL     OW18811   1.097   0.058   1.765 -0.1116 -0.7572 -0.3281
 2451SOL    HW118812   1.073   4.691   1.736 -2.4176  0.2739 -1.5081
 2451SOL    HW218813   1.099   0.116   1.689 -1.1790  0.3297  0.4632
 2452SOL     OW18814   3.576   0.494   5.185 -0.4106  0.2108  0.3437
 2452SOL    HW118815   3.488   0.511   5.219 -0.1302  2.8231 -0.2373
 2452SOL    HW218816   3.606   0.578   5.219 -0.5178  0.0020  0.9686
 2453SOL     OW18817   0.198   3.920  13.284  0.4157 -0.3888  0.5049
 2453SOL    HW118818   0.200   3.928  13.188 -0.8410 -2.9726  0.2714
 2453SOL    HW218819   0.288   3.888  13.292  0.1385 -1.4886 -0.7672
 2454SOL     OW18820   0.941   2.410  12.844 -0.2575  0.1037  0.4870
 2454SOL    HW118821   1.014   2.445  12.895  0.2321  2.5930 -1.8965
 2454SOL    HW218822   0.962   2.319  12.867  0.4581  0.4247  1.1004
 2455SOL     OW18823   0.377   4.552   6.777 -0.2925  0.3335 -0.4938
 2455SOL    HW118824   0.357   4.611   6.704 -0.4815  0.4084 -0.3804
 2455SOL    HW218825   0.331   4.472   6.754  1.8335 -1.1350  0.4105
 2456SOL     OW18826   4.260   1.666   1.450 -0.0818  0.7025 -0.1162
 2456SOL    HW118827   4.333   1.728   1.445 -0.9445  1.7055 -0.3205
 2456SOL    HW218828   4.280   1.621   1.368 -1.6005  0.0664 -0.1436
 2457SOL     OW18829   0.152   3.164   2.791  0.1835  0.7063 -0.3875
 2457SOL    HW118830   0.093   3.107   2.742  0.8496  0.7575 -1.2513
 2457SOL    HW218831   0.232   3.146   2.742  0.4826  1.2584 -0.1080
 2458SOL     OW18832   3.312   2.819   9.662  0.1082 -0.2578  0.3890
 2458SOL    HW118833   3.403   2.792   9.672 -0.5065 -2.3777  0.2915
 2458SOL    HW218834   3.334   2.892   9.604 -1.6699  0.6037  0.7848
 2459SOL     OW18835   3.029   3.665   2.369  0.5363  0.2327  0.4176
 2459SOL    HW118836   2.951   3.721   2.378  0.2250  0.3275 -2.9711
 2459SOL    HW218837   3.018   3.619   2.452  0.3350 -2.0782 -0.8975
 2460SOL     OW18838   3.158   3.613  15.938  0.0051 -0.1395 -0.2153
 2460SOL    HW118839   3.087   3.640  15.879 -0.8303  2.1296  1.8315
 2460SOL    HW218840   3.129   3.534  15.984  0.6542  0.6635  1.5474
 2461SOL     OW18841   4.317   1.108   5.929 -0.2273  0.2598  0.2605
 2461SOL    HW118842   4.368   1.184   5.958  1.6985 -0.1390 -2.0903
 2461SOL    HW218843   4.291   1.134   5.841 -0.3781 -0.0272  0.2214
 2462SOL     OW18844   1.818   4.200  16.439 -0.3644 -0.0907  0.2429
 2462SOL    HW118845   1.847   4.291  16.434 -1.9618  0.4693  0.7930
 2462SOL    HW218846   1.760   4.207  16.516  0.8931 -0.7853  1.2462
 2463SOL     OW18847   4.470   2.907   5.951  0.2551  0.1636  0.2323
 2463SOL    HW118848   4.483   2.982   5.894  4.0869 -0.5229  0.1660
 2463SOL    HW218849   4.543   2.848   5.933  0.4021  0.6186 -0.6095
 2464SOL     OW18850   0.639   0.097   3.164  0.1401  0.5599 -0.4587
 2464SOL    HW118851   0.662   0.189   3.155 -1.8318  0.9830 -1.2769
 2464SOL    HW218852   0.723   0.059   3.190 -0.2770 -1.6492 -2.3447
 2465SOL     OW18853   2.802   0.048   1.073 -0.8239 -0.4010 -0.5325
 2465SOL    HW118854   2.788   4.673   1.071  0.6170 -0.6182 -0.2974
 2465SOL    HW218855   2.765   0.072   0.989  1.6125 -0.3356 -1.5863
 2466SOL     OW18856   2.503   2.626   2.137  0.2287  0.2055  0.1222
 2466SOL    HW118857   2.482   2.714   2.170 -0.1078  0.9092 -1.9631
 2466SOL    HW218858   2.504   2.633   2.042 -1.0703  2.1163  0.2492
 2467SOL     OW18859   3.243   4.696   6.347 -0.6934 -0.0651 -0.1895
 2467SOL    HW118860   3.155   4.687   6.383  0.7616  0.8765  3.5438
 2467SOL    HW218861   3.287   0.048   6.391 -0.5539  0.1396 -0.6593
 2468SOL     OW18862   0.894   2.084  10.614  0.2920 -0.1938 -0.0111
 2468SOL    HW118863   0.949   2.068  10.537  1.8786 -1.1596  1.3135
 2468SOL    HW218864   0.958   2.064  10.684  2.6727 -1.4853 -2.5572
 2469SOL     OW18865   0.770   2.058   9.286  0.0777  0.5034  0.5061
 2469SOL    HW118866   0.853   2.098   9.313 -1.5741  3.6168  1.0732
 2469SOL    HW218867   0.785   1.964   9.294 -0.9039  0.1810 -1.3742
 2470SOL     OW18868   1.883   2.200   8.231 -0.1570 -0.0873 -1.0198
 2470SOL    HW118869   1.868   2.276   8.287 -0.4681  1.6384 -3.4766
 2470SOL    HW218870   1.922   2.137   8.292  2.1767  0.2261 -2.1945
 2471SOL     OW18871   1.097   0.006   5.335  0.3469  0.4775 -0.0655
 2471SOL    HW118872   1.088   0.068   5.263  1.3208  0.0199 -0.5892
 2471SOL    HW218873   1.143   4.649   5.303 -0.7752 -0.6615  1.0806
 2472SOL     OW18874   0.278   4.189   7.473  1.0042  0.0989 -0.5354
 2472SOL    HW118875   0.259   4.260   7.411 -3.8370  0.1579  1.0667
 2472SOL    HW218876   0.339   4.142   7.415  2.5735  1.6324 -0.1466
 2473SOL     OW18877   1.912   0.880   6.863 -0.4902 -0.4253  0.0428
 2473SOL    HW118878   1.964   0.804   6.837 -0.5914  0.4169 -2.5678
 2473SOL    HW218879   1.901   0.864   6.957  0.2114  1.4652  0.4400
 2474SOL     OW18880   1.789   0.730   2.888 -0.6919  0.3786  0.4460
 2474SOL    HW118881   1.748   0.668   2.828 -2.1094  0.6489  1.1119
 2474SOL    HW218882   1.707   0.780   2.899 -0.6754  0.4790  0.1158
 2475SOL     OW18883   2.429   3.046  14.805 -0.0779  0.1070 -0.5496
 2475SOL    HW118884   2.382   3.014  14.882 -3.3036 -0.7187 -2.8656
 2475SOL    HW218885   2.356   3.059  14.745 -0.0664 -1.4696 -0.8975
 2476SOL     OW18886   3.156   0.750   3.892  0.2719  0.0632 -0.1660
 2476SOL    HW118887   3.190   0.694   3.822 -2.5719 -2.3511  0.3438
 2476SOL    HW218888   3.187   0.835   3.862 -1.9703  0.1218 -2.3064
 2477SOL     OW18889   3.077   3.282   7.986 -0.5278  0.1287  0.0545
 2477SOL    HW118890   3.116   3.211   8.038 -0.2234 -0.1468 -0.5471
 2477SOL    HW218891   3.133   3.283   7.908 -0.7081 -0.6137 -0.0870
 2478SOL     OW18892   1.341   0.842   8.478 -0.1763 -0.0176 -0.3981
 2478SOL    HW118893   1.431   0.811   8.492 -0.1351  0.0245 -0.5787
 2478SOL    HW218894   1.302   0.830   8.565  0.4493  1.2439  0.0644
 2479SOL     OW18895   3.873   3.271   0.633  0.2802 -0.3138 -0.4555
 2479SOL    HW118896   3.870   3.179   0.659  1.3934 -0.2755 -0.1670
 2479SOL    HW218897   3.968   3.282   0.622  0.1545  0.1723 -1.0530
 2480SOL     OW18898   0.328   2.105   5.835 -0.3472 -0.2642 -0.1255
 2480SOL    HW118899   0.401   2.043   5.824  0.2731  0.5852 -0.8387
 2480SOL    HW218900   0.372   2.190   5.832 -2.4736  0.7949 -1.2337
 2481SOL     OW18901   3.012   2.607   3.479 -0.5084 -0.1977  0.1958
 2481SOL    HW118902   2.964   2.577   3.556 -0.6664  2.0727  0.9720
 2481SOL    HW218903   3.099   2.610   3.520 -1.4756  0.3074  2.1853
 2482SOL     OW18904   2.807   3.408   8.861  0.1278 -0.5403  0.2193
 2482SOL    HW118905   2.895   3.372   8.861  0.8490  1.1564  3.6104
 2482SOL    HW218906   2.822   3.502   8.872  1.3895 -0.8897  1.4448
 2483SOL     OW18907   3.004   2.868   5.484  0.2757 -0.0945 -0.1070
 2483SOL    HW118908   2.946   2.935   5.446  1.5189  0.5338 -0.8894
 2483SOL    HW218909   3.089   2.901   5.453 -0.6929  0.0049 -2.7098
 2484SOL     OW18910   1.489   4.560   8.176  0.0475  0.1412 -0.4258
 2484SOL    HW118911   1.510   4.603   8.259  0.0921  1.4542 -1.1028
 2484SOL    HW218912   1.448   4.483   8.215 -0.4498 -0.0425 -1.3168
 2485SOL     OW18913   0.150   2.023  11.281 -0.2862 -0.2591  0.3065
 2485SOL    HW118914   0.209   1.960  11.240 -0.2143 -0.2233  0.3547
 2485SOL    HW218915   0.107   2.052  11.201 -0.8096  0.6437  0.9116
 2486SOL     OW18916   1.675   3.186   3.198  0.4682 -0.0453 -0.0439
 2486SOL    HW118917   1.588   3.169   3.234  0.2611  0.4425 -0.3043
 2486SOL    HW218918   1.722   3.110   3.232 -1.2712 -1.3068 -0.4827
 2487SOL     OW18919   1.000   4.159  13.832  0.3621 -0.0067 -0.2869
 2487SOL    HW118920   1.077   4.168  13.888 -0.2456  1.6255  0.2792
 2487SOL    HW218921   0.936   4.119  13.891  2.8026 -2.4667  0.6782
 2488SOL     OW18922   2.562   3.735   2.349 -0.3133 -0.5384  0.0017
 2488SOL    HW118923   2.653   3.760   2.361 -0.2334 -2.7006  3.9034
 2488SOL    HW218924   2.580   3.673   2.278  2.3103  2.7792 -2.2591
 2489SOL     OW18925   0.495   1.207   9.805 -0.5928 -0.1425 -0.1336
 2489SOL    HW118926   0.562   1.226   9.740  0.1201 -0.0856  0.6224
 2489SOL    HW218927   0.427   1.169   9.749 -0.0246  2.0222 -2.2913
 2490SOL     OW18928   4.504   3.455   8.647 -0.2991  0.3254  0.1009
 2490SOL    HW118929   4.559   3.426   8.574  0.0553 -1.1044  0.9355
 2490SOL    HW218930   4.450   3.522   8.604  0.4249 -1.1311 -3.0407
 2491SOL     OW18931   3.527   2.022  10.127  0.3099  0.7963 -0.7145
 2491SOL    HW118932   3.508   2.101  10.177 -1.3534  0.5736 -0.9876
 2491SOL    HW218933   3.622   2.031  10.127  0.3133  0.7114  1.1065
 2492SOL     OW18934   0.590   0.350  15.772  0.0564 -0.0542 -0.2355
 2492SOL    HW118935   0.660   0.372  15.711 -0.6323  1.8790 -0.3145
 2492SOL    HW218936   0.537   0.286  15.723 -3.1223  1.7239  0.9255
 2493SOL     OW18937   1.924   2.146  16.747  0.1226  0.0793  0.1254
 2493SOL    HW118938   1.846   2.102  16.782  0.4810 -0.3681  0.3529
 2493SOL    HW218939   1.898   2.169  16.658 -2.0782 -0.6771  0.5601
 2494SOL     OW18940   2.787   1.063   6.689 -0.0290 -0.3701  0.2544
 2494SOL    HW118941   2.734   1.120   6.634  0.3379  0.0032  0.2940
 2494SOL    HW218942   2.811   1.128   6.754  0.2129  0.9449 -1.1687
 2495SOL     OW18943   1.559   2.820   5.279 -0.3349 -0.8983  0.1649
 2495SOL    HW118944   1.547   2.777   5.364 -0.0689 -0.9191  0.1907
 2495SOL    HW218945   1.495   2.891   5.283 -0.9228 -1.4289  0.1440
 2496SOL     OW18946   2.069   1.261   5.937  0.2300 -0.1244 -0.0944
 2496SOL    HW118947   2.009   1.197   5.898 -1.8312  0.3380  2.3398
 2496SOL    HW218948   2.009   1.316   5.987  2.0239  1.5438  0.1801
 2497SOL     OW18949   1.139   3.324  17.604  0.7882 -0.0398  0.4156
 2497SOL    HW118950   1.110   3.381  17.674 -0.1001 -0.3315  0.2904
 2497SOL    HW218951   1.131   3.240  17.650  2.6951 -0.0676  0.6688
 2498SOL     OW18952   1.888   3.061   6.488  0.7765 -0.0605 -0.5787
 2498SOL    HW118953   1.846   3.121   6.427  2.5365  2.1545  0.3972
 2498SOL    HW218954   1.978   3.084   6.465  1.1732  0.3806  1.3918
 2499SOL     OW18955   0.217   3.001   8.246  0.1944  0.3540 -0.1611
 2499SOL    HW118956   0.251   3.006   8.156 -0.1075  0.3691 -0.2770
 2499SOL    HW218957   0.257   2.915   8.259  0.9066  0.9610  1.5766
 2500SOL     OW18958   0.733   1.984   0.952 -0.0111 -0.1673 -0.3901
 2500SOL    HW118959   0.684   1.909   0.918 -0.8789 -0.0626  0.6327
 2500SOL    HW218960   0.809   1.942   0.992  1.0189  2.3623  0.2816
 2501SOL     OW18961   0.915   2.606   2.309 -0.2181 -0.5438  0.2641
 2501SOL    HW118962   0.859   2.639   2.380 -1.8476 -1.8516 -0.4226
 2501SOL    HW218963   0.999   2.652   2.321 -0.7008 -0.9297  5.1121
 2502SOL     OW18964   3.742   4.017   6.335 -0.0917 -0.3826 -0.1581
 2502SOL    HW118965   3.752   3.926   6.361 -1.3847 -1.3958 -3.1843
 2502SOL    HW218966   3.739   3.998   6.241 -1.9817  1.2745 -0.4251
 2503SOL     OW18967   2.940   3.478   6.670 -0.2745 -0.1381 -0.2373
 2503SOL    HW118968   2.976   3.390   6.660 -1.8315 -0.8352  0.2032
 2503SOL    HW218969   2.931   3.504   6.578  1.5996 -1.9640 -0.9120
 2504SOL     OW18970   2.470   3.291   5.896  0.4570  0.3796 -0.1395
 2504SOL    HW118971   2.380   3.315   5.918  0.3504  0.7082 -0.9395
 2504SOL    HW218972   2.490   3.198   5.900 -1.9013 -0.1698 -1.3426
 2505SOL     OW18973   1.664   0.177   0.245  0.2695  0.0194 -0.3315
 2505SOL    HW118974   1.709   0.094   0.233  2.9268  1.2007  1.5252
 2505SOL    HW218975   1.640   0.163   0.337 -2.5571 -1.0352 -1.2378
 2506SOL     OW18976   0.512   3.351   1.142 -0.1388 -0.3447  0.1901
 2506SOL    HW118977   0.499   3.364   1.048 -0.5016  0.4835  0.3624
 2506SOL    HW218978   0.533   3.257   1.144 -0.0325 -0.2925  1.0888
 2507SOL     OW18979   2.238   1.776   7.369  0.0457 -0.3352 -0.2761
 2507SOL    HW118980   2.213   1.838   7.437 -2.0237 -1.4994  0.0134
 2507SOL    HW218981   2.276   1.720   7.436  0.2657 -0.1126 -0.2139
 2508SOL     OW18982   3.457   0.954   1.084 -0.8079 -0.6985  0.1479
 2508SOL    HW118983   3.365   0.953   1.058 -0.7967 -0.8282  0.1131
 2508SOL    HW218984   3.490   0.865   1.072  2.6590  0.3409  1.7119
 2509SOL     OW18985   0.288   3.093  17.120  0.2895  0.0601  0.3544
 2509SOL    HW118986   0.216   3.143  17.156 -0.4660 -1.6326  1.2030
 2509SOL    HW218987   0.361   3.119  17.176  0.4836  0.1132  0.0802
 2510SOL     OW18988   3.918   2.994   0.642 -0.8036  0.1099  0.3003
 2510SOL    HW118989   3.944   2.968   0.730 -1.1973  0.0053  0.3856
 2510SOL    HW218990   3.889   2.908   0.611  2.2669 -0.6486 -0.5345
 2511SOL     OW18991   0.269   3.227   1.222  0.5265 -0.3001  0.2897
 2511SOL    HW118992   0.311   3.241   1.138 -0.1119 -1.9806 -0.3080
 2511SOL    HW218993   0.205   3.159   1.200  0.5858 -0.6024  1.0241
 2512SOL     OW18994   0.852   0.188   4.824  0.0762  0.1416  0.5153
 2512SOL    HW118995   0.899   0.220   4.901 -2.0525  1.9654  1.0354
 2512SOL    HW218996   0.856   0.263   4.765  0.5857  0.5785  1.1000
 2513SOL     OW18997   2.481   2.597   3.357  0.2267 -0.1995  0.0536
 2513SOL    HW118998   2.556   2.569   3.305  0.3189  0.6831 -0.2997
 2513SOL    HW218999   2.529   2.657   3.415 -2.1424  1.4203  0.3850
 2514SOL     OW19000   1.858   0.282   3.653  0.1251  0.2169 -0.3881
 2514SOL    HW119001   1.853   0.229   3.573  1.3754  1.4380 -1.2795
 2514SOL    HW219002   1.910   0.221   3.706 -0.1752  0.3532  0.0632
 2515SOL     OW19003   3.739   1.292   1.571 -0.2973 -0.3152 -0.4999
 2515SOL    HW119004   3.738   1.245   1.654  0.1781 -1.4142 -1.1085
 2515SOL    HW219005   3.797   1.366   1.590 -2.0018  1.1790 -1.1527
 2516SOL     OW19006   1.575   4.237   2.084 -0.3944 -0.6199 -0.1323
 2516SOL    HW119007   1.490   4.222   2.042 -2.2012  2.8668  2.2713
 2516SOL    HW219008   1.550   4.302   2.150  3.2699  0.0519  0.6120
 2517SOL     OW19009   3.014   1.353   4.601  0.4683  0.2999  0.0959
 2517SOL    HW119010   3.068   1.340   4.523  0.5643 -1.3484  0.4418
 2517SOL    HW219011   2.985   1.266   4.629 -2.5044  1.5028  0.7849
 2518SOL     OW19012   1.751   2.035   5.347  0.1540  0.7537  0.2675
 2518SOL    HW119013   1.709   1.961   5.391  0.3209  1.2371  1.2588
 2518SOL    HW219014   1.753   2.095   5.422 -2.7995  1.2519 -0.0519
 2519SOL     OW19015   3.780   0.349   2.636 -0.5771 -0.6300 -0.4776
 2519SOL    HW119016   3.809   0.259   2.620 -1.3781 -1.1243  0.8438
 2519SOL    HW219017   3.725   0.365   2.559 -3.3177  0.4920  1.7171
 2520SOL     OW19018   1.361   3.793  14.438  0.1986 -0.1409 -0.2463
 2520SOL    HW119019   1.403   3.708  14.452 -0.0094 -0.3777 -1.0663
 2520SOL    HW219020   1.375   3.811  14.345  1.6778 -2.4254 -0.4673
 2521SOL     OW19021   0.163   4.411   7.855 -0.1641 -0.2866  0.1701
 2521SOL    HW119022   0.112   4.360   7.918 -1.4545  0.0507 -0.5962
 2521SOL    HW219023   0.114   4.491   7.838 -1.3520 -1.0383  0.0474
 2522SOL     OW19024   4.484   4.021   4.188  0.2196  0.2863 -0.3159
 2522SOL    HW119025   4.445   4.107   4.173  0.3440  0.2377 -0.9120
 2522SOL    HW219026   4.567   4.026   4.141 -1.0121 -3.4616 -2.7997
 2523SOL     OW19027   3.417   1.449   4.119 -0.8239  0.0907 -0.0361
 2523SOL    HW119028   3.479   1.503   4.070 -2.4045 -0.1769 -2.3074
 2523SOL    HW219029   3.334   1.497   4.119 -0.7486  0.2293 -2.0279
 2524SOL     OW19030   4.492   0.665  14.240 -0.6007 -0.2009  0.4225
 2524SOL    HW119031   4.398   0.658  14.227 -0.8151 -2.3514  3.0493
 2524SOL    HW219032   4.534   0.586  14.206 -2.3839  0.2632 -2.8473
 2525SOL     OW19033   2.902   4.437  12.982 -0.1832 -0.5384 -0.7668
 2525SOL    HW119034   2.826   4.490  12.959  0.0797  0.6287  1.0803
 2525SOL    HW219035   2.955   4.497  13.035  2.0373 -2.9897 -0.2173
 2526SOL     OW19036   3.781   2.146   1.901  0.3761 -0.5398  0.1942
 2526SOL    HW119037   3.876   2.154   1.902  0.2799  0.6820  0.1900
 2526SOL    HW219038   3.754   2.238   1.899  0.5638 -0.4930 -0.0631
 2527SOL     OW19039   2.157   4.418   4.535  0.3694 -0.0738  0.5511
 2527SOL    HW119040   2.245   4.417   4.499  0.1501  0.8899 -0.0172
 2527SOL    HW219041   2.174   4.357   4.606 -0.6800  0.3579  1.1825
 2528SOL     OW19042   0.249   2.424   3.416  0.2765 -0.3372  0.0938
 2528SOL    HW119043   0.318   2.473   3.371  0.1581 -1.5118 -1.3855
 2528SOL    HW219044   0.267   2.332   3.396 -3.0507 -1.1556  0.8824
 2529SOL     OW19045   0.193   2.491   2.071  0.2457  0.5517 -0.3466
 2529SOL    HW119046   0.145   2.451   1.998 -0.4021  1.6496 -0.5243
 2529SOL    HW219047   0.190   2.586   2.058 -0.3184  0.6173  0.2563
 2530SOL     OW19048   2.493   0.655   7.884  0.1482  0.4512 -0.2976
 2530SOL    HW119049   2.456   0.734   7.846  1.4917  1.7215  1.0408
 2530SOL    HW219050   2.583   0.681   7.903 -0.6337  0.3145  3.5486
 2531SOL     OW19051   3.342   1.261   5.970 -0.6912  0.2572  0.5294
 2531SOL    HW119052   3.251   1.256   6.000  0.0956 -1.3966  2.6519
 2531SOL    HW219053   3.345   1.350   5.934  1.2792  0.3636  0.9565
 2532SOL     OW19054   2.975   3.004   4.735  0.6950 -0.0377 -0.0366
 2532SOL    HW119055   2.955   3.006   4.829  1.0942  0.6558  0.0324
 2532SOL    HW219056   2.985   2.910   4.722  2.0343 -0.0324  0.9495
 2533SOL     OW19057   2.688   2.338  16.473 -0.0059 -0.4262 -0.2042
 2533SOL    HW119058   2.680   2.259  16.420 -0.1989 -1.0685  0.7744
 2533SOL    HW219059   2.771   2.338  16.521 -0.4992 -2.3310  0.6396
 2534SOL     OW19060   1.569   0.984   7.551 -0.3861  0.1101 -0.1402
 2534SOL    HW119061   1.615   1.053   7.600  0.8744  0.0843 -1.3050
 2534SOL    HW219062   1.625   0.908   7.568  0.9883  0.8787 -1.1610
 2535SOL     OW19063   0.146   0.078   3.319 -0.3149  0.6595  0.3744
 2535SOL    HW119064   0.225   0.075   3.265 -1.4261 -0.5259 -1.1733
 2535SOL    HW219065   0.075   0.049   3.262  1.6705 -1.0582 -1.2292
 2536SOL     OW19066   2.072   1.572   3.762 -0.2990 -0.9554  0.9159
 2536SOL    HW119067   2.122   1.565   3.843 -1.5728 -0.8061  1.7114
 2536SOL    HW219068   2.112   1.495   3.721 -0.1136 -0.7823  0.7692
 2537SOL     OW19069   4.084   0.574  10.567 -0.2980 -0.3486 -0.2184
 2537SOL    HW119070   4.084   0.506  10.500  0.8167  2.8862 -3.4991
 2537SOL    HW219071   4.167   0.614  10.541 -0.5536 -0.8862 -1.8918
 2538SOL     OW19072   2.327   2.322   4.620 -0.1276  0.5664  0.0341
 2538SOL    HW119073   2.275   2.331   4.700 -1.2714 -2.6090 -0.3489
 2538SOL    HW219074   2.271   2.373   4.562 -0.3433 -1.5364 -1.6150
 2539SOL     OW19075   2.781   2.957  13.425 -0.0425  0.0835 -0.3101
 2539SOL    HW119076   2.811   2.888  13.484  0.9965  0.6447 -0.1762
 2539SOL    HW219077   2.864   2.990  13.392 -0.0566  1.4668  1.0422
 2540SOL     OW19078   2.725   0.069   9.803  0.4369 -0.5529  0.1964
 2540SOL    HW119079   2.810   0.032   9.824 -0.2797 -1.4001  1.5659
 2540SOL    HW219080   2.748   0.160   9.781 -3.7067  0.0192 -1.8455
 2541SOL     OW19081   3.373   1.845   2.512 -0.2970 -0.2742 -0.4493
 2541SOL    HW119082   3.424   1.871   2.435 -0.9266  1.9251 -0.1176
 2541SOL    HW219083   3.287   1.852   2.471  0.1992  2.3997 -1.0375
 2542SOL     OW19084   3.715   3.201   3.003  0.2319 -0.0742 -0.4653
 2542SOL    HW119085   3.766   3.282   2.998  1.0556 -0.5008  1.0720
 2542SOL    HW219086   3.625   3.232   2.996  0.2619 -0.3820 -2.1684
 2543SOL     OW19087   1.983   1.398   3.012 -0.0899 -0.0848 -0.5166
 2543SOL    HW119088   1.958   1.377   3.102  1.9267  0.1939  0.0998
 2543SOL    HW219089   1.905   1.374   2.961  0.2896  1.0447 -1.6119
 2544SOL     OW19090   1.484   2.001   6.229  0.2581  0.2286  0.4135
 2544SOL    HW119091   1.565   2.022   6.275 -0.2841  0.0204  1.4589
 2544SOL    HW219092   1.468   2.090   6.200  0.0407 -0.0053 -0.1880
 2545SOL     OW19093   2.456   3.108   3.228 -0.1191 -0.0119  0.3494
 2545SOL    HW119094   2.498   3.186   3.262 -1.2327  0.3740  0.8437
 2545SOL    HW219095   2.368   3.121   3.264  0.7281  2.2646  1.5504
 2546SOL     OW19096   4.099   1.555  14.112 -0.0221 -0.0916 -0.0932
 2546SOL    HW119097   4.094   1.561  14.016 -0.3241  1.0904 -0.0003
 2546SOL    HW219098   4.021   1.599  14.144  0.4189  1.6249 -1.3705
 2547SOL     OW19099   2.127   1.644   3.040 -0.2322  0.2499  0.5518
 2547SOL    HW119100   2.132   1.659   3.134  0.6973 -1.2876  0.7486
 2547SOL    HW219101   2.069   1.567   3.042  0.0057  0.0211 -1.4300
 2548SOL     OW19102   0.743   3.121   6.017 -0.7039  0.0900 -0.2929
 2548SOL    HW119103   0.820   3.167   6.050 -0.0352 -0.8282 -0.5687
 2548SOL    HW219104   0.696   3.174   5.953 -2.0090  0.9802  1.3971
 2549SOL     OW19105   3.765   2.681  16.014 -0.1911  0.1890 -0.0104
 2549SOL    HW119106   3.778   2.657  16.106  1.1406 -0.9736 -0.5164
 2549SOL    HW219107   3.774   2.593  15.979  1.6234 -0.0232  1.0236
 2550SOL     OW19108   3.516   2.474  15.910  0.7511  0.5641  0.1832
 2550SOL    HW119109   3.447   2.433  15.859  0.4504  0.6293  0.5324
 2550SOL    HW219110   3.502   2.560  15.869  4.4748  0.7067 -0.7071
 2551SOL     OW19111   3.750   3.576   0.575 -0.5208  0.3440  0.8142
 2551SOL    HW119112   3.732   3.655   0.523 -0.6603  0.6778  1.3685
 2551SOL    HW219113   3.760   3.610   0.664  0.9635  2.0839 -0.0108
 2552SOL     OW19114   3.816   0.371  13.946 -0.1909 -0.2874  0.1271
 2552SOL    HW119115   3.842   0.362  14.037  1.5475  2.2000 -0.1302
 2552SOL    HW219116   3.765   0.451  13.954  2.5823  1.4493  0.2642
 2553SOL     OW19117   3.312   2.772   2.035  0.0686  0.0119  0.0985
 2553SOL    HW119118   3.362   2.798   1.957 -0.1748 -0.6357 -0.2710
 2553SOL    HW219119   3.300   2.862   2.066 -0.2163  0.9484 -2.7119
 2554SOL     OW19120   1.279   3.661   6.210  0.2282  0.3396 -0.2310
 2554SOL    HW119121   1.362   3.620   6.188  0.2578  0.1433  0.2567
 2554SOL    HW219122   1.309   3.746   6.241  1.3238  0.4865 -1.6808
 2555SOL     OW19123   0.698   0.567   7.946 -0.3819  0.2666 -1.0555
 2555SOL    HW119124   0.749   0.486   7.943 -1.6082 -0.5697  0.4838
 2555SOL    HW219125   0.735   0.621   8.016 -0.1156 -1.6257  0.2876
 2556SOL     OW19126   2.535   3.521  11.669  0.4069 -0.2577  0.2906
 2556SOL    HW119127   2.557   3.557  11.583  0.1809 -2.4099 -0.6662
 2556SOL    HW219128   2.555   3.597  11.723  3.5658 -0.4873 -0.5690
 2557SOL     OW19129   1.368   3.402  17.164 -0.2694  0.4978 -0.6689
 2557SOL    HW119130   1.358   3.416  17.258 -2.3767  0.2023 -0.8572
 2557SOL    HW219131   1.364   3.306  17.164  0.0101  0.4837  0.0876
 2558SOL     OW19132   3.813   1.574  15.725  0.1522 -0.0518 -0.3005
 2558SOL    HW119133   3.898   1.530  15.716  0.5992  0.6335  0.5672
 2558SOL    HW219134   3.776   1.490  15.752  1.7452 -0.3347  1.0466
 2559SOL     OW19135   1.737   4.607  16.606 -0.3715  0.0920 -0.8827
 2559SOL    HW119136   1.794   4.544  16.563 -0.6506 -2.4741  2.5388
 2559SOL    HW219137   1.804   4.640  16.666 -0.2536 -2.0882  0.1784
 2560SOL     OW19138   4.282   1.056   3.373 -0.5547 -0.2088  0.3025
 2560SOL    HW119139   4.201   1.091   3.410 -1.9959 -3.0442 -0.1999
 2560SOL    HW219140   4.337   1.122   3.416  1.8045 -1.8606 -0.1867
 2561SOL     OW19141   0.027   1.121   4.563 -0.3444  0.1171  0.4580
 2561SOL    HW119142   4.674   1.062   4.545 -0.8974  0.5321  1.3593
 2561SOL    HW219143   0.092   1.098   4.496  0.0808 -0.5922  1.1041
 2562SOL     OW19144   4.557   0.706   1.365 -0.3880 -0.0880  0.1441
 2562SOL    HW119145   4.533   0.787   1.409 -0.2030 -0.5199  1.0630
 2562SOL    HW219146   4.576   0.737   1.277 -1.4110  0.1494  0.0087
 2563SOL     OW19147   4.614   1.398   3.343  0.1190 -0.4802 -0.5715
 2563SOL    HW119148   4.559   1.325   3.369 -0.5841  0.1701 -0.2321
 2563SOL    HW219149   4.649   1.356   3.264 -2.7852 -0.8419 -1.6419
 2564SOL     OW19150   0.100   0.000   2.381  0.5082 -0.0758 -0.0290
 2564SOL    HW119151   0.182   0.050   2.381  0.4528  0.0273 -1.0665
 2564SOL    HW219152   0.065   0.003   2.470 -1.6527 -0.7315 -0.8554
 2565SOL     OW19153   3.093   0.090   5.456 -0.2733 -0.8876 -0.2615
 2565SOL    HW119154   3.176   0.114   5.497 -1.1507  1.3534  0.2197
 2565SOL    HW219155   3.049   0.174   5.470  0.2606 -0.8611  1.2627
 2566SOL     OW19156   4.368   4.277   4.205 -0.1668  0.3027  0.2419
 2566SOL    HW119157   4.343   4.341   4.138 -0.5923  0.2065  0.3088
 2566SOL    HW219158   4.422   4.334   4.260 -1.0420  2.0638 -0.7400
 2567SOL     OW19159   1.418   0.796   1.676 -0.5921 -0.1333  0.2128
 2567SOL    HW119160   1.439   0.876   1.725 -1.5744 -0.6322  1.4493
 2567SOL    HW219161   1.327   0.819   1.656 -0.8925 -0.4891  1.1735
 2568SOL     OW19162   1.730   3.498   8.455  0.4557 -0.0166 -0.1602
 2568SOL    HW119163   1.782   3.444   8.515 -0.5941 -0.7727  0.0788
 2568SOL    HW219164   1.655   3.443   8.431 -0.1349 -1.3564  4.8157
 2569SOL     OW19165   3.344   2.244  10.930 -0.5437 -0.2261  0.1149
 2569SOL    HW119166   3.339   2.322  10.985 -1.2366  0.5050 -0.9956
 2569SOL    HW219167   3.264   2.259  10.881 -0.4314 -0.9900 -0.3015
 2570SOL     OW19168   2.087   3.959   4.147 -0.4698 -0.4153  0.4137
 2570SOL    HW119169   2.061   3.910   4.225  1.6672 -2.2378 -0.0271
 2570SOL    HW219170   2.006   4.005   4.125 -1.4632 -0.9368  2.9715
 2571SOL     OW19171   2.461   3.485   6.483  0.0134 -0.1790 -0.1637
 2571SOL    HW119172   2.412   3.467   6.403  0.2898 -0.7493 -0.2042
 2571SOL    HW219173   2.522   3.411   6.486  1.3087  0.8746 -0.3817
 2572SOL     OW19174   1.279   2.059   8.841 -0.0957 -0.0818  0.1143
 2572SOL    HW119175   1.339   2.009   8.896 -0.5821 -1.9539 -1.0167
 2572SOL    HW219176   1.199   2.068   8.892 -0.7228 -2.4364 -0.4419
 2573SOL     OW19177   3.544   1.879   3.764  0.0265  0.2092  0.3983
 2573SOL    HW119178   3.607   1.946   3.738  1.0210 -0.0947  2.0684
 2573SOL    HW219179   3.578   1.806   3.712 -0.6570 -0.8621  1.4586
 2574SOL     OW19180   0.787   0.700   1.835 -0.4561  0.3439 -0.2233
 2574SOL    HW119181   0.829   0.779   1.869  0.6551 -0.7881  1.0265
 2574SOL    HW219182   0.822   0.691   1.747 -0.1737 -1.4940  0.0831
 2575SOL     OW19183   0.238   0.814   9.091  0.0071  0.3643 -0.2643
 2575SOL    HW119184   0.312   0.785   9.036  0.7353  1.8526 -0.0662
 2575SOL    HW219185   0.162   0.787   9.039  0.1372 -0.3460 -0.0810
 2576SOL     OW19186   2.342   1.519   6.166  0.2806  0.1538  0.2158
 2576SOL    HW119187   2.334   1.425   6.181  3.1915 -0.1489  0.0122
 2576SOL    HW219188   2.436   1.528   6.183  0.3562 -1.4431  0.6356
 2577SOL     OW19189   1.160   0.788   5.948  0.1163 -0.0628  0.0514
 2577SOL    HW119190   1.089   0.818   5.891  1.3042 -1.5237 -2.2146
 2577SOL    HW219191   1.134   0.831   6.029  1.1427  2.7612 -1.1066
 2578SOL     OW19192   2.488   3.826   8.259 -0.1236  0.3660  0.6510
 2578SOL    HW119193   2.437   3.753   8.295 -0.1432  0.7256  1.3626
 2578SOL    HW219194   2.481   3.881   8.337  2.7147 -1.1685  1.9834
 2579SOL     OW19195   3.390   0.464   2.840 -0.5138 -0.2279  0.0036
 2579SOL    HW119196   3.435   0.384   2.867  2.0289  1.4574  0.7485
 2579SOL    HW219197   3.365   0.448   2.749 -1.0138  0.7374 -0.0296
 2580SOL     OW19198   3.415   3.418  10.129  0.2302  0.5178  0.9441
 2580SOL    HW119199   3.470   3.427  10.207  2.3126  2.1091 -0.7261
 2580SOL    HW219200   3.462   3.461  10.057 -3.0320  1.9266 -0.3463
 2581SOL     OW19201   2.309   4.109   7.877 -1.2263 -0.2019 -0.5838
 2581SOL    HW119202   2.343   4.059   7.803  4.3291 -0.3270  2.0833
 2581SOL    HW219203   2.339   4.049   7.945  1.2898  0.9013 -0.7406
 2582SOL     OW19204   0.261   2.325   6.674  0.0342  0.3049  0.6241
 2582SOL    HW119205   0.324   2.391   6.647 -1.3993  1.0122 -0.9720
 2582SOL    HW219206   0.297   2.300   6.759 -0.1829 -0.6902  0.4206
 2583SOL     OW19207   4.312   0.075  14.443 -0.3208 -0.1167  0.4785
 2583SOL    HW119208   4.224   0.079  14.406 -0.0218 -1.9365 -0.4368
 2583SOL    HW219209   4.309   4.720  14.502 -0.6236 -0.1216  0.4570
 2584SOL     OW19210   3.123   2.880   7.094  0.1361  0.0564 -0.7558
 2584SOL    HW119211   3.073   2.958   7.118 -0.0236 -0.3818  0.3153
 2584SOL    HW219212   3.124   2.884   6.998  0.4638 -0.0718 -0.7580
 2585SOL     OW19213   0.899   0.620   9.166  0.0057  0.3803 -0.3001
 2585SOL    HW119214   0.831   0.620   9.099 -1.4936  0.0629  1.2181
 2585SOL    HW219215   0.948   0.701   9.160  1.6396 -0.8993 -3.9333
 2586SOL     OW19216   0.666   1.026   2.979 -0.4029 -0.0352 -0.4576
 2586SOL    HW119217   0.603   1.097   2.988  1.2135  1.2412  0.7208
 2586SOL    HW219218   0.616   0.951   2.945 -3.7078  1.4992  1.0335
 2587SOL     OW19219   0.766   1.701  11.871  0.1406  0.3483  0.3330
 2587SOL    HW119220   0.695   1.641  11.852  0.3489 -0.3436  1.7566
 2587SOL    HW219221   0.724   1.785  11.892 -2.9316 -1.2441  0.4795
 2588SOL     OW19222   3.738   0.968   3.682 -0.3751  0.0799  0.2735
 2588SOL    HW119223   3.738   0.966   3.778 -1.2287  0.5738  0.2890
 2588SOL    HW219224   3.675   0.898   3.667  0.5186 -0.3384 -1.4536
 2589SOL     OW19225   2.551   4.572   3.840 -0.0071  0.4723 -0.0016
 2589SOL    HW119226   2.514   4.656   3.816 -0.9836 -0.2457 -1.0064
 2589SOL    HW219227   2.505   4.550   3.920  0.4364  1.5777  0.5561
 2590SOL     OW19228   2.506   3.720  15.937  0.5489 -0.3070  0.1108
 2590SOL    HW119229   2.524   3.704  15.845  1.4938 -1.4890  0.4901
 2590SOL    HW219230   2.461   3.804  15.939 -0.4305 -0.7385 -3.5721
 2591SOL     OW19231   2.949   0.741   7.268  0.3563 -0.4187 -0.2467
 2591SOL    HW119232   2.928   0.713   7.179 -1.1655  1.1976 -0.4043
 2591SOL    HW219233   2.999   0.663   7.292  3.4815  0.5376 -3.7991
 2592SOL     OW19234   3.520   3.096  12.739 -0.8958 -0.1810  0.7821
 2592SOL    HW119235   3.503   3.185  12.770 -0.1189  0.1646  0.2198
 2592SOL    HW219236   3.431   3.061  12.744 -1.0494 -0.3135 -2.8855
 2593SOL     OW19237   1.990   1.133   5.187 -0.1314 -0.1037 -0.1697
 2593SOL    HW119238   2.034   1.178   5.258 -0.0389  1.0247 -0.9463
 2593SOL    HW219239   1.903   1.137   5.225 -0.1957  0.2740 -0.3550
 2594SOL     OW19240   1.586   3.412   7.222 -0.2053  0.3116  0.1489
 2594SOL    HW119241   1.635   3.332   7.242 -0.6551  0.3748  1.5050
 2594SOL    HW219242   1.616   3.466   7.295  0.6224  0.4044 -0.2642
 2595SOL     OW19243   3.358   2.379   2.008 -0.2241  0.5074 -0.4274
 2595SOL    HW119244   3.427   2.367   1.942 -1.1343  0.0785 -1.3142
 2595SOL    HW219245   3.331   2.290   2.031  2.1686 -0.2029 -0.3815
 2596SOL     OW19246   2.077   3.883   9.311 -0.4539  0.2186 -0.1389
 2596SOL    HW119247   2.086   3.905   9.218 -2.1073  0.5919 -0.2080
 2596SOL    HW219248   2.049   3.966   9.350 -2.3625  0.1837 -1.4251
 2597SOL     OW19249   3.424   2.328   5.021 -0.1131 -0.0161 -0.1389
 2597SOL    HW119250   3.377   2.380   4.956 -0.3060 -1.7681 -1.4107
 2597SOL    HW219251   3.429   2.393   5.090  1.1794  1.2440 -1.4232
 2598SOL     OW19252   0.482   3.624   9.072  0.6409  0.3964  0.0804
 2598SOL    HW119253   0.544   3.598   9.141 -0.2860 -1.2024  0.3190
 2598SOL    HW219254   0.415   3.557   9.082 -0.3221  1.0411 -2.1139
 2599SOL     OW19255   1.749   4.584  15.107 -0.5376  0.4196 -0.1002
 2599SOL    HW119256   1.741   4.539  15.192  0.8693 -1.9149 -1.2106
 2599SOL    HW219257   1.757   4.674  15.136 -0.9607  0.3786  0.1534
 2600SOL     OW19258   2.555   4.620  17.265  0.2916  0.5036  0.0045
 2600SOL    HW119259   2.510   4.701  17.241  1.5653  0.7001 -1.7526
 2600SOL    HW219260   2.478   4.563  17.257  1.5711 -1.1684 -0.3109
 2601SOL     OW19261   0.115   4.225   2.498  0.5332  0.5513  0.4207
 2601SOL    HW119262   0.196   4.227   2.448  0.6232  1.7067  0.6158
 2601SOL    HW219263   0.069   4.144   2.473 -1.5244  1.3429  1.6189
 2602SOL     OW19264   4.662   4.267   3.084  0.0501  0.0554  0.2760
 2602SOL    HW119265   0.032   4.296   3.101  0.0626 -0.5896  1.3139
 2602SOL    HW219266   4.687   4.182   3.049 -0.2629 -0.7822  2.0822
 2603SOL     OW19267   4.469   4.580   5.987  0.0110 -1.1473  0.0163
 2603SOL    HW119268   4.549   4.536   5.958  2.0214  1.3906  1.6908
 2603SOL    HW219269   4.465   4.567   6.082 -1.2033 -1.2696 -0.0538
 2604SOL     OW19270   2.095   3.956  13.537  0.0675  0.6743  0.0045
 2604SOL    HW119271   2.097   3.944  13.442 -3.0120  1.7321 -0.1921
 2604SOL    HW219272   2.188   3.976  13.547  0.0556  0.5900  0.2888
 2605SOL     OW19273   3.461   1.896   4.145 -0.6503 -0.0301  0.7801
 2605SOL    HW119274   3.504   1.872   4.228  0.9614  1.7307  0.4516
 2605SOL    HW219275   3.533   1.858   4.095 -0.1332 -0.2944  1.7115
 2606SOL     OW19276   3.324   0.919   4.749  0.5465 -0.0439  0.0886
 2606SOL    HW119277   3.280   0.836   4.729 -2.2893  1.5385 -0.3900
 2606SOL    HW219278   3.358   0.910   4.837  0.8233  0.2055  0.0064
 2607SOL     OW19279   2.140   0.061   0.729 -0.3276  0.3109  0.4803
 2607SOL    HW119280   2.220   0.062   0.783 -1.1843  0.1968  1.7583
 2607SOL    HW219281   2.088   4.706   0.758  0.3121 -0.4148 -0.2702
 2608SOL     OW19282   4.015   4.452   4.122 -0.1164  0.0500  0.6796
 2608SOL    HW119283   4.002   4.547   4.114  1.1854  0.2630  0.9655
 2608SOL    HW219284   4.106   4.447   4.090 -0.7918 -3.8595 -0.5410
 2609SOL     OW19285   0.225   2.640   5.390 -0.4554  0.2134 -0.4119
 2609SOL    HW119286   0.315   2.609   5.395 -0.8039 -0.5331  1.1422
 2609SOL    HW219287   0.199   2.626   5.299  0.1235 -3.0885 -0.0871
 2610SOL     OW19288   3.908   1.134  11.631 -0.0915 -0.4335 -0.0930
 2610SOL    HW119289   3.862   1.203  11.584  0.0149 -0.8264 -0.7666
 2610SOL    HW219290   3.979   1.110  11.572 -0.2053 -1.5502  0.2359
 2611SOL     OW19291   3.659   2.455  11.940 -0.4657  0.1810 -0.1067
 2611SOL    HW119292   3.661   2.361  11.959 -1.1524 -0.2637 -2.1959
 2611SOL    HW219293   3.754   2.462  11.936 -0.6460  2.4546 -0.2511
 2612SOL     OW19294   0.166   3.886   6.468 -0.4036  0.5357 -0.1322
 2612SOL    HW119295   0.180   3.804   6.517  1.8484 -0.0500 -1.7880
 2612SOL    HW219296   0.076   3.888   6.436 -0.4679  1.1740  0.0890
 2613SOL     OW19297   3.690   2.022   5.640  0.4102 -0.6088 -0.2097
 2613SOL    HW119298   3.664   2.064   5.558 -0.8539  0.0349  0.5203
 2613SOL    HW219299   3.751   2.090   5.670  2.2155 -1.6832 -1.5079
 2614SOL     OW19300   2.640   2.759  12.089 -0.0471 -0.3304 -0.1432
 2614SOL    HW119301   2.691   2.711  12.153 -0.0128 -1.4250 -0.9900
 2614SOL    HW219302   2.656   2.850  12.112  0.6616  0.0533 -2.1027
 2615SOL     OW19303   3.531   0.778   5.939  0.3787 -0.2774 -0.7968
 2615SOL    HW119304   3.592   0.797   5.868 -0.4735 -0.5775 -1.6001
 2615SOL    HW219305   3.498   0.864   5.962 -2.6157 -1.1768 -1.8113
 2616SOL     OW19306   1.430   4.552   7.915 -0.4015 -0.2114 -0.0377
 2616SOL    HW119307   1.491   4.495   7.867  1.8884  0.8269  1.6703
 2616SOL    HW219308   1.470   4.558   8.001  0.2909 -2.3730 -0.2090
 2617SOL     OW19309   1.989   0.999  16.821 -0.1867 -0.4613  0.1563
 2617SOL    HW119310   1.928   1.071  16.805  1.3837  0.5942 -1.1735
 2617SOL    HW219311   1.967   0.932  16.756  0.6444 -1.0170  0.4480
 2618SOL     OW19312   0.257   2.655   5.105 -0.2187  0.0134  0.0301
 2618SOL    HW119313   0.200   2.585   5.074  0.6284 -1.5659  2.0344
 2618SOL    HW219314   0.339   2.624   5.065  1.3245  1.4818  2.0467
 2619SOL     OW19315   4.267   4.478   4.010  0.4350  0.2310 -0.5669
 2619SOL    HW119316   4.326   4.549   4.035  0.2548  0.3235 -0.4039
 2619SOL    HW219317   4.253   4.503   3.918  1.4027  0.2609 -0.7019
 2620SOL     OW19318   4.167   3.175   6.135  0.5071 -0.0934  0.0925
 2620SOL    HW119319   4.154   3.167   6.040  2.1368 -1.0790 -0.0464
 2620SOL    HW219320   4.186   3.083   6.154 -0.7427  0.2299  2.9605
 2621SOL     OW19321   3.246   1.913   8.254  0.1586  0.0481 -0.2443
 2621SOL    HW119322   3.327   1.950   8.218  0.7127  0.2107  1.1864
 2621SOL    HW219323   3.280   1.844   8.310  2.2835  2.1046  0.9914
 2622SOL     OW19324   2.063   3.105   8.236  0.2626  0.0385 -0.1578
 2622SOL    HW119325   2.145   3.084   8.192  0.0254 -0.5713 -0.3057
 2622SOL    HW219326   2.095   3.104   8.326 -1.7714 -0.4502  0.5677
 2623SOL     OW19327   3.025   1.378   0.232  0.4360 -0.0079 -0.0576
 2623SOL    HW119328   2.971   1.314   0.279 -1.7238  2.6752  1.1400
 2623SOL    HW219329   2.960   1.448   0.233  0.1845 -0.2407 -0.3491
 2624SOL     OW19330   2.554   0.012  10.360  0.4703 -0.3019  0.2676
 2624SOL    HW119331   2.618   4.720  10.430 -1.2996 -2.0806  1.5435
 2624SOL    HW219332   2.505   4.651  10.371 -0.2956  0.3166  1.3673
 2625SOL     OW19333   1.077   3.824   8.295  0.5041 -0.3567  0.3788
 2625SOL    HW119334   1.030   3.792   8.371  2.3471  0.5595  1.8967
 2625SOL    HW219335   1.150   3.764   8.281  0.2630 -0.7381  0.7558
 2626SOL     OW19336   2.890   2.658   9.364 -0.3443 -0.9145  0.1284
 2626SOL    HW119337   2.951   2.675   9.293 -0.3547 -0.9666  0.1069
 2626SOL    HW219338   2.801   2.664   9.328 -0.8801  0.0533  1.5587
 2627SOL     OW19339   0.538   0.787  15.117  0.4025  0.0210  0.1512
 2627SOL    HW119340   0.604   0.724  15.088  1.0378  1.1136 -0.8319
 2627SOL    HW219341   0.568   0.867  15.073 -0.3656  0.7067  0.8621
 2628SOL     OW19342   1.792   1.637   3.803 -0.8286  0.2647 -0.7478
 2628SOL    HW119343   1.828   1.720   3.835  1.7598 -1.2817  0.3920
 2628SOL    HW219344   1.766   1.665   3.716  1.8926  1.7595 -1.0930
 2629SOL     OW19345   4.187   1.798   7.920  0.0889 -0.0547  0.2480
 2629SOL    HW119346   4.141   1.879   7.941  0.1468  0.5487 -1.9705
 2629SOL    HW219347   4.128   1.754   7.859 -2.5060  0.6904  2.2320
 2630SOL     OW19348   4.718   1.451   7.295  0.1905  0.5173 -0.4349
 2630SOL    HW119349   4.626   1.430   7.276  0.2676  0.1412 -0.3840
 2630SOL    HW219350   0.034   1.436   7.208 -1.3655 -0.7587 -0.8674
 2631SOL     OW19351   3.570   2.683   4.377  0.4045  0.7289 -0.4082
 2631SOL    HW119352   3.640   2.620   4.363 -0.3142 -0.3701  0.9566
 2631SOL    HW219353   3.620   2.757   4.412 -0.0203  1.0979 -0.5659
 2632SOL     OW19354   2.260   2.340   3.999  0.2623  0.0194  0.2557
 2632SOL    HW119355   2.206   2.293   4.063 -0.5381  0.5250 -0.0516
 2632SOL    HW219356   2.186   2.355   3.940  1.3775 -1.8318 -1.6006
 2633SOL     OW19357   1.122   1.919   7.763  0.1291  0.3718 -0.2368
 2633SOL    HW119358   1.204   1.868   7.768  0.3306  1.0744  3.4853
 2633SOL    HW219359   1.147   2.000   7.807  2.7806  0.2787 -1.5396
 2634SOL     OW19360   0.700   2.589   5.662  0.0769 -0.2024 -0.4482
 2634SOL    HW119361   0.702   2.602   5.757  0.5198 -0.7422 -0.3837
 2634SOL    HW219362   0.775   2.641   5.631  0.3135  0.5053  1.3106
 2635SOL     OW19363   2.653   3.484   2.615 -0.2020 -0.0779 -0.0822
 2635SOL    HW119364   2.670   3.468   2.708 -0.1885 -2.8081 -0.5551
 2635SOL    HW219365   2.560   3.465   2.608  0.0053 -1.3912  0.7209
 2636SOL     OW19366   2.312   1.323   7.741  0.1759 -0.0758  0.3995
 2636SOL    HW119367   2.392   1.326   7.689  1.2749  1.6312  2.1977
 2636SOL    HW219368   2.331   1.384   7.812 -0.7965 -0.3886  0.9243
 2637SOL     OW19369   3.801   3.103   9.164  0.4006  0.4005  0.0598
 2637SOL    HW119370   3.869   3.077   9.101 -1.2388 -1.6614 -0.8236
 2637SOL    HW219371   3.849   3.139   9.239 -0.2929  0.8844  0.2683
 2638SOL     OW19372   2.580   2.904  13.685 -0.3916 -0.2813  0.3570
 2638SOL    HW119373   2.625   2.826  13.718  1.3231  0.3386 -0.5228
 2638SOL    HW219374   2.608   2.974  13.744  0.8178  0.7183 -1.4099
 2639SOL     OW19375   2.112   4.579   6.356 -0.7371 -0.1869 -0.4762
 2639SOL    HW119376   2.144   4.650   6.301  0.6747  1.7486  2.8323
 2639SOL    HW219377   2.193   4.529   6.348 -0.2454  0.7234 -1.1125
 2640SOL     OW19378   2.338   0.784   2.733  0.3367  0.4089  0.4017
 2640SOL    HW119379   2.413   0.726   2.719  0.3082  0.1866  1.1475
 2640SOL    HW219380   2.374   0.871   2.719 -3.1644  1.9319  0.8462
 2641SOL     OW19381   4.010   3.261   8.054 -0.2567 -0.3635  0.0633
 2641SOL    HW119382   4.014   3.186   8.113  1.0321 -0.6778 -0.4144
 2641SOL    HW219383   4.101   3.291   8.058 -0.2549 -0.2147 -1.3530
 2642SOL     OW19384   3.306   1.802   7.816 -0.4663 -0.6674  0.0371
 2642SOL    HW119385   3.289   1.721   7.864  2.3533 -0.2728  1.6734
 2642SOL    HW219386   3.218   1.840   7.814  0.5286  1.6015 -1.0880
 2643SOL     OW19387   4.017   3.354  10.426 -0.2187 -0.2411  0.1938
 2643SOL    HW119388   4.083   3.288  10.450 -1.9229 -1.4702  1.4958
 2643SOL    HW219389   3.940   3.299  10.416  0.2844 -0.5682 -1.9001
 2644SOL     OW19390   1.270   1.356   9.629 -0.0776  0.2559 -0.0504
 2644SOL    HW119391   1.289   1.297   9.702 -0.5546  0.2751  0.0895
 2644SOL    HW219392   1.178   1.336   9.612  0.4586 -1.8590 -0.4552
 2645SOL     OW19393   4.400   1.158   2.211  0.2593  0.2630 -0.1921
 2645SOL    HW119394   4.455   1.105   2.154 -1.7577 -0.4068 -1.5198
 2645SOL    HW219395   4.317   1.136   2.169  0.2799  0.0507 -0.1193
 2646SOL     OW19396   1.431   3.670  15.669  1.1096  0.5174 -0.5138
 2646SOL    HW119397   1.377   3.598  15.700  0.7346 -0.5562 -3.7099
 2646SOL    HW219398   1.361   3.708  15.617  1.3638 -0.2407 -1.3895
 2647SOL     OW19399   2.342   1.223   8.038 -0.5372  0.1946 -0.1370
 2647SOL    HW119400   2.336   1.314   8.008 -2.5528 -0.2502 -1.0712
 2647SOL    HW219401   2.258   1.209   8.083 -0.1469  2.9379  1.4412
 2648SOL     OW19402   2.651   4.442   2.443  0.1102 -0.2768  0.0756
 2648SOL    HW119403   2.700   4.383   2.500  2.5231  0.2304 -1.4484
 2648SOL    HW219404   2.619   4.508   2.504 -0.0532 -2.0531  1.9082
 2649SOL     OW19405   0.413   3.897   3.664 -0.0753 -0.0084 -0.4088
 2649SOL    HW119406   0.406   3.802   3.657  3.6756 -0.2686 -0.4560
 2649SOL    HW219407   0.457   3.900   3.749  2.7562 -0.1676 -1.8769
 2650SOL     OW19408   2.613   0.515   4.103 -0.2174 -0.5746  0.1016
 2650SOL    HW119409   2.534   0.478   4.143  0.5067 -1.5233  0.6598
 2650SOL    HW219410   2.678   0.451   4.130  0.3026  0.0263  0.2657
 2651SOL     OW19411   0.147   3.823   5.363  0.2132  0.2130  0.6658
 2651SOL    HW119412   0.133   3.739   5.320  0.2300  1.0778 -1.0263
 2651SOL    HW219413   0.086   3.795   5.432 -1.9306  0.0192 -1.2907
 2652SOL     OW19414   2.300   2.062   3.551  0.2613 -0.6355 -0.2459
 2652SOL    HW119415   2.299   1.992   3.487  1.3378 -0.8992  0.0291
 2652SOL    HW219416   2.234   2.129   3.528  0.2487 -1.2574 -2.0052
 2653SOL     OW19417   4.520   0.554  17.563 -0.0346  0.3616 -0.1423
 2653SOL    HW119418   4.474   0.474  17.535 -2.8329  0.7814  3.2421
 2653SOL    HW219419   4.455   0.583  17.627 -0.2484 -1.0742  0.2883
 2654SOL     OW19420   4.041   2.989  13.409 -0.5106 -0.5431 -0.5484
 2654SOL    HW119421   4.032   3.053  13.480  1.1553  1.7179 -2.3784
 2654SOL    HW219422   3.969   3.010  13.350 -0.8608 -0.7123 -0.1866
 2655SOL     OW19423   0.618   2.873   0.718 -0.2594 -0.3459 -0.0228
 2655SOL    HW119424   0.655   2.932   0.784 -1.1166  0.7079 -0.4758
 2655SOL    HW219425   0.672   2.900   0.644 -0.9669 -1.1866 -0.8438
 2656SOL     OW19426   0.538   4.338   8.470 -0.1242  0.2928 -0.7794
 2656SOL    HW119427   0.520   4.407   8.406  1.7860 -0.1790 -1.8544
 2656SOL    HW219428   0.452   4.296   8.468 -0.1299  0.2506  0.5804
 2657SOL     OW19429   2.654   3.647   3.337  0.0378 -0.4063  0.2814
 2657SOL    HW119430   2.714   3.623   3.267  0.1415  0.6456  0.0127
 2657SOL    HW219431   2.615   3.728   3.304 -0.4050 -0.5892  0.3552
 2658SOL     OW19432   0.614   1.691  15.665 -0.3795  0.2438 -0.1655
 2658SOL    HW119433   0.698   1.718  15.628 -0.4517  0.8433  0.1043
 2658SOL    HW219434   0.616   1.753  15.738 -1.2670  0.9392 -0.7317
 2659SOL     OW19435   0.168   1.236   1.101  0.0749 -0.0118 -0.3711
 2659SOL    HW119436   0.136   1.191   1.179  0.5956  1.0921  0.4599
 2659SOL    HW219437   0.194   1.323   1.129 -0.8847 -0.3833  1.6756
 2660SOL     OW19438   1.237   3.297   5.867  0.2927 -0.1669  0.2587
 2660SOL    HW119439   1.282   3.281   5.950 -0.0968 -3.8521 -0.2257
 2660SOL    HW219440   1.155   3.326   5.906 -0.0293 -1.7168  0.7223
 2661SOL     OW19441   3.091   3.076   1.993 -0.2344  0.4659  0.4935
 2661SOL    HW119442   3.078   3.058   2.086  1.9767  1.5800  1.0084
 2661SOL    HW219443   3.186   3.066   1.986 -0.4543  0.0826 -2.0898
 2662SOL     OW19444   3.164   2.089  15.169  0.1116 -0.2511 -0.1242
 2662SOL    HW119445   3.237   2.031  15.193  0.3424  0.1643  0.1666
 2662SOL    HW219446   3.143   2.058  15.081  2.1852  2.9792 -1.7779
 2663SOL     OW19447   3.977   3.275   9.315  1.0923 -0.2969  0.1183
 2663SOL    HW119448   4.005   3.352   9.364  0.1239 -0.2392  0.5810
 2663SOL    HW219449   4.052   3.216   9.314  2.8541  1.9287 -3.5109
 2664SOL     OW19450   1.763   1.796  12.971  0.0742 -0.1680  0.2448
 2664SOL    HW119451   1.770   1.700  12.972 -0.1440 -0.1884  0.0751
 2664SOL    HW219452   1.670   1.807  12.993 -0.2419 -1.8091 -0.2086
 2665SOL     OW19453   3.843   2.775  13.512  0.5407  0.3597 -0.0091
 2665SOL    HW119454   3.918   2.816  13.468  3.1178 -2.7786  1.4860
 2665SOL    HW219455   3.810   2.706  13.455  0.6856 -0.3683  0.7893
 2666SOL     OW19456   1.085   3.447   8.599 -0.1391  0.3584 -0.2947
 2666SOL    HW119457   1.036   3.391   8.658  1.3320 -1.2829 -0.6182
 2666SOL    HW219458   1.094   3.399   8.516  1.0463  1.2212 -0.6668
 2667SOL     OW19459   1.585   3.349   8.193 -0.9263  0.1072 -0.9498
 2667SOL    HW119460   1.669   3.303   8.196 -0.2875  1.4050  0.6551
 2667SOL    HW219461   1.527   3.305   8.255 -1.6919  1.2162 -0.8760
 2668SOL     OW19462   0.390   2.181   4.866 -0.4362  0.3713 -0.1959
 2668SOL    HW119463   0.481   2.154   4.878 -0.5715  0.7606  1.7054
 2668SOL    HW219464   0.374   2.216   4.779 -1.0427 -1.0630 -0.6611
 2669SOL     OW19465   3.216   3.526  11.239 -0.2197  0.2532 -0.3928
 2669SOL    HW119466   3.151   3.467  11.275 -0.5397  0.9677  0.2102
 2669SOL    HW219467   3.283   3.466  11.205  0.2998  1.1502 -0.9488
 2670SOL     OW19468   0.693   0.509   6.782  0.0478 -0.4450 -0.3080
 2670SOL    HW119469   0.668   0.435   6.726  0.5167 -0.0867 -0.9964
 2670SOL    HW219470   0.669   0.491   6.873  2.7352 -2.1925  0.0583
 2671SOL     OW19471   0.834   3.923   5.273  0.1378  0.5198 -0.6154
 2671SOL    HW119472   0.832   3.917   5.178 -0.2122  0.9470 -0.6392
 2671SOL    HW219473   0.743   3.946   5.295  1.4518  2.0382  3.1693
 2672SOL     OW19474   4.438   0.360   3.024  0.1557  0.0507  0.5869
 2672SOL    HW119475   4.491   0.280   3.025 -0.8855 -0.6663 -1.2639
 2672SOL    HW219476   4.488   0.424   2.975 -3.8689  1.6277 -1.4506
 2673SOL     OW19477   4.507   2.940   1.563 -0.0830  0.6300  0.0379
 2673SOL    HW119478   4.574   3.008   1.555 -0.5367  1.0956  0.2101
 2673SOL    HW219479   4.440   2.980   1.619 -0.9421 -2.3977  1.1550
 2674SOL     OW19480   3.688   3.231   7.638  0.2015  0.2332  0.1396
 2674SOL    HW119481   3.743   3.209   7.713  1.3971  1.5012 -0.3774
 2674SOL    HW219482   3.596   3.236   7.667 -0.0867 -2.4183 -0.2956
 2675SOL     OW19483   0.328   0.263   3.834 -0.1333  0.5838  0.3380
 2675SOL    HW119484   0.355   0.321   3.763 -1.8096  0.2672 -0.5384
 2675SOL    HW219485   0.408   0.268   3.887 -0.3885 -1.7393  0.9443
 2676SOL     OW19486   4.304   1.677   3.456  0.4154  0.3156  0.1240
 2676SOL    HW119487   4.374   1.621   3.490  1.0342  0.9941 -0.0602
 2676SOL    HW219488   4.342   1.763   3.470  1.8060 -0.5823  1.8697
 2677SOL     OW19489   1.927   3.535   7.069 -0.1098 -0.3000  0.3457
 2677SOL    HW119490   1.894   3.547   7.158 -1.5426  3.9452 -0.7217
 2677SOL    HW219491   1.862   3.472   7.039  0.8855 -1.3124  0.3284
 2678SOL     OW19492   1.592   1.559  16.108  0.4856 -0.4481 -0.8516
 2678SOL    HW119493   1.511   1.509  16.091 -0.6768  1.3974 -0.6792
 2678SOL    HW219494   1.641   1.540  16.027 -0.2526 -0.2878 -1.3382
 2679SOL     OW19495   4.438   3.747   7.023  0.3758  0.0362 -0.2405
 2679SOL    HW119496   4.404   3.724   7.110 -2.5763  1.1033 -1.1250
 2679SOL    HW219497   4.417   3.664   6.981 -2.3309  1.0541 -0.8977
 2680SOL     OW19498   2.681   4.002   7.561 -0.7241  0.1452 -0.4202
 2680SOL    HW119499   2.596   4.025   7.599 -0.9324 -1.1174 -0.1287
 2680SOL    HW219500   2.653   3.925   7.511 -0.1325 -0.3482  0.0207
 2681SOL     OW19501   1.141   0.850   1.635  0.4585 -0.2729  0.1133
 2681SOL    HW119502   1.115   0.878   1.723  0.0889  0.4606 -0.2289
 2681SOL    HW219503   1.075   0.902   1.589 -1.0972 -1.8225  0.6081
 2682SOL     OW19504   2.270   2.819   3.235  1.0915 -0.2327  0.3712
 2682SOL    HW119505   2.245   2.851   3.148 -1.6792 -1.1502  0.8640
 2682SOL    HW219506   2.359   2.790   3.211  1.1552 -0.1975  0.5680
 2683SOL     OW19507   0.647   1.879   9.784  0.1056 -0.2684  0.1415
 2683SOL    HW119508   0.646   1.956   9.842 -1.2624 -1.2782  1.4555
 2683SOL    HW219509   0.596   1.908   9.709 -1.9924 -0.6339  1.4280
 2684SOL     OW19510   2.568   1.400   1.825 -0.2054 -0.3065 -0.4647
 2684SOL    HW119511   2.499   1.335   1.835  0.0392 -0.3941  0.6155
 2684SOL    HW219512   2.556   1.430   1.734 -0.6264 -1.0026 -0.6418
 2685SOL     OW19513   4.003   3.367   6.518 -0.1639  0.0136  0.2673
 2685SOL    HW119514   3.999   3.455   6.480 -3.7067 -0.7301 -1.1277
 2685SOL    HW219515   3.963   3.377   6.604  1.3228  2.9055  0.6257
 2686SOL     OW19516   2.104   1.713   1.773 -0.0008 -0.0631 -0.1558
 2686SOL    HW119517   2.147   1.632   1.803  0.9669  0.4752 -0.0706
 2686SOL    HW219518   2.188   1.755   1.753 -0.4406  1.2676  0.8685
 2687SOL     OW19519   4.556   3.440   1.916 -0.0125 -0.7217  0.8827
 2687SOL    HW119520   4.528   3.369   1.859 -0.7826 -0.6929  1.2125
 2687SOL    HW219521   4.639   3.403   1.945 -0.0932 -0.0002  2.0682
 2688SOL     OW19522   0.021   0.354   3.421  0.4639  0.1217 -0.6324
 2688SOL    HW119523   4.673   0.301   3.378 -1.0222  0.8226  0.8393
 2688SOL    HW219524   0.100   0.305   3.397  0.5353 -0.1775  0.2016
 2689SOL     OW19525   3.230   3.340  15.197 -0.0009  0.2885 -0.1050
 2689SOL    HW119526   3.232   3.270  15.132 -1.1083 -0.6528  0.8832
 2689SOL    HW219527   3.266   3.417  15.152 -1.9713 -0.9610 -3.8332
 2690SOL     OW19528   3.737   2.985   1.594  0.1396  0.2699  0.4232
 2690SOL    HW119529   3.692   2.973   1.511  0.2053  0.6892  0.3262
 2690SOL    HW219530   3.770   3.074   1.583 -0.2799  0.5322  1.2823
 2691SOL     OW19531   3.705   3.317   6.582 -0.0325  0.1878  0.3397
 2691SOL    HW119532   3.613   3.309   6.557  0.3635 -0.3241 -0.9549
 2691SOL    HW219533   3.750   3.251   6.529 -0.2575 -0.2654  0.7147
 2692SOL     OW19534   4.099   2.340   7.072 -0.4697 -0.1435 -0.2678
 2692SOL    HW119535   4.061   2.282   7.006  0.2369 -1.0114  0.0825
 2692SOL    HW219536   4.156   2.270   7.106  0.1014  0.9708  1.0305
 2693SOL     OW19537   4.152   0.991   6.783  0.0862  0.2897 -0.5557
 2693SOL    HW119538   4.081   1.019   6.842  1.4074  1.9769  0.2131
 2693SOL    HW219539   4.204   0.951   6.853  0.9406  0.1483 -1.2671
 2694SOL     OW19540   3.283   1.254   3.241 -0.0900 -0.3213 -0.5356
 2694SOL    HW119541   3.356   1.194   3.258  0.4759  0.5634  0.1359
 2694SOL    HW219542   3.304   1.288   3.153  1.7297  2.7315  1.0861
 2695SOL     OW19543   0.293   3.488   8.036 -0.2766 -0.2455  0.3209
 2695SOL    HW119544   0.210   3.527   8.011 -1.2627 -1.5473  1.5571
 2695SOL    HW219545   0.300   3.409   7.982  1.3447  0.6970 -0.8480
 2696SOL     OW19546   3.036   3.015   3.459 -0.1627 -0.0637  0.3326
 2696SOL    HW119547   3.020   3.024   3.553 -0.8383  0.9842  0.1175
 2696SOL    HW219548   3.126   2.982   3.456 -0.1596 -0.1385  1.2628
 2697SOL     OW19549   4.473   1.052   0.612  0.5708 -0.4377 -0.5910
 2697SOL    HW119550   4.422   1.119   0.657 -1.1609 -2.5587  0.6413
 2697SOL    HW219551   4.402   0.988   0.605 -1.0453  1.7347 -4.1534
 2698SOL     OW19552   0.875   2.650   8.667 -0.1345 -0.0866  0.4408
 2698SOL    HW119553   0.963   2.685   8.680 -1.1098  2.3246  0.5938
 2698SOL    HW219554   0.855   2.697   8.586 -2.4243 -0.8762  0.5550
 2699SOL     OW19555   2.443   1.605   3.252  0.1058 -0.0706  0.3308
 2699SOL    HW119556   2.395   1.531   3.291 -0.4069  0.1493  0.1114
 2699SOL    HW219557   2.532   1.579   3.276 -0.3049  0.0091  1.9971
 2700SOL     OW19558   3.668   3.460  16.105  0.3024  0.7487 -0.0741
 2700SOL    HW119559   3.643   3.543  16.145  0.3841  1.7817 -2.1885
 2700SOL    HW219560   3.764   3.458  16.112  0.4711  2.4551 -2.1298
 2701SOL     OW19561   2.027   4.643   4.487 -0.7183  0.2605 -0.4273
 2701SOL    HW119562   2.079   4.708   4.534  0.1667 -1.4939  1.0185
 2701SOL    HW219563   2.080   4.565   4.505 -1.2855 -0.0913 -0.2861
 2702SOL     OW19564   0.500   2.449   9.263  0.3673  0.0993 -0.3924
 2702SOL    HW119565   0.546   2.383   9.211 -1.1115  0.5066 -2.1676
 2702SOL    HW219566   0.474   2.518   9.203 -1.4771 -0.6786 -0.4846
 2703SOL     OW19567   2.077   4.446  11.493  0.1175 -0.0489 -1.2294
 2703SOL    HW119568   1.984   4.453  11.514  0.4033 -0.9964  0.3482
 2703SOL    HW219569   2.062   4.380  11.426  0.8238 -2.2653  0.8008
 2704SOL     OW19570   0.132   4.642  10.536  0.0453  0.8403 -0.1276
 2704SOL    HW119571   0.192   4.686  10.475  0.7679 -1.8462 -1.3489
 2704SOL    HW219572   0.173   4.558  10.555 -0.2432  1.2209  2.1074
 2705SOL     OW19573   4.000   2.076   4.884  0.4059 -0.1055  0.4268
 2705SOL    HW119574   3.980   2.040   4.798 -0.5050 -1.3144  1.1486
 2705SOL    HW219575   4.092   2.092   4.866  0.4877 -1.6274 -0.4880
 2706SOL     OW19576   2.844   0.316  16.437 -0.4270  0.3846 -0.4938
 2706SOL    HW119577   2.895   0.386  16.478  3.3378 -2.1315 -0.8014
 2706SOL    HW219578   2.869   0.235  16.481  0.2412  0.0126 -1.5401
 2707SOL     OW19579   0.940   2.105   7.404 -0.0791  0.0585 -0.2236
 2707SOL    HW119580   0.989   2.105   7.322  1.1295 -3.5019  0.4959
 2707SOL    HW219581   0.974   2.028   7.450  1.5548  0.7301 -0.2985
 2708SOL     OW19582   2.930   0.722  10.744  0.3146 -0.5645  0.1203
 2708SOL    HW119583   2.919   0.695  10.653 -1.2738 -0.8021  0.3849
 2708SOL    HW219584   2.851   0.774  10.760  0.2028 -0.3121 -1.3283
 2709SOL     OW19585   4.120   3.959   6.528 -0.1867  0.1002  0.1897
 2709SOL    HW119586   4.128   3.929   6.618  1.5772  0.7184  0.2523
 2709SOL    HW219587   4.138   4.052   6.539 -0.2791  0.4512 -2.4567
 2710SOL     OW19588   4.495   4.200   2.145 -0.0166  0.6288 -0.2264
 2710SOL    HW119589   4.502   4.295   2.132 -0.6135  0.5758 -0.9710
 2710SOL    HW219590   4.583   4.171   2.122  0.6778  0.5519  2.4896
 2711SOL     OW19591   2.379   2.926   6.332 -0.2168 -0.0308 -0.1435
 2711SOL    HW119592   2.462   2.895   6.296  0.2904 -0.0807  1.0930
 2711SOL    HW219593   2.407   2.984   6.402  0.4600 -1.4231  0.7139
 2712SOL     OW19594   2.420   0.545  15.127  0.5842  0.2667 -0.2558
 2712SOL    HW119595   2.353   0.612  15.137  0.5340  0.0666  0.7835
 2712SOL    HW219596   2.468   0.570  15.049 -0.0650  1.4573 -0.2650
 2713SOL     OW19597   2.485   1.261   3.846  0.3614  0.5050  0.4789
 2713SOL    HW119598   2.464   1.347   3.883  2.5274  1.7395 -1.1735
 2713SOL    HW219599   2.492   1.217   3.931  2.8989  0.4022  0.2383
 2714SOL     OW19600   1.421   0.903   6.467  0.2044 -0.0396  0.1320
 2714SOL    HW119601   1.386   0.992   6.461  0.1399 -0.1360 -0.8393
 2714SOL    HW219602   1.484   0.900   6.396 -0.0379  1.5799 -0.1543
 2715SOL     OW19603   2.827   1.349  13.635  0.1254  0.1967  0.0647
 2715SOL    HW119604   2.800   1.388  13.719  1.0572 -0.6462  0.7656
 2715SOL    HW219605   2.853   1.431  13.594  0.6413 -0.8799 -1.7223
 2716SOL     OW19606   1.380   0.231   6.960 -0.1880 -0.5343  0.5149
 2716SOL    HW119607   1.356   0.253   7.050 -0.8293  0.1612  0.1788
 2716SOL    HW219608   1.433   0.308   6.938 -0.8690  0.1412  1.2064
 2717SOL     OW19609   3.095   1.886   2.511 -0.3764 -0.2272 -0.2453
 2717SOL    HW119610   3.012   1.879   2.464 -1.8858  0.7574  2.2402
 2717SOL    HW219611   3.086   1.964   2.566  1.7780 -0.8435  0.9917
 2718SOL     OW19612   0.884   3.805   4.496  0.8394 -0.2694  0.0452
 2718SOL    HW119613   0.926   3.742   4.555 -1.5813 -2.0966 -0.1936
 2718SOL    HW219614   0.946   3.805   4.424 -0.9046 -0.9531 -1.4359
 2719SOL     OW19615   3.942   4.224   9.647 -0.2446  0.1402 -0.3207
 2719SOL    HW119616   3.868   4.286   9.644 -0.0539  0.3224 -1.2275
 2719SOL    HW219617   3.995   4.259   9.719  0.4699 -2.6871  0.4988
 2720SOL     OW19618   0.719   0.842   7.462 -0.2170 -0.0518  0.6426
 2720SOL    HW119619   0.660   0.918   7.465 -1.0472 -0.6282 -1.3823
 2720SOL    HW219620   0.684   0.796   7.539 -0.4847  0.6266  0.9264
 2721SOL     OW19621   2.352   4.575  10.130  0.2936  0.2221 -0.0247
 2721SOL    HW119622   2.368   4.506  10.065 -2.1416  0.0340 -0.4298
 2721SOL    HW219623   2.258   4.561  10.138 -0.3136  3.4852 -1.4756
 2722SOL     OW19624   3.708   2.530  10.284 -0.4077  0.2125  0.0162
 2722SOL    HW119625   3.754   2.448  10.301  0.5380  0.9176  0.8533
 2722SOL    HW219626   3.717   2.573  10.369 -0.8577 -1.3487  0.8628
 2723SOL     OW19627   2.471   3.270   4.963 -0.4242  0.1270  0.0604
 2723SOL    HW119628   2.451   3.336   4.897 -0.7297  0.7507  0.7771
 2723SOL    HW219629   2.507   3.337   5.022 -1.5379 -1.0267  2.0794
 2724SOL     OW19630   0.429   2.520  16.710  0.2781 -0.0320 -0.1826
 2724SOL    HW119631   0.419   2.560  16.624 -2.0928 -1.7255 -0.6992
 2724SOL    HW219632   0.360   2.454  16.711 -0.7109  1.0272  1.0210
 2725SOL     OW19633   3.606   3.901   9.106  0.1757 -0.1824  0.8756
 2725SOL    HW119634   3.585   3.975   9.162 -0.5094 -0.2679  0.7252
 2725SOL    HW219635   3.632   3.847   9.181 -0.4078 -1.9661 -0.2100
 2726SOL     OW19636   3.411   1.742   4.811 -0.0711  0.1654  0.2699
 2726SOL    HW119637   3.447   1.736   4.722 -1.8520 -1.6356 -0.3266
 2726SOL    HW219638   3.354   1.665   4.812 -1.6484  1.3504  1.3944
 2727SOL     OW19639   4.052   0.831   7.270  0.2087 -0.1465 -0.6158
 2727SOL    HW119640   4.068   0.762   7.206  2.9726  0.3833 -0.4972
 2727SOL    HW219641   4.112   0.812   7.342 -1.0667  0.7607  0.6972
 2728SOL     OW19642   4.138   1.416   9.988 -0.6130  0.1444 -0.0763
 2728SOL    HW119643   4.094   1.336  10.017 -1.6946  0.4763 -0.7933
 2728SOL    HW219644   4.201   1.428  10.059 -0.6543 -0.8178  0.1238
 2729SOL     OW19645   3.340   3.376  10.597  0.3131  0.0106 -0.1534
 2729SOL    HW119646   3.290   3.380  10.516  1.3699  2.2973 -0.7221
 2729SOL    HW219647   3.381   3.294  10.570 -0.3120  0.1571 -1.5243
 2730SOL     OW19648   2.214   0.529   9.163  0.2063  0.1310  0.4197
 2730SOL    HW119649   2.244   0.564   9.078 -0.1889  1.6261  0.9014
 2730SOL    HW219650   2.160   0.455   9.134  0.5360  0.8418 -2.0165
 2731SOL     OW19651   3.576   2.326   4.683 -0.3716 -0.6122 -0.3572
 2731SOL    HW119652   3.557   2.246   4.731 -2.0421 -0.3489 -0.6035
 2731SOL    HW219653   3.657   2.340   4.733  0.0442 -0.4643 -1.0660
 2732SOL     OW19654   3.315   1.340   4.890 -0.6960  0.1579 -0.1051
 2732SOL    HW119655   3.327   1.267   4.950 -0.5164  0.9727  0.8409
 2732SOL    HW219656   3.220   1.349   4.891 -0.9149 -2.1590  0.7687
 2733SOL     OW19657   1.678   1.233  13.442  0.2928 -0.2806 -0.0198
 2733SOL    HW119658   1.712   1.316  13.408 -2.0311 -0.1796 -2.0926
 2733SOL    HW219659   1.671   1.250  13.536 -0.3855  1.4802 -0.3883
 2734SOL     OW19660   2.173   4.558   8.225  0.2487  0.6744  0.0240
 2734SOL    HW119661   2.185   4.501   8.149  2.6887  1.5719 -0.2565
 2734SOL    HW219662   2.084   4.537   8.255 -0.2972  1.3700 -1.1262
 2735SOL     OW19663   3.841   1.744   4.848  0.2937  0.3611 -0.8362
 2735SOL    HW119664   3.773   1.810   4.862  0.8268  0.6154  0.6394
 2735SOL    HW219665   3.893   1.767   4.926  0.3478 -1.2167 -0.4122
 2736SOL     OW19666   1.118   2.416  16.181 -0.4290  0.2523 -0.2270
 2736SOL    HW119667   1.210   2.408  16.153 -0.5750 -0.4671 -0.4866
 2736SOL    HW219668   1.068   2.359  16.124  1.1945 -1.8723  0.4762
 2737SOL     OW19669   1.935   3.561   2.597  0.0690  0.9695 -0.0745
 2737SOL    HW119670   2.026   3.537   2.613 -1.0355 -2.6027  0.9399
 2737SOL    HW219671   1.896   3.494   2.653  2.0239  0.0491  0.2002
 2738SOL     OW19672   2.261   2.244  10.002  0.1234  0.4112 -0.1703
 2738SOL    HW119673   2.300   2.274   9.919 -0.3352 -0.1395 -0.5852
 2738SOL    HW219674   2.333   2.187  10.028  0.0243  0.1087 -0.5463
 2739SOL     OW19675   0.277   4.610   4.117  0.0629 -0.4102  0.3004
 2739SOL    HW119676   0.213   4.624   4.047  2.2135  0.6472 -1.4164
 2739SOL    HW219677   0.250   4.525   4.152 -1.0242  0.7251  2.2614
 2740SOL     OW19678   3.701   0.224   5.745 -0.2079  0.7923  0.3188
 2740SOL    HW119679   3.669   0.256   5.830 -0.1493 -1.0455  1.0289
 2740SOL    HW219680   3.783   0.274   5.745  0.6657 -0.6342 -2.1285
 2741SOL     OW19681   1.371   2.489   7.997  0.0305 -0.3402 -0.1447
 2741SOL    HW119682   1.441   2.463   8.056  0.2110 -0.5084 -0.4326
 2741SOL    HW219683   1.418   2.546   7.936  2.0833 -0.1038  1.6551
 2742SOL     OW19684   0.370   2.333   2.613 -0.3947 -0.2630 -0.1864
 2742SOL    HW119685   0.439   2.378   2.563 -1.3921 -0.5755 -1.8530
 2742SOL    HW219686   0.310   2.407   2.621 -1.2893 -1.0403  0.3053
 2743SOL     OW19687   0.403   1.917   2.010 -0.6233 -0.5304  0.1241
 2743SOL    HW119688   0.388   1.834   1.964 -1.1141 -0.8379  0.8427
 2743SOL    HW219689   0.401   1.976   1.934 -1.4380  2.0169  2.1327
 2744SOL     OW19690   4.327   3.776   9.870  0.3625  0.2405 -0.2354
 2744SOL    HW119691   4.335   3.776   9.774 -1.8709  1.1776 -0.4383
 2744SOL    HW219692   4.263   3.844   9.890  1.0139  0.0415  2.4389
 2745SOL     OW19693   0.285   1.832   9.432  0.1606 -0.1727  0.5179
 2745SOL    HW119694   0.243   1.756   9.391  0.7874 -1.2127  1.7718
 2745SOL    HW219695   0.268   1.903   9.371 -0.6411 -1.0932 -0.3170
 2746SOL     OW19696   2.043   3.286   8.961  0.1817  0.1323  0.5265
 2746SOL    HW119697   2.101   3.303   9.035  2.4172 -2.9459 -0.5298
 2746SOL    HW219698   1.980   3.351   8.992 -0.2661  0.3112 -0.7381
 2747SOL     OW19699   2.904   2.420  17.188  0.4557 -0.0755  0.0503
 2747SOL    HW119700   2.917   2.491  17.251  2.4324 -0.8854  0.5704
 2747SOL    HW219701   2.930   2.459  17.105  1.7743  0.6312  0.7894
 2748SOL     OW19702   4.130   3.818   4.333 -0.5075 -0.0935 -0.0772
 2748SOL    HW119703   4.187   3.828   4.257 -1.1847  3.6920 -0.1062
 2748SOL    HW219704   4.189   3.752   4.369  0.9380  0.9888 -0.4726
 2749SOL     OW19705   4.671   3.738   5.094  0.2189 -0.2693  0.1072
 2749SOL    HW119706   4.720   3.683   5.156  2.8167  1.2050 -0.6269
 2749SOL    HW219707   4.580   3.729   5.122 -0.1726 -2.0846 -1.6980
 2750SOL     OW19708   1.937   1.200  15.567 -0.0910  0.4345 -0.1233
 2750SOL    HW119709   1.878   1.161  15.502 -0.8841  0.6813  0.4508
 2750SOL    HW219710   1.873   1.247  15.620 -0.9143  0.5920 -1.2642
 2751SOL     OW19711   1.592   3.244   8.457 -0.4093 -0.2786  0.5312
 2751SOL    HW119712   1.686   3.234   8.468 -0.3837  1.9356  2.2988
 2751SOL    HW219713   1.559   3.155   8.440 -1.7153  0.6995 -2.1257
 2752SOL     OW19714   4.241   4.538  13.689  0.0761  0.4276  0.2881
 2752SOL    HW119715   4.305   4.569  13.754  0.2971  0.9302 -0.1648
 2752SOL    HW219716   4.285   4.460  13.655 -1.6814  0.4236 -1.9455
 2753SOL     OW19717   3.446   3.877  10.321  0.1291 -0.4679  0.0549
 2753SOL    HW119718   3.354   3.898  10.335  0.3649  0.5112  0.1793
 2753SOL    HW219719   3.483   3.917  10.400  0.8491 -1.2890  0.1329
 2754SOL     OW19720   3.804   4.322   5.645 -0.1804  0.1958 -0.4204
 2754SOL    HW119721   3.790   4.414   5.626 -2.4390  0.5191  2.8084
 2754SOL    HW219722   3.893   4.299   5.617 -0.3085 -1.0743  0.1803
 2755SOL     OW19723   2.833   4.453   5.738 -0.1373  0.2195 -0.6635
 2755SOL    HW119724   2.847   4.370   5.693  1.1722 -1.0634  2.0828
 2755SOL    HW219725   2.892   4.506   5.684  1.2378  0.5447  1.1451
 2756SOL     OW19726   4.606   0.354   7.844  0.3374 -0.5299  0.0530
 2756SOL    HW119727   4.673   0.287   7.829  3.2062  2.1452  0.9178
 2756SOL    HW219728   4.574   0.369   7.755  0.0399 -0.6094  0.1480
 2757SOL     OW19729   4.568   0.455  17.205  0.6205 -0.1580 -0.0321
 2757SOL    HW119730   4.580   0.380  17.264 -0.9174 -1.1586 -0.9955
 2757SOL    HW219731   4.482   0.484  17.232  0.5877  0.4322 -0.7691
 2758SOL     OW19732   0.123   2.534   7.905  0.1647  0.2644 -0.4799
 2758SOL    HW119733   0.056   2.601   7.918 -0.3720  0.1894 -2.8145
 2758SOL    HW219734   0.071   2.456   7.926  1.7786 -1.3906 -2.6910
 2759SOL     OW19735   3.185   3.097  14.302 -0.0507 -0.0886  0.3121
 2759SOL    HW119736   3.280   3.104  14.294 -0.1105  1.5917  0.8673
 2759SOL    HW219737   3.171   3.062  14.390  0.0454 -0.6644  0.0954
 2760SOL     OW19738   2.608   2.199   9.794 -0.4224 -0.4463 -0.0390
 2760SOL    HW119739   2.653   2.271   9.838 -0.2219 -0.7404  0.2389
 2760SOL    HW219740   2.523   2.234   9.768  0.0071  1.4105  1.1133
 2761SOL     OW19741   1.273   0.298   5.303  0.2999 -0.1935 -0.0058
 2761SOL    HW119742   1.307   0.251   5.379 -2.4944 -2.4019 -0.1223
 2761SOL    HW219743   1.319   0.258   5.229  3.1269 -1.1028  2.2279
 2762SOL     OW19744   4.418   4.233   5.514  0.4243  0.3434 -0.1072
 2762SOL    HW119745   4.488   4.168   5.515  2.0160  2.0465 -1.1096
 2762SOL    HW219746   4.380   4.224   5.426 -2.2828 -1.2983  1.2138
 2763SOL     OW19747   3.802   1.406   4.705  0.1402  0.2432  0.0949
 2763SOL    HW119748   3.753   1.456   4.640 -0.2553 -1.0550 -0.6209
 2763SOL    HW219749   3.880   1.460   4.708  1.5510 -1.8881  2.3749
 2764SOL     OW19750   3.276   0.774   4.251 -0.5106  0.3160 -0.4960
 2764SOL    HW119751   3.188   0.767   4.213 -0.8793  0.2762  0.3596
 2764SOL    HW219752   3.301   0.848   4.196 -1.6772  0.4827 -0.8185
 2765SOL     OW19753   3.182   1.364   7.679 -0.5713 -0.3356 -0.2119
 2765SOL    HW119754   3.137   1.444   7.651 -0.1507 -0.1806 -0.4576
 2765SOL    HW219755   3.262   1.367   7.626 -0.9261  4.7941 -0.5159
 2766SOL     OW19756   0.650   0.552  16.235 -0.3614 -0.2979  0.0333
 2766SOL    HW119757   0.569   0.568  16.283  0.3289  0.5385  0.9284
 2766SOL    HW219758   0.660   0.457  16.247 -0.9719 -0.5614 -1.6156
 2767SOL     OW19759   4.051   0.146  12.580  0.3334  0.4409  0.6244
 2767SOL    HW119760   4.101   0.104  12.510  1.9067 -0.4498  2.2929
 2767SOL    HW219761   4.057   0.087  12.655  0.3878 -0.5451 -0.1552
 2768SOL     OW19762   1.515   3.400  12.235  0.2114  0.0885  0.0796
 2768SOL    HW119763   1.492   3.427  12.325 -2.2597  2.4546 -1.2589
 2768SOL    HW219764   1.456   3.326  12.219 -0.8883  0.9141  0.3028
 2769SOL     OW19765   4.200   0.595   1.897  0.0462  0.3563 -0.6192
 2769SOL    HW119766   4.282   0.640   1.878  0.6381  0.1454  1.4613
 2769SOL    HW219767   4.231   0.570   1.984 -0.2748 -0.7377 -0.8203
 2770SOL     OW19768   0.157   0.795   7.171 -0.3630 -0.4572 -0.2535
 2770SOL    HW119769   0.241   0.776   7.214  0.3206  0.8521 -0.9702
 2770SOL    HW219770   0.174   0.758   7.085 -0.1812  0.3786 -0.5782
 2771SOL     OW19771   3.416   3.411  16.017  0.6657 -0.6816  0.2305
 2771SOL    HW119772   3.505   3.434  16.043  1.1547  1.2291 -3.0759
 2771SOL    HW219773   3.393   3.492  15.971 -1.4786 -1.3056  0.2083
 2772SOL     OW19774   2.615   2.619   7.254  0.0021 -0.0550  0.5285
 2772SOL    HW119775   2.644   2.586   7.169 -1.3791 -2.1136  0.8380
 2772SOL    HW219776   2.536   2.668   7.230  0.4063  0.9052  1.1794
 2773SOL     OW19777   2.913   2.636   8.256 -0.1997  0.0724  0.0973
 2773SOL    HW119778   2.970   2.560   8.258  0.1573  0.3877  2.0838
 2773SOL    HW219779   2.832   2.610   8.301  0.1672 -0.0390  0.6883
 2774SOL     OW19780   1.216   0.374  14.874 -0.2147  0.4442 -0.4349
 2774SOL    HW119781   1.272   0.334  14.808  1.5795 -0.7025  1.8038
 2774SOL    HW219782   1.238   0.465  14.857 -1.8899  0.7932 -0.7595
 2775SOL     OW19783   4.333   1.744   5.344 -0.1770  0.6683  0.0236
 2775SOL    HW119784   4.364   1.800   5.415 -0.8399 -0.8587  1.5123
 2775SOL    HW219785   4.402   1.678   5.341 -0.1886  0.6887 -0.6594
 2776SOL     OW19786   3.668   1.495   6.442 -0.1781 -0.8279 -0.1985
 2776SOL    HW119787   3.672   1.440   6.521 -0.3518 -0.9756 -0.2928
 2776SOL    HW219788   3.761   1.493   6.418 -0.5150  1.6961 -1.6651
 2777SOL     OW19789   1.811   0.212  12.042 -0.1579 -0.1724  0.7912
 2777SOL    HW119790   1.744   0.150  12.073  0.1260 -0.4771  0.7878
 2777SOL    HW219791   1.819   0.183  11.952 -2.0959  0.1384  0.5047
 2778SOL     OW19792   3.297   1.320   2.971 -0.2602  0.2821 -0.1934
 2778SOL    HW119793   3.222   1.266   2.947  0.3279 -0.2356 -0.8590
 2778SOL    HW219794   3.363   1.252   2.985  1.0106  1.9079  1.6442
 2779SOL     OW19795   3.242   4.055  10.084  0.3519  0.3989  0.2274
 2779SOL    HW119796   3.196   4.051  10.168  0.5963 -1.1149  0.2964
 2779SOL    HW219797   3.262   3.962  10.089 -1.0356  0.0746 -0.1218
 2780SOL     OW19798   3.580   4.674   6.906  0.3940  0.0416  0.1940
 2780SOL    HW119799   3.552   4.645   6.819 -2.0931 -2.9199  1.9921
 2780SOL    HW219800   3.548   4.597   6.953  0.4364 -0.3702 -0.4537
 2781SOL     OW19801   1.282   0.454  17.436 -0.2328  0.5205 -0.6535
 2781SOL    HW119802   1.281   0.428  17.344  1.0491  0.3273 -0.6012
 2781SOL    HW219803   1.211   0.519  17.439  0.1585  0.7238  3.6470
 2782SOL     OW19804   3.175   3.108   6.527  0.0895 -0.1318  0.1656
 2782SOL    HW119805   3.136   3.144   6.607  0.0811  1.9692 -0.7852
 2782SOL    HW219806   3.117   3.041   6.493 -0.9583  0.5342  0.6459
 2783SOL     OW19807   2.562   4.651   6.406  0.1494 -0.3020 -0.5385
 2783SOL    HW119808   2.500   0.000   6.385  2.1034  1.6236  0.0766
 2783SOL    HW219809   2.603   4.638   6.321 -1.7091 -0.3710 -1.4261
 2784SOL     OW19810   3.920   1.397   8.586 -0.2649  0.1876 -0.7559
 2784SOL    HW119811   3.825   1.409   8.582 -0.5481 -2.6571 -2.0441
 2784SOL    HW219812   3.945   1.483   8.620 -2.4871  1.2653 -1.8665
 2785SOL     OW19813   2.927   0.655   2.116 -0.0283  0.0297 -0.3371
 2785SOL    HW119814   2.965   0.690   2.035  1.4453  3.6171  1.8779
 2785SOL    HW219815   2.833   0.675   2.110 -0.0747 -0.0442  0.2022
 2786SOL     OW19816   0.413   3.559   4.051 -0.1123  0.1997 -0.2035
 2786SOL    HW119817   0.411   3.621   4.124 -1.4553  1.9309 -1.7256
 2786SOL    HW219818   0.323   3.563   4.022 -0.2568 -0.8390  0.0879
 2787SOL     OW19819   2.631   2.202   8.987  0.2785  0.0806  0.0352
 2787SOL    HW119820   2.722   2.184   8.965  0.5285  1.3738  0.0415
 2787SOL    HW219821   2.618   2.162   9.073 -0.5602 -1.9306 -1.0136
 2788SOL     OW19822   4.071   3.135  16.135 -0.0087  0.4109  0.5843
 2788SOL    HW119823   3.977   3.123  16.149  0.0603 -2.1445 -1.2151
 2788SOL    HW219824   4.070   3.164  16.044 -3.1703 -0.3199  0.3960
 2789SOL     OW19825   0.662   1.383  17.483 -0.4655  0.6270  0.6055
 2789SOL    HW119826   0.667   1.478  17.476  2.0775  0.5123  0.8347
 2789SOL    HW219827   0.568   1.369  17.468  0.3622 -0.4754 -3.5817
 2790SOL     OW19828   1.875   1.271   6.389 -0.0930  0.0531  0.2943
 2790SOL    HW119829   1.921   1.243   6.468  0.9975  1.2506  0.0819
 2790SOL    HW219830   1.884   1.186   6.345  1.7035  0.5823 -0.4009
 2791SOL     OW19831   3.513   4.146  14.940 -0.4051 -0.2708  0.3885
 2791SOL    HW119832   3.566   4.226  14.943 -0.0641 -0.3878 -2.8712
 2791SOL    HW219833   3.507   4.140  14.845  3.0354  1.2955  0.0642
 2792SOL     OW19834   0.405   2.219   6.378 -0.0597 -0.1339  0.1022
 2792SOL    HW119835   0.455   2.139   6.390 -0.4828 -0.0529  2.3811
 2792SOL    HW219836   0.447   2.276   6.442 -0.3106  2.3215 -1.9150
 2793SOL     OW19837   2.787   3.265  11.681 -0.5277  0.0180  0.2451
 2793SOL    HW119838   2.815   3.184  11.637  0.9802 -0.6486  2.4202
 2793SOL    HW219839   2.853   3.268  11.750  1.5518 -0.0195 -1.7348
 2794SOL     OW19840   0.152   3.169   3.752 -0.4067 -0.5492 -0.3567
 2794SOL    HW119841   0.150   3.255   3.793  3.7436 -0.3911 -0.5440
 2794SOL    HW219842   0.075   3.131   3.796 -1.0510  1.0699 -0.1130
 2795SOL     OW19843   3.085   2.936   1.551  0.4268  0.0510  0.2737
 2795SOL    HW119844   3.031   2.957   1.627 -0.3066  0.7474 -0.4390
 2795SOL    HW219845   3.165   2.910   1.596  0.9025 -0.8581 -1.1019
 2796SOL     OW19846   0.076   4.706   7.853 -0.3706  0.2442  0.2267
 2796SOL    HW119847   4.709   4.681   7.822 -0.7935  1.2457  0.6045
 2796SOL    HW219848   0.084   0.066   7.801  0.6493  0.2479  0.4014
 2797SOL     OW19849   3.462   0.756   5.005  0.2916 -0.2934  0.0012
 2797SOL    HW119850   3.472   0.671   5.048  0.9929  0.8202  2.0325
 2797SOL    HW219851   3.371   0.784   5.019  0.1571 -2.2510  2.9078
 2798SOL     OW19852   2.245   4.610   6.984  0.6004 -0.0481 -0.1341
 2798SOL    HW119853   2.245   4.593   6.890  1.3058  2.4897 -0.5869
 2798SOL    HW219854   2.155   4.592   7.009 -0.0280  5.4883  1.4804
 2799SOL     OW19855   4.051   2.170   8.201 -0.4017  0.0664 -0.2096
 2799SOL    HW119856   4.119   2.233   8.224  0.3507  0.1736 -2.7178
 2799SOL    HW219857   3.974   2.227   8.198  0.0262  0.6729  0.5665
 2800SOL     OW19858   0.957   2.988  13.874 -0.2957  0.8137  0.0973
 2800SOL    HW119859   0.982   2.918  13.934 -1.5444  1.4187  1.3440
 2800SOL    HW219860   0.985   3.063  13.926 -2.2366  1.0959  0.7653
 2801SOL     OW19861   1.701   1.262   7.422  0.4497 -0.3573 -0.1679
 2801SOL    HW119862   1.700   1.195   7.490 -0.0863  0.1463  0.3157
 2801SOL    HW219863   1.795   1.276   7.422  0.1749  1.4666  0.6560
 2802SOL     OW19864   1.426   2.796   6.478 -0.4438 -0.4538  0.6059
 2802SOL    HW119865   1.368   2.728   6.513 -1.7928  0.7235  0.6477
 2802SOL    HW219866   1.406   2.882   6.514 -0.7178 -0.5489  0.6826
 2803SOL     OW19867   1.078   2.089   0.809  0.1852  0.0306  0.5025
 2803SOL    HW119868   1.033   2.053   0.886  0.2727 -2.4141 -0.5982
 2803SOL    HW219869   1.006   2.142   0.775  0.0504 -0.9471 -0.7439
 2804SOL     OW19870   2.795   1.308   6.332 -0.1562  0.2964  0.5683
 2804SOL    HW119871   2.832   1.252   6.263 -1.5447  2.6688 -2.0739
 2804SOL    HW219872   2.738   1.252   6.384  0.0077  0.0846  0.5220
 2805SOL     OW19873   4.441   4.261   3.279 -0.3004  0.0842 -0.3668
 2805SOL    HW119874   4.533   4.259   3.253 -0.2976 -3.2266 -0.2097
 2805SOL    HW219875   4.432   4.346   3.321  1.4858  0.7242 -1.2782
 2806SOL     OW19876   2.402   0.358  12.402  0.4132  0.0072 -0.1660
 2806SOL    HW119877   2.389   0.351  12.307 -0.1147 -0.5031 -0.0638
 2806SOL    HW219878   2.361   0.274  12.426 -1.8617  0.8556 -1.0018
 2807SOL     OW19879   0.795   0.248   6.122 -0.2089 -0.5310 -0.0807
 2807SOL    HW119880   0.708   0.283   6.102  0.4665  1.6387  0.8350
 2807SOL    HW219881   0.854   0.322   6.133  0.9814 -1.7232  1.6908
 2808SOL     OW19882   3.357   1.336   5.206 -0.0724 -0.2559 -0.6333
 2808SOL    HW119883   3.384   1.412   5.155  0.0986 -1.0118 -1.6875
 2808SOL    HW219884   3.351   1.257   5.152  1.4781 -0.0703 -1.0559
 2809SOL     OW19885   3.735   1.903  16.968 -0.3066 -0.0240  0.1698
 2809SOL    HW119886   3.789   1.854  17.030 -0.0491  2.6444  2.0241
 2809SOL    HW219887   3.717   1.843  16.895  0.5653  1.6410 -1.4391
 2810SOL     OW19888   0.868   2.920   3.293 -0.0754 -0.3151  0.0317
 2810SOL    HW119889   0.909   2.842   3.331  2.3329 -0.0985 -2.1409
 2810SOL    HW219890   0.905   2.910   3.206  1.7473  2.4344  0.4863
 2811SOL     OW19891   4.004   1.832   7.722  0.1005  0.0746  0.1147
 2811SOL    HW119892   3.920   1.789   7.705  0.1802 -0.2521  0.5606
 2811SOL    HW219893   4.056   1.777   7.663 -2.0618  1.8051 -3.4389
 2812SOL     OW19894   3.555   2.429   1.536  0.3233 -0.2052 -0.4102
 2812SOL    HW119895   3.518   2.429   1.448 -0.6594 -0.5218  0.0052
 2812SOL    HW219896   3.577   2.521   1.526 -2.5545  0.2185 -2.7006
 2813SOL     OW19897   1.398   4.606   0.666 -0.1843  0.1034 -0.6983
 2813SOL    HW119898   1.347   4.585   0.745 -0.2037 -2.2362 -1.3184
 2813SOL    HW219899   1.332   4.664   0.629  2.1591  2.1026 -1.6600
 2814SOL     OW19900   3.923   1.558   3.852 -0.4301 -0.0872 -0.1813
 2814SOL    HW119901   3.923   1.549   3.948  2.4269 -1.5366 -0.3265
 2814SOL    HW219902   4.001   1.503   3.843 -0.5831  0.2226 -3.3110
 2815SOL     OW19903   2.706   0.229  15.893 -0.2636  0.4712  0.5449
 2815SOL    HW119904   2.741   0.189  15.973  0.8538 -0.5144 -0.4487
 2815SOL    HW219905   2.674   0.315  15.919  1.0096  1.1620 -0.2123
 2816SOL     OW19906   1.791   0.781  10.743  0.2813 -0.2420  0.1429
 2816SOL    HW119907   1.780   0.859  10.689 -1.9665 -0.1712  0.7036
 2816SOL    HW219908   1.887   0.788  10.749 -0.1394  1.5781  4.6237
 2817SOL     OW19909   0.606   1.840   2.600  0.2765 -0.7956 -0.0243
 2817SOL    HW119910   0.686   1.873   2.560  0.9924 -0.0410  2.0458
 2817SOL    HW219911   0.596   1.753   2.563 -1.7322 -0.6314  0.0887
 2818SOL     OW19912   3.663   4.374   4.573  0.0410  0.8655 -0.1982
 2818SOL    HW119913   3.716   4.351   4.496  0.9794  1.3630  0.2925
 2818SOL    HW219914   3.571   4.366   4.549 -0.2749  2.3374  0.5364
 2819SOL     OW19915   2.907   0.713   4.399 -0.3313  0.1344 -0.4315
 2819SOL    HW119916   2.821   0.755   4.388 -1.2723 -1.3253  1.4281
 2819SOL    HW219917   2.921   0.680   4.310 -0.0053 -2.9298  0.7576
 2820SOL     OW19918   3.617   0.760   2.203  0.2949 -0.1370 -0.0092
 2820SOL    HW119919   3.664   0.842   2.210  0.5427 -0.4150  1.4951
 2820SOL    HW219920   3.552   0.793   2.141  1.8164 -0.7465 -1.9217
 2821SOL     OW19921   2.159   3.232  11.755 -0.2546  0.4549  0.1725
 2821SOL    HW119922   2.120   3.172  11.819  1.8128  0.1577  1.1762
 2821SOL    HW219923   2.102   3.226  11.679  0.0455 -1.3614  0.0851
 2822SOL     OW19924   4.295   1.169   7.075 -0.8220 -0.1538 -0.0710
 2822SOL    HW119925   4.297   1.074   7.060  1.1931 -0.2362  0.7570
 2822SOL    HW219926   4.215   1.179   7.127  1.3177 -2.3597  3.6085
 2823SOL     OW19927   3.916   0.078  16.462  0.2356 -0.0461  0.2152
 2823SOL    HW119928   3.936   0.044  16.375 -0.0253 -0.9560  0.5082
 2823SOL    HW219929   3.921   0.001  16.519 -0.0455 -0.7600 -0.7299
 2824SOL     OW19930   4.442   4.126   1.532 -0.0155  0.6230  0.1856
 2824SOL    HW119931   4.414   4.206   1.576 -1.8734  0.6860 -1.0864
 2824SOL    HW219932   4.508   4.096   1.595 -0.1074  0.2892  0.1206
 2825SOL     OW19933   1.479   1.731  10.082 -0.3654  0.0218  0.6346
 2825SOL    HW119934   1.486   1.736  10.178  2.1592  1.4184  0.4087
 2825SOL    HW219935   1.450   1.815  10.046  0.2959  0.2820  0.7076
 2826SOL     OW19936   0.410   0.794   3.718  0.2443 -0.4333 -0.1396
 2826SOL    HW119937   0.463   0.799   3.798  2.1870  0.0406 -1.4449
 2826SOL    HW219938   0.390   0.885   3.696  0.9881 -0.8089 -2.3962
 2827SOL     OW19939   3.319   3.112   1.067 -0.0962 -0.2499  0.1974
 2827SOL    HW119940   3.305   3.156   0.983  0.1836  0.7620  0.6812
 2827SOL    HW219941   3.408   3.080   1.049  0.4937  0.5318  1.7615
 2828SOL     OW19942   1.304   0.859  14.036  0.3981  0.1662  0.2127
 2828SOL    HW119943   1.227   0.803  14.047 -0.3474  0.9749 -0.8301
 2828SOL    HW219944   1.331   0.830  13.948  0.4852 -0.2170  0.3682
 2829SOL     OW19945   1.831   0.594   8.261 -0.2805  0.4784  0.1658
 2829SOL    HW119946   1.816   0.596   8.355 -0.1620  1.1038  0.1681
 2829SOL    HW219947   1.907   0.536   8.256  0.3687  1.4041 -0.9501
 2830SOL     OW19948   3.843   1.754   6.247  0.2552 -0.4102 -0.5402
 2830SOL    HW119949   3.833   1.673   6.197 -0.3610 -1.0754  0.6723
 2830SOL    HW219950   3.838   1.824   6.181  0.1126 -0.1497 -0.2509
 2831SOL     OW19951   2.938   4.053   5.204  0.3040  0.2226 -0.3580
 2831SOL    HW119952   2.977   4.018   5.124 -0.8705 -1.5145 -0.1776
 2831SOL    HW219953   3.016   4.076   5.255  1.8513 -0.8306 -2.2819
 2832SOL     OW19954   1.129   3.385   3.386  0.3730  0.4312  0.0985
 2832SOL    HW119955   1.075   3.387   3.465  0.7137 -1.2518  0.3571
 2832SOL    HW219956   1.092   3.309   3.341  0.0180  1.0537 -0.6535
 2833SOL     OW19957   3.708   1.375   2.724 -0.1865  0.2573 -0.1206
 2833SOL    HW119958   3.672   1.462   2.708 -1.8119 -0.1993  1.0775
 2833SOL    HW219959   3.638   1.309   2.730 -0.6586  0.7672 -0.0865
 2834SOL     OW19960   0.379   4.342   9.655 -0.0104  0.9488  0.6658
 2834SOL    HW119961   0.328   4.323   9.734 -0.9337 -0.2732 -0.2198
 2834SOL    HW219962   0.323   4.304   9.587  0.2930 -0.4859  1.2056
 2835SOL     OW19963   1.693   2.751   4.930  0.1215 -0.0154 -0.4780
 2835SOL    HW119964   1.725   2.820   4.987  0.4693 -0.8413  0.3308
 2835SOL    HW219965   1.654   2.809   4.864  0.0310  0.9125  0.4020
 2836SOL     OW19966   3.604   1.054   7.075  0.6203  0.8303 -0.7573
 2836SOL    HW119967   3.683   1.061   7.130  0.4227  1.3078 -0.5393
 2836SOL    HW219968   3.612   1.131   7.019 -1.4807  1.9675  0.5133
 2837SOL     OW19969   3.546   0.780   7.110 -0.4218 -0.4746  0.1359
 2837SOL    HW119970   3.568   0.873   7.114 -1.8069 -0.0149 -2.9696
 2837SOL    HW219971   3.625   0.742   7.148 -0.0527  0.4931  0.3421
 2838SOL     OW19972   1.795   1.578   2.499 -0.6332 -0.4567 -0.2587
 2838SOL    HW119973   1.705   1.610   2.503 -0.4444  0.0360  0.1155
 2838SOL    HW219974   1.811   1.577   2.404  0.7603  0.3590 -0.0419
 2839SOL     OW19975   1.602   0.288   3.901  0.0100 -0.6093 -0.2855
 2839SOL    HW119976   1.632   0.282   3.991 -0.3816  0.8666 -0.0643
 2839SOL    HW219977   1.579   0.196   3.886  0.2737 -0.3206 -2.5440
 2840SOL     OW19978   1.047   1.893   6.671  0.0447  0.0126 -0.1547
 2840SOL    HW119979   1.032   1.910   6.578  0.1504  1.0407  0.0119
 2840SOL    HW219980   1.109   1.820   6.671  0.2012  0.1471 -2.4112
 2841SOL     OW19981   4.552   0.078   7.200  0.1556 -0.7801 -0.8612
 2841SOL    HW119982   4.511   4.714   7.219  0.8218 -0.7625  0.6866
 2841SOL    HW219983   4.527   0.141   7.267 -0.1519 -0.4499 -1.2869
 2842SOL     OW19984   1.691   0.377   5.706 -0.1802 -0.1864  0.2404
 2842SOL    HW119985   1.699   0.426   5.788  1.3427  0.1388 -0.1193
 2842SOL    HW219986   1.772   0.329   5.718 -0.4997 -1.4871 -2.8080
 2843SOL     OW19987   2.949   2.992   3.701  0.2149  0.5455 -0.1597
 2843SOL    HW119988   2.902   2.912   3.727  0.5256  0.4231  0.0253
 2843SOL    HW219989   2.965   3.027   3.789  1.1263  0.4760 -0.3000
 2844SOL     OW19990   4.239   4.196   5.280 -0.5576  0.0709  0.3701
 2844SOL    HW119991   4.178   4.263   5.250  0.3710  0.4874 -0.5636
 2844SOL    HW219992   4.244   4.143   5.200 -2.5505  1.5520 -0.7244
 2845SOL     OW19993   3.917   1.899   1.058 -0.3147  0.4774  1.1890
 2845SOL    HW119994   3.826   1.928   1.062 -0.4619  0.0640  0.8224
 2845SOL    HW219995   3.961   1.973   1.016  2.4641 -1.8800 -0.1089
 2846SOL     OW19996   3.745   2.876   1.308 -0.8161  0.0019  0.4749
 2846SOL    HW119997   3.671   2.914   1.261 -2.3727 -2.8982  0.6031
 2846SOL    HW219998   3.802   2.953   1.302  1.0035 -1.5092 -1.3900
 2847SOL     OW19999   3.966   4.532   2.247 -0.2666  0.4251 -0.3873
 2847SOL    HW120000   4.008   4.453   2.283 -1.1330  0.5250  0.8272
 2847SOL    HW220001   3.907   4.489   2.185  1.6468 -0.0651 -1.8755
 2848SOL     OW20002   2.798   1.516   5.577  0.0300  0.0234  0.0515
 2848SOL    HW120003   2.847   1.511   5.659 -2.1126  3.3492  1.5646
 2848SOL    HW220004   2.864   1.556   5.520 -1.9286  0.0020 -2.2053
 2849SOL     OW20005   0.461   2.211  17.529  0.5747 -0.6708 -0.1687
 2849SOL    HW120006   0.498   2.272  17.465  1.3203 -1.3473 -0.3858
 2849SOL    HW220007   0.369   2.218  17.507  0.1060 -0.1072  1.9341
 2850SOL     OW20008   3.560   0.002   2.494 -0.5968 -0.5326 -0.1317
 2850SOL    HW120009   3.583   4.641   2.538 -2.2976  0.9986  3.5462
 2850SOL    HW220010   3.610   4.714   2.413 -1.1264  0.3709 -0.5459
 2851SOL     OW20011   4.456   0.353   8.054  0.9388 -0.4094  0.0208
 2851SOL    HW120012   4.423   0.263   8.055  1.3886 -0.5879 -1.0129
 2851SOL    HW220013   4.499   0.355   7.969  1.1119 -1.2345  0.0915
 2852SOL     OW20014   3.595   0.468   4.904  0.1150 -0.3855  0.3625
 2852SOL    HW120015   3.585   0.465   4.999  0.8980 -0.2205  0.4473
 2852SOL    HW220016   3.683   0.429   4.899  0.8055  1.1856  0.3245
 2853SOL     OW20017   1.462   2.797  17.312 -0.0198  0.3649 -0.4724
 2853SOL    HW120018   1.385   2.851  17.333 -1.2529 -1.9882  0.9731
 2853SOL    HW220019   1.420   2.713  17.293 -1.2581  0.7141  0.7220
 2854SOL     OW20020   4.317   1.492   3.026  0.5714  0.5009  0.3219
 2854SOL    HW120021   4.378   1.519   2.957  1.7195  0.4904  1.3562
 2854SOL    HW220022   4.352   1.406   3.050  0.5868  0.6665  0.8751
 2855SOL     OW20023   1.406   3.785   5.248  0.1768  0.2391  0.0549
 2855SOL    HW120024   1.497   3.810   5.236 -0.2604  1.6050 -0.4432
 2855SOL    HW220025   1.409   3.697   5.209  2.7510 -1.4432  3.9929
 2856SOL     OW20026   1.660   1.975   8.840 -0.1810 -0.0377 -0.6550
 2856SOL    HW120027   1.565   1.982   8.839 -0.1920  0.0320  2.4206
 2856SOL    HW220028   1.679   2.005   8.751  0.0139 -0.4301 -0.7506
 2857SOL     OW20029   0.864   3.480   6.203  0.0926  0.2337  0.2553
 2857SOL    HW120030   0.865   3.411   6.270  1.1496  0.3374  0.3420
 2857SOL    HW220031   0.794   3.529   6.246  0.6365  0.0546  1.3618
 2858SOL     OW20032   1.983   2.797   7.234 -0.2745  0.4402  0.2671
 2858SOL    HW120033   2.038   2.845   7.296  0.3161  0.6080 -0.3977
 2858SOL    HW220034   1.942   2.878   7.201 -0.0744  0.0303 -0.9656
 2859SOL     OW20035   3.550   0.572   0.262  0.4870 -0.1359 -0.5652
 2859SOL    HW120036   3.557   0.629   0.338 -1.5710  0.5390 -0.8738
 2859SOL    HW220037   3.487   0.502   0.281  0.2405 -0.1743 -1.5051
 2860SOL     OW20038   4.698   3.552  11.809 -0.2718  0.5443 -0.2542
 2860SOL    HW120039   4.627   3.580  11.866 -0.5229 -0.4116 -0.0957
 2860SOL    HW220040   0.027   3.485  11.857  0.1782  1.1380  0.1093
 2861SOL     OW20041   0.996   1.259   9.521  0.0628 -0.0361  0.4529
 2861SOL    HW120042   0.935   1.197   9.560  0.1009  0.0327  0.6215
 2861SOL    HW220043   0.998   1.329   9.587 -2.4147  1.5720 -1.1644
 2862SOL     OW20044   2.741   1.037  17.155  0.7723  0.2287  0.5677
 2862SOL    HW120045   2.757   1.094  17.080  1.8167 -1.0123 -0.1578
 2862SOL    HW220046   2.687   1.096  17.207 -1.6968  0.7937 -2.6624
 2863SOL     OW20047   2.533   2.447   4.025 -0.0535  0.2323  0.1351
 2863SOL    HW120048   2.572   2.465   3.939 -2.5566 -0.2143 -1.0860
 2863SOL    HW220049   2.441   2.466   4.006 -0.9544 -6.2265 -1.7651
 2864SOL     OW20050   2.662   3.049  15.940 -0.6309  0.1809  0.5875
 2864SOL    HW120051   2.685   2.967  15.897  1.0038  0.9548 -0.0365
 2864SOL    HW220052   2.571   3.063  15.914 -0.4631 -1.2281 -0.7908
 2865SOL     OW20053   4.492   1.606   8.047  0.1186  0.3663 -0.0773
 2865SOL    HW120054   4.493   1.518   8.085 -0.7552  0.1075 -0.6580
 2865SOL    HW220055   4.513   1.664   8.121  0.3419  1.2156 -0.8044
 2866SOL     OW20056   2.921   3.024  11.658 -0.2790 -0.5130 -0.2401
 2866SOL    HW120057   2.995   3.037  11.718  0.3225  0.8147 -1.2529
 2866SOL    HW220058   2.956   3.045  11.572  1.8238  0.0849  0.7488
 2867SOL     OW20059   1.191   3.737  12.864 -0.0457 -0.0889  0.1051
 2867SOL    HW120060   1.203   3.657  12.915 -1.1633  0.0855  0.6306
 2867SOL    HW220061   1.175   3.697  12.779 -1.6661 -1.5955  1.1265
 2868SOL     OW20062   4.020   1.874   2.317 -0.7299  0.8392  0.2594
 2868SOL    HW120063   4.090   1.842   2.261 -0.5183  0.1923  0.8945
 2868SOL    HW220064   4.060   1.866   2.404 -1.4450 -2.1722  0.3364
 2869SOL     OW20065   3.771   3.181  10.465  0.4133 -0.2144 -0.6852
 2869SOL    HW120066   3.713   3.196  10.539  1.6416 -0.9654  0.4281
 2869SOL    HW220067   3.772   3.087  10.451 -0.5071 -0.3293  0.1047
 2870SOL     OW20068   2.374   0.520   7.424  0.3588  0.0979 -0.2369
 2870SOL    HW120069   2.430   0.589   7.460 -1.5806  0.7483  1.5429
 2870SOL    HW220070   2.372   0.476   7.509  1.4194 -0.9785 -0.7665
 2871SOL     OW20071   1.059   4.145   8.686 -0.4755  0.0330 -0.0416
 2871SOL    HW120072   1.072   4.221   8.742  0.7298 -0.3440  0.1884
 2871SOL    HW220073   1.103   4.169   8.604 -1.7382 -1.4520 -1.1602
 2872SOL     OW20074   3.178   2.394   9.311  0.1083 -0.4720  0.0789
 2872SOL    HW120075   3.153   2.402   9.403  2.0480  1.0201  0.4909
 2872SOL    HW220076   3.146   2.306   9.292  0.7805 -1.2544  2.6068
 2873SOL     OW20077   0.935   1.441   7.545 -0.1453 -0.0555 -0.0392
 2873SOL    HW120078   0.976   1.365   7.504 -2.0107 -0.1778 -1.6888
 2873SOL    HW220079   1.008   1.494   7.577 -0.7575  0.9953 -0.3904
 2874SOL     OW20080   0.432   4.062   8.018  0.4528  0.0193 -0.1644
 2874SOL    HW120081   0.376   4.036   7.945 -1.5912  0.4863  1.2414
 2874SOL    HW220082   0.521   4.049   7.984  1.3934  1.9025  1.5601
 2875SOL     OW20083   2.047   3.702   5.115 -0.7491  0.4263  0.1720
 2875SOL    HW120084   2.100   3.764   5.065  0.8565 -0.8636  0.2876
 2875SOL    HW220085   1.971   3.714   5.058 -0.3309  0.7959 -0.3058
 2876SOL     OW20086   4.480   4.339   2.470  0.3818  0.1638  0.4565
 2876SOL    HW120087   4.545   4.386   2.418 -0.4044 -0.3435 -1.0014
 2876SOL    HW220088   4.540   4.304   2.536 -0.4942 -0.5019  0.9043
 2877SOL     OW20089   3.863   0.284   9.093  0.0024  0.1035 -0.3146
 2877SOL    HW120090   3.821   0.360   9.054 -1.0181 -1.4232 -2.1919
 2877SOL    HW220091   3.885   0.321   9.179  2.0529  1.7325 -1.5572
 2878SOL     OW20092   1.279   3.351   3.146 -0.0347 -0.4238 -0.2174
 2878SOL    HW120093   1.210   3.400   3.101  0.5272 -0.1266 -0.7450
 2878SOL    HW220094   1.294   3.418   3.213 -0.7156 -0.2717 -0.2071
 2879SOL     OW20095   0.749   4.465   2.354  0.4149 -0.6425  0.1409
 2879SOL    HW120096   0.792   4.383   2.327  1.4110 -0.2746  0.6114
 2879SOL    HW220097   0.686   4.443   2.422 -1.2729 -0.1010 -1.2652
 2880SOL     OW20098   1.546   3.742   5.933  0.2680 -0.5724  0.9024
 2880SOL    HW120099   1.605   3.742   6.008  2.3108 -3.6662 -0.6768
 2880SOL    HW220100   1.506   3.655   5.938  0.8166 -0.8034  1.2341
 2881SOL     OW20101   3.363   0.031   5.915 -0.1076 -0.3078  0.0601
 2881SOL    HW120102   3.421   4.711   5.850 -0.1914  1.3364 -1.0296
 2881SOL    HW220103   3.407   4.719   5.994 -0.2778 -1.5702 -0.3649
 2882SOL     OW20104   2.233   3.552  12.169 -0.4227 -0.2827  0.2412
 2882SOL    HW120105   2.180   3.606  12.110  0.4896 -0.2182 -0.5107
 2882SOL    HW220106   2.233   3.608  12.247  1.7410 -3.2727  2.3768
 2883SOL     OW20107   4.553   1.855   6.403 -0.5363  0.0587  0.1608
 2883SOL    HW120108   4.469   1.831   6.363  0.2227  0.9718 -1.9698
 2883SOL    HW220109   4.613   1.849   6.329 -1.4027 -1.7761 -0.3890
 2884SOL     OW20110   2.827   0.798  17.114 -0.3480 -0.4272  0.2917
 2884SOL    HW120111   2.772   0.869  17.146 -2.6316 -2.0384 -0.0292
 2884SOL    HW220112   2.792   0.787  17.025  1.2060 -1.4290 -0.1866
 2885SOL     OW20113   1.872   4.541   6.460  0.8386  0.1596  0.2319
 2885SOL    HW120114   1.956   4.567   6.422  0.6242  1.0248  0.3547
 2885SOL    HW220115   1.872   4.579   6.548 -0.6254  2.2358 -0.6442
 2886SOL     OW20116   2.531   4.274  15.616  0.2967 -0.3741  0.0442
 2886SOL    HW120117   2.490   4.249  15.699 -1.1491  0.4118 -0.4346
 2886SOL    HW220118   2.459   4.326  15.579 -1.2134 -1.8485  0.8683
 2887SOL     OW20119   3.886   0.109   8.272 -0.2440 -0.5225 -0.1081
 2887SOL    HW120120   3.803   0.144   8.306 -0.0295  0.1753 -0.2979
 2887SOL    HW220121   3.920   0.176   8.212 -0.7400 -1.5586 -1.5579
 2888SOL     OW20122   4.058   3.038   5.134 -0.1739 -0.0828  0.6802
 2888SOL    HW120123   4.037   3.130   5.118  1.5242 -0.3527 -3.2454
 2888SOL    HW220124   4.151   3.040   5.157 -0.1907  2.6271  0.4669
 2889SOL     OW20125   3.923   0.295   3.910 -0.1970  0.3559 -1.0262
 2889SOL    HW120126   4.009   0.273   3.946  0.6620  0.2781 -3.1264
 2889SOL    HW220127   3.944   0.371   3.857  0.1815 -0.4982 -2.1162
 2890SOL     OW20128   0.726   3.951  13.430  0.0556  0.3819 -0.2382
 2890SOL    HW120129   0.735   4.046  13.420 -0.0045  0.4356  0.2162
 2890SOL    HW220130   0.633   3.945  13.408  0.0862 -0.2912 -0.1975
 2891SOL     OW20131   0.388   0.793   8.609 -0.4152  0.4605 -0.2438
 2891SOL    HW120132   0.309   0.821   8.562 -0.7587  3.8056  2.2420
 2891SOL    HW220133   0.465   0.817   8.557  0.8228  2.7288  2.6090
 2892SOL     OW20134   2.901   0.073   4.124 -0.3237 -0.3972  0.1204
 2892SOL    HW120135   2.855   4.716   4.092 -0.0492 -0.1353 -0.9058
 2892SOL    HW220136   2.981   0.040   4.166 -0.2216 -1.6159 -1.0581
 2893SOL     OW20137   0.938   4.302  16.777  0.5381 -0.4363  0.7651
 2893SOL    HW120138   0.853   4.317  16.818  0.7358 -1.4486  1.5292
 2893SOL    HW220139   0.967   4.241  16.845 -0.2378 -0.8700  0.6940
 2894SOL     OW20140   2.862   2.056  11.717 -0.3705  0.0977 -0.9904
 2894SOL    HW120141   2.910   1.981  11.751  0.3600  1.1864  0.4077
 2894SOL    HW220142   2.809   2.009  11.653 -1.8925  1.3504 -0.6496
 2895SOL     OW20143   1.372   0.568   7.902 -0.1203  0.0992 -0.4157
 2895SOL    HW120144   1.351   0.529   7.987 -2.2509 -3.0770 -2.4075
 2895SOL    HW220145   1.458   0.527   7.889  0.3686  0.3875  1.8482
 2896SOL     OW20146   1.197   0.385  10.105  0.3264 -0.8101  0.2650
 2896SOL    HW120147   1.270   0.341  10.061  0.8225 -0.8251  1.1129
 2896SOL    HW220148   1.186   0.341  10.189  0.4483  2.0686  1.7697
 2897SOL     OW20149   3.352   1.183  11.874  0.0323  0.4333  0.2578
 2897SOL    HW120150   3.447   1.194  11.877  0.1551 -0.7874  0.6313
 2897SOL    HW220151   3.343   1.091  11.899 -1.5153  1.2355  2.6103
 2898SOL     OW20152   1.746   1.610   4.790 -0.4769  0.2580  0.2735
 2898SOL    HW120153   1.763   1.562   4.709 -0.9677 -0.2724  0.4809
 2898SOL    HW220154   1.668   1.564   4.822  0.7440 -2.0103  0.0195
 2899SOL     OW20155   1.804   1.126   4.878 -0.0952 -0.6543 -0.2427
 2899SOL    HW120156   1.880   1.125   4.819  0.9595  1.5771  1.0824
 2899SOL    HW220157   1.754   1.186   4.823 -0.0618  0.6245  1.1048
 2900SOL     OW20158   2.332   1.774   8.286  0.8435  0.7265  0.3683
 2900SOL    HW120159   2.402   1.837   8.268  3.1569 -1.9986 -0.1843
 2900SOL    HW220160   2.357   1.739   8.371 -1.4164 -1.9030 -0.0389
 2901SOL     OW20161   2.716   4.629   8.559  0.3888  0.5550 -0.4078
 2901SOL    HW120162   2.795   4.664   8.601  0.3625  1.3182 -0.9762
 2901SOL    HW220163   2.698   4.708   8.507  1.4150  1.7393  1.0302
 2902SOL     OW20164   3.931   3.404   1.946 -0.3396  1.1356 -0.2977
 2902SOL    HW120165   3.970   3.477   1.994 -1.6088 -0.4595  3.1554
 2902SOL    HW220166   3.866   3.452   1.895 -1.4392  1.6917  1.5958
 2903SOL     OW20167   2.340   4.716   0.204 -0.5474  0.3354  0.2758
 2903SOL    HW120168   2.362   4.689   0.293 -2.7424  1.0878  1.0468
 2903SOL    HW220169   2.270   4.658   0.173 -0.6287  0.4187  0.3035
 2904SOL     OW20170   4.520   0.956   7.714 -0.2142  0.2041 -0.5318
 2904SOL    HW120171   4.476   0.930   7.795 -0.4338 -0.4829 -0.8791
 2904SOL    HW220172   4.520   1.051   7.728 -2.3096  0.0924  0.1877
 2905SOL     OW20173   1.637   3.617   7.423  0.0675 -0.1821 -0.2459
 2905SOL    HW120174   1.709   3.631   7.484  0.7343  0.3446 -1.1504
 2905SOL    HW220175   1.561   3.656   7.466  1.5730  1.5426  0.8496
 2906SOL     OW20176   2.585   4.033   4.657 -0.1913 -0.0403 -0.0623
 2906SOL    HW120177   2.512   4.088   4.629 -0.3150  0.8757  2.0166
 2906SOL    HW220178   2.633   4.015   4.576 -1.1996  0.6944 -0.8263
 2907SOL     OW20179   3.045   3.673   4.976 -0.2090 -0.0308 -0.1427
 2907SOL    HW120180   3.114   3.628   5.025  0.3049 -1.5656 -2.2718
 2907SOL    HW220181   2.990   3.700   5.049 -2.0540 -2.6040 -0.5784
 2908SOL     OW20182   2.018   2.318   7.189  0.8729 -0.2088 -0.0790
 2908SOL    HW120183   1.979   2.404   7.206  3.4580  0.7988  0.8365
 2908SOL    HW220184   2.048   2.291   7.276  1.8129 -0.9270 -0.6318
 2909SOL     OW20185   4.651   3.442   7.808  0.3837 -0.1872  0.4085
 2909SOL    HW120186   4.665   3.531   7.778 -2.0667  0.4027  0.9648
 2909SOL    HW220187   4.591   3.406   7.742  0.5708  0.7445 -0.2588
 2910SOL     OW20188   1.524   3.605   8.165  0.6343  0.0494 -0.1743
 2910SOL    HW120189   1.557   3.609   8.076  0.0238 -0.7976 -0.4317
 2910SOL    HW220190   1.546   3.514   8.184  1.1564  0.4073  1.0026
 2911SOL     OW20191   0.570   4.661   8.483 -0.5981 -0.3594  0.0272
 2911SOL    HW120192   0.624   4.678   8.406  0.4420  0.4405  0.9361
 2911SOL    HW220193   0.566   4.566   8.478 -1.1953 -0.2862 -0.8366
 2912SOL     OW20194   4.598   0.094  15.573 -0.7138  0.3205  0.0095
 2912SOL    HW120195   4.639   0.085  15.659  0.7302 -2.5196 -0.9702
 2912SOL    HW220196   4.526   0.157  15.578 -0.3225  1.0099 -2.6826
 2913SOL     OW20197   4.205   1.385   9.724  0.3140  0.0466 -0.7117
 2913SOL    HW120198   4.169   1.297   9.711  0.9999 -0.4864  0.9415
 2913SOL    HW220199   4.178   1.412   9.812 -0.6478 -1.6773 -0.4892
 2914SOL     OW20200   0.977   3.954   5.688  0.3282 -0.4422 -0.5442
 2914SOL    HW120201   1.043   4.023   5.684 -1.6651  1.3627 -2.1641
 2914SOL    HW220202   0.892   3.994   5.672  1.6745  1.2090 -3.4734
 2915SOL     OW20203   2.987   3.660   7.169 -0.4078  0.5787  0.5685
 2915SOL    HW120204   3.042   3.615   7.233 -0.4810  1.0550  0.9621
 2915SOL    HW220205   2.979   3.588   7.106 -0.5649 -1.4690  2.9695
 2916SOL     OW20206   0.091   3.464   2.839  0.3086  0.1652  0.5371
 2916SOL    HW120207   0.070   3.480   2.747  0.5115  0.6141  0.5702
 2916SOL    HW220208   0.073   3.370   2.847  3.9708 -0.1574  4.7487
 2917SOL     OW20209   3.728   2.849  17.390  0.0487  0.5400 -0.1683
 2917SOL    HW120210   3.724   2.778  17.326  1.1512  0.9509 -0.7000
 2917SOL    HW220211   3.638   2.877  17.372 -0.5105  0.5901  2.7839
 2918SOL     OW20212   2.476   3.176   2.267 -0.0312 -1.1991  0.2114
 2918SOL    HW120213   2.560   3.222   2.273 -0.4777 -0.5042  0.9824
 2918SOL    HW220214   2.486   3.153   2.174 -1.4396 -2.8834  0.4746
 2919SOL     OW20215   1.342   0.277   3.306  0.3831 -0.1901  0.4799
 2919SOL    HW120216   1.295   0.360   3.292 -0.1047 -0.6451 -0.5121
 2919SOL    HW220217   1.431   0.314   3.303  0.6102 -1.0368 -3.0497
 2920SOL     OW20218   0.177   1.796   5.072 -0.2772  0.2776 -0.5729
 2920SOL    HW120219   0.225   1.832   4.997  1.5470 -1.0589 -0.0405
 2920SOL    HW220220   0.117   1.866   5.098 -0.9994 -0.6621  0.2479
 2921SOL     OW20221   2.999   0.377   4.723 -0.4320 -0.3447  0.1318
 2921SOL    HW120222   3.079   0.396   4.675 -0.5677 -0.5201 -0.1668
 2921SOL    HW220223   2.944   0.444   4.681  0.1644  0.5616  0.8040
 2922SOL     OW20224   4.019   4.096   6.872 -0.1302 -0.3653  0.6430
 2922SOL    HW120225   3.981   4.033   6.810 -1.1141  0.5367  0.3167
 2922SOL    HW220226   3.963   4.173   6.857  2.0078  1.2818  1.1109
 2923SOL     OW20227   3.077   0.411  14.631  0.4836 -0.2189 -0.0245
 2923SOL    HW120228   3.047   0.502  14.633 -1.1408 -0.7370 -1.4662
 2923SOL    HW220229   3.056   0.384  14.542 -0.2569  0.9315 -0.1912
 2924SOL     OW20230   3.898   4.592   5.126 -0.3366  0.6995 -0.4421
 2924SOL    HW120231   3.920   4.685   5.128  1.4240  0.3087 -2.0750
 2924SOL    HW220232   3.861   4.578   5.213  0.2587  1.0529 -0.1310
 2925SOL     OW20233   3.881   0.243  15.460  0.0363  0.0177  0.1639
 2925SOL    HW120234   3.833   0.214  15.382 -3.2705 -1.5112  2.7685
 2925SOL    HW220235   3.865   0.338  15.457  1.4236  0.2258 -0.6153
 2926SOL     OW20236   3.507   4.205   6.023 -0.0852 -0.3827 -0.1003
 2926SOL    HW120237   3.441   4.272   6.005  0.3265 -0.3362 -1.4148
 2926SOL    HW220238   3.588   4.254   6.009 -1.1001  0.8210 -1.7278
 2927SOL     OW20239   0.136   3.429   8.722 -0.1308 -0.4017 -0.9253
 2927SOL    HW120240   0.130   3.421   8.817  3.1278  1.6853 -0.5439
 2927SOL    HW220241   0.210   3.372   8.702 -2.1105 -2.0264 -3.6017
 2928SOL     OW20242   4.007   0.066  15.638  0.5224 -0.6483  0.2562
 2928SOL    HW120243   3.945   0.133  15.609  0.0065 -0.7967  1.0195
 2928SOL    HW220244   3.950   4.709  15.645  0.6273 -0.8683 -1.3240
 2929SOL     OW20245   0.150   4.393   6.496 -0.3184 -0.0244 -0.5748
 2929SOL    HW120246   0.243   4.379   6.478 -0.5954 -1.6006 -0.7804
 2929SOL    HW220247   0.117   4.310   6.531  1.1315  0.9284  3.0744
 2930SOL     OW20248   0.822   1.071  17.297  0.2935  0.5860  0.4817
 2930SOL    HW120249   0.834   0.986  17.253  1.2401  1.3211 -0.6675
 2930SOL    HW220250   0.728   1.067  17.315 -0.0276  1.7828 -0.9697
 2931SOL     OW20251   1.245   2.750  11.268 -0.1763  0.1023  0.0559
 2931SOL    HW120252   1.173   2.686  11.267  0.4503 -0.6306  1.0312
 2931SOL    HW220253   1.259   2.771  11.176  0.6234 -1.8106 -0.2574
 2932SOL     OW20254   1.746   3.279  12.859 -0.3148 -0.1847 -0.8670
 2932SOL    HW120255   1.830   3.239  12.836  1.3275  3.3005 -0.8766
 2932SOL    HW220256   1.703   3.244  12.781  0.5206 -0.0519 -1.3898
 2933SOL     OW20257   0.258   2.219   8.296 -0.5173  0.2554 -0.2153
 2933SOL    HW120258   0.350   2.193   8.288 -0.5537 -0.6257  2.1276
 2933SOL    HW220259   0.241   2.231   8.390  0.6803 -0.1836  0.0568
 2934SOL     OW20260   3.614   4.616   3.312 -0.3841 -0.3200  0.1256
 2934SOL    HW120261   3.578   4.531   3.338 -2.2343  0.2326 -0.5987
 2934SOL    HW220262   3.550   4.681   3.342  0.5267  1.2935 -1.4380
 2935SOL     OW20263   0.855   2.873  13.639  0.0572  0.1922  0.1890
 2935SOL    HW120264   0.859   2.918  13.724 -0.2636  0.6812 -0.0533
 2935SOL    HW220265   0.892   2.938  13.578 -0.4413  0.0902 -0.2184
 2936SOL     OW20266   1.060   0.723   5.593 -0.5639 -0.2753  1.3892
 2936SOL    HW120267   1.005   0.648   5.573  0.4685 -1.2906  2.3380
 2936SOL    HW220268   1.148   0.687   5.596 -0.4985 -0.3909 -1.5797
 2937SOL     OW20269   2.598   0.224   4.803 -0.4124 -0.3292 -0.3936
 2937SOL    HW120270   2.570   0.301   4.753  1.2793 -0.2251 -1.1592
 2937SOL    HW220271   2.650   0.267   4.871 -0.1303 -0.5734 -0.4527
 2938SOL     OW20272   3.247   2.656   8.646 -0.0477 -0.5419  0.1427
 2938SOL    HW120273   3.283   2.682   8.731 -0.9893 -0.5424  0.5416
 2938SOL    HW220274   3.280   2.719   8.582 -1.5715  0.0870 -0.0166
 2939SOL     OW20275   1.336   3.915   2.230  0.0047  0.0306 -0.1694
 2939SOL    HW120276   1.426   3.904   2.261 -0.6978 -0.4975  1.6895
 2939SOL    HW220277   1.289   3.909   2.313  1.5615 -0.1737  0.6842
 2940SOL     OW20278   2.668   3.169   9.121  0.6226 -0.1031  0.3155
 2940SOL    HW120279   2.680   3.264   9.125 -2.7104  0.3004  0.0146
 2940SOL    HW220280   2.685   3.160   9.027 -0.3711 -2.1764  0.3386
 2941SOL     OW20281   2.532   1.543   1.571 -0.4711 -0.1498 -0.2616
 2941SOL    HW120282   2.503   1.500   1.490  0.3159 -1.1870  0.0086
 2941SOL    HW220283   2.527   1.634   1.540  0.1379  1.0432  3.1865
 2942SOL     OW20284   1.663   3.427   5.543  0.3248  0.0134 -0.4761
 2942SOL    HW120285   1.747   3.447   5.583 -1.4289  1.2156  2.5761
 2942SOL    HW220286   1.645   3.333   5.548  0.4450  0.0734  1.0395
 2943SOL     OW20287   1.127   4.057   2.597  0.5830  0.3925  0.3478
 2943SOL    HW120288   1.150   4.079   2.688  0.5927  0.7768  0.2530
 2943SOL    HW220289   1.202   4.096   2.552 -0.1537 -0.5079 -1.6371
 2944SOL     OW20290   3.429   1.532  14.861 -0.4439 -0.0146  0.1248
 2944SOL    HW120291   3.508   1.479  14.869 -0.9192 -0.7847 -0.3643
 2944SOL    HW220292   3.434   1.577  14.945 -1.3237  1.4938 -0.6335
 2945SOL     OW20293   3.028   2.981   8.699  0.0724  0.0772  0.0456
 2945SOL    HW120294   3.095   2.971   8.631 -1.1014 -1.3821 -0.8918
 2945SOL    HW220295   2.981   2.899   8.687  0.3414 -0.1573  0.6109
 2946SOL     OW20296   2.086   4.599   0.168 -0.2652 -0.2481  0.4293
 2946SOL    HW120297   2.104   4.532   0.234  0.5964 -1.0501 -0.6132
 2946SOL    HW220298   1.995   4.620   0.189 -0.2115 -0.9460  1.3153
 2947SOL     OW20299   0.474   3.866  15.875  0.6103  0.1910  0.2426
 2947SOL    HW120300   0.422   3.854  15.795 -1.0501  1.9165  1.0811
 2947SOL    HW220301   0.397   3.900  15.919 -0.0619 -0.0360 -0.7665
 2948SOL     OW20302   1.095   0.643  11.391 -0.3560  0.2373 -0.1273
 2948SOL    HW120303   1.078   0.699  11.315  1.1741  1.7964  0.6879
 2948SOL    HW220304   1.187   0.660  11.411  0.0089 -1.6932 -0.1361
 2949SOL     OW20305   3.322   2.287   3.616  0.0583  0.3832 -0.3872
 2949SOL    HW120306   3.280   2.238   3.546 -0.8090 -1.7613  1.6257
 2949SOL    HW220307   3.323   2.217   3.682 -0.6684 -1.3038 -2.1498
 2950SOL     OW20308   3.855   3.990   6.656 -0.4286  0.3582 -0.1021
 2950SOL    HW120309   3.877   4.021   6.569 -0.5359 -2.1952 -1.0096
 2950SOL    HW220310   3.761   4.010   6.660 -0.3309  0.4061  2.2513
 2951SOL     OW20311   1.275   0.465   6.631  0.2861 -0.1046  0.5353
 2951SOL    HW120312   1.354   0.412   6.617  2.2094  2.3475  1.9884
 2951SOL    HW220313   1.213   0.410   6.678 -0.9098  0.0130 -0.9200
 2952SOL     OW20314   3.022   2.382   6.085 -0.4027 -0.4619  0.1015
 2952SOL    HW120315   3.038   2.316   6.017 -2.6486  0.1771 -1.0531
 2952SOL    HW220316   2.944   2.341   6.122  0.5420 -2.8714 -0.5693
 2953SOL     OW20317   3.854   4.466   8.106  0.3352  0.2856 -0.2230
 2953SOL    HW120318   3.803   4.501   8.033 -0.4450 -2.4826 -1.0361
 2953SOL    HW220319   3.864   4.380   8.064 -0.0067 -1.5581  3.4110
 2954SOL     OW20320   3.218   3.147  10.840 -0.0072 -0.6716  0.3472
 2954SOL    HW120321   3.194   3.094  10.916  1.2944 -0.4282  0.9128
 2954SOL    HW220322   3.145   3.209  10.836  0.6774  0.2064  1.4282
 2955SOL     OW20323   1.230   0.726   8.247 -0.3152 -0.4508 -0.0398
 2955SOL    HW120324   1.291   0.759   8.182 -1.5604 -1.3856 -1.6705
 2955SOL    HW220325   1.288   0.716   8.323  0.6468  2.1943 -0.4530
 2956SOL     OW20326   0.640   3.658  15.125  0.2313 -0.2930 -0.3658
 2956SOL    HW120327   0.702   3.596  15.088  0.6677  0.5623 -1.0438
 2956SOL    HW220328   0.680   3.677  15.210 -0.5410  0.5638 -0.1855
 2957SOL     OW20329   1.168   1.542   3.546 -0.2176  0.3820 -0.3117
 2957SOL    HW120330   1.087   1.498   3.572 -0.0921  1.2291  1.4556
 2957SOL    HW220331   1.141   1.631   3.567  0.4838  0.3509  0.7269
 2958SOL     OW20332   4.594   4.623   8.929 -0.1184  0.6620 -0.2671
 2958SOL    HW120333   4.559   4.699   8.882 -0.5575 -0.0290 -1.0621
 2958SOL    HW220334   4.554   4.551   8.881  0.2110 -0.3925  1.0461
 2959SOL     OW20335   1.343   1.669   9.685  0.5192  0.9352  0.4394
 2959SOL    HW120336   1.295   1.631   9.759  0.7534  0.7294  0.4888
 2959SOL    HW220337   1.340   1.593   9.627  0.5417  0.7252  0.7102
 2960SOL     OW20338   1.133   4.714   7.050 -0.0358  0.0279  0.6941
 2960SOL    HW120339   1.098   4.626   7.062 -1.2532  0.2874 -0.9061
 2960SOL    HW220340   1.057   0.044   7.021 -0.2911  0.9009  2.9158
 2961SOL     OW20341   3.147   4.606  11.812  0.0845  0.4033 -0.3997
 2961SOL    HW120342   3.154   4.645  11.900 -0.8975 -0.5307  0.0994
 2961SOL    HW220343   3.092   4.677  11.777  1.7021  0.3702 -2.9682
 2962SOL     OW20344   3.090   3.997  12.651 -0.2410  0.3068 -0.2250
 2962SOL    HW120345   3.184   3.980  12.660 -0.6139 -0.8843  1.2251
 2962SOL    HW220346   3.065   4.037  12.734  0.6860  1.3673 -0.4554
 2963SOL     OW20347   0.481   0.852   3.319  0.3553  0.0227  0.0548
 2963SOL    HW120348   0.429   0.783   3.360  0.9389  1.3138  2.9686
 2963SOL    HW220349   0.516   0.800   3.247 -0.5705  0.7052 -0.8895
 2964SOL     OW20350   3.710   1.322  13.574  0.0396 -0.9339 -0.0496
 2964SOL    HW120351   3.668   1.250  13.621  0.1592 -1.1395 -0.2526
 2964SOL    HW220352   3.789   1.328  13.628  0.9494  0.4635 -1.5539
 2965SOL     OW20353   4.135   4.155   7.378  0.1404  0.0623 -0.0072
 2965SOL    HW120354   4.174   4.179   7.462 -1.6491 -1.9868  1.4172
 2965SOL    HW220355   4.167   4.213   7.309  0.4971  0.0007  0.1100
 2966SOL     OW20356   4.181   3.402   0.934  0.4629  0.4683  0.0381
 2966SOL    HW120357   4.220   3.474   0.984  0.1322  1.2217 -0.7945
 2966SOL    HW220358   4.212   3.426   0.847  1.9813 -1.1703  0.1486
 2967SOL     OW20359   3.898   3.429   5.636 -0.2461  0.1560 -0.6019
 2967SOL    HW120360   3.879   3.338   5.613  0.4924 -0.6845  2.0777
 2967SOL    HW220361   3.967   3.424   5.703  0.8406  1.9998 -1.5791
 2968SOL     OW20362   4.331   1.095   4.053  0.3430 -0.3673 -0.4719
 2968SOL    HW120363   4.404   1.036   4.074  1.4338  0.7639 -1.0559
 2968SOL    HW220364   4.257   1.049   4.093 -0.9032  0.5905 -1.7163
 2969SOL     OW20365   1.661   0.054   2.653 -0.0615 -1.0440  0.1215
 2969SOL    HW120366   1.580   0.033   2.606  0.2559  0.0940 -0.9116
 2969SOL    HW220367   1.710   0.102   2.587 -0.6496 -0.5315  0.0632
 2970SOL     OW20368   0.691   2.219  15.251 -0.4063  0.1726 -0.4103
 2970SOL    HW120369   0.784   2.202  15.267 -0.4307  0.5872  0.1786
 2970SOL    HW220370   0.691   2.141  15.195  2.3947 -1.5400  1.9616
 2971SOL     OW20371   0.204   2.988   6.387  0.1306 -0.0663  0.5356
 2971SOL    HW120372   0.279   2.966   6.331 -1.2146 -0.0613 -1.2781
 2971SOL    HW220373   0.247   2.989   6.472  3.3968 -1.7387 -1.0696
 2972SOL     OW20374   0.674   1.250   0.069 -0.0668  0.1428 -0.7147
 2972SOL    HW120375   0.717   1.257  17.667  0.3082  0.2120 -0.5199
 2972SOL    HW220376   0.693   1.336   0.107 -0.1159  0.4959 -1.4963
 2973SOL     OW20377   4.593   3.266   8.956  0.2216  0.0622  0.2677
 2973SOL    HW120378   4.524   3.321   8.919  0.0315  0.3580  1.0736
 2973SOL    HW220379   4.546   3.199   9.006  0.8970  0.1703  1.0498
 2974SOL     OW20380   3.981   2.795  12.220 -0.8245 -0.6178  0.2570
 2974SOL    HW120381   4.049   2.782  12.154 -1.6738  1.7822 -1.0799
 2974SOL    HW220382   4.004   2.878  12.262 -0.2766 -0.6276 -0.0158
 2975SOL     OW20383   2.115   1.356  12.394 -0.5321 -0.1467  0.4026
 2975SOL    HW120384   2.119   1.337  12.487  0.6272 -0.0316  0.3746
 2975SOL    HW220385   2.180   1.426  12.388 -1.0046  0.1816 -0.9218
 2976SOL     OW20386   3.847   2.608  17.511  0.0887  1.1931  0.0581
 2976SOL    HW120387   3.811   2.578  17.595  2.0335  1.9550  1.1603
 2976SOL    HW220388   3.790   2.679  17.481 -0.6989  0.1693 -0.8386
 2977SOL     OW20389   4.158   4.182   3.335  0.3794 -0.1015  0.1270
 2977SOL    HW120390   4.146   4.230   3.253 -1.0364  2.1377  1.6455
 2977SOL    HW220391   4.253   4.189   3.329  0.3309  0.8018  0.4464
 2978SOL     OW20392   3.592   4.230   1.562  0.1076 -0.1656 -0.4216
 2978SOL    HW120393   3.521   4.173   1.592 -1.5704  1.8012 -0.6079
 2978SOL    HW220394   3.592   4.196   1.473  0.6574  0.5172 -0.6865
 2979SOL     OW20395   3.245   2.405   8.516  0.8676 -0.7595 -0.4731
 2979SOL    HW120396   3.331   2.369   8.540  1.4859 -1.1966 -3.3886
 2979SOL    HW220397   3.238   2.489   8.561  1.2989 -1.3389  0.6902
 2980SOL     OW20398   1.439   3.804  12.517 -0.2608  0.2738 -0.1355
 2980SOL    HW120399   1.391   3.881  12.545 -1.9037 -1.4546  1.8105
 2980SOL    HW220400   1.479   3.771  12.598  2.3095  1.5260 -0.8805
 2981SOL     OW20401   4.248   1.268   7.635 -0.5135  0.1033 -0.0800
 2981SOL    HW120402   4.293   1.190   7.602  0.5041  0.3416  0.7305
 2981SOL    HW220403   4.275   1.273   7.727 -2.3840 -0.4463  0.5026
 2982SOL     OW20404   3.659   0.743  13.308  0.2490 -0.4027 -0.7085
 2982SOL    HW120405   3.595   0.745  13.379  0.4219 -0.8955 -0.5326
 2982SOL    HW220406   3.658   0.647  13.309 -0.6787 -0.4253 -2.8782
 2983SOL     OW20407   1.484   2.321   7.647 -0.4235 -0.4677  0.1412
 2983SOL    HW120408   1.557   2.369   7.686 -0.0093 -1.5805  0.7337
 2983SOL    HW220409   1.534   2.260   7.594 -0.4247 -0.5798  0.2705
 2984SOL     OW20410   4.268   1.214   5.654  0.1426  0.1754  0.0395
 2984SOL    HW120411   4.225   1.135   5.619 -1.0329 -0.2627  2.4927
 2984SOL    HW220412   4.256   1.269   5.576 -1.8066 -1.2779 -0.6989
 2985SOL     OW20413   2.586   3.185  15.087 -0.4392 -0.5129 -0.2158
 2985SOL    HW120414   2.644   3.172  15.163  1.3967 -0.8782 -1.6736
 2985SOL    HW220415   2.544   3.101  15.069  0.2935 -0.3727 -2.5434
 2986SOL     OW20416   1.112   0.511  10.677  0.3003 -0.2743 -0.1345
 2986SOL    HW120417   1.184   0.454  10.649  0.5683 -0.1609  0.3200
 2986SOL    HW220418   1.152   0.594  10.701 -0.8145 -0.1928  1.4523
 2987SOL     OW20419   0.762   1.169   6.138 -0.3586  0.8345  0.6480
 2987SOL    HW120420   0.761   1.233   6.067  0.5005  0.0742 -0.0546
 2987SOL    HW220421   0.737   1.233   6.205  0.5378  2.6277 -0.7430
 2988SOL     OW20422   3.938   2.688   5.409  0.0255  0.3122  0.0996
 2988SOL    HW120423   3.970   2.611   5.457 -1.4585  0.7220  1.7747
 2988SOL    HW220424   3.885   2.645   5.342  1.4553 -0.5915 -0.4445
 2989SOL     OW20425   1.662   4.241  10.287 -0.2365 -0.5045  0.3941
 2989SOL    HW120426   1.571   4.249  10.258  0.2463  0.1679 -0.9576
 2989SOL    HW220427   1.708   4.288  10.218 -1.5975 -2.6945 -2.0171
 2990SOL     OW20428   3.524   0.681   8.589  0.3317 -0.2653 -0.1669
 2990SOL    HW120429   3.596   0.701   8.529  0.1507 -1.0382 -0.6379
 2990SOL    HW220430   3.455   0.666   8.524 -1.4973 -0.0609  1.7369
 2991SOL     OW20431   1.187   1.131  10.127 -0.0284 -0.5303  0.2182
 2991SOL    HW120432   1.166   1.076  10.203 -0.6851 -1.3594 -0.5612
 2991SOL    HW220433   1.133   1.101  10.053  1.5810  1.3486 -1.6973
 2992SOL     OW20434   4.363   3.693   2.577  0.4384 -0.4768 -0.3237
 2992SOL    HW120435   4.442   3.679   2.630 -0.6208 -1.1749  1.0797
 2992SOL    HW220436   4.292   3.652   2.627  1.9514 -2.0800  0.5060
 2993SOL     OW20437   2.524   3.354   1.772  0.1058 -0.3211 -0.1239
 2993SOL    HW120438   2.492   3.264   1.766 -0.4296 -0.1171 -0.3374
 2993SOL    HW220439   2.596   3.337   1.833 -0.1941  0.7219  0.5240
 2994SOL     OW20440   3.053   2.511  11.840  0.8864  0.3105  0.8900
 2994SOL    HW120441   2.966   2.545  11.863  0.8050  0.2181  0.7170
 2994SOL    HW220442   3.076   2.583  11.782 -1.6375  2.2067  2.2199
 2995SOL     OW20443   0.559   1.753   7.232  0.0790 -0.7333  0.1385
 2995SOL    HW120444   0.512   1.765   7.315  1.4307 -0.3316  0.8430
 2995SOL    HW220445   0.627   1.820   7.236 -1.5595  0.8376  1.9011
 2996SOL     OW20446   0.326   0.995   9.705  0.5736 -0.3502 -0.0506
 2996SOL    HW120447   0.337   0.921   9.765 -0.6572  0.5271  1.2742
 2996SOL    HW220448   0.241   0.981   9.664  0.0245  3.6451 -0.2828
 2997SOL     OW20449   3.172   2.604   6.020  0.0090  0.2305  0.1451
 2997SOL    HW120450   3.255   2.562   6.045  1.8881  1.9688 -3.0730
 2997SOL    HW220451   3.112   2.533   6.043 -0.5022  0.2266 -1.1775
 2998SOL     OW20452   1.193   0.595   2.666  0.1546  0.6124 -0.4071
 2998SOL    HW120453   1.247   0.572   2.590  0.0856  0.1429 -0.3126
 2998SOL    HW220454   1.240   0.561   2.742 -0.0534 -1.5718 -1.2500
 2999SOL     OW20455   0.909   1.619   1.173  0.5291  0.1711  0.3986
 2999SOL    HW120456   0.941   1.626   1.083  4.1003 -1.9017  1.4850
 2999SOL    HW220457   0.993   1.578   1.197  1.2789  0.3773 -1.8624
 3000SOL     OW20458   1.073   3.165   5.330 -0.3059  0.5956  0.1356
 3000SOL    HW120459   1.096   3.115   5.408 -0.2540  0.2151 -0.1213
 3000SOL    HW220460   1.086   3.090   5.272 -0.2476 -0.1792  1.1492
 3001SOL     OW20461   0.966   2.035   1.556  0.1303  0.1605  0.4320
 3001SOL    HW120462   0.994   2.092   1.484 -1.8987 -0.0392 -0.4959
 3001SOL    HW220463   0.969   1.947   1.520 -2.7371  0.7427 -1.2561
 3002SOL     OW20464   2.548   0.493  15.930 -0.8494 -0.3472 -0.0110
 3002SOL    HW120465   2.519   0.471  15.842 -2.6210 -0.6835  0.6478
 3002SOL    HW220466   2.581   0.582  15.920  0.4582 -0.7342  0.8616
 3003SOL     OW20467   1.544   1.466   9.402 -0.6560 -0.0014  0.6669
 3003SOL    HW120468   1.535   1.378   9.439 -0.1590 -0.9745 -1.5300
 3003SOL    HW220469   1.628   1.488   9.441 -1.5971  0.8665  2.2321
 3004SOL     OW20470   4.157   1.212   1.643 -0.4812  0.3477 -0.2695
 3004SOL    HW120471   4.109   1.279   1.692  1.0248  1.4768 -0.3349
 3004SOL    HW220472   4.156   1.252   1.556 -1.5539 -2.2190 -1.4428
 3005SOL     OW20473   4.188   4.067  10.321  0.0305  0.2694 -0.2863
 3005SOL    HW120474   4.116   4.025  10.368  1.0032 -1.1056 -0.0070
 3005SOL    HW220475   4.147   4.124  10.256 -1.5237  0.6164  0.9786
 3006SOL     OW20476   1.763   0.163  17.181 -0.2624 -0.1157  0.8458
 3006SOL    HW120477   1.855   0.181  17.199  0.3122  1.1489 -3.3187
 3006SOL    HW220478   1.725   0.224  17.244  0.4826  1.2590 -0.0474
 3007SOL     OW20479   1.623   2.859   4.220 -0.2473 -0.3116 -0.5285
 3007SOL    HW120480   1.612   2.915   4.296 -1.9121  0.1634 -1.1345
 3007SOL    HW220481   1.545   2.884   4.171 -0.5758 -0.0748  0.1290
 3008SOL     OW20482   4.349   1.793   7.590  0.6096 -0.3339  0.3602
 3008SOL    HW120483   4.347   1.829   7.679 -0.2348  1.1237 -0.2443
 3008SOL    HW220484   4.443   1.774   7.586  0.9474  1.2328  0.7958
 3009SOL     OW20485   4.384   1.104   5.030 -0.4196  0.1413  0.0820
 3009SOL    HW120486   4.390   1.099   4.934 -1.6659  0.6026 -0.0111
 3009SOL    HW220487   4.338   1.027   5.063  0.2585 -0.2779  0.0631
 3010SOL     OW20488   0.779   1.502   5.733  0.4708  0.6332  0.1008
 3010SOL    HW120489   0.718   1.563   5.691 -0.9426 -1.8817 -1.5216
 3010SOL    HW220490   0.849   1.565   5.746  0.2296  0.9014  0.0980
 3011SOL     OW20491   4.232   1.536   0.314 -0.4797  0.1189 -0.4780
 3011SOL    HW120492   4.145   1.508   0.344 -0.9144  2.0202  0.0154
 3011SOL    HW220493   4.288   1.458   0.315  0.5620  0.8824  0.1068
 3012SOL     OW20494   4.556   4.054  16.712  0.1574 -0.0451  0.2562
 3012SOL    HW120495   4.466   4.048  16.681  0.6558  1.0126 -1.4170
 3012SOL    HW220496   4.593   4.098  16.636  0.3269 -0.1261  0.2912
 3013SOL     OW20497   4.278   3.304   8.015 -0.0706 -0.2205 -0.3567
 3013SOL    HW120498   4.318   3.282   7.931  2.4025  2.1454  0.1726
 3013SOL    HW220499   4.301   3.397   8.018  0.3318 -0.2398 -2.6224
 3014SOL     OW20500   1.412   3.076  16.737 -0.1986  0.3954 -0.1042
 3014SOL    HW120501   1.330   3.090  16.691 -0.5649 -1.2517  0.0472
 3014SOL    HW220502   1.403   3.143  16.806 -0.0135  0.0930  0.2173
 3015SOL     OW20503   1.120   1.000  16.907 -0.1833 -0.3502 -0.4641
 3015SOL    HW120504   1.078   0.926  16.951  1.3213 -0.6559  0.4569
 3015SOL    HW220505   1.207   0.962  16.916 -0.2873 -0.1885  1.3768
 3016SOL     OW20506   4.543   2.482  12.179 -0.5356 -0.3432  0.1519
 3016SOL    HW120507   4.604   2.502  12.250  0.5450 -0.2596 -0.7944
 3016SOL    HW220508   4.487   2.559  12.170  1.4293  1.0516 -0.0909
 3017SOL     OW20509   4.404   1.259   3.538 -0.1219  0.0770 -0.1047
 3017SOL    HW120510   4.467   1.328   3.559  1.0881 -1.0514 -0.0265
 3017SOL    HW220511   4.405   1.211   3.620  0.6979 -1.2786 -0.9134
 3018SOL     OW20512   3.491   0.059   8.489  0.1556 -0.0452 -0.5345
 3018SOL    HW120513   3.518   4.697   8.448 -1.3072 -1.1505  0.7135
 3018SOL    HW220514   3.508   0.043   8.581 -1.6165  0.4634 -0.1216
 3019SOL     OW20515   3.859   1.125   8.629  0.2055  0.3471  0.4856
 3019SOL    HW120516   3.889   1.202   8.581 -2.0057  1.4362  0.8637
 3019SOL    HW220517   3.936   1.075   8.653 -2.4601 -3.1242  1.7986
 3020SOL     OW20518   1.982   1.749   3.540  0.2801  0.0252 -0.4324
 3020SOL    HW120519   2.001   1.681   3.605 -1.3111 -0.9946 -1.0151
 3020SOL    HW220520   1.886   1.746   3.546  0.3697 -2.2151 -0.1130
 3021SOL     OW20521   2.992   2.372   8.163 -0.4674 -0.9427  0.0389
 3021SOL    HW120522   2.959   2.422   8.088  1.1124 -0.6815 -0.4807
 3021SOL    HW220523   3.069   2.336   8.117 -0.1078 -1.3348  0.9547
 3022SOL     OW20524   2.546   1.854  12.783 -0.2051 -0.2089  0.5585
 3022SOL    HW120525   2.492   1.898  12.717 -0.7303  0.2220  1.2805
 3022SOL    HW220526   2.488   1.794  12.828  0.0797  0.7251  2.1775
 3023SOL     OW20527   2.122   0.716   3.326  0.7084  0.1166  0.2335
 3023SOL    HW120528   2.070   0.639   3.304 -1.7076  1.6907  0.4184
 3023SOL    HW220529   2.190   0.713   3.259  0.6043 -0.9959  0.1875
 3024SOL     OW20530   2.013   4.452   7.077 -0.1771  0.0332  0.3289
 3024SOL    HW120531   2.052   4.384   7.022  0.0413  1.1841 -0.9464
 3024SOL    HW220532   1.929   4.407   7.089 -0.4880  0.9352  1.5192
 3025SOL     OW20533   1.866   3.937   4.702  0.0939 -0.1561 -0.1161
 3025SOL    HW120534   1.845   4.018   4.748  1.0428 -0.2747  0.5229
 3025SOL    HW220535   1.922   3.955   4.627  1.9058 -2.4822  0.6561
 3026SOL     OW20536   3.733   4.167   9.277  0.0535  0.2644 -0.6546
 3026SOL    HW120537   3.737   4.118   9.359  0.8726  1.0783 -0.2104
 3026SOL    HW220538   3.822   4.169   9.242  0.3509  1.5095  0.1736
 3027SOL     OW20539   2.761   2.266  15.175 -0.1451  0.0440  0.1613
 3027SOL    HW120540   2.718   2.180  15.181 -2.7482  1.2792 -0.6042
 3027SOL    HW220541   2.714   2.317  15.241  0.9573 -1.8424  2.4073
 3028SOL     OW20542   1.104   3.431   2.644  0.0537 -0.6268 -0.2774
 3028SOL    HW120543   1.090   3.511   2.595 -1.5224  0.3949  1.8467
 3028SOL    HW220544   1.027   3.421   2.699 -1.5184  0.0795 -2.3801
 3029SOL     OW20545   1.716   3.810  12.117  0.2710  0.6268 -0.0646
 3029SOL    HW120546   1.775   3.883  12.133 -3.0950  3.3500 -0.0729
 3029SOL    HW220547   1.646   3.860  12.074 -0.0462 -0.0714 -0.3636
 3030SOL     OW20548   4.293   2.423   7.694  0.1413 -0.5838 -0.0560
 3030SOL    HW120549   4.291   2.387   7.605  1.6218  0.3550 -0.4669
 3030SOL    HW220550   4.258   2.509   7.675  0.9487  0.0458  1.2924
 3031SOL     OW20551   1.068   2.913   5.216  0.1303 -0.1964  0.1736
 3031SOL    HW120552   1.143   2.865   5.180 -1.0390 -2.0278  0.1319
 3031SOL    HW220553   1.001   2.846   5.200 -0.2003  0.0836  0.4147
 3032SOL     OW20554   4.377   3.211  14.770 -0.3290  0.2385  0.2751
 3032SOL    HW120555   4.395   3.284  14.830  2.4513  0.6290 -1.0129
 3032SOL    HW220556   4.309   3.246  14.713 -0.1198  0.7626  0.3399
 3033SOL     OW20557   0.780   0.578   2.491 -0.0462 -0.7423  0.0547
 3033SOL    HW120558   0.845   0.617   2.432 -1.9789  1.9702 -0.2955
 3033SOL    HW220559   0.784   0.485   2.469 -0.0409 -0.6262 -0.4349
 3034SOL     OW20560   3.049   3.317   5.923  0.6392  0.3614  0.5063
 3034SOL    HW120561   3.049   3.410   5.900  2.6784  0.3926  0.5987
 3034SOL    HW220562   3.055   3.285   5.833 -0.2647  1.4668  0.0514
 3035SOL     OW20563   0.945   1.184   8.069  0.4387  0.6664  0.1228
 3035SOL    HW120564   1.028   1.159   8.110 -1.4096 -1.9449  2.3104
 3035SOL    HW220565   0.972   1.205   7.979  0.1787 -0.2865 -0.1794
 3036SOL     OW20566   4.091   3.018   0.026 -0.9386 -0.3405 -0.2723
 3036SOL    HW120567   4.003   2.992   0.000 -0.1223 -0.9553 -2.5075
 3036SOL    HW220568   4.064   3.107   0.047 -0.1074 -0.2551  0.4198
 3037SOL     OW20569   4.591   0.383   4.390  0.0904 -0.1661  0.0587
 3037SOL    HW120570   4.592   0.319   4.319 -0.5350  0.9297 -0.9400
 3037SOL    HW220571   4.556   0.458   4.342 -0.0372 -1.5281 -1.9709
 3038SOL     OW20572   0.211   4.120   5.870  0.6190 -0.1636 -0.4412
 3038SOL    HW120573   0.294   4.161   5.845 -0.7062  2.3576 -0.7817
 3038SOL    HW220574   0.166   4.130   5.786  1.0267  1.5329 -0.4756
 3039SOL     OW20575   3.153   2.762  11.567  0.5400  0.1049 -0.2330
 3039SOL    HW120576   3.196   2.832  11.616 -1.0264  1.5293 -0.9378
 3039SOL    HW220577   3.071   2.811  11.563  0.7748  0.6736  1.8373
 3040SOL     OW20578   3.207   2.077   4.830  0.1832  0.3394 -0.2181
 3040SOL    HW120579   3.141   2.009   4.818  0.7020  0.1627 -1.9688
 3040SOL    HW220580   3.170   2.150   4.781  1.7432  0.1596 -1.6363
 3041SOL     OW20581   4.409   1.130   3.778 -0.0697  0.1927 -0.0822
 3041SOL    HW120582   4.374   1.142   3.867 -1.5510 -0.8364 -0.5163
 3041SOL    HW220583   4.368   1.044   3.766 -0.1388  0.4623 -1.7225
 3042SOL     OW20584   4.113   4.698  11.442 -0.6206 -0.0527  0.2330
 3042SOL    HW120585   4.024   4.666  11.456 -0.4867  0.4743  2.2277
 3042SOL    HW220586   4.101   0.051  11.503  0.2708  2.5446 -2.7294
 3043SOL     OW20587   2.927   4.257   5.007 -0.0159 -0.2125 -0.1871
 3043SOL    HW120588   2.889   4.202   4.940 -1.3851 -0.2024  0.5797
 3043SOL    HW220589   2.888   4.338   4.974  1.5742  0.5650 -0.1836
 3044SOL     OW20590   3.001   3.004   5.080  0.1762 -0.0395  0.3388
 3044SOL    HW120591   2.927   2.962   5.036  0.8997 -2.0870  1.0701
 3044SOL    HW220592   3.069   2.937   5.084 -0.1461 -0.2887  1.7647
 3045SOL     OW20593   3.148   4.112  16.208 -0.3931 -0.0503  0.2696
 3045SOL    HW120594   3.070   4.106  16.153  0.5002  0.3336 -1.0736
 3045SOL    HW220595   3.175   4.020  16.208  1.7262  0.5424 -0.5709
 3046SOL     OW20596   2.677   0.201   1.248  0.4181 -0.2571  0.4867
 3046SOL    HW120597   2.719   0.161   1.172 -0.6606 -2.5753  1.0864
 3046SOL    HW220598   2.600   0.147   1.269 -2.1884  3.7408  1.0889
 3047SOL     OW20599   3.113   0.057   8.490  0.0348 -0.1518  0.1054
 3047SOL    HW120600   3.170   0.092   8.422 -0.8483 -0.7873 -0.9635
 3047SOL    HW220601   3.041   0.037   8.430 -0.4193 -0.3257  0.7050
 3048SOL     OW20602   2.731   3.485  13.817  0.1856 -0.4389 -0.0071
 3048SOL    HW120603   2.737   3.447  13.905  2.0105 -0.4961 -0.1569
 3048SOL    HW220604   2.801   3.550  13.814  0.5442 -0.7822  0.8295
 3049SOL     OW20605   0.448   2.551   9.507  0.3346 -0.1051 -0.0694
 3049SOL    HW120606   0.460   2.515   9.419 -1.2852 -0.5334 -0.1136
 3049SOL    HW220607   0.414   2.640   9.497  1.1685  0.1368 -0.7596
 3050SOL     OW20608   2.667   3.771   5.971  0.2474 -0.8788  0.0897
 3050SOL    HW120609   2.704   3.694   5.928 -1.1965 -0.9625 -1.0312
 3050SOL    HW220610   2.610   3.799   5.899  0.4305 -0.2709  0.1865
 3051SOL     OW20611   2.710   3.370  15.443 -0.3699 -0.2589 -0.0523
 3051SOL    HW120612   2.731   3.304  15.377 -0.8390 -1.2382  0.7848
 3051SOL    HW220613   2.627   3.406  15.411  1.0097  0.5561 -2.7325
 3052SOL     OW20614   3.495   1.196   6.682 -0.2776  0.5386 -0.0787
 3052SOL    HW120615   3.417   1.160   6.641 -0.5488 -1.8412  2.5109
 3052SOL    HW220616   3.453   1.258   6.741 -1.8534  0.6647 -1.3415
 3053SOL     OW20617   4.053   0.780   7.613  0.0652  0.9365 -0.3294
 3053SOL    HW120618   4.041   0.758   7.706  0.4770  0.3028 -0.4237
 3053SOL    HW220619   4.024   0.871   7.615 -0.1392  0.8360  1.8652
 3054SOL     OW20620   0.294   0.290   2.491  0.4603  0.1651  0.5428
 3054SOL    HW120621   0.311   0.213   2.437 -3.0449 -0.4840  0.3219
 3054SOL    HW220622   0.276   0.253   2.577 -1.8844  3.7922  1.6586
 3055SOL     OW20623   3.646   2.076   7.548 -0.2414 -0.3465  0.6687
 3055SOL    HW120624   3.732   2.113   7.568 -1.0802  1.4591  0.9658
 3055SOL    HW220625   3.598   2.112   7.623  1.4255  0.9216  1.1251
 3056SOL     OW20626   2.765   3.888   6.827  0.0375 -0.2026 -0.0265
 3056SOL    HW120627   2.805   3.882   6.914 -1.2907 -3.2055  0.3696
 3056SOL    HW220628   2.828   3.931   6.769 -1.6511  2.4610  0.0915
 3057SOL     OW20629   2.111   1.951  10.719  0.6457 -0.1462  0.5007
 3057SOL    HW120630   2.171   2.000  10.775 -0.0730 -1.0977  2.1265
 3057SOL    HW220631   2.121   1.866  10.762 -2.2610 -3.4231 -5.3023
 3058SOL     OW20632   0.931   0.351   9.234  0.2237  0.3155 -0.4192
 3058SOL    HW120633   0.939   0.446   9.230  1.1517  0.1825 -2.0772
 3058SOL    HW220634   0.888   0.336   9.149  1.0023 -2.5956 -0.2914
 3059SOL     OW20635   3.540   3.670   3.684 -0.4335 -0.0128  0.0950
 3059SOL    HW120636   3.615   3.634   3.637  0.0085  1.0510 -0.0039
 3059SOL    HW220637   3.580   3.743   3.731 -0.2337  0.2142 -0.4338
 3060SOL     OW20638   1.519   2.616   5.090 -0.1539 -0.6343 -0.1870
 3060SOL    HW120639   1.561   2.646   5.009 -2.6362 -0.5587 -1.4827
 3060SOL    HW220640   1.529   2.691   5.149 -0.0805 -0.8070  0.0161
 3061SOL     OW20641   3.933   2.999   8.620 -0.4516 -0.0043 -1.4112
 3061SOL    HW120642   4.006   2.969   8.567 -0.6587  0.5055 -1.9880
 3061SOL    HW220643   3.980   3.016   8.702 -2.0666  0.1190 -0.5045
 3062SOL     OW20644   0.525   1.838   3.780  0.0454  0.0549 -0.0563
 3062SOL    HW120645   0.495   1.900   3.713  0.4429  1.8197  1.4025
 3062SOL    HW220646   0.499   1.885   3.859 -0.5398 -1.3696  0.5923
 3063SOL     OW20647   1.595   1.823   3.894 -0.6315 -0.4795 -0.1380
 3063SOL    HW120648   1.673   1.841   3.947 -2.8132  1.1211  2.5278
 3063SOL    HW220649   1.639   1.810   3.810 -1.0639 -0.6391 -0.3428
 3064SOL     OW20650   3.655   0.470   7.604  0.1184 -0.0209 -0.5039
 3064SOL    HW120651   3.729   0.440   7.550  2.1811  0.9848  1.7944
 3064SOL    HW220652   3.598   0.479   7.527 -0.4069  2.0494  0.1308
 3065SOL     OW20653   3.198   1.659  11.875  0.0472  0.3460 -0.4982
 3065SOL    HW120654   3.163   1.571  11.889  0.5417  0.5782  2.2549
 3065SOL    HW220655   3.220   1.690  11.963  1.1489  1.5693 -1.2143
 3066SOL     OW20656   2.154   0.391   4.698 -0.7322 -0.1529  0.0604
 3066SOL    HW120657   2.099   0.441   4.759  1.9353  4.2016 -1.1441
 3066SOL    HW220658   2.240   0.413   4.732 -0.1800 -0.6053 -1.0640
 3067SOL     OW20659   3.915   3.268   8.769  0.1786 -0.2136  0.2809
 3067SOL    HW120660   3.941   3.224   8.688  1.0627  0.6058  0.1179
 3067SOL    HW220661   3.941   3.199   8.830  0.3201 -1.9747 -1.7672
 3068SOL     OW20662   0.896   0.962  11.752  0.0668  0.0091 -0.2855
 3068SOL    HW120663   0.846   1.010  11.686 -1.6943 -1.4082  0.0406
 3068SOL    HW220664   0.909   0.875  11.715  0.8874  0.2112 -0.4731
 3069SOL     OW20665   0.565   1.126   5.317  0.2820  0.4870  0.1409
 3069SOL    HW120666   0.506   1.151   5.245  1.1746 -0.1137 -0.7969
 3069SOL    HW220667   0.646   1.169   5.290 -0.4702  1.9367  0.1922
 3070SOL     OW20668   1.127   1.402  11.983 -0.0912  0.5385 -0.7510
 3070SOL    HW120669   1.163   1.381  11.897  0.7562 -0.5930 -0.1251
 3070SOL    HW220670   1.086   1.488  11.974  0.5139  0.7862 -1.1327
 3071SOL     OW20671   2.443   2.406   3.581  0.3051 -0.4061 -0.4607
 3071SOL    HW120672   2.457   2.485   3.529  1.1183 -1.7747 -2.3043
 3071SOL    HW220673   2.388   2.443   3.650 -0.1928 -1.9324 -0.0543
 3072SOL     OW20674   2.747   2.770   4.630  0.2387 -0.1811  0.1345
 3072SOL    HW120675   2.653   2.753   4.626  0.4365 -1.0968 -0.6252
 3072SOL    HW220676   2.787   2.713   4.565 -0.4770  1.9948 -2.1952
 3073SOL     OW20677   3.580   3.345  11.020  0.3673  0.3372 -0.2794
 3073SOL    HW120678   3.574   3.439  11.006 -0.5756  0.0432 -1.7342
 3073SOL    HW220679   3.671   3.326  10.998  0.3504  0.7615 -0.6992
 3074SOL     OW20680   4.096   3.830  13.383 -0.4677 -0.0272  0.1957
 3074SOL    HW120681   4.035   3.844  13.455  0.2096 -2.2993  1.2284
 3074SOL    HW220682   4.039   3.792  13.316  1.3402 -0.6958 -0.9787
 3075SOL     OW20683   2.825   2.966  12.083 -0.5863 -0.1432 -0.2101
 3075SOL    HW120684   2.843   3.047  12.131  0.9434 -1.1631  0.9285
 3075SOL    HW220685   2.895   2.909  12.115 -0.9519 -0.4374  0.0737
 3076SOL     OW20686   2.230   3.416  15.393  0.0397  0.3040 -0.2982
 3076SOL    HW120687   2.190   3.356  15.457  0.7328 -0.8651 -0.9560
 3076SOL    HW220688   2.167   3.385  15.328  1.3965 -0.5535 -1.1891
 3077SOL     OW20689   3.417   3.617   6.220  0.1895 -0.4319 -0.2528
 3077SOL    HW120690   3.443   3.696   6.172 -0.3161 -0.6940 -0.9595
 3077SOL    HW220691   3.405   3.550   6.152  0.6967 -0.7475 -0.0350
 3078SOL     OW20692   0.332   2.441  17.219 -0.2988 -0.0196  0.1265
 3078SOL    HW120693   0.415   2.458  17.262 -0.6810 -1.1104  1.2817
 3078SOL    HW220694   0.336   2.499  17.142 -5.1439  0.1510 -0.0507
 3079SOL     OW20695   3.951   1.864   5.067  0.9661  0.1745  0.1824
 3079SOL    HW120696   3.954   1.926   4.994  2.8205  0.7133  0.7144
 3079SOL    HW220697   4.039   1.874   5.103  1.2027 -0.7912 -0.1056
 3080SOL     OW20698   1.760   4.429   0.478  0.2284  0.4245  0.1248
 3080SOL    HW120699   1.784   4.358   0.536  0.5439  0.0930 -0.4136
 3080SOL    HW220700   1.669   4.417   0.451  0.5832 -1.2551 -0.3167
 3081SOL     OW20701   1.568   3.360  14.926  0.0719 -0.0263 -0.1925
 3081SOL    HW120702   1.558   3.440  14.979  2.7370 -0.0793  0.3666
 3081SOL    HW220703   1.631   3.388  14.859 -0.1797 -1.2794 -0.9407
 3082SOL     OW20704   1.450   2.177   7.923 -0.0402 -0.3089 -0.1915
 3082SOL    HW120705   1.392   2.121   7.976  0.1892  0.6718  1.0757
 3082SOL    HW220706   1.501   2.226   7.987 -0.5268  2.2806 -1.7710
 3083SOL     OW20707   2.323   0.767  11.620 -0.0020 -0.0510 -0.2427
 3083SOL    HW120708   2.316   0.860  11.639  1.3013  0.0489 -0.2990
 3083SOL    HW220709   2.279   0.726  11.695  1.3135 -2.2181 -0.6592
 3084SOL     OW20710   1.321   2.395   9.938 -0.0586 -0.2973 -0.9913
 3084SOL    HW120711   1.336   2.307   9.904  0.9572 -0.8409  0.8453
 3084SOL    HW220712   1.396   2.434   9.893 -1.0091  0.9410 -1.5225
 3085SOL     OW20713   3.894   4.055   7.437  0.5166  0.1045  0.0265
 3085SOL    HW120714   3.853   4.112   7.372  0.1856 -1.2382 -0.9380
 3085SOL    HW220715   3.983   4.091   7.428 -0.7299  2.9291 -1.1379
 3086SOL     OW20716   0.748   2.578  16.564 -0.1362 -0.2980  0.1801
 3086SOL    HW120717   0.727   2.671  16.572  0.4068  0.0210 -2.1176
 3086SOL    HW220718   0.710   2.556  16.479  0.4326 -1.2919  0.1803
 3087SOL     OW20719   0.844   2.606   3.145 -0.4326  0.1447  0.3690
 3087SOL    HW120720   0.940   2.609   3.144 -0.4496  1.2968  1.1993
 3087SOL    HW220721   0.821   2.628   3.055  1.7577 -1.5069 -0.5812
 3088SOL     OW20722   2.560   0.124   2.439 -0.4834 -0.0993 -0.5222
 3088SOL    HW120723   2.549   0.048   2.496 -0.7534  0.1155 -0.2881
 3088SOL    HW220724   2.485   0.175   2.471 -1.0230 -0.8187 -0.6375
 3089SOL     OW20725   0.790   1.537   0.124 -0.5566 -0.4379 -0.2841
 3089SOL    HW120726   0.700   1.565   0.139 -0.0800  1.7724 -1.5292
 3089SOL    HW220727   0.836   1.608   0.079 -1.8091  0.1447 -0.6564
 3090SOL     OW20728   2.450   1.947   8.012  0.0038  0.0163  0.0649
 3090SOL    HW120729   2.406   1.875   7.968 -0.3906  0.7212 -0.7056
 3090SOL    HW220730   2.488   1.908   8.091  0.4149 -0.2370 -0.2575
 3091SOL     OW20731   2.169   3.978   7.089 -0.0075  0.3616  0.3912
 3091SOL    HW120732   2.239   3.935   7.137  1.2346  0.4036 -1.3792
 3091SOL    HW220733   2.180   4.069   7.116  1.9897 -0.1944  1.4235
 3092SOL     OW20734   3.850   1.660   1.150 -0.0910  0.0922  0.2493
 3092SOL    HW120735   3.876   1.747   1.122 -0.3673  0.8394  2.2996
 3092SOL    HW220736   3.919   1.648   1.215 -1.8785 -2.5973  1.6869
 3093SOL     OW20737   2.968   2.086   4.010 -0.3200  0.6472  0.1097
 3093SOL    HW120738   3.048   2.036   3.994 -2.7262 -2.6701 -1.4029
 3093SOL    HW220739   2.920   2.022   4.062  1.7078  0.4128  1.6805
 3094SOL     OW20740   0.952   3.401   3.582  0.1627  1.0782  0.0105
 3094SOL    HW120741   0.915   3.391   3.670  1.5619  1.2722  0.6132
 3094SOL    HW220742   0.885   3.449   3.533 -0.5536  2.0611  1.9609
 3095SOL     OW20743   1.539   3.282   4.792  0.0611  0.1078 -0.2620
 3095SOL    HW120744   1.451   3.250   4.772  0.0577 -0.1100  0.1086
 3095SOL    HW220745   1.512   3.354   4.849  0.0922 -1.0808  1.2541
 3096SOL     OW20746   0.517   1.745   1.829  0.3829  0.7028 -0.2840
 3096SOL    HW120747   0.518   1.766   1.736 -1.9704  1.2125 -0.1800
 3096SOL    HW220748   0.604   1.768   1.861  0.3668 -0.8725  0.8920
 3097SOL     OW20749   0.860   1.192   9.852  0.3688  0.5622 -0.2526
 3097SOL    HW120750   0.804   1.128   9.807  0.1578  0.5129  0.0805
 3097SOL    HW220751   0.915   1.137   9.909  1.3053 -0.3127 -2.0049
 3098SOL     OW20752   3.301   0.158   3.133 -0.1290  0.4813 -0.1960
 3098SOL    HW120753   3.286   0.141   3.039 -0.9991  1.0565 -0.1678
 3098SOL    HW220754   3.330   0.070   3.156 -1.4738  0.0503 -0.1370
 3099SOL     OW20755   1.751   3.456   5.010  0.1852 -0.0863  0.0605
 3099SOL    HW120756   1.733   3.458   5.104 -2.4358 -1.7440 -0.3923
 3099SOL    HW220757   1.704   3.532   4.975  1.3273  1.0241  0.9469
 3100SOL     OW20758   1.950   4.656  12.241 -0.0697  0.3885 -0.1748
 3100SOL    HW120759   2.029   4.649  12.295 -1.7002  2.4435  2.5213
 3100SOL    HW220760   1.985   4.611  12.164 -2.3399  1.9010 -2.0626
 3101SOL     OW20761   1.737   4.412   2.675 -0.5914 -0.3910 -0.0126
 3101SOL    HW120762   1.654   4.458   2.671 -1.2703 -1.5102  1.0538
 3101SOL    HW220763   1.749   4.385   2.584  0.0415  0.0028 -0.0503
 3102SOL     OW20764   4.703   1.846   8.259  0.1621 -0.4702 -0.0340
 3102SOL    HW120765   0.053   1.818   8.318 -0.1729  1.1597  1.1431
 3102SOL    HW220766   4.642   1.776   8.282 -0.0016 -0.3606 -0.1324
 3103SOL     OW20767   2.631   4.505  12.459 -0.0745 -0.7185 -0.8545
 3103SOL    HW120768   2.576   4.506  12.381  1.0986  1.3161 -1.6668
 3103SOL    HW220769   2.710   4.461  12.427  0.9047 -0.7913  1.6280
 3104SOL     OW20770   0.284   4.238   2.227  0.1906 -0.3424  0.7714
 3104SOL    HW120771   0.366   4.215   2.183  0.7543  4.0799 -0.5705
 3104SOL    HW220772   0.294   4.333   2.240 -1.7391  0.0623 -0.6851
 3105SOL     OW20773   1.607   2.995  11.470  0.5364 -0.4966  0.5786
 3105SOL    HW120774   1.623   2.990  11.376 -2.1266 -0.5625  0.1164
 3105SOL    HW220775   1.515   2.967  11.468  0.5679 -0.5757  0.3359
 3106SOL     OW20776   2.043   3.072   2.345  0.3312  0.8184  0.5282
 3106SOL    HW120777   2.074   3.109   2.263  0.8643 -0.0747  0.3378
 3106SOL    HW220778   2.021   3.149   2.399  0.2521  2.2352 -1.5155
 3107SOL     OW20779   1.858   3.875   5.938 -0.4478 -0.1261  0.0551
 3107SOL    HW120780   1.796   3.901   5.869 -2.2117 -0.9806  1.3257
 3107SOL    HW220781   1.807   3.880   6.019  0.3307  0.7789  0.4934
 3108SOL     OW20782   1.752   0.786  11.725 -0.1757 -0.7162 -0.2828
 3108SOL    HW120783   1.838   0.803  11.763  0.1954 -0.5465 -1.2137
 3108SOL    HW220784   1.750   0.850  11.654  1.3755 -0.3705 -0.0174
 3109SOL     OW20785   4.374   0.941   7.995 -0.3333  0.2196  0.0835
 3109SOL    HW120786   4.321   0.878   8.045 -0.0998  0.3575  0.5006
 3109SOL    HW220787   4.371   1.007   8.064 -0.0910  0.0831  0.2250
 3110SOL     OW20788   2.533   0.588  10.648 -0.0734  0.6504  0.0238
 3110SOL    HW120789   2.494   0.664  10.691 -0.5055  1.7060 -2.2693
 3110SOL    HW220790   2.583   0.644  10.589  0.8880 -1.9478 -1.6353
 3111SOL     OW20791   1.826   1.416   1.815 -0.0564 -0.2516  0.1344
 3111SOL    HW120792   1.875   1.450   1.890 -0.6888 -1.7769  1.2270
 3111SOL    HW220793   1.736   1.436   1.839 -0.3004 -1.8734  0.5471
 3112SOL     OW20794   0.836   4.110   2.635 -0.4565  0.6199  0.0293
 3112SOL    HW120795   0.931   4.097   2.625 -0.9530 -2.1766 -1.1753
 3112SOL    HW220796   0.816   4.045   2.703 -2.5858  0.2281 -0.9675
 3113SOL     OW20797   2.142   0.912   7.716 -0.5848 -0.5108 -0.3491
 3113SOL    HW120798   2.153   0.821   7.688 -0.6536  0.3167 -3.0083
 3113SOL    HW220799   2.065   0.919   7.773 -0.0517 -0.8309  0.4153
 3114SOL     OW20800   4.089   0.046   5.660 -0.1928 -0.0226 -0.2717
 3114SOL    HW120801   4.157   4.705   5.689  0.8449  1.5046  0.5589
 3114SOL    HW220802   4.093   0.127   5.710  1.0240 -0.5334  0.4681
 3115SOL     OW20803   0.358   2.019   9.021  0.2373  0.5643 -0.3584
 3115SOL    HW120804   0.327   1.947   8.966 -0.2684  0.0856  0.5374
 3115SOL    HW220805   0.411   1.970   9.083  0.2103 -0.1489 -0.9007
 3116SOL     OW20806   1.669   2.441  13.926 -0.3512  0.6375  0.6084
 3116SOL    HW120807   1.690   2.468  13.837 -1.8168 -0.0786  0.0392
 3116SOL    HW220808   1.643   2.523  13.970  1.1181  1.0302  0.7431
 3117SOL     OW20809   4.436   3.713   1.675  0.8155  0.2361  0.2470
 3117SOL    HW120810   4.404   3.732   1.587  2.0582  1.5748  0.0855
 3117SOL    HW220811   4.395   3.630   1.699 -0.0594  1.0454  1.5965
 3118SOL     OW20812   2.594   0.824  15.286 -0.7862 -0.1528 -0.2822
 3118SOL    HW120813   2.567   0.916  15.284 -2.7156 -0.7056  0.1433
 3118SOL    HW220814   2.515   0.790  15.329 -0.2062 -0.5530  0.4660
 3119SOL     OW20815   3.749   4.045   8.163 -0.2251 -0.0285 -0.2435
 3119SOL    HW120816   3.688   3.978   8.133 -0.6329 -0.6649  2.0426
 3119SOL    HW220817   3.741   4.026   8.257 -0.5424 -0.1720 -0.3005
 3120SOL     OW20818   0.172   0.110   9.668 -0.1629  0.3543  0.0289
 3120SOL    HW120819   0.230   0.111   9.592 -0.3366 -0.7939 -0.1202
 3120SOL    HW220820   0.144   0.019   9.658  0.8073  0.2494 -1.6852
 3121SOL     OW20821   0.634   0.039   1.697 -0.4291 -0.0666 -0.0386
 3121SOL    HW120822   0.598   0.121   1.662  0.8998  0.2928 -0.5429
 3121SOL    HW220823   0.654   4.713   1.616  2.2760 -0.6271  0.9590
 3122SOL     OW20824   1.456   2.722   0.789  0.0386  0.2478  0.0009
 3122SOL    HW120825   1.386   2.657   0.778 -0.8116  1.4212 -1.5041
 3122SOL    HW220826   1.468   2.723   0.884  3.8776 -1.5436 -0.4771
 3123SOL     OW20827   2.986   3.096   2.878  0.2257 -0.6943  0.3789
 3123SOL    HW120828   3.058   3.052   2.833  0.3511 -0.8402  0.7211
 3123SOL    HW220829   2.927   3.022   2.895 -0.6543 -0.2650 -0.7836
 3124SOL     OW20830   1.651   0.095  13.179  0.1091 -0.0059  0.2568
 3124SOL    HW120831   1.556   0.089  13.178  0.0995  0.2340 -0.0754
 3124SOL    HW220832   1.668   0.006  13.149 -2.8848 -0.8611  1.1060
 3125SOL     OW20833   3.068   1.208   2.825  0.0287  0.7130 -0.0657
 3125SOL    HW120834   3.067   1.128   2.773 -0.3396  1.3082 -0.9701
 3125SOL    HW220835   3.028   1.260   2.755  3.3721  0.5903 -2.0555
 3126SOL     OW20836   2.229   4.264   4.796 -0.2522 -0.4668  0.1951
 3126SOL    HW120837   2.261   4.202   4.861  0.3354  1.2966  1.5831
 3126SOL    HW220838   2.140   4.272   4.830 -0.5708 -0.3109 -0.6666
 3127SOL     OW20839   1.024   3.626   6.482 -0.5384  0.2186 -0.2445
 3127SOL    HW120840   1.012   3.623   6.387  2.6726 -2.8171 -0.5329
 3127SOL    HW220841   1.008   3.719   6.499 -1.2537  0.1864 -0.7203
 3128SOL     OW20842   1.485   3.041   6.682 -0.0590  0.3965  0.2800
 3128SOL    HW120843   1.549   2.976   6.709  0.1175  0.5628  0.2637
 3128SOL    HW220844   1.412   3.019   6.740  1.7416 -0.0243  2.3435
 3129SOL     OW20845   1.028   0.349  11.654  0.0724  0.6412  0.3747
 3129SOL    HW120846   1.031   0.257  11.682  0.9338  0.2129 -1.1356
 3129SOL    HW220847   1.071   0.391  11.728 -0.2647  1.2580  0.2196
 3130SOL     OW20848   3.248   4.019  16.537  0.7071 -0.0041 -0.1516
 3130SOL    HW120849   3.204   4.080  16.478 -0.2518 -1.0872 -0.5442
 3130SOL    HW220850   3.242   3.946  16.475 -2.0282 -0.1356  0.2913
 3131SOL     OW20851   3.805   3.448  13.121 -0.4410 -0.0904  0.1945
 3131SOL    HW120852   3.712   3.445  13.143 -0.4516 -0.3909  0.1124
 3131SOL    HW220853   3.822   3.354  13.126 -0.0266  0.0694  1.7045
 3132SOL     OW20854   3.898   2.348   8.569  0.4614  0.5555  0.0030
 3132SOL    HW120855   3.862   2.287   8.505 -0.4173  0.7026  0.3596
 3132SOL    HW220856   3.818   2.393   8.594 -0.6711 -0.9932 -0.8930
 3133SOL     OW20857   3.309   0.153   5.634 -0.0323  0.5894 -0.0121
 3133SOL    HW120858   3.301   0.128   5.726 -1.2568 -0.8340 -0.4903
 3133SOL    HW220859   3.381   0.215   5.625  2.2000 -1.9534  0.6052
 3134SOL     OW20860   4.712   2.993   8.887  0.0673  0.2519  0.2446
 3134SOL    HW120861   4.665   3.076   8.878 -2.5278 -1.3667 -1.1547
 3134SOL    HW220862   0.045   3.020   8.961 -0.8095  1.4305  0.4479
 3135SOL     OW20863   2.641   1.966   3.408 -0.8776 -0.1982  0.2109
 3135SOL    HW120864   2.721   2.016   3.388  0.7367 -2.8085  0.2121
 3135SOL    HW220865   2.674   1.879   3.430  0.8170  0.5656  0.6768
 3136SOL     OW20866   0.764   1.297  16.260  0.6642  0.1318 -0.5924
 3136SOL    HW120867   0.817   1.229  16.301  1.9759 -0.4203 -3.1954
 3136SOL    HW220868   0.693   1.244  16.222 -0.3355 -0.4300  2.1156
 3137SOL     OW20869   4.042   0.854  12.633 -0.1999 -0.7354 -0.4709
 3137SOL    HW120870   4.121   0.856  12.686 -0.6385 -0.6046  0.1817
 3137SOL    HW220871   4.073   0.788  12.572  0.0186 -0.0280 -1.1283
 3138SOL     OW20872   4.592   2.167   0.804  0.1136  0.4532 -0.2344
 3138SOL    HW120873   4.524   2.192   0.742 -2.5924  0.4395  2.7049
 3138SOL    HW220874   4.568   2.220   0.880 -1.0842 -1.0113  0.4270
 3139SOL     OW20875   1.904   3.268  16.360 -0.1339 -0.1046 -0.1806
 3139SOL    HW120876   1.948   3.301  16.282 -1.6451  0.6128 -0.7430
 3139SOL    HW220877   1.973   3.244  16.422 -0.7769 -1.9581 -0.1782
 3140SOL     OW20878   1.872   0.686   5.162 -0.2727  0.2031 -0.0393
 3140SOL    HW120879   1.870   0.736   5.080 -1.3834  1.8888  1.0042
 3140SOL    HW220880   1.794   0.720   5.206 -0.7143 -1.1745  0.2272
 3141SOL     OW20881   1.813   0.331  15.948  0.5688  0.5256 -0.0660
 3141SOL    HW120882   1.905   0.333  15.924  0.4066 -0.1957 -0.7770
 3141SOL    HW220883   1.790   0.417  15.982  1.5945 -0.0924  2.1290
 3142SOL     OW20884   2.467   1.419   5.738  0.6977  0.0442 -0.3016
 3142SOL    HW120885   2.440   1.490   5.680  2.1194 -0.8114 -2.0302
 3142SOL    HW220886   2.521   1.472   5.796  0.2854  0.0699  0.0595
 3143SOL     OW20887   3.843   2.205   5.792 -0.9793  0.6666  0.1201
 3143SOL    HW120888   3.933   2.230   5.774  0.4047 -3.2917  1.5385
 3143SOL    HW220889   3.819   2.225   5.882  2.2877  0.6134  0.9819
 3144SOL     OW20890   2.010   3.890  12.208 -0.2514  0.0895 -0.7054
 3144SOL    HW120891   2.050   3.970  12.173 -0.9681  0.4292 -0.7578
 3144SOL    HW220892   1.940   3.932  12.259  0.7573 -0.3875  1.0680
 3145SOL     OW20893   4.040   3.809   8.770 -0.2033  0.0890 -0.1865
 3145SOL    HW120894   3.979   3.873   8.806  0.3342 -0.1543  1.1536
 3145SOL    HW220895   4.060   3.770   8.855 -2.3473  0.8729  0.6654
 3146SOL     OW20896   0.157   3.941   4.612  0.1070  0.4098 -0.2442
 3146SOL    HW120897   0.196   4.018   4.571  0.9788  0.2381  0.2732
 3146SOL    HW220898   0.064   3.960   4.621  0.0644  0.2487 -0.3540
 3147SOL     OW20899   0.458   0.534   8.648 -0.0518 -0.3663  0.0500
 3147SOL    HW120900   0.486   0.529   8.557 -1.8965  1.1388 -0.6018
 3147SOL    HW220901   0.424   0.623   8.648  2.2562  0.5189 -0.8102
 3148SOL     OW20902   0.495   0.313   9.609 -0.2679  0.2950 -0.0072
 3148SOL    HW120903   0.435   0.316   9.684 -1.4233  2.7146 -0.9951
 3148SOL    HW220904   0.454   0.256   9.544  2.4078  0.4503 -1.8222
 3149SOL     OW20905   2.076   3.380   6.707  0.2146  0.7602  0.3220
 3149SOL    HW120906   1.991   3.424   6.716  0.6784  1.7307 -0.0696
 3149SOL    HW220907   2.070   3.368   6.613  0.3370  1.9701  0.1539
 3150SOL     OW20908   1.521   2.122  14.918 -0.0037 -0.6678 -0.5353
 3150SOL    HW120909   1.554   2.038  14.949 -1.0583 -0.5776  0.8244
 3150SOL    HW220910   1.559   2.172  14.991 -2.3836 -0.4966  0.5648
 3151SOL     OW20911   1.852   1.799   1.666 -0.1120 -1.1345  0.0471
 3151SOL    HW120912   1.933   1.760   1.697  1.4824  0.9331 -1.5316
 3151SOL    HW220913   1.885   1.834   1.584  1.9120  1.2368  1.8551
 3152SOL     OW20914   4.179   1.001  16.716  0.1892  0.2854 -0.1686
 3152SOL    HW120915   4.215   0.976  16.631  0.9331  1.2033 -0.1224
 3152SOL    HW220916   4.092   1.035  16.692  1.2144  0.9514 -2.9467
 3153SOL     OW20917   3.518   1.228   4.544  0.1615  0.2529  0.2813
 3153SOL    HW120918   3.468   1.301   4.580  0.6105 -0.1264  1.6858
 3153SOL    HW220919   3.447   1.164   4.547  0.4007  0.0450  1.3026
 3154SOL     OW20920   4.486   0.558   2.350 -0.1536 -0.1714 -0.0195
 3154SOL    HW120921   4.476   0.502   2.273 -1.6485  1.6440 -1.1313
 3154SOL    HW220922   4.470   0.643   2.309 -0.9800  1.4518  3.6376
 3155SOL     OW20923   0.873   2.862   4.407 -0.4395 -0.4795 -0.8255
 3155SOL    HW120924   0.852   2.918   4.333  0.6057  1.3949  0.2817
 3155SOL    HW220925   0.917   2.784   4.373  1.5478  0.4472 -0.4108
 3156SOL     OW20926   1.753   1.526  10.541  0.2323 -0.2563  0.2501
 3156SOL    HW120927   1.772   1.604  10.488  0.5312  0.1880  1.0160
 3156SOL    HW220928   1.830   1.524  10.598  0.5839 -0.3945 -0.2319
 3157SOL     OW20929   3.694   3.569  15.855 -0.3486 -1.0463 -0.0545
 3157SOL    HW120930   3.606   3.601  15.836 -0.9124 -2.6393 -0.1802
 3157SOL    HW220931   3.675   3.515  15.932  0.1307 -1.5300 -0.2685
 3158SOL     OW20932   1.317   4.601   8.448  0.4234 -0.1417 -0.5685
 3158SOL    HW120933   1.268   4.524   8.418  2.6276 -2.1654  1.0484
 3158SOL    HW220934   1.252   4.668   8.426 -0.0222 -0.5956 -0.6626
 3159SOL     OW20935   1.556   1.329   3.152 -0.6475  0.1161  0.2520
 3159SOL    HW120936   1.636   1.291   3.187 -1.2197 -1.2755  0.0612
 3159SOL    HW220937   1.594   1.403   3.105 -1.1505  0.1731 -0.0672
 3160SOL     OW20938   3.564   3.979   6.985 -0.4496  0.2467  0.4173
 3160SOL    HW120939   3.517   4.048   7.033  2.5451  2.2804  0.4282
 3160SOL    HW220940   3.520   3.895   6.996 -0.8781  0.1509 -2.1003
 3161SOL     OW20941   4.097   2.091   1.008  0.4709  0.0677 -0.3983
 3161SOL    HW120942   4.131   2.168   0.962  0.2210  1.7057  2.1417
 3161SOL    HW220943   4.078   2.127   1.095 -0.7115  1.8479 -1.3924
 3162SOL     OW20944   2.013   4.542   0.778 -0.1497  0.4411 -0.4481
 3162SOL    HW120945   1.947   4.472   0.771  0.6792 -0.4891  0.8823
 3162SOL    HW220946   2.043   4.501   0.859 -1.0192  0.0534 -0.3132
 3163SOL     OW20947   0.893   4.229   4.542 -0.0920  0.2238  0.8391
 3163SOL    HW120948   0.933   4.316   4.550  0.1184  0.1080  1.0334
 3163SOL    HW220949   0.930   4.207   4.456 -0.8989  0.3692  0.4577
 3164SOL     OW20950   2.166   3.838   2.015  0.4424 -0.2313  0.4271
 3164SOL    HW120951   2.230   3.768   2.024  0.3163 -0.2794  0.9414
 3164SOL    HW220952   2.227   3.907   1.991 -1.5016  0.8840 -1.3364
 3165SOL     OW20953   4.211   0.950  15.249 -0.5214 -0.6638  0.3583
 3165SOL    HW120954   4.274   0.926  15.181 -0.5619  1.2933 -0.3728
 3165SOL    HW220955   4.237   0.911  15.332  1.5316  0.3246  0.1803
 3166SOL     OW20956   2.333   3.842   3.100 -0.1264  0.7486  0.0265
 3166SOL    HW120957   2.360   3.750   3.100  0.4138  0.9107  0.7483
 3166SOL    HW220958   2.320   3.870   3.009  1.4631  0.5828 -0.2619
 3167SOL     OW20959   2.833   2.077   9.521 -0.0950  0.2879 -0.2250
 3167SOL    HW120960   2.868   2.108   9.605 -0.0305  0.1789 -0.2115
 3167SOL    HW220961   2.785   1.997   9.545 -0.2157  0.2346 -0.6385
 3168SOL     OW20962   0.698   4.199  15.805  0.5265  0.2014 -0.2872
 3168SOL    HW120963   0.759   4.127  15.821  0.6581  0.1698 -0.9552
 3168SOL    HW220964   0.678   4.219  15.897  1.0065 -1.0218  0.0849
 3169SOL     OW20965   3.502   3.715  17.530 -0.1462 -0.1023 -0.4405
 3169SOL    HW120966   3.529   3.716  17.622 -0.7156  1.0813 -0.2962
 3169SOL    HW220967   3.409   3.700  17.548  0.3374 -1.7616  0.7477
 3170SOL     OW20968   0.626   2.819   5.253  0.3232  0.0279  0.4148
 3170SOL    HW120969   0.661   2.890   5.199  1.8050 -1.9119 -1.1426
 3170SOL    HW220970   0.533   2.840   5.245 -0.3262 -2.1508  2.3652
 3171SOL     OW20971   3.737   4.618   4.696  0.4853 -0.1013 -0.0854
 3171SOL    HW120972   3.713   4.557   4.766 -0.7220 -0.7950 -1.0936
 3171SOL    HW220973   3.710   4.558   4.627 -0.5575  0.1435  0.1160
 3172SOL     OW20974   3.618   1.959  15.407 -0.0716 -0.8706 -0.7287
 3172SOL    HW120975   3.628   2.005  15.324  0.7876  2.4772  1.2026
 3172SOL    HW220976   3.706   1.944  15.443 -0.7072  0.4529  1.4177
 3173SOL     OW20977   1.238   2.347   7.810  0.3779 -0.1294  0.0739
 3173SOL    HW120978   1.290   2.396   7.874 -0.8364  1.8815 -0.4991
 3173SOL    HW220979   1.311   2.309   7.762 -0.6526 -1.1151 -0.7135
 3174SOL     OW20980   3.072   0.246   3.285 -0.2987  0.1841  0.3575
 3174SOL    HW120981   3.156   0.216   3.252 -0.3434 -0.2572  0.6393
 3174SOL    HW220982   3.050   0.166   3.332  0.1165 -0.1863 -0.0822
 3175SOL     OW20983   3.945   3.613   4.994 -0.1225 -0.2896 -0.5887
 3175SOL    HW120984   3.885   3.634   5.065 -0.4000 -1.4716 -0.4745
 3175SOL    HW220985   3.918   3.680   4.931 -0.4961 -1.7518 -1.9688
 3176SOL     OW20986   4.485   0.191   5.912  0.3089 -0.4611  0.1888
 3176SOL    HW120987   4.542   0.177   5.987  0.8089 -1.4338 -0.3684
 3176SOL    HW220988   4.452   0.103   5.891  0.7862 -0.6911  0.4165
 3177SOL     OW20989   3.290   1.962   7.038 -0.2536  0.1080  0.5131
 3177SOL    HW120990   3.331   1.963   7.124  0.2235 -0.9310  0.2887
 3177SOL    HW220991   3.215   1.903   7.030 -0.2671  0.2924 -0.7645
 3178SOL     OW20992   4.120   4.223   8.027  0.4273 -0.0363 -0.5607
 3178SOL    HW120993   4.154   4.144   7.984 -1.7536 -0.8160 -0.8742
 3178SOL    HW220994   4.174   4.229   8.106 -0.5125  0.5383  0.0372
 3179SOL     OW20995   4.258   1.193   9.422 -0.5852  0.1171 -0.2030
 3179SOL    HW120996   4.210   1.275   9.413  0.5700  0.7972 -0.1217
 3179SOL    HW220997   4.208   1.155   9.495  1.2068 -2.6139 -0.3863
 3180SOL     OW20998   2.935   1.982   5.251  0.9773  0.0305  0.2963
 3180SOL    HW120999   3.023   1.955   5.279  1.6199  0.8322 -0.9278
 3180SOL    HW221000   2.961   2.033   5.174 -0.0043  0.7847  0.4668
 3181SOL     OW21001   2.111   1.536   5.999  0.2551 -0.0485  0.2422
 3181SOL    HW121002   2.195   1.540   6.045  1.2898 -0.0607 -1.6706
 3181SOL    HW221003   2.060   1.517   6.078 -0.6591 -1.7123 -0.7383
 3182SOL     OW21004   1.331   2.747   8.270  0.3384 -0.3536  0.2018
 3182SOL    HW121005   1.313   2.767   8.363 -1.0556 -1.4406  0.1759
 3182SOL    HW221006   1.245   2.766   8.232  0.8129 -0.6582 -0.9862
 3183SOL     OW21007   3.259   2.438  16.302 -0.3415  0.3173 -0.6702
 3183SOL    HW121008   3.234   2.345  16.299  5.1150 -1.0704 -2.2720
 3183SOL    HW221009   3.303   2.428  16.386 -0.3359 -0.3837 -0.7499
 3184SOL     OW21010   2.661   2.589   7.729  0.1492  0.1015  0.2228
 3184SOL    HW121011   2.698   2.578   7.641  1.1652 -2.7364  1.0138
 3184SOL    HW221012   2.705   2.666   7.766 -1.3153  0.9094  0.2713
 3185SOL     OW21013   4.200   0.014   6.591 -0.5360 -0.1701 -0.1676
 3185SOL    HW121014   4.139   0.048   6.526 -1.4897  2.1588  1.9630
 3185SOL    HW221015   4.247   4.666   6.543 -1.1130 -0.6966  0.0123
 3186SOL     OW21016   3.836   1.009   5.788 -0.0771  0.4557 -0.4336
 3186SOL    HW121017   3.802   1.094   5.816  0.2490  0.1865  0.7372
 3186SOL    HW221018   3.772   0.986   5.720  0.5003  1.5394 -1.3496
 3187SOL     OW21019   0.232   2.292   7.443  0.0279 -0.6726 -0.0119
 3187SOL    HW121020   0.307   2.344   7.415  0.3540 -0.9625  0.3172
 3187SOL    HW221021   0.219   2.317   7.535 -0.5978 -1.0735  0.0097
 3188SOL     OW21022   4.446   2.912   4.214 -0.2751 -0.1082  0.0373
 3188SOL    HW121023   4.409   2.906   4.126 -2.3683  0.4697  0.8796
 3188SOL    HW221024   4.417   2.826   4.247 -1.8151  1.1492  1.9465
 3189SOL     OW21025   0.233   3.519  14.056 -0.3294 -0.0663 -0.3286
 3189SOL    HW121026   0.320   3.521  14.096  0.8026 -0.6503 -2.7689
 3189SOL    HW221027   0.176   3.543  14.130  2.0927  2.3210  0.7779
 3190SOL     OW21028   3.115   2.129   6.531  0.1180 -0.0105  0.3520
 3190SOL    HW121029   3.156   2.134   6.445  1.0663  2.0233  0.9347
 3190SOL    HW221030   3.083   2.039   6.520  1.6923 -0.4377 -0.7000
 3191SOL     OW21031   3.494   0.003   8.758 -0.0814 -0.1025 -0.4339
 3191SOL    HW121032   3.508   4.650   8.698  1.7775  1.3112 -1.7056
 3191SOL    HW221033   3.487   4.684   8.845  1.0868 -1.1230 -0.8068
 3192SOL     OW21034   1.506   2.349   2.755  0.1545 -0.2165  0.5137
 3192SOL    HW121035   1.444   2.383   2.691  1.3940  0.6855 -0.2052
 3192SOL    HW221036   1.460   2.294   2.819 -0.1587  0.8432  1.2020
 3193SOL     OW21037   2.933   3.636   8.894  0.0536  0.1199  0.7153
 3193SOL    HW121038   2.879   3.715   8.905 -1.7110 -0.9271 -0.4131
 3193SOL    HW221039   3.015   3.659   8.937 -0.4050  1.4728  0.8941
 3194SOL     OW21040   2.391   3.522   6.195 -0.1191 -0.4126  0.0652
 3194SOL    HW121041   2.425   3.607   6.221  0.6247 -0.8641  0.5580
 3194SOL    HW221042   2.372   3.541   6.103  0.0699 -0.7494 -0.0410
 3195SOL     OW21043   2.781   0.455  17.356  0.6962 -0.4116  0.5730
 3195SOL    HW121044   2.749   0.537  17.391  0.6280 -0.0110 -0.4254
 3195SOL    HW221045   2.861   0.484  17.312  0.2791 -0.5538 -0.2739
 3196SOL     OW21046   0.525   2.504   2.484 -0.4420  0.1825 -0.1391
 3196SOL    HW121047   0.537   2.552   2.402  3.3603 -0.7849 -0.1712
 3196SOL    HW221048   0.600   2.534   2.535  0.5326 -0.0449 -1.4288
 3197SOL     OW21049   2.484   0.606   0.938 -0.6261 -0.4469  0.1864
 3197SOL    HW121050   2.561   0.592   0.994  0.2764  2.2048 -0.3862
 3197SOL    HW221051   2.491   0.682   0.880  0.8878  0.5451  1.6851
 3198SOL     OW21052   2.633   3.110  13.156  0.0983  0.5290 -0.1182
 3198SOL    HW121053   2.592   3.153  13.231 -2.1068 -0.6538 -0.6471
 3198SOL    HW221054   2.579   3.032  13.149 -0.1113  0.7234 -0.6978
 3199SOL     OW21055   1.184   0.015   0.578  0.2537 -0.0942  0.3340
 3199SOL    HW121056   1.180   0.074   0.502 -1.1126  0.7740  1.0761
 3199SOL    HW221057   1.090   4.719   0.587  0.5169 -1.2546  0.9289
 3200SOL     OW21058   0.988   3.009   8.231  0.6035  0.3124  0.4319
 3200SOL    HW121059   1.026   3.044   8.150 -0.1693  1.2548  0.4736
 3200SOL    HW221060   0.901   2.975   8.211  0.1484  1.2925  0.8115
 3201SOL     OW21061   1.841   1.864   2.797 -0.9771  0.2909  0.1058
 3201SOL    HW121062   1.785   1.868   2.874  0.1161 -2.4913  1.0469
 3201SOL    HW221063   1.852   1.769   2.790  0.5526  0.4175  0.7669
 3202SOL     OW21064   2.338   0.968   5.761  1.0206  0.2535 -0.2343
 3202SOL    HW121065   2.355   1.055   5.797  2.8960  0.3967 -1.4432
 3202SOL    HW221066   2.369   0.909   5.831 -1.5317 -0.0868  0.5946
 3203SOL     OW21067   2.748   0.166  12.589  0.2683 -0.6570  0.0908
 3203SOL    HW121068   2.713   0.091  12.638 -0.9398  0.6571  1.2238
 3203SOL    HW221069   2.693   0.149  12.512 -2.2055 -0.3511  1.7834
 3204SOL     OW21070   3.642   1.862   4.371 -0.2412  0.9584  0.1171
 3204SOL    HW121071   3.675   1.950   4.384 -0.4815  1.4626 -2.7635
 3204SOL    HW221072   3.724   1.817   4.352  0.4006  1.5030  1.5727
 3205SOL     OW21073   2.326   0.303   8.049  0.5058  0.4996  0.2253
 3205SOL    HW121074   2.420   0.319   8.038  0.6782  0.1633  1.1502
 3205SOL    HW221075   2.328   0.310   8.145  1.3622 -0.2132  0.2622
 3206SOL     OW21076   2.640   0.360   8.091  0.0601 -0.1933 -0.4669
 3206SOL    HW121077   2.708   0.294   8.104 -0.7503 -0.9550 -0.0707
 3206SOL    HW221078   2.590   0.348   8.172  0.6567  1.4692  0.1453
 3207SOL     OW21079   2.728   3.286   1.939 -0.1675  0.1322 -0.2548
 3207SOL    HW121080   2.744   3.353   2.006  0.2342 -0.1786 -0.0380
 3207SOL    HW221081   2.813   3.288   1.894  0.5239 -1.5870  0.9490
 3208SOL     OW21082   4.646   1.625   5.119  0.2271 -0.3158  0.3182
 3208SOL    HW121083   4.717   1.675   5.080  0.0339 -0.5182 -0.3011
 3208SOL    HW221084   4.605   1.582   5.043 -2.5700 -0.3728  1.8443
 3209SOL     OW21085   2.556   1.729  15.240 -0.7306 -0.1006  0.2196
 3209SOL    HW121086   2.508   1.697  15.317  0.0735  0.3891  0.9299
 3209SOL    HW221087   2.619   1.658  15.226 -0.6210  0.3124 -1.3882
 3210SOL     OW21088   3.409   1.720   8.423 -0.2388 -0.2216  0.2503
 3210SOL    HW121089   3.401   1.630   8.391  0.5201  0.6455 -2.3204
 3210SOL    HW221090   3.361   1.715   8.506 -3.1562  2.7916 -1.2928
 3211SOL     OW21091   4.282   2.549   4.294 -0.5648 -0.1015  0.0981
 3211SOL    HW121092   4.204   2.522   4.343 -1.0575 -0.7371 -1.0376
 3211SOL    HW221093   4.309   2.613   4.360  0.6358  1.5569 -2.0101
 3212SOL     OW21094   4.583   2.517   8.724 -0.3746 -0.7439  0.6007
 3212SOL    HW121095   4.598   2.595   8.672 -1.5976  0.3944  1.9650
 3212SOL    HW221096   4.521   2.471   8.668 -0.5263 -0.3588  0.4546
 3213SOL     OW21097   4.667   2.339   9.592  1.1335 -0.7822  0.3378
 3213SOL    HW121098   4.576   2.311   9.602  1.1352 -0.2943  1.7719
 3213SOL    HW221099   4.700   2.250   9.581 -0.4681 -1.6952  2.9298
 3214SOL     OW21100   3.782   1.266   5.854 -0.2048 -0.4099 -0.5601
 3214SOL    HW121101   3.842   1.318   5.907 -2.8742 -0.3554  2.3695
 3214SOL    HW221102   3.721   1.330   5.818  0.9758  1.5875  1.0266
 3215SOL     OW21103   2.140   4.120   5.860  0.8880 -0.5228  0.3008
 3215SOL    HW121104   2.071   4.180   5.890  1.7364  0.5867  0.0230
 3215SOL    HW221105   2.089   4.050   5.820  1.2188 -0.2405 -0.6008
 3216SOL     OW21106   3.804   4.436   6.118  0.3607 -0.3236 -0.3540
 3216SOL    HW121107   3.786   4.379   6.043 -0.9204  1.5514 -1.4464
 3216SOL    HW221108   3.835   4.377   6.187 -0.9014  0.5992  1.0024
 3217SOL     OW21109   4.481   2.362   4.239  0.2832  0.1104  0.2153
 3217SOL    HW121110   4.491   2.342   4.146 -0.9195  0.5401  0.0010
 3217SOL    HW221111   4.405   2.420   4.245  1.5033  1.6282  0.9260
 3218SOL     OW21112   2.265   0.576   2.222 -0.8512 -0.4052 -0.4187
 3218SOL    HW121113   2.313   0.523   2.158 -2.2104 -0.6712 -1.2201
 3218SOL    HW221114   2.314   0.658   2.214 -1.3734 -0.0214  0.3212
 3219SOL     OW21115   2.556   2.925   3.802 -0.5592 -0.4727  0.1746
 3219SOL    HW121116   2.473   2.901   3.844 -0.4783  0.5082  0.8820
 3219SOL    HW221117   2.619   2.877   3.856 -0.3899 -0.0077  0.3950
 3220SOL     OW21118   1.023   4.149   3.608  0.0013  0.0199 -0.0466
 3220SOL    HW121119   0.995   4.142   3.517 -0.8992 -3.2966  0.5033
 3220SOL    HW221120   1.102   4.203   3.601 -0.6673  0.9857 -0.0879
 3221SOL     OW21121   4.022   4.525   6.352  0.6302  0.2105 -0.2500
 3221SOL    HW121122   3.960   4.473   6.301 -0.5433  3.0198 -1.6961
 3221SOL    HW221123   4.101   4.500   6.304  0.2885 -0.0241 -0.6964
 3222SOL     OW21124   0.009   3.220   4.267  0.0140 -0.2889  0.2227
 3222SOL    HW121125   0.004   3.126   4.286 -0.2845 -0.2914  0.1463
 3222SOL    HW221126   0.002   3.254   4.356  1.7816  0.3210  0.1162
 3223SOL     OW21127   0.366   2.388  11.245 -0.3336 -0.1750  0.0482
 3223SOL    HW121128   0.410   2.343  11.317  0.0667 -0.1174 -0.1620
 3223SOL    HW221129   0.293   2.431  11.291 -2.0277 -1.5246 -1.3536
 3224SOL     OW21130   2.098   3.191   2.970  0.2334  0.4712 -0.1754
 3224SOL    HW121131   2.137   3.240   3.043 -1.3482  0.0687  0.9380
 3224SOL    HW221132   2.025   3.249   2.947 -0.6976 -0.5133  0.2974
 3225SOL     OW21133   0.145   4.673   5.243  0.0633  0.3360 -0.3956
 3225SOL    HW121134   0.055   4.642   5.237  0.3855 -0.7618  0.4541
 3225SOL    HW221135   0.200   4.615   5.296 -0.4195  2.5433  2.5293
 3226SOL     OW21136   1.979   1.488   6.221 -0.4675  0.3318 -0.6519
 3226SOL    HW121137   1.941   1.420   6.277  1.1965 -0.2516 -0.2543
 3226SOL    HW221138   1.915   1.558   6.234 -0.8743 -0.1716  0.0624
 3227SOL     OW21139   0.414   2.048   3.642 -0.6434  0.6974  0.5665
 3227SOL    HW121140   0.349   2.039   3.712 -1.7610  0.8210 -0.4636
 3227SOL    HW221141   0.451   2.136   3.654  1.9662 -0.6129  2.0720
 3228SOL     OW21142   0.433   3.541   1.314  0.4963 -0.1378  0.5986
 3228SOL    HW121143   0.454   3.457   1.273  0.1449  0.8657 -1.6481
 3228SOL    HW221144   0.359   3.571   1.261 -2.7772 -3.0343  3.4241
 3229SOL     OW21145   3.283   1.127   6.302  0.6404 -0.3738  0.0750
 3229SOL    HW121146   3.212   1.088   6.353 -2.6865  1.6319 -2.9783
 3229SOL    HW221147   3.238   1.162   6.224  1.7587 -0.2357 -0.5021
 3230SOL     OW21148   3.971   2.404   4.543  0.1471 -0.0610  0.6388
 3230SOL    HW121149   4.052   2.411   4.492  0.1584 -0.9073  0.5512
 3230SOL    HW221150   3.995   2.330   4.599 -0.4916 -0.6421  0.1279
 3231SOL     OW21151   1.324   4.014   5.718  0.4829 -0.4121  0.3545
 3231SOL    HW121152   1.358   4.100   5.743  1.7187 -0.5955 -0.7239
 3231SOL    HW221153   1.368   4.005   5.634  2.4397 -2.4003  1.5741
 3232SOL     OW21154   2.038   1.162   7.967  0.2921  0.4251  0.0641
 3232SOL    HW121155   2.061   1.108   8.043 -1.6292 -1.6823 -0.8412
 3232SOL    HW221156   2.023   1.094   7.901  0.0960  0.9709 -0.4510
 3233SOL     OW21157   0.702   0.026   4.455  0.0778  0.2806 -0.1391
 3233SOL    HW121158   0.741   4.713   4.536 -0.3759  1.4473  0.5605
 3233SOL    HW221159   0.633   0.074   4.501 -1.3346 -0.8542 -1.0819
 3234SOL     OW21160   1.015   4.002   5.972  0.0606 -0.0836 -0.7995
 3234SOL    HW121161   1.045   3.911   5.977 -0.2655 -0.2211 -1.3900
 3234SOL    HW221162   0.971   4.003   5.888 -1.0335  0.4972 -0.2151
 3235SOL     OW21163   4.623   2.244  17.653 -0.4783 -0.3955 -0.2189
 3235SOL    HW121164   4.542   2.261   0.018  0.4785  0.9811  0.9039
 3235SOL    HW221165   4.595   2.256  17.563  0.8776 -0.6334 -0.6693
 3236SOL     OW21166   0.516   0.473   9.984 -0.3094 -0.2795 -0.3227
 3236SOL    HW121167   0.611   0.463   9.982 -0.3160 -0.5112  1.1871
 3236SOL    HW221168   0.489   0.420   9.909  1.2525  0.6711 -1.5523
 3237SOL     OW21169   2.230   2.891   4.329 -0.4524 -0.1174 -0.0569
 3237SOL    HW121170   2.260   2.924   4.245  2.2539  0.2822  1.0906
 3237SOL    HW221171   2.237   2.970   4.382  3.1815 -0.6435  0.2046
 3238SOL     OW21172   4.061   4.682   0.352  0.9675 -0.7616  0.4506
 3238SOL    HW121173   4.058   0.007   0.436  2.2154 -0.0587  0.1144
 3238SOL    HW221174   4.013   4.603   0.376  1.6446 -1.2924  0.0564
 3239SOL     OW21175   3.477   0.460  16.522 -0.0736 -0.4759 -0.3384
 3239SOL    HW121176   3.476   0.468  16.618 -1.0864  0.5529 -0.4358
 3239SOL    HW221177   3.527   0.539  16.500  1.5089 -1.5575 -0.6598
 3240SOL     OW21178   4.709   0.149  16.773 -0.7579 -0.3764 -0.1903
 3240SOL    HW121179   4.702   0.174  16.681  0.3585  2.2218  0.4261
 3240SOL    HW221180   4.629   0.173  16.820 -0.8073 -2.2246  0.6800
 3241SOL     OW21181   3.926   1.408   3.105  0.2558  0.2802 -0.1709
 3241SOL    HW121182   3.836   1.377   3.093  0.4181  0.4790 -1.9490
 3241SOL    HW221183   3.969   1.324   3.117 -1.0223 -0.4613 -0.6802
 3242SOL     OW21184   1.434   1.117  15.328 -0.2862 -0.2585 -0.1629
 3242SOL    HW121185   1.497   1.067  15.379 -1.3573 -0.8466  0.5857
 3242SOL    HW221186   1.370   1.050  15.306 -1.3353  0.5736  0.3603
 3243SOL     OW21187   1.819   1.618   7.785  0.2995  0.3302 -0.3943
 3243SOL    HW121188   1.781   1.625   7.697 -0.3449 -2.9076 -0.3686
 3243SOL    HW221189   1.909   1.586   7.773  0.1153 -0.3639  0.0877
 3244SOL     OW21190   4.384   2.500   6.178 -0.1471 -0.1282 -0.0041
 3244SOL    HW121191   4.425   2.582   6.205  0.3415 -0.7044  0.9806
 3244SOL    HW221192   4.332   2.522   6.101 -0.4607  2.2957  0.8879
 3245SOL     OW21193   3.201   1.889  15.967  0.2265  0.9455 -0.3594
 3245SOL    HW121194   3.182   1.941  16.045 -1.7618 -1.1288  0.5347
 3245SOL    HW221195   3.259   1.948  15.919 -2.3036  3.8541  0.1253
 3246SOL     OW21196   4.510   4.327   5.060  0.2794  0.2432  0.1794
 3246SOL    HW121197   4.549   4.381   4.991  0.4720 -3.0972 -2.3047
 3246SOL    HW221198   4.501   4.394   5.128  3.0497 -2.1854  2.9661
 3247SOL     OW21199   2.205   3.561   2.619 -0.9455 -0.0607 -0.0641
 3247SOL    HW121200   2.244   3.484   2.577 -1.5123 -2.0234  3.0495
 3247SOL    HW221201   2.274   3.627   2.612 -2.8585  1.8421 -1.3682
 3248SOL     OW21202   3.226   1.706   5.252  0.5038 -0.1614  0.9331
 3248SOL    HW121203   3.166   1.666   5.188  3.5704  0.1543 -2.1238
 3248SOL    HW221204   3.291   1.739   5.190 -0.5060 -0.1125 -0.0996
 3249SOL     OW21205   0.607   0.848   8.440 -0.2504 -0.0984  0.2150
 3249SOL    HW121206   0.623   0.830   8.348  3.5259 -0.7691  1.0006
 3249SOL    HW221207   0.691   0.877   8.475  0.9201 -1.8977 -1.1174
 3250SOL     OW21208   0.373   0.111   1.812 -0.5293 -0.5533 -0.8535
 3250SOL    HW121209   0.397   0.170   1.740  3.5847  0.7439  1.5680
 3250SOL    HW221210   0.424   0.036   1.779 -0.2539 -1.8385  2.4835
 3251SOL     OW21211   1.753   0.353  13.047  0.6935 -0.1111  0.2576
 3251SOL    HW121212   1.707   0.408  13.110 -0.0992 -1.2840  0.6980
 3251SOL    HW221213   1.758   0.274  13.101 -2.0448 -0.5311 -0.1052
 3252SOL     OW21214   0.134   4.698   1.922  0.0593  0.3734 -0.5633
 3252SOL    HW121215   0.207   0.032   1.890  1.8014 -1.7756 -0.2567
 3252SOL    HW221216   0.131   4.630   1.855 -1.7316  1.3051 -1.4389
 3253SOL     OW21217   1.006   4.697   4.865  0.0304 -0.4043 -0.1984
 3253SOL    HW121218   1.065   0.030   4.919  0.6808 -0.0380 -1.2717
 3253SOL    HW221219   0.936   0.032   4.831  0.5907  0.9292  0.7980
 3254SOL     OW21220   0.199   1.952   3.893 -0.3405 -0.3029  0.2630
 3254SOL    HW121221   0.207   1.876   3.835  1.0952 -2.7193  3.6147
 3254SOL    HW221222   0.209   1.901   3.974 -2.6728  0.6125  1.1350
 3255SOL     OW21223   0.991   2.164   4.463 -0.1578 -0.6368  0.2912
 3255SOL    HW121224   1.007   2.257   4.481 -2.3394 -0.4651  1.2433
 3255SOL    HW221225   0.917   2.148   4.520  1.1773 -0.5489  2.0506
 3256SOL     OW21226   0.089   4.148   6.598  0.6520 -0.0212 -0.0595
 3256SOL    HW121227   0.121   4.071   6.550 -0.6223  0.0541 -1.0117
 3256SOL    HW221228   4.720   4.131   6.628 -0.8747 -0.5518 -4.9915
 3257SOL     OW21229   3.504   4.102   3.418  0.0303  0.0364 -0.5885
 3257SOL    HW121230   3.423   4.093   3.468 -1.1368 -0.5012 -2.5576
 3257SOL    HW221231   3.521   4.010   3.395  1.4875  0.1676 -0.0689
 3258SOL     OW21232   1.780   4.555   5.799  0.2141  0.2459 -0.0717
 3258SOL    HW121233   1.790   4.542   5.705 -0.7910  0.3034 -0.1824
 3258SOL    HW221234   1.754   4.647   5.804 -1.1506 -0.0755 -1.3259
 3259SOL     OW21235   3.477   0.576   1.343  0.3100 -0.0950 -0.2943
 3259SOL    HW121236   3.417   0.639   1.303 -1.8140 -0.7229  1.9768
 3259SOL    HW221237   3.547   0.573   1.277 -0.1050 -2.8280 -0.5787
 3260SOL     OW21238   2.106   3.826   6.134  0.5213  0.3699  0.0227
 3260SOL    HW121239   2.041   3.804   6.068  0.3580 -1.8009  0.9096
 3260SOL    HW221240   2.166   3.886   6.089 -0.4738  1.1218 -0.2769
 3261SOL     OW21241   3.626   4.374  13.728  0.0844  0.4329  0.1987
 3261SOL    HW121242   3.633   4.352  13.636  0.8679  1.0793  0.1100
 3261SOL    HW221243   3.630   4.469  13.731 -0.1470  0.5030 -2.0516
 3262SOL     OW21244   1.152   4.000   4.535  0.6467 -0.3628 -0.3103
 3262SOL    HW121245   1.094   4.021   4.608 -1.3275  0.0309 -2.0282
 3262SOL    HW221246   1.104   4.026   4.457 -0.6671 -0.5867  0.4325
 3263SOL     OW21247   4.257   1.524  15.973  0.1466 -0.3974  0.3053
 3263SOL    HW121248   4.251   1.618  15.959 -0.2631 -0.0963  2.5353
 3263SOL    HW221249   4.324   1.508  15.906  1.0728  1.3957  0.8112
 3264SOL     OW21250   1.906   2.698   2.130  0.3275  0.1693  0.6203
 3264SOL    HW121251   1.972   2.713   2.197  0.8413  0.2744  0.0833
 3264SOL    HW221252   1.831   2.675   2.185 -0.9167 -0.3124 -1.2444
 3265SOL     OW21253   1.027   0.344   8.243 -0.1532 -0.0298  0.4397
 3265SOL    HW121254   0.937   0.312   8.236 -0.7711  1.7317  0.2319
 3265SOL    HW221255   1.051   0.312   8.329 -2.1795 -1.0704  0.6230
 3266SOL     OW21256   2.547   1.751  16.050  0.2807  0.2947  0.2770
 3266SOL    HW121257   2.491   1.675  16.036  2.8106 -1.3286 -1.0162
 3266SOL    HW221258   2.609   1.740  15.978  0.8396  3.7883  0.1789
 3267SOL     OW21259   3.043   4.358   3.212  0.0180 -0.4305  0.1580
 3267SOL    HW121260   3.112   4.403   3.163  0.6441 -0.8164  0.6869
 3267SOL    HW221261   3.083   4.271   3.206  0.1756 -0.5143  2.5508
 3268SOL     OW21262   0.323   1.255  16.463 -0.4211 -0.4008  0.5526
 3268SOL    HW121263   0.289   1.272  16.375 -1.4641 -1.5116  0.7431
 3268SOL    HW221264   0.335   1.160  16.475 -0.3352 -0.5194 -0.4822
 3269SOL     OW21265   2.901   2.174   4.336  0.2742  0.3867 -0.3663
 3269SOL    HW121266   2.853   2.245   4.293  0.9800 -0.6320 -2.8209
 3269SOL    HW221267   2.886   2.098   4.279 -2.0299 -1.4620  2.6530
 3270SOL     OW21268   1.461   1.254  10.100  0.1150 -0.9717  0.3047
 3270SOL    HW121269   1.460   1.334  10.047 -0.4187 -0.2293  1.4384
 3270SOL    HW221270   1.367   1.236  10.109 -0.0372 -0.1338  0.3896
 3271SOL     OW21271   1.564   3.520   4.318  0.5759  0.1152  0.4905
 3271SOL    HW121272   1.602   3.545   4.234  2.2342 -0.6570  1.0150
 3271SOL    HW221273   1.638   3.545   4.373 -1.2025  1.3061  2.3639
 3272SOL     OW21274   2.659   3.023   9.703 -0.4941  0.0142  0.1614
 3272SOL    HW121275   2.709   3.097   9.668  0.8630 -0.4203  1.1862
 3272SOL    HW221276   2.606   2.983   9.634 -0.9325 -1.5647  1.3973
 3273SOL     OW21277   4.230   3.393  12.565  0.2938 -0.4870 -0.1860
 3273SOL    HW121278   4.260   3.435  12.646  0.7383 -0.9152 -0.1272
 3273SOL    HW221279   4.210   3.463  12.504  2.7163  1.3980  1.1658
 3274SOL     OW21280   4.131   4.147   1.273  0.2953 -0.0650 -0.6450
 3274SOL    HW121281   4.090   4.064   1.248  1.1931 -0.7162  0.0672
 3274SOL    HW221282   4.055   4.204   1.287 -2.0883 -3.3019 -0.4067
 3275SOL     OW21283   3.836   3.961   8.970  0.2743  0.1152  0.0728
 3275SOL    HW121284   3.870   4.017   9.040  2.0172 -1.4329  0.4816
 3275SOL    HW221285   3.755   3.936   9.016 -0.4846 -0.4600 -1.5901
 3276SOL     OW21286   4.173   0.393  12.719 -0.4394 -0.0190  0.0640
 3276SOL    HW121287   4.140   0.306  12.695 -1.1667 -0.3391  2.2651
 3276SOL    HW221288   4.094   0.426  12.760 -2.8260  0.3295 -4.7662
 3277SOL     OW21289   2.753   2.638  16.547 -0.3800 -0.2098 -0.3126
 3277SOL    HW121290   2.768   2.543  16.554  3.4628  0.5116  1.5997
 3277SOL    HW221291   2.674   2.648  16.600 -0.7927 -0.0293 -0.9719
 3278SOL     OW21292   1.506   0.175   1.962  0.6881 -0.2173  0.0638
 3278SOL    HW121293   1.424   0.216   1.933  0.1092 -0.8192  0.8412
 3278SOL    HW221294   1.566   0.202   1.892  0.9514 -0.6668  0.1146
 3279SOL     OW21295   1.876   3.160  16.689  0.9708 -0.1494  0.4918
 3279SOL    HW121296   1.908   3.244  16.720  2.0751 -0.1093 -0.7593
 3279SOL    HW221297   1.785   3.172  16.661  0.8402 -0.7105  0.6656
 3280SOL     OW21298   2.772   2.204  14.858  0.4691 -0.3897  0.2779
 3280SOL    HW121299   2.799   2.240  14.943  0.0720  3.6134 -1.2985
 3280SOL    HW221300   2.806   2.278  14.808 -1.2721  0.1113 -0.1732
 3281SOL     OW21301   4.407   2.853   8.161 -0.2425  0.7592  0.1964
 3281SOL    HW121302   4.392   2.936   8.206 -0.6916  0.7788  0.0126
 3281SOL    HW221303   4.458   2.880   8.084  1.0043  1.0914  1.1480
 3282SOL     OW21304   0.430   0.929  10.180 -0.4297  0.5783 -0.0804
 3282SOL    HW121305   0.385   0.934  10.265 -1.7106  1.8286 -0.8420
 3282SOL    HW221306   0.445   1.022  10.164  0.8708  0.4190  0.2226
 3283SOL     OW21307   2.801   4.383  15.642  0.4198 -0.1912  0.7543
 3283SOL    HW121308   2.809   4.299  15.688 -0.3288 -0.0644  1.1149
 3283SOL    HW221309   2.709   4.391  15.617 -0.1833 -2.6859  2.1511
 3284SOL     OW21310   3.386   3.518   0.707 -0.5036 -0.1145 -0.4955
 3284SOL    HW121311   3.292   3.520   0.720 -0.3197  2.4936  0.4342
 3284SOL    HW221312   3.391   3.519   0.611 -1.9482 -0.8613 -0.5808
 3285SOL     OW21313   0.821   1.435   8.728  0.1494 -0.2189 -0.4039
 3285SOL    HW121314   0.781   1.349   8.743  1.1130 -0.6789 -0.5180
 3285SOL    HW221315   0.753   1.497   8.702  0.8554  1.3817  1.6134
 3286SOL     OW21316   2.783   2.225   3.364 -0.3183 -0.2996 -0.2538
 3286SOL    HW121317   2.848   2.223   3.434 -0.1117  0.5248 -0.4295
 3286SOL    HW221318   2.841   2.224   3.287  0.4185 -0.4464  0.3011
 3287SOL     OW21319   2.248   1.864  17.313  0.1821  0.1890  0.4172
 3287SOL    HW121320   2.273   1.777  17.345  0.9534  0.4323  0.4614
 3287SOL    HW221321   2.200   1.835  17.236  2.1640 -0.3255 -0.6255
 3288SOL     OW21322   1.807   2.757   5.887  0.3555  0.4111  0.7268
 3288SOL    HW121323   1.862   2.791   5.958 -0.5745  1.6430  0.8512
 3288SOL    HW221324   1.862   2.683   5.861  0.8486  0.9073  0.3741
 3289SOL     OW21325   0.775   4.157   6.806  0.5241 -0.4466 -0.4966
 3289SOL    HW121326   0.685   4.187   6.793  0.0914 -0.8005  1.7688
 3289SOL    HW221327   0.833   4.229   6.782  2.4816 -1.5467  0.9906
 3290SOL     OW21328   2.697   2.635  14.573  0.4222 -0.1016  0.2098
 3290SOL    HW121329   2.645   2.708  14.606 -1.9703 -1.1555 -1.2836
 3290SOL    HW221330   2.627   2.585  14.532  1.3227 -3.1769  2.3760
 3291SOL     OW21331   3.890   4.286   6.624 -0.4429  0.1915 -0.1148
 3291SOL    HW121332   3.860   4.300   6.713  0.2537  3.2006 -0.3553
 3291SOL    HW221333   3.928   4.373   6.615 -1.1587  0.5512  0.3430
 3292SOL     OW21334   1.179   1.576  11.771 -0.3347 -0.0480  0.5974
 3292SOL    HW121335   1.241   1.649  11.764  0.7911 -0.9252  1.4896
 3292SOL    HW221336   1.108   1.613  11.823  0.0269  0.7413  0.5335
 3293SOL     OW21337   4.131   1.447   3.290 -0.0570 -0.4363 -0.0536
 3293SOL    HW121338   4.213   1.435   3.339 -0.9683  1.1095  1.8420
 3293SOL    HW221339   4.129   1.541   3.271  2.0167 -0.3275  0.2890
 3294SOL     OW21340   0.552   0.630   0.305  0.1034 -0.3316 -0.8117
 3294SOL    HW121341   0.526   0.542   0.334 -1.3818  0.0253 -1.0559
 3294SOL    HW221342   0.646   0.634   0.325 -0.7873  4.2703  2.3395
 3295SOL     OW21343   0.899   0.296   5.568  0.6713  0.5633  0.2840
 3295SOL    HW121344   0.870   0.249   5.647 -0.1110  0.8694  0.1751
 3295SOL    HW221345   0.993   0.295   5.588  0.2794  2.6479  2.1767
 3296SOL     OW21346   2.846   1.397   7.416 -0.3922  0.1979  0.5477
 3296SOL    HW121347   2.890   1.352   7.488 -0.4302  0.6231  0.8359
 3296SOL    HW221348   2.825   1.480   7.459  0.6025 -0.1332  1.6685
 3297SOL     OW21349   4.430   0.917   8.831  0.0649 -0.4694 -0.3088
 3297SOL    HW121350   4.406   0.965   8.752 -0.5541 -2.4555 -1.3293
 3297SOL    HW221351   4.359   0.937   8.892  0.5716 -0.4477  0.2747
 3298SOL     OW21352   0.007   2.584   8.184  0.2907  0.1327  0.3992
 3298SOL    HW121353   0.048   2.575   8.270 -0.1161 -0.4456  0.5338
 3298SOL    HW221354   0.057   2.519   8.135 -1.3762 -1.1994  0.4579
 3299SOL     OW21355   0.397   2.357   0.721  0.0614  0.0457 -0.2365
 3299SOL    HW121356   0.452   2.377   0.645 -1.4254  0.3707 -1.2403
 3299SOL    HW221357   0.432   2.275   0.755  1.4241  1.0361  0.7383
 3300SOL     OW21358   0.684   3.245   4.213 -0.0247  0.1260 -0.2406
 3300SOL    HW121359   0.597   3.272   4.240 -0.3156 -1.5356  0.4985
 3300SOL    HW221360   0.667   3.259   4.120 -0.3838 -0.2267 -0.2290
 3301SOL     OW21361   3.216   3.693  10.633  0.2761 -0.3457 -0.0418
 3301SOL    HW121362   3.141   3.749  10.649 -0.8332 -2.1991  1.2935
 3301SOL    HW221363   3.185   3.649  10.555 -0.5619  0.9687 -0.4413
 3302SOL     OW21364   2.032   1.276  12.629 -0.1656  0.2927  0.0219
 3302SOL    HW121365   1.980   1.211  12.676 -2.3038  1.8656 -0.1784
 3302SOL    HW221366   2.006   1.355  12.677  1.9359  1.1417 -0.2249
 3303SOL     OW21367   1.094   2.822   7.863 -0.0106  0.5526 -0.1546
 3303SOL    HW121368   1.083   2.789   7.774 -2.3187 -3.0071  1.4304
 3303SOL    HW221369   1.024   2.887   7.858  0.4754  1.0725 -0.2065
 3304SOL     OW21370   3.762   3.674   4.150 -0.0271  0.4627 -0.5013
 3304SOL    HW121371   3.685   3.623   4.124  1.3596 -2.0776  0.4035
 3304SOL    HW221372   3.732   3.744   4.207 -1.2591 -2.3009  2.2480
 3305SOL     OW21373   2.769   3.867  11.591 -0.1584  0.3587 -0.1732
 3305SOL    HW121374   2.836   3.863  11.659 -1.1013 -1.7796  0.6670
 3305SOL    HW221375   2.693   3.858  11.650 -0.2494  0.9027 -0.2081
 3306SOL     OW21376   2.229   4.367  13.734 -0.1144  0.2214 -0.3949
 3306SOL    HW121377   2.279   4.377  13.815  0.1323  1.6203 -0.7082
 3306SOL    HW221378   2.290   4.318  13.678 -0.0553  1.7735 -1.7013
 3307SOL     OW21379   2.968   1.235   8.485 -0.1068  0.4796 -0.1509
 3307SOL    HW121380   2.916   1.187   8.420 -1.9064  0.8718  0.9965
 3307SOL    HW221381   2.902   1.239   8.554 -0.3083 -0.4934 -0.2786
 3308SOL     OW21382   1.996   1.137   6.621 -0.3521  0.3530  0.1822
 3308SOL    HW121383   1.957   1.050   6.609  0.9432  0.0787 -2.1483
 3308SOL    HW221384   1.934   1.166   6.688 -0.4220  1.2747 -0.2814
 3309SOL     OW21385   3.104   0.804  10.023 -0.4245 -0.4204  0.3853
 3309SOL    HW121386   3.134   0.713  10.014 -0.5473 -0.2889 -1.3348
 3309SOL    HW221387   3.145   0.834  10.105 -0.5203  1.7888 -0.3953
 3310SOL     OW21388   3.072   4.131   9.819  0.0188 -0.4470 -0.0108
 3310SOL    HW121389   3.117   4.080   9.887  2.1037  0.5697 -0.6240
 3310SOL    HW221390   3.134   4.140   9.747  0.1016  3.0911  0.5054
 3311SOL     OW21391   0.892   3.414   2.808 -0.0975  0.1832  0.3126
 3311SOL    HW121392   0.798   3.432   2.806  0.0186  0.9653  1.8193
 3311SOL    HW221393   0.900   3.414   2.903  1.9171  0.2466  0.1285
 3312SOL     OW21394   0.377   2.490   3.144 -0.4055 -0.0413 -0.1951
 3312SOL    HW121395   0.449   2.505   3.082 -0.8196 -0.5566 -0.7915
 3312SOL    HW221396   0.341   2.410   3.107 -0.6024  0.2135 -0.5661
 3313SOL     OW21397   1.962   2.189   6.947  0.4484 -0.6622  0.2248
 3313SOL    HW121398   1.956   2.096   6.970  0.1700 -0.4974  0.8179
 3313SOL    HW221399   1.963   2.220   7.038  2.0917  2.0115 -0.7380
 3314SOL     OW21400   2.881   1.125   4.627  0.0277  0.5233 -0.3821
 3314SOL    HW121401   2.935   1.046   4.632  1.8609  1.7379 -1.0865
 3314SOL    HW221402   2.801   1.087   4.591  0.6075  0.0793 -1.1936
 3315SOL     OW21403   0.901   1.791  13.720 -0.1565 -0.1522  0.3180
 3315SOL    HW121404   0.922   1.755  13.806 -0.9990  0.2287  0.6848
 3315SOL    HW221405   0.987   1.775  13.683  0.8112  1.4634  1.8764
 3316SOL     OW21406   0.151   1.892   7.324  0.2322  0.6964 -0.1250
 3316SOL    HW121407   0.245   1.878   7.336  0.2663  0.3344 -0.7825
 3316SOL    HW221408   0.114   1.843   7.398  2.3927  0.2127  0.6414
 3317SOL     OW21409   4.413   0.609   5.584  0.2590  0.5406 -0.0648
 3317SOL    HW121410   4.461   0.686   5.616  2.0576 -1.5348  2.2601
 3317SOL    HW221411   4.455   0.543   5.640 -1.6927 -1.6507 -1.2150
 3318SOL     OW21412   3.272   1.528   2.338 -0.5105  0.5406 -0.0407
 3318SOL    HW121413   3.277   1.433   2.350 -0.2819  0.5097 -0.4040
 3318SOL    HW221414   3.250   1.552   2.428 -1.2199 -3.4967  0.8789
 3319SOL     OW21415   0.479   2.606  12.707  0.2204  0.2883  0.3523
 3319SOL    HW121416   0.521   2.539  12.652 -1.2602  1.4093 -2.1345
 3319SOL    HW221417   0.476   2.563  12.792  0.0615 -0.2872  0.0589
 3320SOL     OW21418   3.427   2.212  10.541  0.6516 -0.3854  0.0430
 3320SOL    HW121419   3.486   2.147  10.577  1.9949  0.7401 -0.1255
 3320SOL    HW221420   3.392   2.256  10.618 -0.3832  0.5084 -0.9301
 3321SOL     OW21421   1.047   0.781   6.976 -0.0187 -0.0117 -0.4009
 3321SOL    HW121422   0.973   0.827   6.938  0.8421  0.5356 -1.4202
 3321SOL    HW221423   1.026   0.698   6.934 -0.2231 -1.1946  2.0006
 3322SOL     OW21424   0.123   3.539   6.128  0.2664 -0.0704  0.4048
 3322SOL    HW121425   0.080   3.460   6.095  1.9314 -0.8763  0.1889
 3322SOL    HW221426   0.207   3.505   6.158  0.1500 -0.4083  0.3471
 3323SOL     OW21427   3.004   1.815   7.712 -0.1148  0.0973 -0.0424
 3323SOL    HW121428   3.002   1.885   7.776  2.2839  0.4218 -0.3003
 3323SOL    HW221429   2.984   1.860   7.630 -2.0265 -2.4215 -0.9536
 3324SOL     OW21430   1.174   1.557   1.988 -0.0658  0.2257  0.2210
 3324SOL    HW121431   1.100   1.569   2.048 -1.9103 -1.6220 -1.6627
 3324SOL    HW221432   1.207   1.474   2.023 -1.6911 -0.7029 -0.4531
 3325SOL     OW21433   0.924   1.409   2.583 -0.3097  0.0192 -0.0547
 3325SOL    HW121434   0.861   1.480   2.594 -1.9181 -1.7554  2.0724
 3325SOL    HW221435   0.979   1.432   2.508 -0.7289  0.3903 -0.2424
 3326SOL     OW21436   2.500   2.007   0.892 -0.1121  0.7387  0.7504
 3326SOL    HW121437   2.437   2.015   0.821 -1.8367 -0.3910  2.1517
 3326SOL    HW221438   2.508   2.093   0.931 -0.8440  1.4663 -0.7065
 3327SOL     OW21439   1.826   0.763   3.545 -0.1933  0.1308  0.0441
 3327SOL    HW121440   1.853   0.748   3.635  0.6615 -0.6848 -0.3433
 3327SOL    HW221441   1.851   0.680   3.504 -0.9124 -0.1085  0.0784
 3328SOL     OW21442   1.141   3.016   9.804  0.2697  0.4654  0.2020
 3328SOL    HW121443   1.180   2.980   9.883  1.3909  1.3227  0.0352
 3328SOL    HW221444   1.151   3.111   9.811  2.9672  0.1302  0.6643
 3329SOL     OW21445   4.211   3.844  13.716 -0.2926 -0.7929 -0.1565
 3329SOL    HW121446   4.193   3.931  13.751 -2.2670 -0.9449 -0.8208
 3329SOL    HW221447   4.295   3.846  13.669  0.4466  0.3259  1.1985
 3330SOL     OW21448   2.799   3.050   7.648 -0.2187 -0.3551  0.3086
 3330SOL    HW121449   2.769   3.095   7.569 -0.9394  1.1904  1.4709
 3330SOL    HW221450   2.815   3.121   7.710 -1.1049  0.8455 -0.8453
 3331SOL     OW21451   0.968   2.093  13.738  0.3209  0.2459  0.0876
 3331SOL    HW121452   1.042   2.082  13.678  1.7252  0.4190  1.7927
 3331SOL    HW221453   0.977   2.006  13.778  1.0613  0.5691  0.6144
 3332SOL     OW21454   1.339   4.191   0.456  0.6979 -0.3044 -0.2750
 3332SOL    HW121455   1.306   4.207   0.544  0.1380 -1.2667 -0.3058
 3332SOL    HW221456   1.345   4.283   0.430 -2.9101  0.0896  0.2660
 3333SOL     OW21457   1.738   2.491   4.739  0.3144 -0.6561 -0.7948
 3333SOL    HW121458   1.730   2.432   4.814  2.7926  0.6727  0.5570
 3333SOL    HW221459   1.792   2.444   4.676  1.3742  0.3461 -0.6381
 3334SOL     OW21460   1.691   1.262   8.704  0.4845 -0.3546  0.4687
 3334SOL    HW121461   1.766   1.299   8.750 -1.2215  4.2725 -0.4608
 3334SOL    HW221462   1.739   1.233   8.626 -0.5688  0.4216 -0.4662
 3335SOL     OW21463   3.080   2.850  11.200  0.1411 -0.4604  0.6091
 3335SOL    HW121464   3.040   2.767  11.228 -2.1535 -0.5187 -2.7546
 3335SOL    HW221465   3.046   2.863  11.111  0.5536 -2.0720  0.2082
 3336SOL     OW21466   3.664   0.403  17.407 -0.3717  0.8043  0.5442
 3336SOL    HW121467   3.665   0.360  17.492  1.1609 -1.9999 -0.8956
 3336SOL    HW221468   3.749   0.382  17.369 -0.5545  3.6477 -1.4476
 3337SOL     OW21469   2.440   3.721   2.578 -0.0761  0.7248 -0.5552
 3337SOL    HW121470   2.469   3.721   2.487  0.8537  0.6274 -0.2585
 3337SOL    HW221471   2.523   3.711   2.624  0.2311  0.0185 -1.2658
 3338SOL     OW21472   1.444   0.264   1.646 -0.0978 -0.0887 -0.1547
 3338SOL    HW121473   1.464   0.357   1.633  3.6664 -0.7837  0.6252
 3338SOL    HW221474   1.527   0.216   1.648  0.7018  1.2644 -0.9236
 3339SOL     OW21475   1.436   3.463   2.839 -0.1091 -0.0488  0.1072
 3339SOL    HW121476   1.459   3.555   2.851  0.4839 -0.1395 -0.3297
 3339SOL    HW221477   1.348   3.451   2.876  0.2120 -0.5917  0.6908
 3340SOL     OW21478   4.492   0.640   4.750  0.5271 -0.5973  0.6131
 3340SOL    HW121479   4.493   0.663   4.842  1.6549 -1.0980  0.7273
 3340SOL    HW221480   4.569   0.688   4.720  1.6398 -4.0181 -2.0584
 3341SOL     OW21481   0.768   2.382   2.257 -0.0775  0.2923 -0.6904
 3341SOL    HW121482   0.725   2.427   2.184 -0.2471  0.4695 -0.4824
 3341SOL    HW221483   0.812   2.454   2.303  0.9872  0.8527 -2.5906
 3342SOL     OW21484   2.493   1.968  17.217 -0.9481 -0.3461 -0.8937
 3342SOL    HW121485   2.412   1.920  17.197 -0.4811 -1.0652 -1.0557
 3342SOL    HW221486   2.464   2.059  17.219  1.3167  0.3712 -0.4162
 3343SOL     OW21487   0.352   1.461   0.451  0.1217  0.1249  0.2188
 3343SOL    HW121488   0.384   1.427   0.535  1.1886 -0.9105 -0.6081
 3343SOL    HW221489   0.411   1.414   0.392 -0.6025 -1.3901  0.6773
 3344SOL     OW21490   0.212   4.050   2.751 -0.4880  0.5216 -0.6660
 3344SOL    HW121491   0.206   3.955   2.745 -0.8234  0.4462  0.6830
 3344SOL    HW221492   0.197   4.071   2.659  0.2393 -1.5601 -1.2430
 3345SOL     OW21493   0.180   1.490  17.169 -0.1444 -0.6831  0.5495
 3345SOL    HW121494   0.242   1.458  17.104 -1.9671 -0.5207 -1.2864
 3345SOL    HW221495   0.189   1.435  17.247 -2.8352 -0.7190  0.8373
 3346SOL     OW21496   2.958   2.423   2.960 -0.2659 -0.4782 -0.3626
 3346SOL    HW121497   2.973   2.465   3.045  0.1637  0.5327 -0.9492
 3346SOL    HW221498   3.050   2.406   2.941 -0.5470 -0.6875 -1.5218
 3347SOL     OW21499   0.396   0.685   7.021  0.1607 -0.6225 -0.3793
 3347SOL    HW121500   0.361   0.633   6.949  0.9922 -1.4316 -0.1908
 3347SOL    HW221501   0.419   0.762   6.968 -0.6466 -1.1676 -1.5382
 3348SOL     OW21502   4.545   0.164   5.121  0.3251 -0.1183  0.2820
 3348SOL    HW121503   4.609   0.114   5.071  1.6499  1.7351  0.1144
 3348SOL    HW221504   4.559   0.245   5.073 -3.3063  0.5393  0.3555
 3349SOL     OW21505   4.024   3.348   2.566 -0.1232  0.0200 -0.4402
 3349SOL    HW121506   3.976   3.415   2.518 -1.2665 -1.0753 -0.8293
 3349SOL    HW221507   3.943   3.319   2.608  0.9650  1.1582  2.4548
 3350SOL     OW21508   3.081   1.182   3.766  0.5180 -0.2571 -0.5394
 3350SOL    HW121509   3.000   1.130   3.764 -0.5854  1.4654 -0.6268
 3350SOL    HW221510   3.089   1.171   3.671 -0.7692  0.4809 -0.7397
 3351SOL     OW21511   1.026   3.891  12.387 -1.1758 -0.1253 -0.0548
 3351SOL    HW121512   0.937   3.857  12.377 -1.3954 -0.2941  2.2773
 3351SOL    HW221513   1.049   3.928  12.302  0.1677 -1.2596 -0.1758
 3352SOL     OW21514   0.964   1.832   1.375 -0.5985  0.3934  0.1828
 3352SOL    HW121515   0.950   1.775   1.300  0.7268 -1.6334  1.4747
 3352SOL    HW221516   0.981   1.915   1.331 -0.0984  0.8644  1.2651
 3353SOL     OW21517   0.816   2.797   2.950  0.3452  0.0583 -0.2184
 3353SOL    HW121518   0.770   2.879   2.931  1.4742  0.8280  0.3502
 3353SOL    HW221519   0.890   2.845   2.989  0.0284 -0.5436  1.1257
 3354SOL     OW21520   2.523   1.517   4.512  1.0380  0.5061  0.1990
 3354SOL    HW121521   2.496   1.457   4.442 -2.0649  0.4574  1.4695
 3354SOL    HW221522   2.439   1.537   4.552  0.8053  3.5095 -1.7939
 3355SOL     OW21523   0.997   0.659   1.326  0.3363 -0.1711 -0.3112
 3355SOL    HW121524   0.925   0.715   1.297 -0.3138 -0.8927 -0.0571
 3355SOL    HW221525   1.074   0.711   1.302  1.6839 -1.6952  0.7250
 3356SOL     OW21526   1.266   2.933   4.624 -0.0057 -0.3143  0.2599
 3356SOL    HW121527   1.207   3.000   4.591  1.2437  0.2865 -0.7859
 3356SOL    HW221528   1.203   2.867   4.653  0.6530 -0.3001  1.7227
 3357SOL     OW21529   4.221   1.967   1.948 -0.5466 -0.0213 -0.0841
 3357SOL    HW121530   4.152   2.007   2.001  1.5172  2.2208  0.9575
 3357SOL    HW221531   4.291   1.966   2.013 -0.0288  0.1390 -0.6371
 3358SOL     OW21532   0.251   3.393   3.429 -0.1863 -0.1571  0.1859
 3358SOL    HW121533   0.303   3.315   3.444 -1.2460 -0.7085  1.0232
 3358SOL    HW221534   0.175   3.366   3.481  0.9519 -1.4652  1.1753
 3359SOL     OW21535   2.986   2.533  16.333  0.5843 -0.7521 -0.0984
 3359SOL    HW121536   3.071   2.491  16.322  1.4793  1.5038 -1.8963
 3359SOL    HW221537   2.997   2.560  16.424 -1.0777 -0.8728  0.1358
 3360SOL     OW21538   2.600   0.676   1.351  0.3078 -0.4298  0.2445
 3360SOL    HW121539   2.669   0.700   1.413 -0.3416 -1.1239  1.2561
 3360SOL    HW221540   2.543   0.622   1.406  0.3446  0.1991  0.8947
 3361SOL     OW21541   2.109   0.362  12.071  0.2338  0.3605  0.0747
 3361SOL    HW121542   2.050   0.305  12.120  1.3642 -0.6364  0.2513
 3361SOL    HW221543   2.149   0.428  12.128  0.0389  2.8215 -2.6188
 3362SOL     OW21544   4.272   3.948   2.942 -0.1275 -0.3047 -0.2704
 3362SOL    HW121545   4.198   3.914   2.891 -0.9355  0.1935  0.5542
 3362SOL    HW221546   4.324   3.977   2.867 -2.2667 -1.3408 -2.1670
 3363SOL     OW21547   2.589   1.149   4.891  0.1032  0.4397  0.1104
 3363SOL    HW121548   2.540   1.171   4.970 -1.6978 -0.4836 -0.7525
 3363SOL    HW221549   2.551   1.061   4.892  1.4626 -0.1657 -1.4070
 3364SOL     OW21550   2.689   4.616  12.938 -0.3489  0.2243 -0.1048
 3364SOL    HW121551   2.674   4.614  12.843 -1.0224 -0.3473  0.0226
 3364SOL    HW221552   2.601   4.628  12.971  0.0008  3.3843 -0.2809
 3365SOL     OW21553   2.209   4.208   2.094 -0.2216  0.0951  0.3071
 3365SOL    HW121554   2.241   4.167   2.014 -3.2177  1.2140 -1.4409
 3365SOL    HW221555   2.276   4.173   2.154  0.4099  0.3426 -0.2572
 3366SOL     OW21556   3.650   2.011   1.665  0.3480 -0.7563  0.1491
 3366SOL    HW121557   3.726   2.031   1.719  0.3609  0.3721 -0.2929
 3366SOL    HW221558   3.582   2.041   1.726 -0.1534 -0.9100 -0.3286
 3367SOL     OW21559   2.183   3.953   4.725 -0.6759  0.2127 -0.2820
 3367SOL    HW121560   2.225   3.949   4.639 -0.2145  1.9812 -0.1449
 3367SOL    HW221561   2.096   3.915   4.712 -1.0590  1.2721 -0.7864
 3368SOL     OW21562   1.797   1.541   7.314  0.1839  0.2642 -0.0370
 3368SOL    HW121563   1.808   1.636   7.310  1.2981  0.0711 -1.3120
 3368SOL    HW221564   1.875   1.515   7.363 -0.2745 -1.6329 -0.3382
 3369SOL     OW21565   2.307   1.965   6.323  0.3072  0.0910 -0.4049
 3369SOL    HW121566   2.276   1.962   6.233  1.3223 -1.4071 -0.6975
 3369SOL    HW221567   2.386   1.910   6.320  0.4152  0.3361 -1.9263
 3370SOL     OW21568   1.895   4.259   7.685  0.2866 -0.2860  0.5314
 3370SOL    HW121569   1.968   4.312   7.651 -0.7455  0.6464 -0.2177
 3370SOL    HW221570   1.929   4.218   7.765  0.9226  0.6626  0.7547
 3371SOL     OW21571   0.147   2.491   0.652 -0.0332  0.1450 -0.0303
 3371SOL    HW121572   0.224   2.434   0.644  1.4623  2.1313  0.2823
 3371SOL    HW221573   0.162   2.552   0.580  2.6648  0.9814  1.2615
 3372SOL     OW21574   1.815   3.842   6.350 -0.2660 -0.4050  0.1994
 3372SOL    HW121575   1.767   3.860   6.269 -2.0491 -0.5945  1.2013
 3372SOL    HW221576   1.829   3.933   6.377 -0.6762 -0.5923  1.0396
 3373SOL     OW21577   2.393   3.445  13.239  0.3300 -0.2681 -0.1663
 3373SOL    HW121578   2.426   3.527  13.202 -0.4465  0.6254  1.1459
 3373SOL    HW221579   2.356   3.399  13.163  2.6220 -2.6399  0.1559
 3374SOL     OW21580   0.630   1.476  16.698 -0.3989 -0.0263  0.3970
 3374SOL    HW121581   0.560   1.477  16.632  0.0821  2.5275 -0.0696
 3374SOL    HW221582   0.571   1.454  16.770  0.9094 -1.4355  1.0360
 3375SOL     OW21583   4.087   2.454   2.963 -0.1671 -0.1053  0.1148
 3375SOL    HW121584   4.111   2.545   2.983  3.0096 -0.0698 -3.9478
 3375SOL    HW221585   4.097   2.425   3.054  0.3670 -0.0874  0.0612
 3376SOL     OW21586   2.101   1.240   8.290  0.2175 -0.1119  0.3073
 3376SOL    HW121587   2.006   1.242   8.295  0.2658  0.3215  1.0533
 3376SOL    HW221588   2.130   1.153   8.262 -1.1217  0.1846 -2.0648
 3377SOL     OW21589   1.545   4.013   4.093 -0.0545  0.1514 -0.3457
 3377SOL    HW121590   1.487   3.938   4.085  0.5395 -0.2437 -1.0216
 3377SOL    HW221591   1.561   4.034   4.001 -1.1667 -0.3339 -0.6415
 3378SOL     OW21592   1.806   4.317   2.919 -0.2960 -0.4179  0.7399
 3378SOL    HW121593   1.823   4.407   2.944 -1.5531  0.4330 -1.4603
 3378SOL    HW221594   1.737   4.337   2.855 -0.0823  0.2968  0.7365
 3379SOL     OW21595   0.128   1.492   2.747 -0.1399 -0.2110 -0.2844
 3379SOL    HW121596   0.164   1.537   2.670  2.1838 -0.9010  0.3936
 3379SOL    HW221597   0.080   1.563   2.791 -1.4295 -1.4999  0.3669
 3380SOL     OW21598   1.508   3.833   7.241  0.7638 -0.0727  0.0335
 3380SOL    HW121599   1.507   3.780   7.321 -0.3596  0.1076  0.1387
 3380SOL    HW221600   1.464   3.914   7.266  0.8122  0.4812 -1.6236
 3381SOL     OW21601   0.565   2.709   2.795  0.8154 -0.2423  0.4636
 3381SOL    HW121602   0.632   2.777   2.783 -0.7794  0.6512 -3.3741
 3381SOL    HW221603   0.604   2.641   2.850 -0.9662 -1.1800  0.5605
 3382SOL     OW21604   4.572   1.083  10.801  0.1368 -0.1555 -0.2646
 3382SOL    HW121605   4.634   1.139  10.848 -0.2374 -0.1238  0.1841
 3382SOL    HW221606   4.551   1.131  10.720  1.0321  0.1921 -0.3003
 3383SOL     OW21607   3.543   1.169   3.611  0.2384 -0.5456 -0.1751
 3383SOL    HW121608   3.606   1.239   3.628 -1.0820  0.7235 -0.4455
 3383SOL    HW221609   3.605   1.097   3.599  0.1150 -0.8379  0.9436
 3384SOL     OW21610   0.527   3.328   6.279 -0.4732 -0.0643  0.4842
 3384SOL    HW121611   0.524   3.400   6.341  0.8330 -0.4438  0.9809
 3384SOL    HW221612   0.556   3.365   6.196  0.3546  1.4974  1.4675
 3385SOL     OW21613   4.322   4.146   2.353  0.7664  0.0269 -0.7413
 3385SOL    HW121614   4.359   4.214   2.411  0.7705  0.4319 -1.2185
 3385SOL    HW221615   4.376   4.168   2.277 -0.1972 -1.3802 -1.8284
 3386SOL     OW21616   0.254   0.555   0.463  0.1763  0.4940 -0.3060
 3386SOL    HW121617   0.236   0.597   0.379  3.5942 -0.6915 -1.6556
 3386SOL    HW221618   0.322   0.489   0.451  0.7539  1.2119 -0.9532
 3387SOL     OW21619   1.730   3.173   4.943 -0.0542 -0.9306 -0.0120
 3387SOL    HW121620   1.650   3.190   4.894 -0.2303 -1.4820  0.0814
 3387SOL    HW221621   1.736   3.261   4.981  1.5961 -2.5561  3.4810
 3388SOL     OW21622   4.059   1.069  11.384  0.0471  0.3844 -0.0128
 3388SOL    HW121623   4.033   1.004  11.320 -1.2683 -0.1507  1.0738
 3388SOL    HW221624   4.151   1.080  11.361 -0.7359  1.3185 -2.6375
 3389SOL     OW21625   1.622   4.717   3.588 -0.1485  0.2383  0.2814
 3389SOL    HW121626   1.618   4.684   3.678 -0.2294 -2.1045 -0.5737
 3389SOL    HW221627   1.716   0.010   3.578  0.1160  0.3232  2.9886
 3390SOL     OW21628   1.351   2.830   5.841  0.1787 -0.4822  0.7149
 3390SOL    HW121629   1.430   2.799   5.884  0.1753 -1.1449  0.2329
 3390SOL    HW221630   1.375   2.918   5.811 -0.6580 -0.4937  0.0070
 3391SOL     OW21631   3.041   2.708   4.757 -0.0624 -0.9705 -0.2880
 3391SOL    HW121632   2.975   2.645   4.785  2.5361 -4.0914 -1.2234
 3391SOL    HW221633   3.097   2.650   4.705  0.1655 -1.6293  0.7060
 3392SOL     OW21634   1.496   4.649   6.164  0.1714  0.5620 -0.0293
 3392SOL    HW121635   1.504   4.621   6.255  1.4159  0.4248 -0.1798
 3392SOL    HW221636   1.584   4.681   6.145  0.4746 -0.0473  0.3773
 3393SOL     OW21637   4.349   1.930   4.199 -0.0459 -0.1285 -0.4062
 3393SOL    HW121638   4.363   1.891   4.285  1.4896 -0.8763 -1.0057
 3393SOL    HW221639   4.312   1.851   4.158 -2.3342  0.2738  0.8693
 3394SOL     OW21640   4.712   1.721   2.871 -0.3239  0.0920  0.3164
 3394SOL    HW121641   4.686   1.713   2.963 -5.4266 -0.7942 -1.1686
 3394SOL    HW221642   4.629   1.760   2.842  0.5115  1.2223 -0.5563
 3395SOL     OW21643   1.770   2.883  17.361  0.0767  0.0938  0.0442
 3395SOL    HW121644   1.685   2.871  17.318 -0.9232 -1.9812  2.5778
 3395SOL    HW221645   1.738   2.918  17.444 -0.7022 -0.5666  0.0242
 3396SOL     OW21646   0.782   2.767   4.945 -0.3356  0.1366  0.0627
 3396SOL    HW121647   0.700   2.764   4.995 -0.6737  0.6553 -0.4581
 3396SOL    HW221648   0.752   2.776   4.855  0.1229  2.5876  0.1556
 3397SOL     OW21649   3.371   0.685   9.080 -0.1691  0.1354 -0.0642
 3397SOL    HW121650   3.346   0.593   9.078  1.3506 -0.2737 -0.1000
 3397SOL    HW221651   3.433   0.702   9.009  0.7674  1.0281  0.9846
 3398SOL     OW21652   1.799   0.840  12.842 -0.0286 -0.4070 -0.5879
 3398SOL    HW121653   1.840   0.828  12.928 -1.0450  0.1807 -0.0255
 3398SOL    HW221654   1.823   0.932  12.832  2.2487 -0.8067  1.1560
 3399SOL     OW21655   3.259   3.510  10.819 -0.0951  0.5594  0.0599
 3399SOL    HW121656   3.302   3.453  10.755 -2.7118  0.6533 -1.7771
 3399SOL    HW221657   3.231   3.577  10.757 -1.2937  2.6321  2.8633
 3400SOL     OW21658   4.254   0.938   2.405 -0.1566  0.3864  0.5338
 3400SOL    HW121659   4.324   1.003   2.418 -1.5444  1.4614  2.5862
 3400SOL    HW221660   4.181   0.999   2.414 -0.1970  0.5617 -1.0737
 3401SOL     OW21661   2.047   2.801   6.110  0.0515 -0.8082 -0.3739
 3401SOL    HW121662   2.067   2.834   6.197  0.5852 -0.8999 -0.4621
 3401SOL    HW221663   2.042   2.708   6.134  0.7454 -0.4385  1.2006
 3402SOL     OW21664   4.175   2.482   5.940  0.3005 -0.0193 -0.0406
 3402SOL    HW121665   4.158   2.404   5.887  2.1273  0.1786 -0.9206
 3402SOL    HW221666   4.143   2.440   6.020  2.1405 -0.1661  0.6056
 3403SOL     OW21667   1.010   1.071   1.506 -0.1548 -0.1624  0.0575
 3403SOL    HW121668   0.925   1.074   1.461  0.1405 -1.2833 -0.5927
 3403SOL    HW221669   1.059   1.052   1.426  1.8505  2.4861  0.6835
 3404SOL     OW21670   3.811   2.896  11.796  0.5435  0.0657 -0.2390
 3404SOL    HW121671   3.784   2.891  11.888 -0.4140 -0.4073 -0.5457
 3404SOL    HW221672   3.885   2.955  11.783  1.6262 -1.3593 -0.5178
 3405SOL     OW21673   2.808   3.407  10.119  0.1780  0.1057  0.1156
 3405SOL    HW121674   2.817   3.314  10.100 -1.6026  0.0732 -0.5383
 3405SOL    HW221675   2.715   3.395  10.137 -0.2373  1.5385 -1.1152
 3406SOL     OW21676   1.865   2.663  12.419  0.3752  0.5878 -0.0461
 3406SOL    HW121677   1.783   2.682  12.372 -0.8215 -2.0749  0.9627
 3406SOL    HW221678   1.912   2.619  12.348 -0.4805  0.1678 -0.3657
 3407SOL     OW21679   2.543   1.378  10.665  0.4029 -0.0186 -0.4543
 3407SOL    HW121680   2.569   1.393  10.574  0.8725  3.0196  0.1883
 3407SOL    HW221681   2.487   1.301  10.664 -1.1391  1.1014  0.9386
 3408SOL     OW21682   1.595   4.101   4.566  0.2674  0.0501  0.0475
 3408SOL    HW121683   1.688   4.122   4.562 -0.0164  1.2985  0.1237
 3408SOL    HW221684   1.568   4.089   4.475  2.3454 -1.9931 -0.2946
 3409SOL     OW21685   1.347   0.018  12.494 -0.1998 -0.2812 -0.1373
 3409SOL    HW121686   1.284   0.088  12.477  0.7994  0.9661  1.3139
 3409SOL    HW221687   1.387   0.048  12.575  0.2068 -2.8842  0.6488
 3410SOL     OW21688   0.916   0.645   1.591 -0.5380  0.8401  0.4117
 3410SOL    HW121689   0.936   0.649   1.497  0.4636 -1.0470  0.5449
 3410SOL    HW221690   1.004   0.634   1.627 -0.3818 -2.6392 -1.0626
 3411SOL     OW21691   1.383   0.591  14.807 -0.2221 -0.3341  0.5663
 3411SOL    HW121692   1.369   0.681  14.779  0.4623 -0.6321 -0.7239
 3411SOL    HW221693   1.464   0.578  14.758 -0.2625  1.5215  0.0180
 3412SOL     OW21694   2.830   2.231  12.709 -0.3358 -0.2096 -1.2116
 3412SOL    HW121695   2.758   2.187  12.755  0.5689  0.6813  1.0610
 3412SOL    HW221696   2.846   2.177  12.631 -1.8429 -0.6486 -1.2104
 3413SOL     OW21697   0.947   4.455  10.990 -0.4310 -0.7991 -0.4500
 3413SOL    HW121698   0.899   4.535  10.972 -0.2534 -0.3016  1.2635
 3413SOL    HW221699   0.978   4.477  11.079 -2.6421  2.2094 -0.4543
 3414SOL     OW21700   1.280   1.792   2.838 -0.1482 -0.3316 -0.4017
 3414SOL    HW121701   1.212   1.828   2.895  1.3829  0.5290  0.8756
 3414SOL    HW221702   1.306   1.727   2.904  0.5062 -0.5989 -0.9273
 3415SOL     OW21703   2.134   3.838   7.571  0.1297 -0.0404  0.1265
 3415SOL    HW121704   2.152   3.928   7.547 -0.6946  0.3029  0.8208
 3415SOL    HW221705   2.043   3.838   7.544  0.5886 -0.0654 -1.4524
 3416SOL     OW21706   0.261   4.577   8.567 -0.3802  0.1292  0.6414
 3416SOL    HW121707   0.353   4.551   8.565 -0.6038 -0.5477 -0.7642
 3416SOL    HW221708   0.246   4.603   8.658  0.4132  1.6705  0.3420
 3417SOL     OW21709   2.532   3.238  11.745 -0.1100 -0.7630 -0.1043
 3417SOL    HW121710   2.558   3.146  11.753 -0.8570 -1.1400 -1.9703
 3417SOL    HW221711   2.619   3.266  11.716  0.3181  0.1785  2.0437
 3418SOL     OW21712   0.128   0.339   8.058 -0.3930 -0.3727 -0.2036
 3418SOL    HW121713   0.102   0.282   8.131 -0.0153  0.2726  0.4363
 3418SOL    HW221714   0.038   0.366   8.037 -0.9476 -1.2492  1.0628
 3419SOL     OW21715   4.602   3.175  16.518 -0.1012 -0.0140 -0.4451
 3419SOL    HW121716   4.516   3.134  16.521 -0.8156  1.6146  0.8005
 3419SOL    HW221717   4.616   3.199  16.609  1.6438 -1.6480 -0.2788
 3420SOL     OW21718   1.600   2.576   2.879 -0.0728 -0.3388  0.2458
 3420SOL    HW121719   1.568   2.486   2.877  1.3517 -0.8383  0.1405
 3420SOL    HW221720   1.694   2.562   2.891  0.1567  0.1233 -1.0273
 3421SOL     OW21721   1.729   3.137  11.965 -0.5277  0.9752  0.0593
 3421SOL    HW121722   1.679   3.152  11.885  1.5259 -1.6277 -1.7079
 3421SOL    HW221723   1.790   3.211  11.962 -1.2051  1.5190 -0.3241
 3422SOL     OW21724   1.409   0.129  15.790  0.2619  0.4941 -0.2835
 3422SOL    HW121725   1.448   0.054  15.746  0.6175  1.1540 -1.0878
 3422SOL    HW221726   1.406   0.092  15.879 -1.7938 -0.3346 -0.7183
 3423SOL     OW21727   1.759   3.020   8.406 -0.1742  0.0167 -0.8060
 3423SOL    HW121728   1.666   2.998   8.409  0.2460 -1.8677 -1.6369
 3423SOL    HW221729   1.789   2.968   8.481 -1.8276  1.3873  0.7774
 3424SOL     OW21730   1.259   2.982   2.384  0.3070 -0.4173  0.0213
 3424SOL    HW121731   1.305   3.037   2.320  2.1102  0.3000  1.9282
 3424SOL    HW221732   1.220   3.050   2.440  0.6126  0.3897 -0.7458
 3425SOL     OW21733   3.462   2.990   4.622 -0.2361  0.3732 -0.4074
 3425SOL    HW121734   3.449   3.001   4.716 -2.2314  1.3025 -0.7848
 3425SOL    HW221735   3.463   3.083   4.600 -1.2414  0.5723  0.4156
 3426SOL     OW21736   2.782   0.171  17.267  0.2115 -0.1868 -0.1748
 3426SOL    HW121737   2.843   0.240  17.240 -0.7856  0.3673 -1.0423
 3426SOL    HW221738   2.710   0.184  17.205  1.1401  0.3064 -1.1498
 3427SOL     OW21739   3.137   4.282   3.689 -0.5917 -0.4044 -0.1181
 3427SOL    HW121740   3.229   4.298   3.665  0.1265 -2.2906  1.3966
 3427SOL    HW221741   3.125   4.200   3.642  0.3458 -0.0338 -1.0011
 3428SOL     OW21742   0.794   1.586   3.416  0.4247  0.1712  0.7062
 3428SOL    HW121743   0.709   1.626   3.433 -0.5148 -1.1447 -0.8323
 3428SOL    HW221744   0.821   1.660   3.363 -1.3742  0.2203 -0.1328
 3429SOL     OW21745   2.294   4.628   7.904  0.2213  0.0488  0.0713
 3429SOL    HW121746   2.329   4.539   7.894 -0.2898 -0.3255  1.6228
 3429SOL    HW221747   2.236   4.633   7.827 -3.8950 -0.6833  3.1347
 3430SOL     OW21748   0.982   3.455   1.407 -0.3292  0.2589  0.3749
 3430SOL    HW121749   0.959   3.498   1.324  1.3001 -0.5262 -0.4877
 3430SOL    HW221750   0.919   3.383   1.416 -0.5589  0.8697  3.5833
 3431SOL     OW21751   3.974   1.006  15.107  0.0959 -0.0762  0.0435
 3431SOL    HW121752   4.047   0.970  15.158 -0.4349 -1.1448  0.0498
 3431SOL    HW221753   3.956   0.936  15.044 -0.5368 -2.4482  2.8873
 3432SOL     OW21754   0.287   0.795   0.599 -0.0184  0.2180  0.1603
 3432SOL    HW121755   0.268   0.704   0.574 -1.1474  1.2967 -2.8084
 3432SOL    HW221756   0.274   0.837   0.514 -1.9533 -1.5422 -0.4091
 3433SOL     OW21757   4.111   3.099   5.875 -0.0559 -0.1339  0.2471
 3433SOL    HW121758   4.021   3.093   5.841  1.1695 -0.5934 -2.9121
 3433SOL    HW221759   4.161   3.123   5.796 -0.8231 -0.5830 -0.3738
 3434SOL     OW21760   2.254   1.895  12.562 -0.2418  0.6888  0.3463
 3434SOL    HW121761   2.265   1.970  12.620 -1.2797  0.9880  0.1480
 3434SOL    HW221762   2.326   1.917  12.502  0.7215  0.7039  1.5099
 3435SOL     OW21763   1.623   4.443   3.208 -0.0648 -0.7973  0.2543
 3435SOL    HW121764   1.560   4.386   3.164  0.3140 -2.0618  1.3535
 3435SOL    HW221765   1.674   4.478   3.135 -2.3595 -2.3173 -2.0714
 3436SOL     OW21766   0.594   0.048   4.715 -0.1821  0.3797 -0.0938
 3436SOL    HW121767   0.592   0.065   4.809 -0.0300 -2.1422  0.3760
 3436SOL    HW221768   0.650   4.691   4.714 -0.4878  0.1469  0.8852
 3437SOL     OW21769   4.246   3.897   5.894 -0.0965 -0.1160 -0.0420
 3437SOL    HW121770   4.223   3.838   5.821 -0.5968  1.0107 -0.7888
 3437SOL    HW221771   4.339   3.907   5.873  0.5099 -1.4762  1.9636
 3438SOL     OW21772   0.955   1.301  17.224  0.1508 -0.0462  0.3598
 3438SOL    HW121773   0.914   1.216  17.236  0.9397 -0.5670 -0.5568
 3438SOL    HW221774   0.995   1.288  17.138 -1.5624  1.8100 -0.7075
 3439SOL     OW21775   0.556   4.011   6.397 -0.2270  0.3646  0.1288
 3439SOL    HW121776   0.489   4.044   6.336  0.7116 -0.0366 -1.1225
 3439SOL    HW221777   0.636   4.031   6.350  0.7250 -2.2432  0.6191
 3440SOL     OW21778   2.193   4.518   3.999  1.0210 -0.1789  0.3731
 3440SOL    HW121779   2.185   4.423   4.005 -1.6461  0.2539  3.5982
 3440SOL    HW221780   2.165   4.531   3.909 -1.7091 -1.8343  0.9742
 3441SOL     OW21781   0.009   4.309   1.999 -0.0842 -0.2757 -0.1423
 3441SOL    HW121782   0.035   4.388   2.045  1.2483  1.4334 -3.8307
 3441SOL    HW221783   0.089   4.267   1.968  0.4543  0.6903 -0.0370
 3442SOL     OW21784   0.985   1.200   6.498 -0.2172 -0.0508 -0.4314
 3442SOL    HW121785   0.939   1.117   6.512  0.8076 -0.6907 -0.8298
 3442SOL    HW221786   0.921   1.258   6.538  1.1430  0.8259  0.4339
 3443SOL     OW21787   0.326   0.150   9.460  0.0734 -0.1914 -0.2269
 3443SOL    HW121788   0.356   0.079   9.404 -0.5734  1.1848 -2.3030
 3443SOL    HW221789   0.270   0.206   9.406  0.0591 -0.1578 -0.1779
 3444SOL     OW21790   4.286   2.901   7.406 -0.2674 -0.1375 -0.0503
 3444SOL    HW121791   4.334   2.901   7.489  0.7423 -1.2860 -0.6322
 3444SOL    HW221792   4.289   2.995   7.392 -2.0997  0.1778  1.6761
 3445SOL     OW21793   0.868   2.362  17.048 -0.0242  0.0061  0.2130
 3445SOL    HW121794   0.844   2.271  17.027  0.2826  0.0294 -0.2398
 3445SOL    HW221795   0.886   2.397  16.961  0.0459  0.0529  0.2458
 3446SOL     OW21796   1.387   1.307   6.117 -0.8154  0.1761  0.0873
 3446SOL    HW121797   1.397   1.359   6.197  0.7400 -0.4146  0.2733
 3446SOL    HW221798   1.292   1.295   6.117 -0.6699 -0.9045 -1.6093
 3447SOL     OW21799   0.615   4.657  17.447  0.0939  0.3953 -0.7608
 3447SOL    HW121800   0.700   4.697  17.467  0.4412 -1.8685  2.1077
 3447SOL    HW221801   0.570   4.715  17.385 -2.1397 -1.3897 -0.7941
 3448SOL     OW21802   4.042   0.096   0.585  0.0083  0.0871  0.4956
 3448SOL    HW121803   4.019   0.188   0.600 -2.0839 -0.4039  0.2774
 3448SOL    HW221804   3.998   0.051   0.656  2.2244  1.0119  2.4716
 3449SOL     OW21805   2.039   4.248   2.521  0.4265 -0.3563 -0.0259
 3449SOL    HW121806   1.978   4.225   2.591  0.7538 -0.3434  0.2678
 3449SOL    HW221807   2.117   4.279   2.567 -0.7410  1.4057  0.7809
 3450SOL     OW21808   2.613   0.442   3.379  0.5587 -0.3788  0.0909
 3450SOL    HW121809   2.575   0.425   3.292  1.7587  0.9274 -0.6834
 3450SOL    HW221810   2.556   0.512   3.410 -0.8768 -1.4536 -0.1125
 3451SOL     OW21811   0.705   3.296   3.059  0.7891 -0.2579  0.2379
 3451SOL    HW121812   0.637   3.357   3.088  1.5842 -0.0426  1.6381
 3451SOL    HW221813   0.670   3.212   3.090  1.2638 -0.4995  0.1225
 3452SOL     OW21814   1.517   4.226   8.010  0.0979  0.8142 -0.2938
 3452SOL    HW121815   1.450   4.169   8.049  0.9195 -0.5545 -0.8834
 3452SOL    HW221816   1.574   4.246   8.084  0.4750 -0.4540 -0.2305
 3453SOL     OW21817   0.938   1.659  15.784 -0.2789 -0.1384 -0.6099
 3453SOL    HW121818   1.025   1.624  15.764  0.2618  1.3365 -0.7981
 3453SOL    HW221819   0.960   1.677  15.875  1.1752  2.0810 -1.4033
 3454SOL     OW21820   0.774   0.970   9.731 -0.2504 -0.5184  0.2399
 3454SOL    HW121821   0.845   0.921   9.690  1.5248  0.5085  2.1178
 3454SOL    HW221822   0.740   1.012   9.651 -0.7298  0.5466  0.9973
 3455SOL     OW21823   3.469   4.170  17.466 -0.5059  0.2650  0.2882
 3455SOL    HW121824   3.477   4.265  17.464  0.9627  0.1151 -1.1067
 3455SOL    HW221825   3.476   4.147  17.374 -0.2691  0.7762  0.1811
 3456SOL     OW21826   2.619   1.487  14.401  0.2970 -0.7826  0.0324
 3456SOL    HW121827   2.634   1.411  14.345 -3.3929  0.1618 -2.2822
 3456SOL    HW221828   2.596   1.558  14.340  0.6120  0.1974  1.0586
 3457SOL     OW21829   2.979   1.823  11.800 -0.5321 -0.1129 -0.0464
 3457SOL    HW121830   2.934   1.757  11.746  0.1455 -2.8565  2.7212
 3457SOL    HW221831   3.060   1.772  11.807 -0.1296  0.4113 -0.9314
 3458SOL     OW21832   0.082   1.610   2.194 -0.3408 -0.0792 -0.0321
 3458SOL    HW121833   0.109   1.586   2.282 -2.5820 -0.2283  0.6318
 3458SOL    HW221834   0.166   1.630   2.153 -0.1270 -0.6551  0.1232
 3459SOL     OW21835   2.258   1.747  11.831 -0.0466 -0.5719  0.3969
 3459SOL    HW121836   2.192   1.761  11.899 -0.4136  1.1415 -0.3020
 3459SOL    HW221837   2.202   1.726  11.757 -1.7597 -0.5222  1.6696
 3460SOL     OW21838   1.367   1.332   7.002  0.3539 -0.2054  0.0464
 3460SOL    HW121839   1.457   1.316   7.030  0.3071 -0.7479 -0.1144
 3460SOL    HW221840   1.318   1.332   7.084 -0.7324 -0.9205 -0.6147
 3461SOL     OW21841   2.563   3.771   5.476 -0.2490 -0.0522 -0.5025
 3461SOL    HW121842   2.550   3.822   5.395 -0.0014 -1.6634 -1.5614
 3461SOL    HW221843   2.642   3.811   5.512 -0.0209 -0.0826 -0.9663
 3462SOL     OW21844   0.999   0.393   3.522  0.0271  0.1659  0.1634
 3462SOL    HW121845   0.973   0.409   3.431  0.4290  1.6035  0.3028
 3462SOL    HW221846   1.057   0.468   3.534 -0.8278  0.5995  1.4616
 3463SOL     OW21847   0.903   4.034  12.594 -0.2986 -0.1020 -0.3078
 3463SOL    HW121848   0.884   3.958  12.650  1.7865  0.5369  1.2832
 3463SOL    HW221849   0.951   4.002  12.517  0.1170  0.7179 -0.3827
 3464SOL     OW21850   1.688   0.080  15.634  0.5747  0.3066 -0.1526
 3464SOL    HW121851   1.736   0.041  15.706 -2.0754 -2.5205  0.0855
 3464SOL    HW221852   1.602   0.039  15.638  0.2426  0.9527 -0.6457
 3465SOL     OW21853   2.872   1.938   4.219  0.5408  0.2362 -0.0039
 3465SOL    HW121854   2.819   1.867   4.181  0.0763  0.6835 -0.2072
 3465SOL    HW221855   2.940   1.885   4.259  0.5064  0.0665 -0.1708
 3466SOL     OW21856   0.475   0.782   7.587 -0.0912 -0.5736  0.3879
 3466SOL    HW121857   0.490   0.845   7.657 -0.4178  0.8360 -0.8223
 3466SOL    HW221858   0.439   0.706   7.633 -2.1556  0.2962  0.1985
 3467SOL     OW21859   2.678   2.013  15.183 -0.3003  0.3210  0.2816
 3467SOL    HW121860   2.615   2.040  15.116 -2.0021  0.4104  1.9058
 3467SOL    HW221861   2.643   1.929  15.211  0.3630 -0.3852 -1.0297
 3468SOL     OW21862   2.209   1.441   0.335  0.0883  0.2693  0.4105
 3468SOL    HW121863   2.230   1.501   0.264 -0.7306 -1.2947 -1.1617
 3468SOL    HW221864   2.293   1.428   0.379  0.0159 -3.5262 -0.6076
 3469SOL     OW21865   4.065   1.027  11.846  0.3029  0.1609 -0.1700
 3469SOL    HW121866   3.990   1.039  11.788  1.4773 -2.3118 -2.1918
 3469SOL    HW221867   4.130   1.029  11.776 -2.4338 -1.2502 -2.7662
 3470SOL     OW21868   3.969   3.476  16.147  0.2983 -0.1131  0.2468
 3470SOL    HW121869   4.010   3.469  16.060 -1.7779  1.0451 -0.8168
 3470SOL    HW221870   4.033   3.431  16.201 -2.0207 -0.4346  2.7205
 3471SOL     OW21871   4.286   3.383   4.349  0.0956 -0.1868 -0.4693
 3471SOL    HW121872   4.208   3.354   4.395  0.5983 -1.1380 -0.2036
 3471SOL    HW221873   4.295   3.305   4.293  0.8408  0.1377 -0.8044
 3472SOL     OW21874   3.468   2.646  17.613 -0.4672 -0.9175 -0.0875
 3472SOL    HW121875   3.409   2.686  17.549  0.6324 -1.9270 -1.7584
 3472SOL    HW221876   3.424   2.563  17.630 -0.5533 -0.8245  0.1369
 3473SOL     OW21877   1.819   1.814   7.348  0.6532  0.0382 -0.1649
 3473SOL    HW121878   1.801   1.896   7.301  1.2097  0.4642  0.3686
 3473SOL    HW221879   1.905   1.838   7.381 -0.8572 -0.1487  3.8769
 3474SOL     OW21880   1.833   3.375  11.902  0.3682  0.6655 -0.5858
 3474SOL    HW121881   1.782   3.405  11.977 -0.0362 -0.5667 -0.3799
 3474SOL    HW221882   1.920   3.410  11.922  1.0592 -0.2894 -1.9163
 3475SOL     OW21883   0.399   0.487   3.184  0.0630 -0.4582  0.1098
 3475SOL    HW121884   0.315   0.532   3.177  1.2145  1.7959  0.6136
 3475SOL    HW221885   0.454   0.559   3.213 -1.6487  0.5876  0.7790
 3476SOL     OW21886   0.532   0.886   1.517 -0.3957  0.1223 -0.1572
 3476SOL    HW121887   0.527   0.912   1.609 -0.0351  0.1148 -0.1387
 3476SOL    HW221888   0.484   0.803   1.523 -0.8738  0.4808  0.9699
 3477SOL     OW21889   2.539   2.786   5.021 -0.2798  0.2191 -0.1158
 3477SOL    HW121890   2.504   2.857   5.074 -1.8373 -1.0494  0.5525
 3477SOL    HW221891   2.458   2.773   4.971 -2.0169  1.1494  2.4522
 3478SOL     OW21892   0.544   1.148   2.009  0.3862 -0.1114  0.2489
 3478SOL    HW121893   0.616   1.133   2.071  0.1229 -1.5370  0.2103
 3478SOL    HW221894   0.472   1.109   2.058 -0.0115  2.3005  1.6139
 3479SOL     OW21895   0.080   0.039   3.022 -0.1983  0.7357  0.2303
 3479SOL    HW121896   0.161   0.089   3.033 -0.1688  0.5843  0.6886
 3479SOL    HW221897   0.118   4.681   2.982  3.6384  1.6446  2.1177
 3480SOL     OW21898   3.517   3.783  16.381 -0.2179  0.2612 -0.0970
 3480SOL    HW121899   3.447   3.747  16.435  1.4999  0.5540  2.3306
 3480SOL    HW221900   3.551   3.857  16.431  0.2071 -1.0643  1.5876
 3481SOL     OW21901   2.393   0.493   4.827 -0.2259  0.3232  0.2507
 3481SOL    HW121902   2.317   0.531   4.871  0.5845  1.8883  0.2909
 3481SOL    HW221903   2.452   0.560   4.862  0.5922 -0.8514  1.1443
 3482SOL     OW21904   0.884   1.816   2.304  0.3926  0.1849  0.1227
 3482SOL    HW121905   0.975   1.846   2.311  0.5792 -0.6176  1.1362
 3482SOL    HW221906   0.849   1.893   2.259 -0.1166 -0.7951 -1.1833
 3483SOL     OW21907   1.929   3.863   7.034 -0.4762  0.0818 -0.0885
 3483SOL    HW121908   2.021   3.886   7.042 -0.5901  0.2308  0.8067
 3483SOL    HW221909   1.918   3.769   7.045 -0.2060  0.2156  1.3715
 3484SOL     OW21910   2.925   3.072   7.189  0.1000  0.1332 -0.1968
 3484SOL    HW121911   2.844   3.120   7.174  0.7862  1.1501 -0.6133
 3484SOL    HW221912   2.890   2.988   7.220  1.4183 -0.4788 -0.3466
 3485SOL     OW21913   3.690   1.142   4.981  0.0215  0.8103 -0.2778
 3485SOL    HW121914   3.699   1.119   4.888 -0.0006 -0.3499  0.0104
 3485SOL    HW221915   3.683   1.237   4.974  1.2850  1.0371  1.7961
 3486SOL     OW21916   3.258   0.140  16.638 -0.5537  0.2578 -0.2131
 3486SOL    HW121917   3.179   0.116  16.686  0.0058  1.1656  1.1603
 3486SOL    HW221918   3.311   0.061  16.634  0.3625  0.8646 -0.1690
 3487SOL     OW21919   0.077   1.365   1.365  0.7766  0.3247 -0.2432
 3487SOL    HW121920   0.128   1.416   1.303  0.7923  1.2637  0.5375
 3487SOL    HW221921   0.015   1.433   1.392 -1.3219 -0.5224 -2.9148
 3488SOL     OW21922   4.089   1.974   5.565 -0.0553  0.4006 -0.6677
 3488SOL    HW121923   4.183   1.965   5.577 -0.3765 -0.7118  1.0029
 3488SOL    HW221924   4.065   2.065   5.586  0.6434  0.6914 -1.1211
 3489SOL     OW21925   2.644   0.563  11.048  0.5670  0.1388  0.0578
 3489SOL    HW121926   2.687   0.624  10.988 -2.3324  0.3913 -1.7616
 3489SOL    HW221927   2.572   0.616  11.081  1.4955  0.3461  1.7738
 3490SOL     OW21928   3.754   0.748  11.254  0.6748 -0.3502  0.1693
 3490SOL    HW121929   3.819   0.818  11.265  0.3487  0.2960 -2.1912
 3490SOL    HW221930   3.799   0.667  11.279 -2.1139 -1.9961 -0.1334
 3491SOL     OW21931   2.681   4.648   0.250  0.5274 -0.1478 -0.2534
 3491SOL    HW121932   2.671   0.010   0.204 -0.9620 -0.1662  0.0466
 3491SOL    HW221933   2.776   4.638   0.260  0.3342  0.3101  2.1525
 3492SOL     OW21934   4.120   2.269   5.789 -0.4457 -0.0001  0.0295
 3492SOL    HW121935   4.149   2.180   5.808  2.9721  1.2255  0.6843
 3492SOL    HW221936   4.188   2.293   5.725 -1.8828  0.6435 -1.2482
 3493SOL     OW21937   3.019   3.336  11.312  0.4783  0.9574 -0.5160
 3493SOL    HW121938   2.930   3.306  11.327  0.9345  0.7341  1.7000
 3493SOL    HW221939   3.062   3.271  11.368  1.6116  1.3656 -0.9041
 3494SOL     OW21940   4.532   4.268   9.079  0.5101 -0.0408 -0.6378
 3494SOL    HW121941   4.494   4.246   8.994  0.8180  1.1737 -1.0843
 3494SOL    HW221942   4.458   4.312   9.121 -0.1789 -1.3239 -0.4932
 3495SOL     OW21943   2.238   2.486   9.306 -0.7923  0.1336 -0.0272
 3495SOL    HW121944   2.185   2.415   9.269  1.0929 -0.0449 -2.3426
 3495SOL    HW221945   2.300   2.511   9.237 -1.0138 -2.5540 -1.1909
 3496SOL     OW21946   3.427   3.003   3.010 -0.0039 -0.0871 -0.4386
 3496SOL    HW121947   3.502   2.959   2.970  1.4073 -0.4371  2.6541
 3496SOL    HW221948   3.441   2.979   3.101  0.7182  0.3082 -0.4415
 3497SOL     OW21949   1.631   3.286   5.921 -0.2334 -0.5454  0.5054
 3497SOL    HW121950   1.711   3.260   5.875  1.2503  0.8288  2.2822
 3497SOL    HW221951   1.596   3.363   5.876 -0.0825  0.5571  2.2554
 3498SOL     OW21952   4.411   4.065   2.694 -0.3836 -0.5121  0.8330
 3498SOL    HW121953   4.324   4.043   2.661  0.2227  0.0801 -1.1899
 3498SOL    HW221954   4.465   4.008   2.639 -2.3944  0.4317 -2.1259
 3499SOL     OW21955   0.417   1.876  11.515  0.0202 -0.2873 -0.1791
 3499SOL    HW121956   0.445   1.874  11.607  0.2750  1.1265 -0.2203
 3499SOL    HW221957   0.429   1.968  11.492 -0.2936 -0.4092 -0.8335
 3500SOL     OW21958   0.520   3.269   7.020  0.5987  0.0509  0.0102
 3500SOL    HW121959   0.582   3.211   6.976 -0.4334 -0.3963 -0.8464
 3500SOL    HW221960   0.447   3.213   7.045 -0.3268  0.5044 -1.6957
 3501SOL     OW21961   0.339   1.054   7.467  0.2459 -0.4718 -0.1629
 3501SOL    HW121962   0.433   1.074   7.463  0.4617 -1.1770  1.7329
 3501SOL    HW221963   0.310   1.060   7.376 -1.2018  0.2210  0.3403
 3502SOL     OW21964   2.609   3.394   9.626  0.1436 -0.3175 -0.5581
 3502SOL    HW121965   2.678   3.327   9.623 -0.4010 -0.9476  1.2162
 3502SOL    HW221966   2.635   3.448   9.551  0.2637  0.1809 -0.1519
 3503SOL     OW21967   1.148   0.121   8.056 -0.2189  0.5924  0.2224
 3503SOL    HW121968   1.134   0.029   8.080  0.5272  0.9592  2.0465
 3503SOL    HW221969   1.068   0.155   8.094  0.3809 -0.7699  2.7370
 3504SOL     OW21970   2.540   0.685   6.794  0.0399 -0.3099 -0.0083
 3504SOL    HW121971   2.464   0.630   6.772  0.1106  0.3407 -1.8487
 3504SOL    HW221972   2.532   0.767   6.746  0.2451  0.1701  0.7947
 3505SOL     OW21973   1.604   1.428   6.496 -0.4403  0.2570  0.1846
 3505SOL    HW121974   1.679   1.488   6.499 -0.9751  0.8463  2.0012
 3505SOL    HW221975   1.636   1.372   6.426 -1.4257 -0.6460  0.4545
 3506SOL     OW21976   4.275   4.208   9.621  0.3293  0.0456 -0.1655
 3506SOL    HW121977   4.215   4.149   9.667 -1.2789  1.5566 -0.3216
 3506SOL    HW221978   4.356   4.158   9.618  0.1492 -0.2683  0.2617
 3507SOL     OW21979   0.625   3.169   3.717  0.4221  0.7429  0.0088
 3507SOL    HW121980   0.551   3.115   3.743  1.5800  1.1697  4.2380
 3507SOL    HW221981   0.670   3.110   3.657  1.1696 -0.3565  1.6404
 3508SOL     OW21982   4.450   0.946   1.478  0.3453 -0.2328 -0.1875
 3508SOL    HW121983   4.400   1.026   1.465  2.8881  1.2551 -0.6281
 3508SOL    HW221984   4.429   0.927   1.570 -2.6732 -0.7495 -0.9744
 3509SOL     OW21985   2.143   2.355   2.095 -0.5474  0.3471  0.0278
 3509SOL    HW121986   2.173   2.445   2.085  2.2937 -0.5231  0.7888
 3509SOL    HW221987   2.084   2.368   2.170 -2.9915 -2.6169 -1.3539
 3510SOL     OW21988   3.212   4.059   2.391 -0.5011 -0.1190  0.3144
 3510SOL    HW121989   3.184   4.142   2.351 -0.6889 -0.2253  0.2240
 3510SOL    HW221990   3.296   4.062   2.346  0.8023 -1.1474  2.7016
 3511SOL     OW21991   1.865   1.583   3.269  0.3051 -0.0779 -0.0131
 3511SOL    HW121992   1.942   1.640   3.264  0.6543 -0.3927  1.9824
 3511SOL    HW221993   1.804   1.631   3.324  0.0784 -2.0232  1.4132
 3512SOL     OW21994   4.130   2.333   0.202  0.1363 -0.1396 -0.4738
 3512SOL    HW121995   4.082   2.306   0.124 -0.5070 -0.8436  0.1627
 3512SOL    HW221996   4.062   2.385   0.245 -0.4617 -1.4407  0.1457
 3513SOL     OW21997   0.613   2.632   0.855 -0.0692 -0.2209 -0.0280
 3513SOL    HW121998   0.605   2.708   0.797  1.4346  2.0187  2.6854
 3513SOL    HW221999   0.569   2.573   0.794  0.2734 -0.5082  0.0040
 3514SOL     OW22000   0.310   3.008  13.831 -0.3987 -0.1281 -0.3758
 3514SOL    HW122001   0.258   2.928  13.841  0.3986 -0.7845 -1.3998
 3514SOL    HW222002   0.254   3.062  13.886 -1.0054 -2.7200  1.5172
 3515SOL     OW22003   0.955   2.215   6.474  0.3910 -0.5554 -0.5805
 3515SOL    HW122004   1.049   2.204   6.458  0.0677 -0.7869 -2.2296
 3515SOL    HW222005   0.944   2.143   6.537  0.4795 -0.3703 -0.3508
 3516SOL     OW22006   0.480   0.020   7.529 -0.4602 -0.3892  0.6064
 3516SOL    HW122007   0.536   0.072   7.586  0.5513 -0.0770 -0.6603
 3516SOL    HW222008   0.531   0.015   7.447 -0.9231  0.5724  0.2646
 3517SOL     OW22009   2.477   3.179   2.929  0.2882  0.1731  0.4361
 3517SOL    HW122010   2.459   3.086   2.921 -1.3258  0.3393  2.1645
 3517SOL    HW222011   2.465   3.194   3.023 -1.0903  0.8785  0.1446
 3518SOL     OW22012   4.675   1.132  17.552  1.1904 -0.6106  0.6237
 3518SOL    HW122013   4.643   1.222  17.541  1.2328 -0.5956  0.6232
 3518SOL    HW222014   0.032   1.149  17.607  0.2440 -0.4231  1.8864
 3519SOL     OW22015   1.664   1.586   1.650 -0.2100 -0.4274  0.4475
 3519SOL    HW122016   1.702   1.669   1.620 -0.0238 -0.5452  0.3624
 3519SOL    HW222017   1.741   1.536   1.677 -0.0240  0.4406  1.5618
 3520SOL     OW22018   4.350   2.999   6.514 -0.1251 -0.4551  0.3998
 3520SOL    HW122019   4.338   2.908   6.486  0.7404 -0.4399 -0.0236
 3520SOL    HW222020   4.396   3.028   6.435  1.8365 -1.8351  1.0170
 3521SOL     OW22021   0.029   3.947   2.467  0.2664  0.2299 -0.5529
 3521SOL    HW122022   4.675   3.938   2.407  0.5979 -1.0082 -0.7660
 3521SOL    HW222023   0.070   3.861   2.464  1.2209  0.6650  0.1990
 3522SOL     OW22024   3.571   3.433   9.477 -0.5292 -0.2409 -0.5213
 3522SOL    HW122025   3.516   3.397   9.408  0.4965 -0.7539 -1.0614
 3522SOL    HW222026   3.634   3.361   9.487  0.2862  0.6208  0.5000
 3523SOL     OW22027   0.743   0.586   3.480  0.5414 -0.2030  0.4351
 3523SOL    HW122028   0.671   0.523   3.470 -0.4486  1.1048 -0.7808
 3523SOL    HW222029   0.803   0.553   3.414  0.2003  1.2519 -0.6128
 3524SOL     OW22030   0.561   1.796   0.322  0.3390 -0.1392 -0.3236
 3524SOL    HW122031   0.535   1.872   0.271 -0.8386 -0.6883 -0.5617
 3524SOL    HW222032   0.549   1.729   0.255 -0.3794  0.3231 -0.6610
 3525SOL     OW22033   0.589   2.516  12.971  0.7300  0.5903  0.1873
 3525SOL    HW122034   0.642   2.501  13.049 -1.3408  0.8423  1.6482
 3525SOL    HW222035   0.605   2.426  12.943  0.3885  0.3938  0.6347
 3526SOL     OW22036   4.233   4.573   5.447  0.4459  0.1452  0.2580
 3526SOL    HW122037   4.209   4.662   5.421 -1.1169 -0.0704  0.9872
 3526SOL    HW222038   4.230   4.575   5.542 -1.8786  1.9332  0.1577
 3527SOL     OW22039   3.178   0.769   1.980 -0.2008  0.3165 -0.0759
 3527SOL    HW122040   3.265   0.807   1.973 -1.0865  1.7648 -2.9763
 3527SOL    HW222041   3.125   0.847   1.995  2.2757  1.6503  1.8435
 3528SOL     OW22042   3.726   0.069   5.032 -0.1933 -0.3207 -0.1983
 3528SOL    HW122043   3.743   4.713   5.087 -1.0590 -0.3019  0.0893
 3528SOL    HW222044   3.793   0.131   5.062  1.0269 -2.5882  1.7558
 3529SOL     OW22045   1.631   0.158   4.726  0.1541 -0.0426 -0.2992
 3529SOL    HW122046   1.713   0.155   4.677  0.2317 -0.5116 -0.1447
 3529SOL    HW222047   1.644   0.077   4.776 -1.9490  0.1558  0.5438
 3530SOL     OW22048   3.892   4.580  12.813 -0.4515 -0.6133 -0.8595
 3530SOL    HW122049   3.962   4.539  12.761  0.7579  2.3280 -1.5545
 3530SOL    HW222050   3.936   4.662  12.834  1.0478 -1.5985 -0.1234
 3531SOL     OW22051   0.589   2.541  16.930  0.8309 -0.1650 -0.1786
 3531SOL    HW122052   0.576   2.594  16.851  0.6582  1.3127  0.8401
 3531SOL    HW222053   0.547   2.459  16.905 -0.9980 -0.2115  3.1080
 3532SOL     OW22054   2.905   1.559   7.739 -0.4610  0.2640 -0.3878
 3532SOL    HW122055   2.914   1.554   7.644  0.1086 -0.0597 -0.3172
 3532SOL    HW222056   2.955   1.641   7.748 -0.0867 -0.0554  0.4576
 3533SOL     OW22057   1.650   3.715   2.729  0.1384 -0.4321 -0.3660
 3533SOL    HW122058   1.646   3.802   2.691  1.4509 -0.3561 -0.3365
 3533SOL    HW222059   1.593   3.656   2.681  0.2321  1.0206 -2.2484
 3534SOL     OW22060   0.350   0.198   6.074 -0.3629 -0.1196 -0.3118
 3534SOL    HW122061   0.279   0.249   6.035 -0.1699  0.8654  0.6142
 3534SOL    HW222062   0.427   0.218   6.021 -0.4329  1.5670  0.2351
 3535SOL     OW22063   4.207   0.991   7.772  0.2551  0.2108 -0.6725
 3535SOL    HW122064   4.234   0.900   7.764 -3.7677 -1.0138 -0.5864
 3535SOL    HW222065   4.239   1.012   7.860  1.8686  1.2525 -1.5239
 3536SOL     OW22066   0.732   4.067   5.662  0.2274 -0.1601 -0.3045
 3536SOL    HW122067   0.767   4.155   5.650  1.2723 -0.5239  0.0543
 3536SOL    HW222068   0.672   4.085   5.734  1.3966  1.9261  0.1434
 3537SOL     OW22069   4.090   2.388   1.157  0.0200  0.1648 -0.3317
 3537SOL    HW122070   4.051   2.339   1.229 -2.0745  0.7992 -1.0413
 3537SOL    HW222071   4.180   2.354   1.161  0.8113  2.3994  0.8967
 3538SOL     OW22072   1.463   0.003   2.491 -0.2767 -0.4157 -0.5483
 3538SOL    HW122073   1.492   4.704   2.401  0.0255 -1.9546 -0.1246
 3538SOL    HW222074   1.400   0.070   2.466  1.0454  0.7005 -0.8743
 3539SOL     OW22075   1.912   1.466   6.695  0.0128 -0.2206 -0.1865
 3539SOL    HW122076   1.890   1.393   6.637  0.6791 -0.8775  0.3789
 3539SOL    HW222077   1.886   1.439   6.783  0.3077  0.2306  0.0435
 3540SOL     OW22078   2.124   4.445   1.951  0.5402  0.2913 -0.1566
 3540SOL    HW122079   2.089   4.466   2.037  0.1737  0.2945 -0.3042
 3540SOL    HW222080   2.147   4.353   1.965 -0.4561  0.1928  0.8699
 3541SOL     OW22081   2.319   4.554   0.893 -0.3097  0.2448 -0.1238
 3541SOL    HW122082   2.305   4.505   0.812 -0.7866  0.3812 -0.1222
 3541SOL    HW222083   2.403   4.599   0.880 -1.8026  3.3524  1.0895
 3542SOL     OW22084   0.363   2.865   8.488  0.1536 -0.0603 -0.0430
 3542SOL    HW122085   0.437   2.815   8.523 -1.4490 -2.6435 -0.3816
 3542SOL    HW222086   0.380   2.862   8.394  1.6847  0.2166  0.2206
 3543SOL     OW22087   3.435   2.500   9.195 -0.4145  0.2381  0.3404
 3543SOL    HW122088   3.462   2.591   9.206  0.8972 -0.1264  0.1173
 3543SOL    HW222089   3.358   2.511   9.250  0.2213 -3.3846  1.9723
 3544SOL     OW22090   4.420   4.504  12.663  0.2555 -0.2096 -0.3156
 3544SOL    HW122091   4.416   4.479  12.571  0.9572  0.6230 -0.5718
 3544SOL    HW222092   4.454   4.593  12.662 -0.4276  0.0695  1.6850
 3545SOL     OW22093   0.461   0.127   7.110 -0.6539 -0.4810 -0.0042
 3545SOL    HW122094   0.395   0.122   7.040  0.4542 -0.0574 -1.0917
 3545SOL    HW222095   0.492   0.037   7.113 -1.3856 -0.7748 -1.1059
 3546SOL     OW22096   3.944   1.617   9.933 -0.0167 -0.0271  0.1907
 3546SOL    HW122097   3.990   1.701   9.937 -0.4010  0.3972 -3.6054
 3546SOL    HW222098   4.010   1.549   9.946  2.2594  2.0718 -0.3345
 3547SOL     OW22099   0.315   1.080  14.596  0.3997 -0.2847 -0.2785
 3547SOL    HW122100   0.372   1.157  14.596  0.0692 -0.0229  2.2885
 3547SOL    HW222101   0.383   1.015  14.576  0.9816 -0.0955  1.0836
 3548SOL     OW22102   0.542   1.323   2.647 -0.0424 -0.0673 -0.3523
 3548SOL    HW122103   0.455   1.286   2.634  0.4634 -1.2125 -0.4202
 3548SOL    HW222104   0.589   1.285   2.721 -1.3298 -0.3228  0.3141
 3549SOL     OW22105   3.319   0.212   6.186 -0.3457  0.1187  0.3297
 3549SOL    HW122106   3.317   0.227   6.280  1.1615 -3.3670  0.9242
 3549SOL    HW222107   3.246   0.151   6.175  0.0525 -0.2305 -0.4072
 3550SOL     OW22108   3.546   2.575   2.179 -0.1492 -0.1509 -0.3408
 3550SOL    HW122109   3.464   2.624   2.189 -0.3250 -0.2826 -1.1989
 3550SOL    HW222110   3.508   2.489   2.163 -1.4066  0.0876  1.2776
 3551SOL     OW22111   2.445   2.905   2.743 -0.0447  0.1998  0.1392
 3551SOL    HW122112   2.489   2.939   2.665 -0.3071  0.0010 -0.0951
 3551SOL    HW222113   2.357   2.886   2.712  0.3807 -0.0061 -0.9503
 3552SOL     OW22114   1.199   0.239  12.555  0.0935 -0.3272  0.1363
 3552SOL    HW122115   1.179   0.181  12.628  0.6590 -2.3019 -1.2711
 3552SOL    HW222116   1.195   0.330  12.586  0.8367  0.0090 -0.7455
 3553SOL     OW22117   2.890   1.929   7.481 -0.0980 -0.1210  0.1161
 3553SOL    HW122118   2.876   1.991   7.410  1.1936 -1.8657 -1.6575
 3553SOL    HW222119   2.820   1.952   7.542 -0.3876  1.2867 -0.7496
 3554SOL     OW22120   0.916   2.555  13.460 -0.1398 -0.3413  0.2651
 3554SOL    HW122121   0.907   2.465  13.429  0.0936 -0.1537 -0.3653
 3554SOL    HW222122   0.965   2.598  13.389  0.7830 -1.2916  0.3299
 3555SOL     OW22123   1.999   3.285  15.615 -0.1545 -0.0792 -0.5990
 3555SOL    HW122124   1.972   3.301  15.706  0.2945 -0.8733 -0.3290
 3555SOL    HW222125   1.919   3.316  15.571  0.2445  1.4913 -0.2323
 3556SOL     OW22126   3.065   3.246   1.555  0.1815  0.4995  0.7724
 3556SOL    HW122127   3.063   3.195   1.473 -0.5258  1.2921  0.2994
 3556SOL    HW222128   2.996   3.197   1.600  0.9750 -0.8007  0.5925
 3557SOL     OW22129   2.209   0.619  12.515 -0.5388  0.1488  0.0045
 3557SOL    HW122130   2.118   0.599  12.539 -0.2938 -0.2958  0.5333
 3557SOL    HW222131   2.191   0.709  12.487 -0.3742 -0.0934 -0.8728
 3558SOL     OW22132   4.118   0.677   5.536 -0.4313 -0.2617  0.3879
 3558SOL    HW122133   4.210   0.656   5.547  0.2420  2.3771 -0.1365
 3558SOL    HW222134   4.115   0.670   5.440 -1.0838 -0.8304  0.4420
 3559SOL     OW22135   1.121   4.475  14.963  0.2885 -0.5799  0.6071
 3559SOL    HW122136   1.056   4.430  14.908  0.4835  2.4771 -2.1488
 3559SOL    HW222137   1.076   4.558  14.977 -1.9493 -1.8184  0.7431
 3560SOL     OW22138   3.894   1.039   8.085 -0.5058 -0.0851 -0.2503
 3560SOL    HW122139   3.942   0.973   8.134 -0.6125  0.1638  0.1871
 3560SOL    HW222140   3.868   0.986   8.010 -0.3477  0.6839 -0.8514
 3561SOL     OW22141   2.519   2.994   5.772 -0.2799  0.4127  0.1155
 3561SOL    HW122142   2.458   2.987   5.846 -0.0078  1.2242  0.4164
 3561SOL    HW222143   2.559   2.907   5.780  0.3221  0.9059  2.6538
 3562SOL     OW22144   1.417   1.345   1.340 -0.1798  0.1248  0.0287
 3562SOL    HW122145   1.455   1.430   1.316  0.2966  0.6215  2.5561
 3562SOL    HW222146   1.413   1.359   1.435 -2.0915 -1.1130  0.1232
 3563SOL     OW22147   0.579   1.764   3.444 -0.0475 -0.4023 -0.3974
 3563SOL    HW122148   0.509   1.826   3.462 -0.9881 -1.5960  0.0756
 3563SOL    HW222149   0.519   1.698   3.409 -0.0203  0.3061 -1.7834
 3564SOL     OW22150   3.478   0.597   7.404  0.4297  0.2572 -0.0775
 3564SOL    HW122151   3.385   0.598   7.384  0.2075  1.1528  0.9923
 3564SOL    HW222152   3.518   0.582   7.318  1.2869  1.9158  0.0194
 3565SOL     OW22153   4.301   2.831   3.684 -0.2638  0.7638 -0.6426
 3565SOL    HW122154   4.213   2.795   3.669 -0.1111  0.1696 -0.1155
 3565SOL    HW222155   4.327   2.879   3.606  3.7173 -1.3145 -0.5668
 3566SOL     OW22156   2.006   3.353  12.239 -0.0792  0.1484  0.7733
 3566SOL    HW122157   2.069   3.421  12.265  0.2531  0.3324 -0.5388
 3566SOL    HW222158   1.953   3.403  12.177  3.1591  2.0826 -0.4690
 3567SOL     OW22159   0.613   4.534   7.013  0.3008  0.4878 -0.5419
 3567SOL    HW122160   0.554   4.541   7.088  1.9300 -0.4766  0.8166
 3567SOL    HW222161   0.549   4.489   6.958 -0.1791 -0.8523  1.1347
 3568SOL     OW22162   0.811   3.879   3.862  0.1069 -0.2950 -0.2700
 3568SOL    HW122163   0.873   3.948   3.885  0.3585 -0.0871 -1.5657
 3568SOL    HW222164   0.790   3.898   3.770  0.6852 -0.7341 -0.4922
 3569SOL     OW22165   1.266   0.726   1.242 -0.2799 -0.4018 -0.2946
 3569SOL    HW122166   1.361   0.720   1.254 -0.3297  0.1901  0.3214
 3569SOL    HW222167   1.238   0.641   1.208  0.8111 -0.7667 -0.2915
 3570SOL     OW22168   1.089   1.596  10.121 -0.3470  0.4324 -0.2244
 3570SOL    HW122169   1.132   1.598  10.207 -0.3441  0.0900 -0.2191
 3570SOL    HW222170   1.049   1.509  10.127 -4.0137  2.1495  0.3856
 3571SOL     OW22171   2.918   0.241   9.121  0.2201 -0.3508  0.3997
 3571SOL    HW122172   2.972   0.293   9.062 -1.6971  1.4107  0.1970
 3571SOL    HW222173   2.923   0.157   9.074 -1.5888 -0.4230  0.3342
 3572SOL     OW22174   1.644   4.192   5.643 -0.3426  0.0140 -0.1923
 3572SOL    HW122175   1.625   4.101   5.664  0.0812 -0.0039  0.1093
 3572SOL    HW222176   1.558   4.231   5.660 -1.2872 -0.2880 -4.4245
 3573SOL     OW22177   2.109   4.436   2.954 -0.4198 -0.0493 -0.0071
 3573SOL    HW122178   2.059   4.462   2.876  0.3311  2.1687  0.2558
 3573SOL    HW222179   2.151   4.512   2.994 -0.2212  0.2074 -0.6875
 3574SOL     OW22180   2.408   2.841   7.238 -0.0250  0.0061 -0.6653
 3574SOL    HW122181   2.316   2.815   7.236  0.6015 -2.1474 -2.1368
 3574SOL    HW222182   2.407   2.926   7.281 -0.7102 -1.4005  2.0875
 3575SOL     OW22183   3.162   2.921   4.306 -0.5654 -0.5323  0.0321
 3575SOL    HW122184   3.173   3.008   4.345 -0.6221  0.1217 -1.3717
 3575SOL    HW222185   3.197   2.861   4.371  0.7583 -0.2537 -0.4167
 3576SOL     OW22186   3.958   2.729  15.189  0.0233  0.2941  0.0154
 3576SOL    HW122187   3.996   2.785  15.121  1.2227 -1.5314 -0.8197
 3576SOL    HW222188   4.043   2.698  15.221 -0.7263 -1.5068  0.2399
 3577SOL     OW22189   1.221   0.228  17.670  0.2238 -0.2200  0.1423
 3577SOL    HW122190   1.265   0.268  17.595  0.4638  2.3292  1.6241
 3577SOL    HW222191   1.291   0.187   0.038  0.6215 -0.1734 -0.3649
 3578SOL     OW22192   2.665   0.938   3.384  0.3858  0.2334 -0.6204
 3578SOL    HW122193   2.683   1.026   3.351 -2.7059  1.2923  0.5001
 3578SOL    HW222194   2.638   0.956   3.474  0.9624 -3.3656  0.2700
 3579SOL     OW22195   2.508   1.677  14.777 -0.0270 -0.5627  0.0631
 3579SOL    HW122196   2.519   1.647  14.867 -0.4384  1.0296  0.6279
 3579SOL    HW222197   2.589   1.647  14.736 -1.2924 -2.4041 -1.1286
 3580SOL     OW22198   3.125   3.741  14.360  0.2504  0.1607  0.4598
 3580SOL    HW122199   3.184   3.811  14.336 -0.7905  0.8643 -0.0163
 3580SOL    HW222200   3.178   3.689  14.422 -2.2622  0.4572  2.8744
 3581SOL     OW22201   1.988   3.012  10.912 -0.1216 -0.4711  0.5164
 3581SOL    HW122202   2.054   2.943  10.917  0.5148  0.0898 -0.1207
 3581SOL    HW222203   2.043   3.072  10.961  1.4492 -2.3440  1.0620
 3582SOL     OW22204   4.455   3.242   5.816 -0.0165  0.0311 -0.1864
 3582SOL    HW122205   4.547   3.215   5.805 -0.0988  0.2764 -1.4825
 3582SOL    HW222206   4.464   3.333   5.843 -0.2262  0.5569 -1.8649
 3583SOL     OW22207   0.658   3.678   1.184  1.0381 -0.0364  0.1908
 3583SOL    HW122208   0.599   3.634   1.245 -1.6766 -1.1560 -3.2883
 3583SOL    HW222209   0.620   3.765   1.191  0.5926 -0.0943 -1.5596
 3584SOL     OW22210   0.678   3.975   9.740 -0.3867 -0.0558 -0.4309
 3584SOL    HW122211   0.619   3.901   9.729  1.9605 -2.2903  2.0906
 3584SOL    HW222212   0.739   3.940   9.804 -0.5588  0.1213 -0.1710
 3585SOL     OW22213   0.522   3.508   1.836  0.2380  0.2347 -0.5668
 3585SOL    HW122214   0.555   3.425   1.802  0.8616  0.3557 -0.2540
 3585SOL    HW222215   0.496   3.544   1.752 -0.2621  2.1118  0.3836
 3586SOL     OW22216   2.844   1.871   2.425  0.8853  0.0296  0.6316
 3586SOL    HW122217   2.790   1.854   2.349 -0.5636  2.8050  1.0223
 3586SOL    HW222218   2.772   1.862   2.488  1.6946  1.7700  1.8299
 3587SOL     OW22219   0.471   0.102   8.669  0.7605  0.1095 -0.1808
 3587SOL    HW122220   0.494   0.059   8.587 -0.9056  1.4670 -1.3731
 3587SOL    HW222221   0.395   0.154   8.641 -0.5603 -1.4182  0.5554
 3588SOL     OW22222   3.076   2.811  10.086  0.4649 -0.1677  0.3531
 3588SOL    HW122223   3.131   2.735  10.065  0.9982 -0.1962  1.7985
 3588SOL    HW222224   3.026   2.802  10.006  2.0297  0.7753 -0.7376
 3589SOL     OW22225   2.769   2.305   2.042  0.3133  0.3983  0.2226
 3589SOL    HW122226   2.801   2.341   1.959  0.2507  1.3725  0.6260
 3589SOL    HW222227   2.853   2.295   2.086 -0.0342  0.6308  0.9380
 3590SOL     OW22228   4.232   0.442   2.200 -0.3594  0.4535  0.1541
 3590SOL    HW122229   4.314   0.396   2.188 -0.3431  0.3760  0.5696
 3590SOL    HW222230   4.224   0.455   2.294 -1.0357 -0.3963  0.2143
 3591SOL     OW22231   3.138   3.601  12.297 -0.0458 -0.0014  0.2791
 3591SOL    HW122232   3.051   3.621  12.262 -0.3733  0.7407  1.5219
 3591SOL    HW222233   3.136   3.506  12.289  0.3888 -0.1695  2.0373
 3592SOL     OW22234   4.083   0.967   1.808 -0.3681 -0.5984  0.2549
 3592SOL    HW122235   3.989   0.950   1.799 -0.4149  0.4237 -1.2046
 3592SOL    HW222236   4.091   1.043   1.750 -0.2128 -2.2389 -1.8931
 3593SOL     OW22237   0.774   1.855   7.401 -0.0601 -0.3569  0.2797
 3593SOL    HW122238   0.865   1.867   7.431  0.4630 -2.6740 -0.3725
 3593SOL    HW222239   0.748   1.770   7.435 -1.3794  0.4441  1.2586
 3594SOL     OW22240   0.218   3.611  14.513 -0.0636 -0.6426  0.4738
 3594SOL    HW122241   0.297   3.611  14.568  1.4361 -1.8543 -1.6849
 3594SOL    HW222242   0.148   3.638  14.573 -1.3870 -0.6775 -1.0664
 3595SOL     OW22243   0.297   2.820   7.825 -0.7865  0.0466 -0.3416
 3595SOL    HW122244   0.291   2.733   7.865 -1.5389  0.5146  0.5431
 3595SOL    HW222245   0.241   2.810   7.748 -0.5874 -0.0484 -0.4744
 3596SOL     OW22246   1.060   3.960   3.113  0.1777 -0.3666  0.2804
 3596SOL    HW122247   1.112   3.887   3.079  1.2943  0.7782 -0.4411
 3596SOL    HW222248   1.083   4.028   3.050 -0.3170  0.0347  0.5344
 3597SOL     OW22249   1.798   0.356  15.594  0.0620  0.2850  0.5075
 3597SOL    HW122250   1.829   0.274  15.632 -1.4632 -1.8718 -2.8846
 3597SOL    HW222251   1.858   0.418  15.636  0.2667  0.1758  0.3779
 3598SOL     OW22252   2.113   4.040  12.461 -0.2205  0.1825  0.7501
 3598SOL    HW122253   2.052   4.091  12.407  1.5495  0.2164 -1.2073
 3598SOL    HW222254   2.159   4.114  12.501  1.1161 -0.3576  0.2070
 3599SOL     OW22255   0.861   2.552  10.732  0.0461  0.6872 -0.6737
 3599SOL    HW122256   0.847   2.590  10.819 -0.3267 -0.7325 -0.1144
 3599SOL    HW222257   0.956   2.560  10.720  0.5026  0.2984  2.4502
 3600SOL     OW22258   4.346   2.252  10.719  0.1882  0.2853 -0.5334
 3600SOL    HW122259   4.345   2.340  10.756  1.2172  0.7981 -1.7366
 3600SOL    HW222260   4.262   2.246  10.673  0.8132 -1.6912 -1.4453
 3601SOL     OW22261   2.863   3.732   5.194  0.2534 -0.5269 -0.0208
 3601SOL    HW122262   2.774   3.762   5.213 -0.1659 -1.7392 -0.0556
 3601SOL    HW222263   2.870   3.640   5.220  2.8443 -0.0943  0.8214
 3602SOL     OW22264   4.111   4.654   4.362 -0.0826 -0.5588  0.3408
 3602SOL    HW122265   4.093   0.012   4.413 -1.0303 -0.9452  0.5911
 3602SOL    HW222266   4.095   4.677   4.270 -0.1423 -1.3862  0.1424
 3603SOL     OW22267   0.397   3.294  13.676 -0.0867  0.1935  0.1834
 3603SOL    HW122268   0.388   3.249  13.592 -1.4420  2.1970 -0.7292
 3603SOL    HW222269   0.431   3.378  13.646  0.5902 -0.7067 -1.5622
 3604SOL     OW22270   3.297   2.120   9.210 -0.4623  0.3892  0.0288
 3604SOL    HW122271   3.390   2.103   9.222 -0.5853 -2.1941 -2.7817
 3604SOL    HW222272   3.258   2.043   9.251  0.5052 -0.4089 -0.5798
 3605SOL     OW22273   1.333   2.400   3.641  0.3571 -0.0926 -0.4891
 3605SOL    HW122274   1.283   2.347   3.703  0.4355 -1.3538 -1.4969
 3605SOL    HW222275   1.348   2.480   3.691  0.5147 -1.5057  1.7427
 3606SOL     OW22276   0.379   0.994   2.618  0.0011 -0.7376  0.7098
 3606SOL    HW122277   0.364   0.936   2.543  0.3017  0.6960 -0.4657
 3606SOL    HW222278   0.289   1.005   2.647  0.2370  1.6227  0.5775
 3607SOL     OW22279   4.584   3.942   9.016  0.2464  0.2287 -0.0213
 3607SOL    HW122280   4.559   3.853   8.989 -0.7623  0.5890 -0.2885
 3607SOL    HW222281   4.511   3.989   8.975 -0.0870 -0.1987  0.0712
 3608SOL     OW22282   1.219   4.488  10.145 -0.1072 -0.2243 -0.7249
 3608SOL    HW122283   1.143   4.515  10.197 -0.1109 -2.1293  0.2827
 3608SOL    HW222284   1.288   4.523  10.201  1.3922  0.0287 -2.7332
 3609SOL     OW22285   0.081   2.466  10.816 -0.5127  0.0199  0.2335
 3609SOL    HW122286   0.028   2.437  10.890 -0.9004 -0.4173 -0.2141
 3609SOL    HW222287   0.073   2.397  10.751 -0.8022  1.1648 -0.9645
 3610SOL     OW22288   3.684   3.416   4.873  0.5720  0.1258 -0.2541
 3610SOL    HW122289   3.592   3.393   4.868  0.2712  1.0260  1.2239
 3610SOL    HW222290   3.678   3.511   4.883 -1.1181  0.1441 -1.4497
 3611SOL     OW22291   0.451   4.043   0.468  0.0141 -1.0119  0.0840
 3611SOL    HW122292   0.463   4.092   0.550  0.6430 -1.1287  0.0605
 3611SOL    HW222293   0.536   3.999   0.462  1.4295  1.6709  0.3007
 3612SOL     OW22294   3.787   3.188   4.409 -0.2892 -0.1759 -0.3609
 3612SOL    HW122295   3.770   3.248   4.336 -0.1073 -0.8060 -0.9218
 3612SOL    HW222296   3.770   3.248   4.482  0.9216 -1.0038  0.5865
 3613SOL     OW22297   1.498   4.079   7.074  0.3936 -0.8873 -0.4032
 3613SOL    HW122298   1.478   4.095   7.167  1.6175 -0.1712 -0.2534
 3613SOL    HW222299   1.407   4.079   7.044 -0.4262 -1.6474  2.0218
 3614SOL     OW22300   0.840   3.500  15.022 -0.7173 -0.1141 -0.2811
 3614SOL    HW122301   0.878   3.418  15.052 -0.7260  0.4385  1.2391
 3614SOL    HW222302   0.907   3.565  15.046 -2.3626  0.5612  2.5000
 3615SOL     OW22303   1.967   0.198  12.259  0.7582  0.2002 -0.5835
 3615SOL    HW122304   1.885   0.224  12.216  1.2034  3.2781  0.3911
 3615SOL    HW222305   1.963   0.107  12.232 -1.0163 -0.0633  0.5261
 3616SOL     OW22306   2.847   1.591  10.617  0.3990  0.6380 -0.5030
 3616SOL    HW122307   2.880   1.506  10.645  0.8257  1.3937  1.2549
 3616SOL    HW222308   2.755   1.582  10.592  0.3889 -2.8186  0.8801
 3617SOL     OW22309   4.234   3.343  14.183 -0.8857 -0.0614  0.3344
 3617SOL    HW122310   4.224   3.433  14.152 -0.8829  0.2015  1.0955
 3617SOL    HW222311   4.296   3.300  14.124  0.3811  0.3955  1.3382
 3618SOL     OW22312   2.361   2.228  17.238 -0.1566  0.3949 -0.2841
 3618SOL    HW122313   2.368   2.323  17.252  0.9043  0.3858 -0.7417
 3618SOL    HW222314   2.285   2.206  17.292 -0.1000  1.7227  0.3343
 3619SOL     OW22315   3.303   0.945   3.773 -0.4345  0.0172 -0.6777
 3619SOL    HW122316   3.279   1.034   3.749  0.3042  0.2919 -0.3914
 3619SOL    HW222317   3.314   0.912   3.683  0.7981  1.4872 -1.0668
 3620SOL     OW22318   4.313   3.434   7.144  0.7353  0.4888  0.0852
 3620SOL    HW122319   4.331   3.446   7.051 -1.0067  2.6109  0.0282
 3620SOL    HW222320   4.229   3.479   7.152 -0.5412 -1.9554  0.3334
 3621SOL     OW22321   0.679   3.134   2.389  0.1998 -0.3939 -0.5658
 3621SOL    HW122322   0.647   3.171   2.307  1.0717  0.8261 -0.3518
 3621SOL    HW222323   0.741   3.071   2.352  0.4972 -0.8701  0.7362
 3622SOL     OW22324   3.420   3.559   6.663 -0.2538  0.0293  0.2316
 3622SOL    HW122325   3.381   3.543   6.577 -0.6038  1.4590  0.1381
 3622SOL    HW222326   3.494   3.615   6.640 -0.3926 -0.4250 -1.3339
 3623SOL     OW22327   1.418   2.790   1.049 -0.2414 -0.4059 -0.8157
 3623SOL    HW122328   1.466   2.766   1.128  0.7637  0.5092 -1.1494
 3623SOL    HW222329   1.355   2.719   1.044 -0.4127 -0.1240 -2.5124
 3624SOL     OW22330   4.706   0.124  11.759  0.3004  0.4152 -0.4364
 3624SOL    HW122331   4.671   0.135  11.670  0.4609 -1.7920 -0.7856
 3624SOL    HW222332   0.079   0.115  11.742  0.3305 -0.6555  0.2949
 3625SOL     OW22333   3.987   0.268   8.088 -0.3255  0.4455 -0.1541
 3625SOL    HW122334   3.988   0.363   8.102 -0.2589  0.5796 -1.0762
 3625SOL    HW222335   3.964   0.259   7.995  1.8265 -1.8626 -0.4530
 3626SOL     OW22336   4.539   4.622   8.016 -0.1735 -0.1409 -0.0863
 3626SOL    HW122337   4.621   4.650   8.057  0.2400  0.8188 -1.5371
 3626SOL    HW222338   4.489   4.697   8.048  0.2424  0.9901 -2.0470
 3627SOL     OW22339   3.282   0.196   4.132  0.0667  0.1078  0.5565
 3627SOL    HW122340   3.345   0.200   4.060 -2.5720  1.5962 -1.6843
 3627SOL    HW222341   3.284   0.285   4.167  3.4846  1.3638 -2.8645
 3628SOL     OW22342   2.508   1.774   9.120 -0.0456  0.7035 -0.0794
 3628SOL    HW122343   2.527   1.682   9.136  1.0477  0.6108 -1.8613
 3628SOL    HW222344   2.414   1.759   9.116 -0.2316  1.4546  1.4548
 3629SOL     OW22345   2.623   3.751   0.354 -0.0957 -0.5827 -0.1768
 3629SOL    HW122346   2.579   3.791   0.279  0.7822 -0.5734 -0.6907
 3629SOL    HW222347   2.545   3.732   0.406 -0.6677 -1.5772 -1.3898
 3630SOL     OW22348   1.963   0.049   3.163 -0.1910 -0.1299 -0.7951
 3630SOL    HW122349   2.049   0.043   3.122  0.1524  0.5945 -0.1950
 3630SOL    HW222350   1.986   0.024   3.253  1.4366 -0.1988 -1.2327
 3631SOL     OW22351   2.120   0.303   0.626  0.3917  0.3619 -0.0775
 3631SOL    HW122352   2.143   0.335   0.713  0.2429  1.5804 -0.4906
 3631SOL    HW222353   2.099   0.213   0.652 -0.5345  0.7113  0.3690
 3632SOL     OW22354   2.052   2.494   2.322 -0.1727  0.0012  0.4180
 3632SOL    HW122355   2.036   2.508   2.416 -0.0496 -0.4098  0.5030
 3632SOL    HW222356   2.147   2.498   2.325 -0.0351 -1.9702 -1.5793
 3633SOL     OW22357   2.923   3.892  10.368 -0.4048  0.6723  0.3046
 3633SOL    HW122358   2.843   3.935  10.397 -0.1944  1.1031  0.2364
 3633SOL    HW222359   2.896   3.800  10.366  2.8999 -0.2971 -0.3403
 3634SOL     OW22360   1.125   2.731   3.977  0.6968 -0.1323  0.7647
 3634SOL    HW122361   1.142   2.651   3.927 -0.8743  0.0225 -0.0193
 3634SOL    HW222362   1.034   2.719   4.002  0.6460 -2.0218 -0.3261
 3635SOL     OW22363   2.321   4.112   8.662 -0.0789  0.3555 -0.0276
 3635SOL    HW122364   2.320   4.028   8.617 -0.4513 -0.1907  1.0166
 3635SOL    HW222365   2.298   4.169   8.588 -0.9173  0.8176  0.5856
 3636SOL     OW22366   0.082   4.480   3.247  0.5789 -0.2497 -0.1919
 3636SOL    HW122367   0.005   4.510   3.197  0.7512 -0.9764 -0.8826
 3636SOL    HW222368   0.050   4.493   3.336  0.9273 -1.2121  0.0614
 3637SOL     OW22369   2.854   2.419   2.548 -0.8628 -0.4534 -0.2804
 3637SOL    HW122370   2.817   2.429   2.636  0.6350  2.0077  0.0649
 3637SOL    HW222371   2.838   2.326   2.532 -3.3626 -0.3777  1.6207
 3638SOL     OW22372   4.259   4.642  11.219 -0.1597  0.7277 -0.1921
 3638SOL    HW122373   4.193   4.678  11.160  0.7361  3.6104  0.5694
 3638SOL    HW222374   4.222   4.644  11.308  0.6392  0.1957  0.1560
 3639SOL     OW22375   1.600   4.136  14.880  0.0741 -0.1124 -0.2258
 3639SOL    HW122376   1.564   4.173  14.800  2.1185  0.2289 -0.9921
 3639SOL    HW222377   1.632   4.215  14.924  0.0873 -0.0951 -0.2672
 3640SOL     OW22378   0.777   2.242   7.606  0.0099 -0.1035 -0.0641
 3640SOL    HW122379   0.849   2.242   7.669  0.9447  0.6304 -1.1531
 3640SOL    HW222380   0.814   2.184   7.539 -0.2462 -0.1114 -0.1981
 3641SOL     OW22381   3.874   1.078  14.129  0.0054  0.6417 -0.1990
 3641SOL    HW122382   3.879   1.032  14.213  1.6658  1.2461  0.0211
 3641SOL    HW222383   3.877   1.168  14.161 -0.7557  0.4303  0.4501
 3642SOL     OW22384   1.327   1.229  15.566  0.3034 -0.0566  0.4503
 3642SOL    HW122385   1.370   1.193  15.488 -0.3632  0.6688 -0.2566
 3642SOL    HW222386   1.400   1.268  15.615 -1.5442  2.5914  1.0942
 3643SOL     OW22387   1.911   2.606  13.286  0.2499 -0.5222 -0.0893
 3643SOL    HW122388   1.974   2.675  13.263  1.7165 -0.8525  3.0092
 3643SOL    HW222389   1.881   2.651  13.365 -2.3139  0.0437 -1.3712
 3644SOL     OW22390   0.500   0.109   8.238 -0.5278 -0.6219  0.5790
 3644SOL    HW122391   0.422   0.069   8.276 -3.7430  2.6567 -2.5099
 3644SOL    HW222392   0.464   0.185   8.192 -1.1258 -0.6889  0.9257
 3645SOL     OW22393   4.257   1.263  17.441  0.9162  0.6055  0.1457
 3645SOL    HW122394   4.224   1.261  17.351  0.3248  1.1418  0.3536
 3645SOL    HW222395   4.340   1.307  17.423  1.4740 -0.6125 -0.2797
 3646SOL     OW22396   1.184   0.674   4.574  0.2880  0.2320  0.3398
 3646SOL    HW122397   1.228   0.753   4.604  1.6642 -0.3902 -0.0475
 3646SOL    HW222398   1.247   0.607   4.601  0.3679 -0.4384 -1.4852
 3647SOL     OW22399   0.001   0.047   4.967  0.1468  0.7765  0.0832
 3647SOL    HW122400   0.026   0.078   4.880  1.9571  0.1525  0.3846
 3647SOL    HW222401   0.069   4.706   4.992 -1.2369 -0.3446  1.1050
 3648SOL     OW22402   0.658   2.514   1.117  0.2623  0.1536  0.0459
 3648SOL    HW122403   0.600   2.440   1.136  0.1226  0.5363  1.1391
 3648SOL    HW222404   0.627   2.532   1.028 -1.2060  0.2681  0.5719
 3649SOL     OW22405   3.583   0.287   2.477  1.1217  0.0490  0.3244
 3649SOL    HW122406   3.576   0.193   2.494 -3.4296 -0.0608 -1.9824
 3649SOL    HW222407   3.489   0.304   2.486  0.3658 -4.2586  0.4994
 3650SOL     OW22408   3.821   2.912  10.423  0.1876 -0.0262 -0.0385
 3650SOL    HW122409   3.912   2.883  10.420  0.0189 -0.8095  2.5311
 3650SOL    HW222410   3.769   2.833  10.433 -0.0312  0.0687 -0.4300
 3651SOL     OW22411   1.201   1.816   4.810  0.2077 -0.6299  0.1518
 3651SOL    HW122412   1.151   1.736   4.797 -0.7921  0.2600 -1.5391
 3651SOL    HW222413   1.226   1.837   4.720 -1.4286 -2.1181 -0.6399
 3652SOL     OW22414   2.630   1.174   5.882  0.7162  0.2118 -0.5575
 3652SOL    HW122415   2.546   1.218   5.880  0.6076  0.0005 -0.6505
 3652SOL    HW222416   2.613   1.088   5.843  0.3525 -0.4383  1.0222
 3653SOL     OW22417   0.714   0.656   8.911  0.1084 -0.4812  0.2235
 3653SOL    HW122418   0.645   0.717   8.887 -1.2701 -1.1037  2.5435
 3653SOL    HW222419   0.661   0.588   8.954  2.7645 -2.0512  0.9946
 3654SOL     OW22420   2.655   0.741   7.342 -0.2970 -0.1840  0.3302
 3654SOL    HW122421   2.749   0.729   7.328 -0.9112 -4.7136  0.0528
 3654SOL    HW222422   2.617   0.758   7.256  0.4055  1.0546  0.2603
 3655SOL     OW22423   0.929   1.427   7.874 -0.0163  0.2170 -0.8093
 3655SOL    HW122424   0.852   1.377   7.902  0.4513 -0.3893 -0.6056
 3655SOL    HW222425   0.892   1.515   7.864  0.2611  0.7025  2.3316
 3656SOL     OW22426   1.606   1.307   2.513 -0.4995  0.1530 -0.5078
 3656SOL    HW122427   1.642   1.368   2.577  1.4858  0.0029 -1.4586
 3656SOL    HW222428   1.688   1.261   2.494 -0.7378 -1.2622  1.8811
 3657SOL     OW22429   1.252   2.532   9.299  0.0659  0.2586 -0.1702
 3657SOL    HW122430   1.243   2.605   9.238 -3.2316  1.3425  1.6186
 3657SOL    HW222431   1.244   2.577   9.383  4.5393  0.8464 -0.0731
 3658SOL     OW22432   3.514   0.553   6.341  0.2052 -0.0138  0.2132
 3658SOL    HW122433   3.458   0.547   6.263  0.3704  3.3551 -0.1574
 3658SOL    HW222434   3.546   0.643   6.331  0.7485 -0.1099  1.1048
 3659SOL     OW22435   4.026   2.111   2.089 -0.0861 -0.0565  0.9733
 3659SOL    HW122436   4.032   2.102   2.184  0.9357  2.1049  1.1015
 3659SOL    HW222437   4.008   2.204   2.094 -1.1030 -0.1919 -0.1122
 3660SOL     OW22438   1.675   1.702   2.035  0.6276 -0.1321 -0.3966
 3660SOL    HW122439   1.654   1.794   2.022  1.8478  0.3859  1.2849
 3660SOL    HW222440   1.750   1.683   1.979  1.1692  0.5010  0.1014
 3661SOL     OW22441   2.719   0.776   4.051  0.8686 -0.0474  0.0092
 3661SOL    HW122442   2.805   0.736   4.036  0.2606 -0.9123 -1.1150
 3661SOL    HW222443   2.671   0.696   4.030  2.5307 -1.3795  1.2965
 3662SOL     OW22444   3.599   2.686   5.035  0.6630 -0.7937  0.3247
 3662SOL    HW122445   3.535   2.710   4.967  2.3140  1.4967 -0.3975
 3662SOL    HW222446   3.589   2.752   5.103 -0.0264  0.4158 -0.9369
 3663SOL     OW22447   2.629   2.305   8.151  0.1193  0.0770  1.1458
 3663SOL    HW122448   2.624   2.371   8.083 -1.7040 -0.8643  0.3632
 3663SOL    HW222449   2.536   2.284   8.156  0.1178  0.0762  1.1073
 3664SOL     OW22450   0.897   0.833   2.132  0.3690  0.5185  0.6576
 3664SOL    HW122451   0.947   0.770   2.183  1.6052  1.0696  0.1407
 3664SOL    HW222452   0.976   0.860   2.084 -1.0881 -0.9254 -2.5592
 3665SOL     OW22453   0.600   2.073   1.447  0.3332  0.1280  0.5246
 3665SOL    HW122454   0.540   2.145   1.467  0.4172 -0.2654  2.2055
 3665SOL    HW222455   0.656   2.119   1.385  1.2016 -1.9235 -0.1949
 3666SOL     OW22456   1.979   4.375  14.552  0.1429 -0.0037  0.3506
 3666SOL    HW122457   1.955   4.442  14.488  2.7501  0.7604  0.1413
 3666SOL    HW222458   2.011   4.311  14.489  1.8889  1.5325 -0.3321
 3667SOL     OW22459   0.425   4.212   3.244  0.7434  0.0246  0.5013
 3667SOL    HW122460   0.357   4.147   3.232 -2.3306  3.1098  1.3536
 3667SOL    HW222461   0.461   4.174   3.324 -1.3308  0.0954  1.4634
 3668SOL     OW22462   0.922   1.847  15.999 -0.3615 -0.6654  0.7467
 3668SOL    HW122463   0.891   1.912  15.936 -0.4398 -1.6645 -0.2359
 3668SOL    HW222464   0.886   1.884  16.080  0.7151 -2.6263  2.1033
 3669SOL     OW22465   3.832   4.326   6.875  0.0799 -0.3674 -0.5314
 3669SOL    HW122466   3.742   4.346   6.902  0.3980 -0.2759  0.4845
 3669SOL    HW222467   3.890   4.351   6.947 -0.0989 -0.6033 -0.3093
 3670SOL     OW22468   2.287   3.198   6.787  0.1002 -0.2374 -0.6070
 3670SOL    HW122469   2.239   3.121   6.758 -1.3437  0.0584  1.0013
 3670SOL    HW222470   2.249   3.269   6.735 -0.7251  0.2763  0.6977
 3671SOL     OW22471   1.744   2.928  13.952 -0.1227  0.3069  0.0595
 3671SOL    HW122472   1.701   2.962  14.031 -0.9951  2.6605 -1.4428
 3671SOL    HW222473   1.681   2.871  13.910 -1.1925 -0.1576  2.2723
 3672SOL     OW22474   3.578   2.095   2.069  0.2680 -0.0030 -0.2436
 3672SOL    HW122475   3.525   2.074   1.992 -1.1952 -1.9392  1.2906
 3672SOL    HW222476   3.660   2.121   2.027  1.4136 -0.5065  1.6981
 3673SOL     OW22477   0.678   4.263  15.374  0.2292 -0.2115 -0.1502
 3673SOL    HW122478   0.728   4.200  15.427 -1.1835 -2.1572 -1.1237
 3673SOL    HW222479   0.605   4.291  15.430 -0.0314 -0.4006 -0.3963
 3674SOL     OW22480   3.427   2.194   3.219  0.0471  0.2983 -0.7183
 3674SOL    HW122481   3.345   2.244   3.217 -0.8322 -0.9561  2.5273
 3674SOL    HW222482   3.382   2.110   3.210 -0.0260  0.2635 -0.0359
 3675SOL     OW22483   3.271   2.563  12.367 -0.1417 -0.1891 -0.4234
 3675SOL    HW122484   3.232   2.508  12.435 -0.1947 -1.2015 -1.2708
 3675SOL    HW222485   3.227   2.533  12.287  0.2006  0.4449 -0.8538
 3676SOL     OW22486   0.742   0.329  16.509 -0.7014 -0.4794  0.4272
 3676SOL    HW122487   0.787   0.372  16.581  1.5834 -1.3008 -0.5240
 3676SOL    HW222488   0.664   0.380  16.487  0.1251 -0.0994 -1.6767
 3677SOL     OW22489   1.498   2.053  11.383 -0.3434 -0.1577  0.3010
 3677SOL    HW122490   1.482   2.047  11.289  0.0276 -1.6038  0.3230
 3677SOL    HW222491   1.533   1.966  11.402 -0.2174  0.0350  0.9586
 3678SOL     OW22492   2.470   0.691   3.445  0.4818  0.4078  0.4477
 3678SOL    HW122493   2.535   0.758   3.422  0.1069  0.9877  1.0776
 3678SOL    HW222494   2.399   0.751   3.468 -1.3206 -2.0445  1.2506
 3679SOL     OW22495   1.205   1.218   7.497 -0.1849  0.0751 -0.1796
 3679SOL    HW122496   1.178   1.212   7.589  1.2613 -0.3000  0.2113
 3679SOL    HW222497   1.195   1.135   7.450 -1.0476 -0.1982  0.4945
 3680SOL     OW22498   4.386   1.976   1.703 -0.2048 -0.0829  0.1950
 3680SOL    HW122499   4.341   1.891   1.703  0.8169 -0.6235 -0.0963
 3680SOL    HW222500   4.329   2.005   1.774 -1.1788  0.8501 -0.9650
 3681SOL     OW22501   0.820   2.145  17.364 -0.0521 -0.4648 -0.3168
 3681SOL    HW122502   0.908   2.137  17.402 -0.1553  2.1428  0.4743
 3681SOL    HW222503   0.796   2.233  17.389 -0.8781 -0.3164 -1.6281
 3682SOL     OW22504   2.050   0.671  11.562 -0.0185  0.0871 -0.0460
 3682SOL    HW122505   2.051   0.730  11.637  0.4137 -0.0475  0.0534
 3682SOL    HW222506   2.001   0.727  11.502  0.2310  0.5580  0.1948
 3683SOL     OW22507   4.690   0.656  13.447 -0.6324 -0.4695  0.5440
 3683SOL    HW122508   0.009   0.582  13.494 -0.7859 -0.6658  0.3612
 3683SOL    HW222509   4.691   0.631  13.354 -1.3681  4.7355 -0.8723
 3684SOL     OW22510   2.108   2.575   3.116 -0.6263  0.1706  0.3152
 3684SOL    HW122511   2.034   2.568   3.056 -0.2470  0.4670 -0.1809
 3684SOL    HW222512   2.183   2.552   3.061 -1.6940 -0.3384 -0.9495
 3685SOL     OW22513   2.232   4.341   8.059 -0.6370  0.6259  0.1912
 3685SOL    HW122514   2.253   4.326   7.966 -3.4328  0.6865 -0.4563
 3685SOL    HW222515   2.154   4.285   8.060 -0.3038  0.0972 -2.0642
 3686SOL     OW22516   2.611   2.867  10.437 -0.1722 -0.2599  0.2494
 3686SOL    HW122517   2.618   2.774  10.463 -1.9034  0.0373  1.7917
 3686SOL    HW222518   2.613   2.853  10.343 -0.8433 -0.3405  0.2497
 3687SOL     OW22519   1.094   2.090   2.787 -0.2434 -0.8615 -0.2494
 3687SOL    HW122520   1.130   2.079   2.875  2.4025 -2.2759 -1.4932
 3687SOL    HW222521   1.006   2.055   2.798 -0.2593 -1.0237 -0.8986
 3688SOL     OW22522   2.933   0.083  16.581  0.4404 -0.1117  0.3983
 3688SOL    HW122523   2.962   0.109  16.668 -2.1128 -1.6834  1.7056
 3688SOL    HW222524   2.911   4.713  16.604  0.1416 -0.3402 -0.7959
 3689SOL     OW22525   1.138   2.631   8.066 -0.3651 -0.0980  0.7432
 3689SOL    HW122526   1.130   2.701   8.002 -3.7038 -2.4875 -1.4764
 3689SOL    HW222527   1.213   2.587   8.027 -1.0441 -0.3277 -0.3105
 3690SOL     OW22528   0.483   1.369   1.257  0.4441 -0.1178  0.5398
 3690SOL    HW122529   0.497   1.305   1.327  0.5414  0.8607  1.4094
 3690SOL    HW222530   0.536   1.440   1.293  0.2652  0.1462  0.2796
 3691SOL     OW22531   2.172   3.166  11.087  0.5853  0.0849 -0.2854
 3691SOL    HW122532   2.123   3.170  11.170 -1.3766  0.5083 -1.4558
 3691SOL    HW222533   2.251   3.121  11.117  1.4689  0.7625 -1.6209
 3692SOL     OW22534   1.908   0.505   9.307  0.3243  0.1237  0.1672
 3692SOL    HW122535   1.959   0.433   9.271 -0.6375 -1.2729  1.5635
 3692SOL    HW222536   1.817   0.474   9.313  0.1081  0.8021  0.5061
 3693SOL     OW22537   0.506   3.789   6.076 -0.2015 -0.2683 -0.4846
 3693SOL    HW122538   0.570   3.833   6.020  0.0589 -0.3952 -0.2885
 3693SOL    HW222539   0.460   3.866   6.109  2.3023  0.4234  1.4053
 3694SOL     OW22540   2.719   1.194   8.638 -0.0063 -0.0640  0.4089
 3694SOL    HW122541   2.664   1.138   8.585 -1.7644  0.8623  1.2565
 3694SOL    HW222542   2.701   1.144   8.717 -1.4357  0.5527  0.4620
 3695SOL     OW22543   1.971   1.299  10.959 -0.4778 -0.3311 -0.4636
 3695SOL    HW122544   1.898   1.359  10.968  0.1058  0.0770  1.5991
 3695SOL    HW222545   1.976   1.304  10.863  0.8890 -1.8630 -0.4792
 3696SOL     OW22546   2.594   1.727   0.673  0.4285  0.2827 -0.2474
 3696SOL    HW122547   2.506   1.758   0.654  0.0165  0.5949  2.1825
 3696SOL    HW222548   2.637   1.791   0.616 -1.5174  3.0394  1.3733
 3697SOL     OW22549   0.046   2.261   1.973  0.5750  0.5879 -0.2487
 3697SOL    HW122550   4.698   2.227   1.914 -0.3182 -0.9335  1.6746
 3697SOL    HW222551   0.009   2.226   2.054 -0.8045  1.3291 -0.5617
 3698SOL     OW22552   1.831   1.398   7.056 -0.1592  0.1707 -0.3255
 3698SOL    HW122553   1.797   1.454   7.126  1.0172  1.7483 -1.0256
 3698SOL    HW222554   1.878   1.465   7.008 -1.6376  1.8863  0.6236
 3699SOL     OW22555   1.111   1.042   4.612  0.1375  0.5136 -0.1808
 3699SOL    HW122556   1.203   1.014   4.616 -0.2594 -0.9619 -1.5150
 3699SOL    HW222557   1.119   1.136   4.629  1.0542  0.9838 -3.1663
 3700SOL     OW22558   0.814   2.026  14.461 -0.2779  0.9925  0.0034
 3700SOL    HW122559   0.840   2.016  14.553 -1.2718 -1.8951 -0.0085
 3700SOL    HW222560   0.884   2.085  14.434 -1.0174  1.5340 -0.7411
 3701SOL     OW22561   3.915   0.626   3.557 -0.2448 -0.5737  0.0714
 3701SOL    HW122562   3.948   0.680   3.485 -1.9734 -0.2584 -0.5005
 3701SOL    HW222563   3.846   0.686   3.587 -1.0479 -1.8191  0.7377
 3702SOL     OW22564   0.903   0.471   3.260 -0.2038 -0.2455 -0.1882
 3702SOL    HW122565   0.957   0.506   3.189  1.1890 -0.0278  0.9778
 3702SOL    HW222566   0.828   0.447   3.206  1.1010  1.6681 -2.8901
 3703SOL     OW22567   1.623   3.922  15.103 -0.3152 -0.1257 -0.4631
 3703SOL    HW122568   1.679   3.982  15.054 -1.5286  1.5503  0.1862
 3703SOL    HW222569   1.588   3.871  15.030  0.2118  1.2826 -1.7050
 3704SOL     OW22570   0.025   1.846   7.877  0.4030  0.2327 -0.1333
 3704SOL    HW122571   0.047   1.908   7.947  2.4548  0.5585 -1.0678
 3704SOL    HW222572   0.045   1.898   7.799 -0.0290  1.5047  0.5949
 3705SOL     OW22573   4.203   2.621   9.088  0.3020 -0.7018 -0.8219
 3705SOL    HW122574   4.285   2.661   9.059 -0.5698  0.6680 -1.4400
 3705SOL    HW222575   4.219   2.628   9.182  2.1782 -5.1295 -0.8068
 3706SOL     OW22576   1.840   3.392   7.585  0.1925  0.3334  0.1547
 3706SOL    HW122577   1.755   3.353   7.563  1.2280 -1.3290 -0.9212
 3706SOL    HW222578   1.888   3.315   7.617 -0.7230 -0.1918  0.2821
 3707SOL     OW22579   3.749   2.613   1.840  0.1415 -0.4477  0.0491
 3707SOL    HW122580   3.826   2.556   1.835  1.5327  1.6304 -2.1473
 3707SOL    HW222581   3.767   2.669   1.764 -1.6423  1.0106  0.6912
 3708SOL     OW22582   4.323   4.679   2.680  0.0900  0.7175  0.0657
 3708SOL    HW122583   4.339   0.036   2.624  2.3749 -0.2289 -0.5533
 3708SOL    HW222584   4.281   4.717   2.757 -0.0094  2.0624 -0.6395
 3709SOL     OW22585   0.707   1.607   7.519 -0.1365 -0.9328 -0.1350
 3709SOL    HW122586   0.674   1.604   7.609 -1.3444 -1.4610 -0.5947
 3709SOL    HW222587   0.774   1.538   7.522 -1.1982 -1.9409  0.0792
 3710SOL     OW22588   1.635   4.151   6.866  0.3288 -0.6761  0.0993
 3710SOL    HW122589   1.592   4.122   6.946  1.0989 -0.1691  0.6967
 3710SOL    HW222590   1.647   4.068   6.821 -0.1713 -0.7701  0.1432
 3711SOL     OW22591   0.357   0.592   2.357  0.6447  0.1232 -0.3907
 3711SOL    HW122592   0.424   0.537   2.315 -0.3603 -2.4651  1.4187
 3711SOL    HW222593   0.278   0.539   2.344  0.1704  0.3431  1.5780
 3712SOL     OW22594   0.583   2.602   5.096 -0.0538 -0.4892 -0.0667
 3712SOL    HW122595   0.597   2.674   5.158 -0.8129 -1.2708  1.0100
 3712SOL    HW222596   0.590   2.525   5.153  0.2217 -0.4586 -0.0586
 3713SOL     OW22597   0.902   1.750   4.225 -0.4746  0.4452 -0.1050
 3713SOL    HW122598   0.856   1.833   4.210 -1.4803  0.1188  1.1905
 3713SOL    HW222599   0.953   1.731   4.146  0.6874  2.0070  0.2733
 3714SOL     OW22600   1.386   0.926   3.874 -0.1727  0.0228  0.5066
 3714SOL    HW122601   1.344   0.917   3.789  0.8887 -1.3220  0.1148
 3714SOL    HW222602   1.463   0.981   3.861 -0.4761  0.4822  0.6650
 3715SOL     OW22603   4.509   1.601   8.754  0.1308  0.0214 -1.1242
 3715SOL    HW122604   4.543   1.513   8.738 -0.9035 -0.7709  1.0171
 3715SOL    HW222605   4.579   1.635   8.809 -0.4883  0.1327 -0.3929
 3716SOL     OW22606   0.956   2.160   5.088  0.1445  0.5491  0.0743
 3716SOL    HW122607   1.030   2.173   5.149  0.6345 -2.0769  0.0289
 3716SOL    HW222608   0.942   2.248   5.053 -0.5994  0.3882 -0.0354
 3717SOL     OW22609   2.551   1.128   2.048 -0.0512  0.3883 -0.2881
 3717SOL    HW122610   2.562   1.061   1.981  1.7458 -0.8093  1.2082
 3717SOL    HW222611   2.625   1.186   2.026  0.1749 -1.0897 -3.4200
 3718SOL     OW22612   1.804   4.672   0.273 -0.6194 -0.5308 -0.2056
 3718SOL    HW122613   1.835   4.699   0.359  2.1269  2.0109 -1.9952
 3718SOL    HW222614   1.773   4.583   0.290 -2.9203  0.6440  1.7491
 3719SOL     OW22615   1.564   1.474   1.919  0.1690 -0.2053 -0.4902
 3719SOL    HW122616   1.588   1.564   1.939  2.3725 -0.7597 -0.5709
 3719SOL    HW222617   1.560   1.441   2.009  0.5721  0.0438 -0.3795
 3720SOL     OW22618   1.489   2.360   4.573  0.2110 -0.3147 -0.1416
 3720SOL    HW122619   1.468   2.443   4.530 -1.9252 -1.2824 -0.9356
 3720SOL    HW222620   1.577   2.379   4.607  1.7491 -1.7658 -3.3554
 3721SOL     OW22621   2.565   1.640   5.170 -0.1776  0.1033  0.1457
 3721SOL    HW122622   2.599   1.634   5.260 -1.5157  0.6360  0.6896
 3721SOL    HW222623   2.577   1.733   5.150 -1.7853  0.0777 -0.8989
 3722SOL     OW22624   1.338   2.692   7.595  0.0600 -0.0887  0.1512
 3722SOL    HW122625   1.252   2.670   7.631 -0.9702  3.0931 -0.3500
 3722SOL    HW222626   1.328   2.651   7.509  0.1609 -0.4414  0.3103
 3723SOL     OW22627   1.672   0.962   0.132  0.0234 -0.4416 -0.2025
 3723SOL    HW122628   1.607   1.031   0.120  0.0866 -0.1529  1.0868
 3723SOL    HW222629   1.680   0.962   0.228  0.2847  0.7535 -0.2159
 3724SOL     OW22630   1.017   4.637   7.884 -0.1796  0.5276 -0.8141
 3724SOL    HW122631   0.933   4.610   7.920  0.0979  0.6738 -0.0470
 3724SOL    HW222632   1.001   4.719   7.838  1.4776  1.2404 -0.1499
 3725SOL     OW22633   4.232   2.542   4.747  0.7305 -0.5049 -0.2108
 3725SOL    HW122634   4.157   2.521   4.802  1.1846  1.0072  0.9777
 3725SOL    HW222635   4.299   2.558   4.813  0.3313  1.6896 -0.3356
 3726SOL     OW22636   0.584   4.290  16.733 -0.0795  0.2251 -0.5159
 3726SOL    HW122637   0.637   4.265  16.808 -0.4153  2.0838  0.3415
 3726SOL    HW222638   0.608   4.382  16.732 -0.3267  0.3362  3.2094
 3727SOL     OW22639   4.580   3.670   3.765  0.0864  0.6397  0.7761
 3727SOL    HW122640   4.675   3.664   3.775  0.0909 -1.8481 -0.8774
 3727SOL    HW222641   4.576   3.661   3.670  1.2514 -0.3889  0.8202
 3728SOL     OW22642   0.546   3.735   5.249 -0.2586  0.1966  0.2591
 3728SOL    HW122643   0.472   3.725   5.308 -0.2627 -1.2197  0.0149
 3728SOL    HW222644   0.566   3.827   5.265 -0.4669 -0.2188  2.9076
 3729SOL     OW22645   1.350   4.303   6.432  0.5639  1.0379 -0.0870
 3729SOL    HW122646   1.410   4.368   6.467  2.8914 -0.4743 -1.2845
 3729SOL    HW222647   1.416   4.235   6.424 -1.1011 -0.3572 -2.0507
 3730SOL     OW22648   2.214   4.442   0.641  0.1325 -0.4837 -0.7184
 3730SOL    HW122649   2.186   4.375   0.579  2.3437 -1.0395 -1.1224
 3730SOL    HW222650   2.132   4.488   0.661  0.3988 -0.7651  1.0710
 3731SOL     OW22651   0.228   2.098   4.201  0.2083 -0.4895 -0.5570
 3731SOL    HW122652   0.158   2.159   4.226  4.0718  4.1441 -0.9611
 3731SOL    HW222653   0.285   2.104   4.277  0.5571 -2.0555 -0.7063
 3732SOL     OW22654   2.982   3.106   6.097  0.4307  0.7599 -0.1266
 3732SOL    HW122655   2.951   3.053   6.023  0.5474  1.3723 -0.6117
 3732SOL    HW222656   2.982   3.191   6.053  0.5910  0.7922 -0.0598
 3733SOL     OW22657   1.241   3.187  14.514 -0.0144  0.0140 -0.3878
 3733SOL    HW122658   1.162   3.137  14.494 -0.4436  1.3210 -1.9597
 3733SOL    HW222659   1.233   3.205  14.608 -0.9109 -0.3318 -0.4010
 3734SOL     OW22660   0.507   1.295   0.325  0.3195 -0.4615 -0.3173
 3734SOL    HW122661   0.541   1.220   0.374  1.6497  1.6679  2.0918
 3734SOL    HW222662   0.525   1.270   0.235  1.3535 -0.0565 -0.2318
 3735SOL     OW22663   3.404   4.647   4.925 -0.4730 -0.5410 -0.4350
 3735SOL    HW122664   3.351   4.642   5.004 -0.0022 -0.3409 -0.1078
 3735SOL    HW222665   3.475   4.588   4.949  0.3730  0.2596 -0.9698
 3736SOL     OW22666   0.965   4.632  11.547 -0.0220  0.6167  0.3105
 3736SOL    HW122667   0.967   4.573  11.471  1.9155  4.5301 -2.6747
 3736SOL    HW222668   0.889   4.683  11.519 -1.1499  0.4451  3.0296
 3737SOL     OW22669   1.772   1.158   2.806  0.1931  0.2905  0.4660
 3737SOL    HW122670   1.781   1.145   2.901  2.4741  0.7563  0.3088
 3737SOL    HW222671   1.762   1.253   2.804  0.0610  0.2757  0.4484
 3738SOL     OW22672   0.874   0.936  12.573  0.0430  0.2648 -0.0407
 3738SOL    HW122673   0.926   0.931  12.493 -0.9066 -2.0867 -0.5205
 3738SOL    HW222674   0.898   1.023  12.605 -0.5438  0.8444 -1.1758
 3739SOL     OW22675   2.489   4.540   7.561 -0.1855  0.5306  0.2057
 3739SOL    HW122676   2.541   4.543   7.641 -0.5575  1.2069  0.4303
 3739SOL    HW222677   2.528   4.612   7.511 -0.6613  0.5595 -0.1242
 3740SOL     OW22678   4.016   2.014  13.582  0.7227  0.0229  0.5165
 3740SOL    HW122679   3.965   2.064  13.645 -1.8079  1.3469 -2.5846
 3740SOL    HW222680   4.105   2.030  13.610  0.3744  1.2568  0.8944
 3741SOL     OW22681   3.622   1.200   5.388  0.3963 -0.2164 -0.1659
 3741SOL    HW122682   3.594   1.145   5.315  1.8018 -1.1468 -0.0067
 3741SOL    HW222683   3.682   1.263   5.348  0.4676  0.3977  0.8896
 3742SOL     OW22684   2.241   1.758   4.828  0.5656 -0.3423 -0.0900
 3742SOL    HW122685   2.229   1.725   4.739 -1.2073 -2.4054  0.9226
 3742SOL    HW222686   2.219   1.683   4.884 -1.0150  0.8727  0.9032
 3743SOL     OW22687   0.779   3.237   7.743 -0.1146 -0.1470  0.2952
 3743SOL    HW122688   0.834   3.216   7.668  1.3553 -0.3080  1.4280
 3743SOL    HW222689   0.789   3.332   7.746 -2.1424  0.0828  0.1996
 3744SOL     OW22690   3.582   2.241   2.586 -0.5967  0.7197  0.2838
 3744SOL    HW122691   3.499   2.235   2.539 -1.1706  0.1736  1.3574
 3744SOL    HW222692   3.623   2.163   2.550  0.6616  0.0184  3.2886
 3745SOL     OW22693   1.905   1.755   5.701  0.1715  0.4894 -0.0067
 3745SOL    HW122694   1.908   1.719   5.613  1.0554  0.4075  0.0602
 3745SOL    HW222695   1.933   1.679   5.751  0.0117  0.5562  0.1871
 3746SOL     OW22696   1.501   1.208   9.071  0.1551  0.1018  0.1258
 3746SOL    HW122697   1.422   1.172   9.111  0.4404 -1.5165 -0.7569
 3746SOL    HW222698   1.547   1.130   9.042  0.6640  1.1162 -1.7972
 3747SOL     OW22699   3.543   0.886   4.611  0.2988 -0.2811 -0.5447
 3747SOL    HW122700   3.567   0.799   4.643 -1.0742  0.1438  1.6723
 3747SOL    HW222701   3.492   0.927   4.681  1.3523  2.0004 -1.1322
 3748SOL     OW22702   1.255   2.168   6.421  0.0020 -0.3730 -0.1277
 3748SOL    HW122703   1.324   2.233   6.415 -0.2025 -0.3185 -1.7695
 3748SOL    HW222704   1.239   2.156   6.328 -0.3677 -0.3463 -0.0684
 3749SOL     OW22705   2.874   2.809  10.263  0.6274  0.5670  0.3275
 3749SOL    HW122706   2.827   2.893  10.265 -1.2290 -0.5026  1.3092
 3749SOL    HW222707   2.958   2.831  10.223 -0.1910  0.3100 -1.5278
 3750SOL     OW22708   0.454   1.157  17.368 -0.1357  0.1567 -0.0874
 3750SOL    HW122709   0.406   1.080  17.339 -0.7926  0.0948  1.1355
 3750SOL    HW222710   0.510   1.106  17.427  1.4637  1.5480 -0.4066
 3751SOL     OW22711   3.537   3.708   4.818 -0.0090 -0.2937 -0.6375
 3751SOL    HW122712   3.445   3.692   4.838  0.4138  0.0764  1.5416
 3751SOL    HW222713   3.524   3.769   4.745  2.4005  0.4254 -0.4373
 3752SOL     OW22714   3.406   4.581   5.532 -0.6894 -0.4582  0.1330
 3752SOL    HW122715   3.446   4.615   5.612 -2.0115  1.2241  0.0846
 3752SOL    HW222716   3.415   4.662   5.483  1.0908 -1.7624 -1.6615
 3753SOL     OW22717   0.130   4.459   1.759 -0.3366 -0.3965  0.0750
 3753SOL    HW122718   0.039   4.482   1.743 -0.6413 -1.5049  0.1981
 3753SOL    HW222719   0.182   4.511   1.697 -3.4649  0.5808 -1.7112
 3754SOL     OW22720   0.450   4.236   7.050  0.3037 -0.1716  0.6222
 3754SOL    HW122721   0.384   4.301   7.071  0.3475  0.5636 -1.4307
 3754SOL    HW222722   0.399   4.155   7.046  0.2762 -0.1008 -0.7394
 3755SOL     OW22723   3.046   2.852   6.424 -0.0398  0.0026  0.0495
 3755SOL    HW122724   3.043   2.779   6.362  2.2511  0.6774 -0.8303
 3755SOL    HW222725   3.017   2.802   6.500  0.2834  0.6581  0.6032
 3756SOL     OW22726   0.751   0.682  14.353 -0.6016  0.0075  0.0632
 3756SOL    HW122727   0.815   0.639  14.296 -1.5374 -1.2481 -0.0263
 3756SOL    HW222728   0.697   0.607  14.377 -0.8839 -0.2095 -1.2777
 3757SOL     OW22729   4.627   0.672   3.237  0.7683 -0.6614  0.1057
 3757SOL    HW122730   4.601   0.663   3.145  1.7634  1.2353 -0.3624
 3757SOL    HW222731   4.596   0.758   3.266  0.3303 -1.4347  1.9095
 3758SOL     OW22732   1.495   2.903  10.099 -0.6206  0.4793  0.4110
 3758SOL    HW122733   1.492   2.827  10.157 -1.2849 -0.4274 -0.7870
 3758SOL    HW222734   1.577   2.942  10.129 -0.4872  1.5939 -1.3882
 3759SOL     OW22735   1.101   1.074   2.877 -0.2678  0.4509 -0.3892
 3759SOL    HW122736   1.131   1.126   2.951 -0.3189  0.7779 -0.5953
 3759SOL    HW222737   1.037   1.131   2.834  0.1273  1.6587  0.6168
 3760SOL     OW22738   4.477   2.660   8.356 -0.0589  0.0234 -0.2668
 3760SOL    HW122739   4.455   2.721   8.285  1.7222  2.2394  1.0732
 3760SOL    HW222740   4.552   2.708   8.391  0.2017  1.4166 -2.7548
 3761SOL     OW22741   0.992   3.767  10.013  0.0881  0.1293 -0.1190
 3761SOL    HW122742   1.060   3.824  10.049  2.5489 -2.7233 -0.1474
 3761SOL    HW222743   1.015   3.776   9.920 -0.5545 -0.4413 -0.3335
 3762SOL     OW22744   0.627   3.872   3.204 -0.5480 -0.7012 -0.5952
 3762SOL    HW122745   0.635   3.960   3.167  1.3916 -0.9106 -0.6512
 3762SOL    HW222746   0.531   3.867   3.211 -0.4487  0.1362  1.2735
 3763SOL     OW22747   4.138   0.006  14.752 -0.0660  0.1978 -0.3126
 3763SOL    HW122748   4.065   0.017  14.690 -0.6120  1.0920  0.4881
 3763SOL    HW222749   4.166   0.097  14.749 -1.3440  0.5291 -2.8450
 3764SOL     OW22750   1.638   1.107   1.038  0.0884  0.1989 -0.2999
 3764SOL    HW122751   1.656   1.026   1.085 -1.0488  0.5930  0.8334
 3764SOL    HW222752   1.544   1.116   1.058 -0.1294  0.7414 -1.6190
 3765SOL     OW22753   2.783   2.070   6.402 -0.9785  0.2036  0.5390
 3765SOL    HW122754   2.744   2.094   6.318 -2.3434 -0.9796  0.8340
 3765SOL    HW222755   2.862   2.023   6.373 -0.7650  0.4722  0.6770
 3766SOL     OW22756   0.200   2.315   7.163  0.0890  0.6954  0.0081
 3766SOL    HW122757   0.186   2.306   7.257  1.6420 -2.2367 -0.0317
 3766SOL    HW222758   0.148   2.241   7.131  0.8478 -0.9205  2.5585
 3767SOL     OW22759   1.523   2.273   7.202  0.2619  0.0332 -0.5352
 3767SOL    HW122760   1.611   2.257   7.237  1.1157  1.3409 -2.0851
 3767SOL    HW222761   1.507   2.205   7.136 -0.5553  1.7266 -2.0642
 3768SOL     OW22762   4.198   0.179   2.424 -0.2072 -0.3646 -0.4530
 3768SOL    HW122763   4.223   0.157   2.335 -0.9389  1.3073 -1.0755
 3768SOL    HW222764   4.127   0.121   2.451  0.4866 -0.2680  1.5647
 3769SOL     OW22765   3.243   1.757  12.116 -0.3864 -0.0925 -0.4010
 3769SOL    HW122766   3.264   1.722  12.203 -0.3342  3.0082  0.8257
 3769SOL    HW222767   3.332   1.777  12.087 -0.3563 -0.0875 -0.3052
 3770SOL     OW22768   1.435   1.849   8.982 -0.1055 -0.2531 -0.5504
 3770SOL    HW122769   1.369   1.786   8.953 -0.9893 -0.3482  1.6663
 3770SOL    HW222770   1.504   1.802   9.029 -0.6850 -1.6017 -1.0426
 3771SOL     OW22771   1.011   3.032   7.330  0.1776  0.4493  0.2750
 3771SOL    HW122772   0.996   3.029   7.424 -2.1555  2.0396 -0.0329
 3771SOL    HW222773   1.007   2.941   7.298 -0.4917 -0.0402  1.7636
 3772SOL     OW22774   3.911   3.074   1.087  0.4242 -0.8403 -0.5898
 3772SOL    HW122775   3.900   3.041   0.997 -2.4957  1.7891 -1.1835
 3772SOL    HW222776   4.005   3.087   1.079  0.1693  2.6161  2.0700
 3773SOL     OW22777   3.590   0.742   3.651 -0.2284 -0.4315  0.0249
 3773SOL    HW122778   3.596   0.648   3.635 -1.4272 -0.8617  2.0675
 3773SOL    HW222779   3.554   0.732   3.739 -2.4981 -0.7215 -0.9277
 3774SOL     OW22780   2.031   0.685   0.429  0.0678 -0.4317 -0.0756
 3774SOL    HW122781   2.112   0.726   0.459 -1.0690  0.5416  1.6678
 3774SOL    HW222782   2.052   0.676   0.336  3.2175  0.8971  0.4969
 3775SOL     OW22783   2.981   1.676   2.839  0.4783  0.0766 -0.4602
 3775SOL    HW122784   3.014   1.726   2.764 -1.6164 -0.6171 -1.8665
 3775SOL    HW222785   2.909   1.636   2.788 -0.8528  0.8082  0.8462
 3776SOL     OW22786   0.610   3.157   6.501 -0.2242 -0.4157  0.2308
 3776SOL    HW122787   0.618   3.213   6.578 -1.0926 -0.9186  0.6801
 3776SOL    HW222788   0.533   3.190   6.455  0.3326 -1.4725 -1.4691
 3777SOL     OW22789   2.084   1.640   0.663  0.2191 -0.5639  0.1914
 3777SOL    HW122790   2.115   1.565   0.714  0.7312 -1.2560 -1.1415
 3777SOL    HW222791   2.120   1.616   0.578  1.7457  1.1252  0.3668
 3778SOL     OW22792   0.682   2.249  12.922  0.4134 -0.2696  0.3695
 3778SOL    HW122793   0.734   2.181  12.879 -0.9296 -0.3834 -1.0609
 3778SOL    HW222794   0.641   2.208  12.998  0.1084 -1.0728 -0.2361
 3779SOL     OW22795   2.308   2.730   7.722  0.1385 -0.0373  0.2939
 3779SOL    HW122796   2.384   2.787   7.734  0.4524 -0.0807 -1.4683
 3779SOL    HW222797   2.227   2.781   7.721 -1.2605 -2.2591  1.3071
 3780SOL     OW22798   3.749   2.523  13.870  0.9757  0.8759  0.4749
 3780SOL    HW122799   3.821   2.585  13.874  0.3167  1.6364  0.6432
 3780SOL    HW222800   3.782   2.445  13.915 -0.1355 -0.6272 -1.3005
 3781SOL     OW22801   1.512   0.944   6.969 -0.1992 -0.0360  0.3687
 3781SOL    HW122802   1.547   0.981   7.049  0.5630 -1.1497  0.5626
 3781SOL    HW222803   1.418   0.951   6.982 -0.4044  0.5032 -1.3693
 3782SOL     OW22804   4.370   3.173   4.194 -0.1693 -0.0032  0.3324
 3782SOL    HW122805   4.386   3.078   4.197 -2.6741 -0.4613 -0.8600
 3782SOL    HW222806   4.426   3.193   4.119 -0.3005  0.2392  0.2996
 3783SOL     OW22807   0.321   4.063   4.856 -0.0208 -0.3095  0.1049
 3783SOL    HW122808   0.366   4.003   4.916 -0.3824  0.4672  1.1446
 3783SOL    HW222809   0.228   4.070   4.876 -0.2019  0.2085 -0.9652
 3784SOL     OW22810   1.385   2.371  10.398  0.1825 -0.2075 -0.0324
 3784SOL    HW122811   1.434   2.291  10.421 -1.0888 -1.4270 -1.5425
 3784SOL    HW222812   1.461   2.428  10.392 -1.1498  1.6115  0.4067
 3785SOL     OW22813   1.250   1.604   3.291  0.1099  0.8395 -0.1482
 3785SOL    HW122814   1.196   1.590   3.369  1.5030 -1.4902  0.3962
 3785SOL    HW222815   1.241   1.519   3.248  0.7288  0.3029  0.7842
 3786SOL     OW22816   2.810   3.548   9.383 -0.2534  0.6238  0.0236
 3786SOL    HW122817   2.895   3.581   9.354  0.0518  2.6391  3.1434
 3786SOL    HW222818   2.815   3.572   9.475  0.2596 -1.3738  0.5170
 3787SOL     OW22819   3.229   3.579   6.440  0.2286 -0.2110 -0.1278
 3787SOL    HW122820   3.280   3.634   6.382 -1.1396 -0.8556 -1.9593
 3787SOL    HW222821   3.203   3.501   6.390  0.4650 -0.8295  0.7045
 3788SOL     OW22822   4.163   4.576  16.473 -0.2400 -0.5016  0.5515
 3788SOL    HW122823   4.090   4.584  16.535 -1.7009 -0.1361 -1.2273
 3788SOL    HW222824   4.113   4.548  16.397 -0.5213 -0.2148  0.6301
 3789SOL     OW22825   1.413   3.724   3.717  0.2417  0.1695  0.6625
 3789SOL    HW122826   1.417   3.806   3.668  2.3345 -0.8863 -0.8956
 3789SOL    HW222827   1.325   3.690   3.701 -0.2904  2.9360 -2.1878
 3790SOL     OW22828   2.360   2.230   5.545  0.3205 -0.7226  0.3399
 3790SOL    HW122829   2.371   2.153   5.488 -0.9608  0.3163 -1.3357
 3790SOL    HW222830   2.272   2.216   5.581  0.2027  1.2633  0.8218
 3791SOL     OW22831   4.071   4.698   3.065  0.1519  0.1548  0.1586
 3791SOL    HW122832   4.059   4.638   2.992  0.8439 -0.4528  0.5336
 3791SOL    HW222833   4.102   0.049   3.009 -0.1901  0.4627  0.3573
 3792SOL     OW22834   1.204   1.278   4.618  0.0752 -0.8785 -0.1451
 3792SOL    HW122835   1.256   1.342   4.569  2.5004 -3.6316 -1.2436
 3792SOL    HW222836   1.116   1.302   4.589 -0.0011 -1.1604 -0.1521
 3793SOL     OW22837   4.503   0.817   2.589  0.0915  0.3665 -0.6245
 3793SOL    HW122838   4.442   0.752   2.624 -0.5879  1.1100 -0.4266
 3793SOL    HW222839   4.574   0.771   2.545 -0.5819 -0.4424 -0.8671
 3794SOL     OW22840   2.730   2.020   7.670 -0.0446  0.6191  0.1968
 3794SOL    HW122841   2.662   1.966   7.709  0.9343  0.0007  1.0320
 3794SOL    HW222842   2.703   2.108   7.694 -0.0252  0.9143 -0.8418
 3795SOL     OW22843   2.050   1.467   7.697 -0.6825  0.6035  0.2561
 3795SOL    HW122844   2.006   1.423   7.624 -0.4626 -1.9765  1.6721
 3795SOL    HW222845   2.134   1.421   7.701 -0.9684 -0.0339 -0.9232
 3796SOL     OW22846   3.194   1.949   5.821 -0.0340 -0.0238 -0.0617
 3796SOL    HW122847   3.218   1.866   5.780  2.6366  0.2492  0.9489
 3796SOL    HW222848   3.279   1.991   5.806 -0.0840 -0.0645 -0.4614
 3797SOL     OW22849   1.220   2.394  14.300 -0.1540  0.1876  0.2432
 3797SOL    HW122850   1.209   2.473  14.353  1.1371 -0.5024  1.5314
 3797SOL    HW222851   1.311   2.368  14.309 -0.4412 -1.0808 -0.4512
 3798SOL     OW22852   1.872   0.016   7.340 -0.5362 -0.4183 -0.1020
 3798SOL    HW122853   1.846   4.645   7.354  2.4221 -1.2483 -0.1700
 3798SOL    HW222854   1.786   0.053   7.362 -0.5147  0.2761 -1.1847
 3799SOL     OW22855   1.110   3.702   4.348 -0.4907 -0.1647  0.0551
 3799SOL    HW122856   1.195   3.684   4.387 -0.8234 -2.0376 -0.0805
 3799SOL    HW222857   1.082   3.610   4.340  0.3398 -0.5855  2.1149
 3800SOL     OW22858   2.241   0.024  16.135 -0.5833 -0.6174 -0.0233
 3800SOL    HW122859   2.284   0.107  16.156  0.2200 -1.5448  1.9750
 3800SOL    HW222860   2.316   4.698  16.171  1.2878  2.4205 -0.0513
 3801SOL     OW22861   4.103   2.330   7.847  0.0102 -0.0565  0.2634
 3801SOL    HW122862   4.064   2.395   7.789 -1.4541 -1.7444 -0.6430
 3801SOL    HW222863   4.194   2.358   7.850  0.0174  0.1343 -1.3955
 3802SOL     OW22864   0.653   2.385   0.047 -0.1856  0.2201 -0.0691
 3802SOL    HW122865   0.709   2.348   0.115  0.5808  0.4474 -0.5679
 3802SOL    HW222866   0.606   2.459   0.086 -3.1359 -1.2172 -0.9580
 3803SOL     OW22867   0.227   3.665   1.200 -0.3365 -0.0273 -0.5307
 3803SOL    HW122868   0.177   3.741   1.169 -1.6008 -0.0685  1.3732
 3803SOL    HW222869   0.157   3.614   1.241  1.9954 -1.4942  1.5540
 3804SOL     OW22870   4.656   1.074   3.179 -0.3884  0.1748  0.1565
 3804SOL    HW122871   4.632   1.008   3.244 -2.1481 -0.9371 -1.6096
 3804SOL    HW222872   4.661   1.018   3.101  2.0222 -0.6530  0.9224
 3805SOL     OW22873   4.051   1.441   0.781  0.3533 -0.5647  0.2261
 3805SOL    HW122874   3.958   1.421   0.783  0.3752 -0.8458 -1.5380
 3805SOL    HW222875   4.056   1.520   0.834 -2.4511  0.0174 -0.3991
 3806SOL     OW22876   2.870   2.143  16.863  0.0610 -0.4021  0.1158
 3806SOL    HW122877   2.824   2.063  16.887 -0.0586  0.1816  1.8489
 3806SOL    HW222878   2.797   2.204  16.854 -1.5137 -2.0648  1.7035
 3807SOL     OW22879   4.423   3.897  11.835 -0.4804 -0.3602 -0.1271
 3807SOL    HW122880   4.439   3.990  11.850 -2.7742 -0.3635  2.4917
 3807SOL    HW222881   4.411   3.890  11.741 -2.2959  1.6047 -0.0362
 3808SOL     OW22882   0.277   4.622   1.611 -0.3364  0.0414 -0.0440
 3808SOL    HW122883   0.303   4.658   1.526  0.5925 -0.3050  0.0989
 3808SOL    HW222884   0.361   4.581   1.630 -1.0329 -1.5389 -0.2896
 3809SOL     OW22885   3.804   2.360   7.917 -0.8227  0.0603  0.3948
 3809SOL    HW122886   3.898   2.345   7.912 -0.8748  0.7669 -2.5648
 3809SOL    HW222887   3.782   2.425   7.850  0.1146  1.2886  1.2767
 3810SOL     OW22888   3.896   0.607   4.523  0.1709 -0.0393 -0.3499
 3810SOL    HW122889   3.984   0.643   4.510  0.6481 -1.4689 -1.0697
 3810SOL    HW222890   3.915   0.513   4.529  1.5686  0.2562 -0.1032
 3811SOL     OW22891   1.067   3.867  15.820 -0.0661  0.2713 -0.0260
 3811SOL    HW122892   1.110   3.938  15.772 -0.1108 -1.1904 -2.2253
 3811SOL    HW222893   1.003   3.924  15.862 -0.3270  0.5634 -0.8083
 3812SOL     OW22894   4.316   3.582   7.897 -0.3315 -0.3816  0.4587
 3812SOL    HW122895   4.286   3.571   7.807  0.0833 -0.0351  0.2787
 3812SOL    HW222896   4.341   3.674   7.894  0.1712 -0.5168  0.5016
 3813SOL     OW22897   0.325   0.859   2.381 -0.0624  0.3498  0.9738
 3813SOL    HW122898   0.234   0.846   2.356  0.2852 -0.9106  0.3178
 3813SOL    HW222899   0.356   0.769   2.371 -0.2892  0.2717  0.9856
 3814SOL     OW22900   2.368   3.722   7.519 -0.2236 -0.1016 -0.0035
 3814SOL    HW122901   2.373   3.708   7.614  0.7774  1.6351  0.1988
 3814SOL    HW222902   2.276   3.748   7.514 -0.2509  0.1913  2.0270
 3815SOL     OW22903   0.287   0.674   3.479  0.4695  0.1332 -0.6137
 3815SOL    HW122904   0.283   0.737   3.551 -1.4850 -0.0954 -0.5155
 3815SOL    HW222905   0.206   0.623   3.478  1.4534 -1.4279 -2.6453
 3816SOL     OW22906   1.524   3.338  11.933  0.0998  0.2168 -0.1237
 3816SOL    HW122907   1.549   3.280  11.862 -2.1084  0.1634 -0.8679
 3816SOL    HW222908   1.559   3.293  12.010 -0.1932 -1.3836 -0.9390
 3817SOL     OW22909   0.552   0.503  14.413 -0.9557  0.1017 -0.3864
 3817SOL    HW122910   0.478   0.535  14.465 -0.5522 -0.4501  0.5140
 3817SOL    HW222911   0.559   0.411  14.436  2.7004  1.0217  2.3328
 3818SOL     OW22912   0.858   3.354   4.837  0.0994  0.2198 -0.3024
 3818SOL    HW122913   0.920   3.320   4.772  0.7303 -0.3370  0.5812
 3818SOL    HW222914   0.926   3.351   4.905 -0.2372  3.2320  0.1799
 3819SOL     OW22915   1.044   0.356   2.216 -0.3197  0.5535 -0.6520
 3819SOL    HW122916   1.122   0.301   2.224 -2.1572 -1.8901  0.3267
 3819SOL    HW222917   1.077   0.425   2.158 -0.1163  1.3016  0.3524
 3820SOL     OW22918   4.451   2.864   9.278  0.3571  0.2696  0.5894
 3820SOL    HW122919   4.397   2.785   9.286 -1.8983  1.6802 -0.8794
 3820SOL    HW222920   4.521   2.838   9.338 -0.1929  1.0232  1.5577
 3821SOL     OW22921   0.510   2.815   6.589 -0.1429  0.0955  0.1591
 3821SOL    HW122922   0.564   2.837   6.513  0.4490 -0.7613  0.3365
 3821SOL    HW222923   0.563   2.755   6.640  0.1239 -0.0306 -0.2643
 3822SOL     OW22924   1.921   0.354   4.364  0.3260 -0.3007  0.0675
 3822SOL    HW122925   1.894   0.334   4.274  0.3620 -2.3042  0.5216
 3822SOL    HW222926   1.959   0.441   4.352 -2.2537  1.0278  1.5079
 3823SOL     OW22927   1.523   4.276   3.785 -0.1808  0.0052  0.2312
 3823SOL    HW122928   1.501   4.292   3.693 -0.2969 -1.5909 -0.0094
 3823SOL    HW222929   1.607   4.232   3.778 -0.6037 -0.7037 -0.4024
 3824SOL     OW22930   0.748   0.925   7.114  0.7986 -0.0961 -0.5324
 3824SOL    HW122931   0.776   0.993   7.174 -2.5149  0.3969  0.4643
 3824SOL    HW222932   0.805   0.929   7.038  1.2271  0.6397 -0.1716
 3825SOL     OW22933   4.010   1.408   1.076  0.1118 -0.0965  0.2264
 3825SOL    HW122934   4.032   1.375   0.988  2.1867  0.0322  0.6867
 3825SOL    HW222935   4.039   1.500   1.079 -0.9350  0.2679 -0.9428
 3826SOL     OW22936   1.863   0.075   3.467  0.3169 -0.3774 -0.2997
 3826SOL    HW122937   1.811   0.107   3.392 -2.2648 -0.9317  1.2323
 3826SOL    HW222938   1.909   4.719   3.431  1.3800 -0.8161  2.0228
 3827SOL     OW22939   3.360   1.540   5.926 -0.5970  0.5663 -0.4021
 3827SOL    HW122940   3.300   1.580   5.990  1.3351 -0.8915  2.3180
 3827SOL    HW222941   3.441   1.552   5.976 -0.7272 -0.2792  0.0182
 3828SOL     OW22942   1.242   1.180  16.255  0.4720 -0.0457  0.2995
 3828SOL    HW122943   1.183   1.192  16.181  2.4424 -0.6723 -1.3998
 3828SOL    HW222944   1.191   1.227  16.321  2.7507  0.5712  1.6245
 3829SOL     OW22945   4.378   3.691   8.541  0.3481  0.2234  0.6331
 3829SOL    HW122946   4.344   3.769   8.497 -0.2858 -0.7697 -0.6345
 3829SOL    HW222947   4.468   3.714   8.565 -0.2969  1.4804  1.8763
 3830SOL     OW22948   2.029   3.759   2.887  0.2778  0.4392  0.3934
 3830SOL    HW122949   2.009   3.820   2.817 -0.4084  1.1278  1.1958
 3830SOL    HW222950   2.114   3.794   2.916  0.2271  2.1656 -1.5313
 3831SOL     OW22951   1.548   2.762  13.886 -0.0432  0.3483 -0.6307
 3831SOL    HW122952   1.495   2.730  13.812 -0.2668 -1.4598  0.3176
 3831SOL    HW222953   1.480   2.813  13.930  0.0348  0.6576 -0.8693
 3832SOL     OW22954   3.973   1.635   8.353  0.0340 -0.0490 -0.2253
 3832SOL    HW122955   3.956   1.610   8.444 -0.3007  0.3262 -0.1857
 3832SOL    HW222956   3.955   1.729   8.363 -1.2576  0.1182 -4.3538
 3833SOL     OW22957   1.375   1.553   6.843 -0.1083  0.0314 -0.4613
 3833SOL    HW122958   1.447   1.570   6.903  1.6995 -4.6199 -1.3217
 3833SOL    HW222959   1.351   1.464   6.869  0.1251  0.6082  1.6946
 3834SOL     OW22960   3.891   4.260   3.025 -0.0441  0.6681  0.0504
 3834SOL    HW122961   3.834   4.220   3.090  0.7879  1.4204  1.2487
 3834SOL    HW222962   3.915   4.184   2.972  2.7869  0.4427  1.6173
 3835SOL     OW22963   2.063   1.978   0.069 -0.4928 -0.0278 -0.3476
 3835SOL    HW122964   2.135   1.946   0.015 -3.0523 -1.1458 -3.0473
 3835SOL    HW222965   1.987   1.927   0.042  1.0760 -1.5128 -1.8894
 3836SOL     OW22966   0.833   2.036   5.401  0.2026 -0.4948 -0.0471
 3836SOL    HW122967   0.840   2.128   5.427 -0.0779 -0.4931  0.0228
 3836SOL    HW222968   0.798   1.986   5.475 -1.3879  1.2880  0.3912
 3837SOL     OW22969   0.073   1.950   3.611  0.3614 -0.5059  0.2640
 3837SOL    HW122970   0.108   1.869   3.648 -1.0115 -1.6760 -0.9811
 3837SOL    HW222971   0.106   1.944   3.521 -0.2733  0.2828 -0.0180
 3838SOL     OW22972   4.020   4.150   9.396  0.3682  0.2513  0.0831
 3838SOL    HW122973   3.971   4.137   9.477  0.0952 -0.1796 -0.1570
 3838SOL    HW222974   4.066   4.224   9.436  1.0280  0.4573 -1.0495
 3839SOL     OW22975   0.749   4.123   8.765  0.0240  0.1408 -0.0633
 3839SOL    HW122976   0.839   4.150   8.747  0.7272 -1.4629  1.1522
 3839SOL    HW222977   0.699   4.141   8.686  1.1769 -1.4689 -1.1496
 3840SOL     OW22978   0.481   3.108  17.306  0.0577 -0.1971  0.0607
 3840SOL    HW122979   0.493   3.116  17.400  1.9459 -1.7740 -0.0464
 3840SOL    HW222980   0.525   3.026  17.283  2.0304  1.0857 -0.7872
 3841SOL     OW22981   2.689   0.985  14.290  0.2906  0.5854  0.5745
 3841SOL    HW122982   2.696   1.002  14.384  0.9923  1.7304  0.3150
 3841SOL    HW222983   2.639   1.064  14.269 -0.5741  0.2919  1.5581
 3842SOL     OW22984   1.983   3.531   5.336  0.2236  0.0411 -0.3481
 3842SOL    HW122985   1.989   3.602   5.272 -0.9524 -0.5960 -1.1755
 3842SOL    HW222986   2.029   3.571   5.409 -0.7975  1.3065 -0.3985
 3843SOL     OW22987   1.526   4.563   3.842 -0.1951 -0.7180  0.2052
 3843SOL    HW122988   1.498   4.472   3.856 -0.7818 -0.7338 -1.0140
 3843SOL    HW222989   1.469   4.608   3.904 -0.7241 -2.8982  1.3038
 3844SOL     OW22990   0.472   0.317   1.265 -0.5079  0.5233 -0.5716
 3844SOL    HW122991   0.393   0.367   1.243 -0.5913  1.0488  0.9406
 3844SOL    HW222992   0.474   0.251   1.196 -1.4668  1.0564 -1.1176
 3845SOL     OW22993   2.273   3.825  17.606 -0.0839 -0.2974 -0.2424
 3845SOL    HW122994   2.249   3.743  17.648  2.0443 -0.2177  1.1326
 3845SOL    HW222995   2.329   3.789  17.537 -0.0215 -2.6674  1.0503
 3846SOL     OW22996   3.562   2.301  11.662 -0.0722  0.3893 -0.4161
 3846SOL    HW122997   3.517   2.217  11.656  0.1690  0.2478 -0.2320
 3846SOL    HW222998   3.543   2.335  11.574 -1.6749  0.1131 -0.1668
 3847SOL     OW22999   4.342   0.681  10.541 -0.3345 -0.0650 -0.5654
 3847SOL    HW123000   4.388   0.598  10.538  1.1731  0.6463  2.5685
 3847SOL    HW223001   4.373   0.727  10.618  0.7603 -0.2733 -0.8832
 3848SOL     OW23002   1.174   0.537   1.631  0.2861 -0.1746 -0.0409
 3848SOL    HW123003   1.208   0.604   1.572  1.4756 -0.0389  0.8057
 3848SOL    HW223004   1.192   0.584   1.712 -0.6466  0.2092 -0.0599
 3849SOL     OW23005   1.339   0.997  10.554  0.0553 -0.0984 -0.6106
 3849SOL    HW123006   1.409   1.034  10.500 -0.4480 -0.8597 -1.8139
 3849SOL    HW223007   1.383   0.999  10.639  0.4469 -0.7659 -0.7962
 3850SOL     OW23008   0.771   2.457   7.127  0.3464 -0.3762  0.4916
 3850SOL    HW123009   0.807   2.398   7.061  2.9004  0.0186  1.5562
 3850SOL    HW223010   0.677   2.441   7.120  0.6392 -1.0125 -2.0150
 3851SOL     OW23011   3.525   3.191   8.485 -0.1735  0.3918  0.2325
 3851SOL    HW123012   3.535   3.163   8.576  0.6369 -1.0656 -0.3017
 3851SOL    HW223013   3.569   3.274   8.497 -0.0732  0.7741 -2.8439
 3852SOL     OW23014   4.465   1.627  11.618 -0.9121 -0.3900  0.6013
 3852SOL    HW123015   4.372   1.627  11.595 -0.6467  2.1229 -0.4714
 3852SOL    HW223016   4.472   1.576  11.699  0.5260  2.6421  2.3949
 3853SOL     OW23017   3.072   0.254  11.486  0.0987  0.4577  0.2944
 3853SOL    HW123018   3.160   0.284  11.508  1.2737 -1.0943 -2.3698
 3853SOL    HW223019   3.018   0.282  11.560  1.0940  0.9185  0.8582
 3854SOL     OW23020   2.584   1.589   5.444 -0.4794 -0.1314  0.0443
 3854SOL    HW123021   2.659   1.565   5.499  0.2962  0.9815 -0.5077
 3854SOL    HW223022   2.515   1.535   5.481  1.1153 -3.2986 -1.5948
 3855SOL     OW23023   4.063   4.686   8.113 -0.0604  0.7348  0.1571
 3855SOL    HW123024   4.003   0.009   8.173  1.8303  2.2948  0.9293
 3855SOL    HW223025   4.034   4.595   8.110  0.7215  0.4132  2.5840
 3856SOL     OW23026   1.145   1.982  11.339 -0.3750 -0.0402 -0.0277
 3856SOL    HW123027   1.052   1.959  11.350 -0.7161  1.3497  0.0675
 3856SOL    HW223028   1.156   1.977  11.244  1.4329 -1.4180  0.2576
 3857SOL     OW23029   0.868   1.595   4.482 -0.4978 -0.2038  0.6001
 3857SOL    HW123030   0.920   1.653   4.427  0.6608 -1.0102  0.8612
 3857SOL    HW223031   0.824   1.667   4.526  0.6733  2.3580 -2.3591
 3858SOL     OW23032   3.945   3.871   2.952 -0.0357  0.3462  0.0985
 3858SOL    HW123033   3.948   3.836   2.863 -0.5157  0.0348  0.1998
 3858SOL    HW223034   3.854   3.861   2.980 -0.3329  0.5322 -0.8344
 3859SOL     OW23035   2.938   3.665   6.114 -0.2179  0.4322 -0.4344
 3859SOL    HW123036   2.952   3.578   6.150  2.0632  0.0638 -2.1992
 3859SOL    HW223037   2.962   3.664   6.021  2.7479 -2.2997  0.3887
 3860SOL     OW23038   3.859   1.616   1.906 -0.8699  0.1674  0.3244
 3860SOL    HW123039   3.926   1.661   1.957 -0.3657 -0.8560  0.5640
 3860SOL    HW223040   3.808   1.692   1.880 -2.2129 -1.0796 -0.7271
 3861SOL     OW23041   1.853   1.117   3.073  0.3005  0.2064  0.4588
 3861SOL    HW123042   1.888   1.053   3.136  0.9033 -0.8061 -0.9082
 3861SOL    HW223043   1.832   1.189   3.133 -0.7516  2.0573 -2.1297
 3862SOL     OW23044   3.169   3.836   6.229  0.3307 -0.3349  0.0995
 3862SOL    HW123045   3.118   3.855   6.150 -0.4557  1.5725  1.0710
 3862SOL    HW223046   3.243   3.784   6.198 -0.7841 -1.0433 -1.3636
 3863SOL     OW23047   0.049   0.960   5.114 -0.0247 -0.0108 -0.4889
 3863SOL    HW123048   0.013   1.048   5.108  0.5691  0.3144  0.7067
 3863SOL    HW223049   0.135   0.960   5.073 -0.6698 -1.1385 -1.8636
 3864SOL     OW23050   0.409   1.315  17.133 -0.1481  0.0533  0.0064
 3864SOL    HW123051   0.498   1.297  17.103 -0.9860 -0.0111 -2.4346
 3864SOL    HW223052   0.412   1.271  17.218  1.6533  0.5621  0.2095
 3865SOL     OW23053   0.920   3.264  15.126  0.0971  0.0840 -0.0845
 3865SOL    HW123054   0.890   3.217  15.203  1.1239 -0.2783  0.0950
 3865SOL    HW223055   1.009   3.227  15.130  0.5361  1.3262  2.0213
 3866SOL     OW23056   2.130   3.497   3.645  0.3065 -0.2254 -0.0366
 3866SOL    HW123057   2.107   3.412   3.608 -1.7720 -0.6124  2.1864
 3866SOL    HW223058   2.178   3.469   3.723 -3.0712  0.8286  2.4026
 3867SOL     OW23059   1.038   1.387   1.408 -0.4527 -0.0387 -0.0694
 3867SOL    HW123060   1.095   1.370   1.483 -0.3211  1.1541  0.0878
 3867SOL    HW223061   1.090   1.437   1.345  1.0875  0.8510  1.9227
 3868SOL     OW23062   0.055   0.245   3.937  0.6073  0.2620 -0.0649
 3868SOL    HW123063   0.148   0.257   3.920  0.6057 -1.9197 -1.6202
 3868SOL    HW223064   0.039   0.170   3.880 -0.0350  0.5411 -0.2582
 3869SOL     OW23065   0.791   0.417   4.204 -0.1392 -0.1363 -0.2147
 3869SOL    HW123066   0.867   0.363   4.224 -0.8464 -1.3997 -0.9481
 3869SOL    HW223067   0.819   0.466   4.126  1.9344 -2.7357 -1.1068
 3870SOL     OW23068   4.233   3.979   7.558 -0.1116 -0.0413 -0.2660
 3870SOL    HW123069   4.275   4.058   7.592  1.4999 -0.2498 -1.8090
 3870SOL    HW223070   4.232   4.006   7.467 -2.4062  2.4443  0.5019
 3871SOL     OW23071   3.473   0.491   8.302  0.0208 -0.5501  0.2458
 3871SOL    HW123072   3.465   0.415   8.360  1.4937  0.1290  1.3359
 3871SOL    HW223073   3.500   0.437   8.227 -0.1055 -1.9424  1.1945
 3872SOL     OW23074   0.250   3.184   7.720 -0.3467 -0.1877  0.1744
 3872SOL    HW123075   0.202   3.156   7.642 -0.6367  0.2132  0.2067
 3872SOL    HW223076   0.342   3.185   7.695 -0.7420 -1.2333 -1.2753
 3873SOL     OW23077   0.284   0.936  10.741  0.0739  0.0572 -0.4164
 3873SOL    HW123078   0.240   0.851  10.744 -0.5650  0.3264 -1.8889
 3873SOL    HW223079   0.231   0.990  10.800 -1.4303  1.2122 -2.7863
 3874SOL     OW23080   2.987   0.132  14.267  0.1150 -0.4717  0.3582
 3874SOL    HW123081   3.028   0.050  14.297 -2.2839 -1.4843  0.8461
 3874SOL    HW223082   2.991   0.118  14.172 -1.1739 -2.7247  0.6243
 3875SOL     OW23083   2.225   3.866  11.198  0.2989 -0.1970 -0.1850
 3875SOL    HW123084   2.184   3.873  11.111  0.4568 -0.4811 -0.2800
 3875SOL    HW223085   2.197   3.781  11.231 -1.7734  0.9815  1.1167
 3876SOL     OW23086   2.755   2.632   6.454  0.0043 -0.1383  0.6090
 3876SOL    HW123087   2.722   2.722   6.458 -2.1927 -0.9768  1.3802
 3876SOL    HW223088   2.674   2.585   6.432  1.8643 -1.7860 -2.7287
 3877SOL     OW23089   2.966   3.570   3.807 -0.2640  0.3793  0.8182
 3877SOL    HW123090   3.011   3.618   3.738 -0.9203 -1.3549 -0.8164
 3877SOL    HW223091   3.039   3.520   3.843 -0.7865 -2.1215 -1.5967
 3878SOL     OW23092   1.356   3.029   6.245  0.3799  0.0178 -0.1690
 3878SOL    HW123093   1.273   2.982   6.241 -0.6827  1.8464  0.3047
 3878SOL    HW223094   1.363   3.063   6.335 -1.4365  0.7218 -0.2899
 3879SOL     OW23095   1.344   2.209  10.159 -0.2816 -0.1643  0.0072
 3879SOL    HW123096   1.362   2.255  10.241 -1.5419  2.1727 -1.0320
 3879SOL    HW223097   1.327   2.279  10.097  0.0031 -0.1683 -0.0715
 3880SOL     OW23098   3.461   1.328   1.369  0.3529  0.2725 -0.3293
 3880SOL    HW123099   3.453   1.415   1.329  1.5492  0.7028  0.3731
 3880SOL    HW223100   3.366   1.313   1.376  0.7144 -0.2891  3.2358
 3881SOL     OW23101   2.183   2.312   4.283  0.0837  0.2584 -0.1511
 3881SOL    HW123102   2.188   2.405   4.305 -0.0161  0.6115 -1.5983
 3881SOL    HW223103   2.109   2.317   4.223 -1.6134 -3.1238  1.6323
 3882SOL     OW23104   2.428   1.360   1.383 -0.3334  0.1954 -0.1039
 3882SOL    HW123105   2.387   1.315   1.457 -1.5916  2.4637  0.5631
 3882SOL    HW223106   2.365   1.328   1.318  0.9847 -1.2920 -0.6269
 3883SOL     OW23107   1.424   0.932  10.803  0.3800 -0.2730 -0.1444
 3883SOL    HW123108   1.475   0.856  10.831  0.3318  0.1924  1.1728
 3883SOL    HW223109   1.420   0.981  10.885  3.9245  0.0205 -0.1403
 3884SOL     OW23110   2.291   2.120  10.849 -0.4486 -0.2949 -0.1964
 3884SOL    HW123111   2.292   2.168  10.932  0.5702 -1.4017  0.4215
 3884SOL    HW223112   2.268   2.192  10.790 -1.6805 -0.3273  0.2601
 3885SOL     OW23113   3.554   1.013   5.194  0.9095 -0.1881 -0.1253
 3885SOL    HW123114   3.611   1.053   5.129  1.0991  1.7201  1.2387
 3885SOL    HW223115   3.466   1.027   5.158  1.2039  2.3378  0.1799
 3886SOL     OW23116   1.044   0.943  11.444 -0.3386  0.1313 -0.0005
 3886SOL    HW123117   1.067   0.917  11.533 -0.2240 -0.4746 -0.2052
 3886SOL    HW223118   0.969   0.886  11.426 -0.3204 -0.2855  1.2786
 3887SOL     OW23119   1.574   2.304  13.664 -0.6411 -0.3988  0.1328
 3887SOL    HW123120   1.631   2.344  13.600 -1.1403 -0.5381 -0.3966
 3887SOL    HW223121   1.519   2.250  13.608  1.0963 -0.9417 -1.0441
 3888SOL     OW23122   4.705   1.755   0.749 -0.8247  0.0867  0.6175
 3888SOL    HW123123   4.661   1.736   0.666  1.7149 -0.4655 -0.6187
 3888SOL    HW223124   0.039   1.677   0.761  1.7511  1.7996  0.0975
 3889SOL     OW23125   0.264   2.172   0.306 -0.6124  0.5998  0.2775
 3889SOL    HW123126   0.313   2.142   0.230 -0.4420  0.5584  0.4037
 3889SOL    HW223127   0.317   2.242   0.342  2.0283 -1.7955  0.9997
 3890SOL     OW23128   2.523   2.680  15.215 -0.3284 -0.1158  0.0391
 3890SOL    HW123129   2.465   2.649  15.285  0.5990 -1.0738  0.3899
 3890SOL    HW223130   2.541   2.606  15.156  0.7677 -2.4157  3.2256
 3891SOL     OW23131   3.941   2.598  14.793  0.5207 -0.3355  1.2731
 3891SOL    HW123132   4.026   2.566  14.821  1.0490  2.4630  2.8871
 3891SOL    HW223133   3.891   2.517  14.790  0.6301 -0.4375  2.4091
 3892SOL     OW23134   4.129   2.705   6.203  0.2034  0.2409  0.1539
 3892SOL    HW123135   4.112   2.772   6.269 -1.2018 -0.4428  0.4850
 3892SOL    HW223136   4.139   2.772   6.135  1.1960  0.8416  0.8959
 3893SOL     OW23137   4.423   2.341   4.718 -0.2606  0.0221 -0.0819
 3893SOL    HW123138   4.341   2.389   4.714  0.8270  1.8613 -0.5517
 3893SOL    HW223139   4.464   2.383   4.642  0.9117 -0.1527  0.4444
 3894SOL     OW23140   2.155   3.777   3.406  0.1828 -0.4347 -0.2078
 3894SOL    HW123141   2.081   3.736   3.362 -0.0362 -1.7134  1.3431
 3894SOL    HW223142   2.201   3.697   3.432 -0.1617 -0.1413  1.3048
 3895SOL     OW23143   0.748   3.728   8.687  0.3613  0.0304  0.2420
 3895SOL    HW123144   0.708   3.643   8.708  0.3348 -0.2205 -0.8174
 3895SOL    HW223145   0.767   3.767   8.772 -0.3477  0.6576  0.1242
 3896SOL     OW23146   3.692   2.656   8.382  0.2700  0.4048  0.4820
 3896SOL    HW123147   3.747   2.719   8.427  0.5964  0.4032  0.0789
 3896SOL    HW223148   3.599   2.672   8.402 -0.5518 -1.8486 -1.4467
 3897SOL     OW23149   1.836   2.527   6.859 -0.2081  0.1584 -0.3338
 3897SOL    HW123150   1.896   2.549   6.929  0.2797 -0.8558 -0.4332
 3897SOL    HW223151   1.754   2.516   6.907 -0.9004 -2.3687 -2.0313
 3898SOL     OW23152   2.051   2.982   7.655  0.1234  0.4566  0.0556
 3898SOL    HW123153   1.991   2.912   7.680  0.0412  0.7915  0.8112
 3898SOL    HW223154   1.990   3.053   7.675  1.1247  0.9235  1.5284
 3899SOL     OW23155   4.254   4.063   6.157  0.3218 -0.2119  0.6396
 3899SOL    HW123156   4.193   3.998   6.191  0.0067 -1.3859 -2.2452
 3899SOL    HW223157   4.311   4.010   6.101 -1.3944 -0.3455 -0.9400
 3900SOL     OW23158   1.358   0.940   5.582  0.5723  0.6990  0.1466
 3900SOL    HW123159   1.390   0.924   5.671  2.1671  0.8130 -0.4065
 3900SOL    HW223160   1.325   1.030   5.586 -1.0578  0.0765  0.5636
 3901SOL     OW23161   0.119   2.033   8.079 -0.1187 -0.0923 -0.2807
 3901SOL    HW123162   0.093   1.958   8.131 -1.2288  0.0176 -0.6768
 3901SOL    HW223163   0.140   2.094   8.150 -2.9442 -2.4942  2.6039
 3902SOL     OW23164   2.916   0.189   5.064  0.7359  0.3757 -0.4695
 3902SOL    HW123165   2.998   0.224   5.098  1.6019 -0.4600 -1.6918
 3902SOL    HW223166   2.947   0.147   4.984  0.2342 -0.1301 -0.4027
 3903SOL     OW23167   1.332   0.196   6.210  0.2602 -0.3585 -0.0522
 3903SOL    HW123168   1.328   0.101   6.196 -0.0082 -0.2597 -0.6406
 3903SOL    HW223169   1.422   0.203   6.241 -0.2234 -0.7334  1.4149
 3904SOL     OW23170   4.256   1.609  11.450 -0.2568 -0.3299 -0.3635
 3904SOL    HW123171   4.166   1.640  11.440 -0.2331 -0.3415 -0.6237
 3904SOL    HW223172   4.269   1.594  11.356  0.1420  0.4296 -0.4353
 3905SOL     OW23173   1.013   1.204   6.859 -0.1556 -0.2355  0.7127
 3905SOL    HW123174   1.085   1.203   6.796 -0.0455 -1.5730  0.8756
 3905SOL    HW223175   1.067   1.221   6.936 -1.6103 -0.9685  1.8991
 3906SOL     OW23176   4.376   2.955  16.757  0.2446  1.2120  0.5110
 3906SOL    HW123177   4.373   2.986  16.667 -1.1833  3.7296  1.4145
 3906SOL    HW223178   4.284   2.967  16.779  0.1598 -1.5522  1.6512
 3907SOL     OW23179   2.632   3.081  11.462 -0.1069  0.4885  0.1280
 3907SOL    HW123180   2.621   2.992  11.428  0.2017 -0.0284  1.3662
 3907SOL    HW223181   2.550   3.087  11.510  0.1936  1.7904  0.4922
 3908SOL     OW23182   2.513   3.039   5.510 -0.2421 -0.6853  0.5131
 3908SOL    HW123183   2.526   3.021   5.603 -2.1331  0.1101  0.9290
 3908SOL    HW223184   2.570   2.971   5.475  1.1527  0.2218  0.9989
 3909SOL     OW23185   0.071   1.512   4.465 -0.1201 -0.2712 -0.7660
 3909SOL    HW123186   0.029   1.459   4.397 -0.4408 -1.5177  0.4061
 3909SOL    HW223187   0.110   1.589   4.423 -0.9844  1.1416  1.0241
 3910SOL     OW23188   2.925   3.397   4.805 -0.1830  0.1239  0.3379
 3910SOL    HW123189   2.948   3.357   4.889 -1.1495  0.2334  0.6515
 3910SOL    HW223190   2.971   3.481   4.813 -0.1730  0.4771 -3.6703
 3911SOL     OW23191   3.024   3.250   3.313  0.2545  0.4647  0.4850
 3911SOL    HW123192   3.031   3.165   3.357 -0.9160 -0.0935 -0.4056
 3911SOL    HW223193   2.984   3.220   3.232  0.5734  1.7168 -0.1348
 3912SOL     OW23194   0.552   4.195   1.823  0.2525  0.0525  0.6731
 3912SOL    HW123195   0.627   4.222   1.769  0.6473 -0.2945  1.0485
 3912SOL    HW223196   0.591   4.193   1.911 -1.7283 -3.0595  1.4857
 3913SOL     OW23197   1.752   4.192   6.166 -0.1193 -0.2117  0.2089
 3913SOL    HW123198   1.697   4.223   6.094 -1.7759 -0.7887  1.2423
 3913SOL    HW223199   1.826   4.253   6.160 -0.8489  0.6738  0.1862
 3914SOL     OW23200   3.787   3.789   1.560  0.1534 -0.5457  0.1834
 3914SOL    HW123201   3.844   3.866   1.561 -2.2411  1.2022 -0.5401
 3914SOL    HW223202   3.826   3.724   1.501 -0.6213 -1.4413  0.6462
 3915SOL     OW23203   4.657   3.736   5.527  0.0177 -0.3076 -0.0750
 3915SOL    HW123204   4.601   3.696   5.461 -0.7068  0.9473 -0.2265
 3915SOL    HW223205   4.665   3.669   5.595 -2.1669  0.1883  0.6735
 3916SOL     OW23206   0.800   1.274   4.991  0.1683 -0.3793  0.7328
 3916SOL    HW123207   0.755   1.281   4.906  0.1220 -0.4184  0.7536
 3916SOL    HW223208   0.761   1.334   5.054 -0.7374 -1.2415  0.9953
 3917SOL     OW23209   4.701   2.970   4.345  0.0089 -0.1822  0.0827
 3917SOL    HW123210   0.016   2.914   4.414  0.3978  0.2518  0.2435
 3917SOL    HW223211   4.612   2.940   4.327 -0.3638  1.4903 -0.9119
 3918SOL     OW23212   1.183   1.563   1.204 -0.4321  0.7771  0.4290
 3918SOL    HW123213   1.248   1.632   1.220  0.5196  0.2832 -1.3040
 3918SOL    HW223214   1.232   1.508   1.143 -1.7146  1.6901 -1.4249
 3919SOL     OW23215   2.733   2.013   2.062 -0.5237  0.6472 -0.0535
 3919SOL    HW123216   2.732   2.108   2.078  1.7994  0.6836 -0.1543
 3919SOL    HW223217   2.772   2.001   1.976 -1.3198 -0.2455 -0.2909
 3920SOL     OW23218   3.891   0.488  15.365  0.4608  0.1121  0.2806
 3920SOL    HW123219   3.980   0.517  15.383  0.2943  0.7886  0.0168
 3920SOL    HW223220   3.870   0.517  15.277 -1.3091  0.6054  0.8682
 3921SOL     OW23221   1.596   3.000  15.544  0.4309  0.6365 -0.0980
 3921SOL    HW123222   1.534   3.041  15.604  1.0285  1.0023  0.2722
 3921SOL    HW223223   1.533   2.971  15.479  0.0769  2.0294 -0.3789
 3922SOL     OW23224   3.119   4.671   3.722  0.0840 -0.8183 -1.0583
 3922SOL    HW123225   3.071   4.593   3.694  1.0918 -1.3497 -1.3088
 3922SOL    HW223226   3.146   4.626   3.803  1.0942  0.6375 -0.5895
 3923SOL     OW23227   2.305   1.264   1.612  0.3197 -0.0578  0.1129
 3923SOL    HW123228   2.342   1.275   1.699  1.3951 -0.5520 -0.2863
 3923SOL    HW223229   2.213   1.284   1.631  0.0260  2.2294 -3.7098
 3924SOL     OW23230   1.474   3.068   5.794 -0.2873 -0.1308  0.2641
 3924SOL    HW123231   1.539   3.114   5.847  1.0503  1.4825 -2.7364
 3924SOL    HW223232   1.538   3.016   5.746 -2.1394 -0.5690 -1.7432
 3925SOL     OW23233   0.429   1.345   0.690 -0.2719  0.4377  0.0255
 3925SOL    HW123234   0.420   1.391   0.774  1.2214 -0.0799  0.4715
 3925SOL    HW223235   0.380   1.264   0.702 -1.7314  0.8466 -3.1343
 3926SOL     OW23236   0.777   4.142   9.506 -0.3365 -0.7381  0.1237
 3926SOL    HW123237   0.776   4.213   9.570 -4.4557 -0.1256 -0.6003
 3926SOL    HW223238   0.787   4.074   9.571 -0.8502  0.6686  1.6720
 3927SOL     OW23239   4.411   0.995   6.341 -0.2157 -0.3236  0.1832
 3927SOL    HW123240   4.384   1.030   6.425  1.3001  0.6779  0.2533
 3927SOL    HW223241   4.322   0.996   6.306 -0.4579 -1.9230  0.7398
 3928SOL     OW23242   1.468   1.319   8.824 -0.1641 -0.6287  0.0713
 3928SOL    HW123243   1.540   1.285   8.770  1.5046 -1.0977  2.5990
 3928SOL    HW223244   1.492   1.277   8.907  1.4472  0.0353 -0.0572
 3929SOL     OW23245   3.451   0.329   1.428  0.2867  0.7513  0.0816
 3929SOL    HW123246   3.422   0.306   1.339 -1.1722  1.6163  0.3401
 3929SOL    HW223247   3.462   0.422   1.407  1.4066  1.3779  3.5882
 3930SOL     OW23248   0.451   1.111   3.933  0.1913  0.3376 -0.2540
 3930SOL    HW123249   0.491   1.173   3.994 -0.1312 -0.0246  0.3276
 3930SOL    HW223250   0.485   1.033   3.976  0.3017 -0.3021 -1.4976
 3931SOL     OW23251   3.870   0.393   4.923  0.3304 -0.1777  0.3424
 3931SOL    HW123252   3.922   0.413   5.000 -1.6982  3.2119  0.8303
 3931SOL    HW223253   3.942   0.393   4.859  0.5447  3.1634  0.5806
 3932SOL     OW23254   1.978   1.125   5.646 -0.3578 -0.0830  0.1592
 3932SOL    HW123255   1.930   1.045   5.669 -1.5370  0.9038  1.1245
 3932SOL    HW223256   2.053   1.075   5.615  0.6671  0.8340  1.1473
 3933SOL     OW23257   2.237   0.791   8.035  0.2303  0.4629  0.0571
 3933SOL    HW123258   2.225   0.703   8.002  0.8534  0.0289  0.9809
 3933SOL    HW223259   2.273   0.832   7.957  1.4359  0.3329  0.5443
 3934SOL     OW23260   3.583   0.334   4.347 -0.6826 -0.2195 -0.2725
 3934SOL    HW123261   3.628   0.266   4.296 -1.8260  0.5486 -2.2894
 3934SOL    HW223262   3.534   0.283   4.411  0.6559  0.1950  1.0951
 3935SOL     OW23263   3.301   2.622   2.429 -0.0103  0.0333 -0.3908
 3935SOL    HW123264   3.256   2.702   2.459 -0.9960 -0.9700  0.8138
 3935SOL    HW223265   3.246   2.588   2.359 -0.8562  0.3620  0.0977
 3936SOL     OW23266   3.401   3.711   6.925  0.0853 -0.7974  0.2085
 3936SOL    HW123267   3.310   3.719   6.896 -0.3307 -3.5744  0.7409
 3936SOL    HW223268   3.433   3.648   6.861 -2.1412  0.7639 -2.4275
 3937SOL     OW23269   3.583   3.056  16.773  0.2671  0.0159  0.3089
 3937SOL    HW123270   3.499   3.089  16.805 -0.0518  0.8170 -1.3312
 3937SOL    HW223271   3.578   2.962  16.791  0.5376 -0.5624 -2.5554
 3938SOL     OW23272   1.336   1.710   5.460  0.0081  0.7552  0.8703
 3938SOL    HW123273   1.269   1.654   5.499  0.6225 -0.4066  0.2494
 3938SOL    HW223274   1.413   1.654   5.468 -1.3727 -1.5146 -1.4074
 3939SOL     OW23275   1.384   3.831  14.170  0.2748 -0.0666  0.0752
 3939SOL    HW123276   1.324   3.848  14.097  1.1639  1.5174 -0.2773
 3939SOL    HW223277   1.420   3.747  14.141 -0.9509  0.3824 -2.6969
 3940SOL     OW23278   1.734   4.062   2.272  0.1074  0.3819 -0.4732
 3940SOL    HW123279   1.825   4.081   2.296  0.1751 -0.2164 -0.2443
 3940SOL    HW223280   1.719   4.116   2.194 -1.8264 -0.1008 -0.4304
 3941SOL     OW23281   3.688   1.690   9.936  0.3390 -0.6264 -0.6342
 3941SOL    HW123282   3.693   1.696  10.031  0.8709  0.2950 -0.7182
 3941SOL    HW223283   3.770   1.642   9.930  0.3857 -0.6176 -0.0439
 3942SOL     OW23284   2.894   3.308  11.986 -0.7933 -0.3387 -0.2823
 3942SOL    HW123285   2.908   3.387  11.934  1.4495 -0.0522  0.7453
 3942SOL    HW223286   2.800   3.316  12.000 -0.8421 -0.2164 -0.6780
 3943SOL     OW23287   3.355   0.699  12.741  0.0794 -1.0458 -0.0577
 3943SOL    HW123288   3.294   0.701  12.814 -0.7494 -1.3191 -0.7417
 3943SOL    HW223289   3.312   0.630  12.692 -0.0288 -1.4432  0.6009
 3944SOL     OW23290   2.136   0.654   4.155 -0.4023  0.2475  0.0060
 3944SOL    HW123291   2.149   0.562   4.133 -0.2217  0.6741 -1.7097
 3944SOL    HW223292   2.126   0.690   4.067 -0.5761 -1.5321 -0.6999
 3945SOL     OW23293   0.166   1.728   6.739  0.1153  0.6075  0.1177
 3945SOL    HW123294   0.158   1.816   6.776  0.3175  0.8876 -0.4946
 3945SOL    HW223295   0.079   1.720   6.701  0.7314 -0.6386 -1.0254
 3946SOL     OW23296   4.230   3.519   1.690 -0.4430  0.0659 -0.2069
 3946SOL    HW123297   4.141   3.553   1.699 -0.5934 -0.0903 -1.1162
 3946SOL    HW223298   4.227   3.516   1.595 -0.5628  1.5450 -0.2467
 3947SOL     OW23299   2.167   3.423  13.677 -0.5338 -0.2290 -0.5769
 3947SOL    HW123300   2.212   3.474  13.610 -0.1559  0.7225  0.4089
 3947SOL    HW223301   2.192   3.331  13.668  0.0039 -0.2417  0.9442
 3948SOL     OW23302   3.053   3.793   0.915  0.0338  0.1258  0.1399
 3948SOL    HW123303   3.049   3.873   0.968  0.0191  0.2501 -0.0480
 3948SOL    HW223304   2.980   3.812   0.855 -0.2373  1.5971  0.9221
 3949SOL     OW23305   0.265   2.701   3.826  0.0531 -0.3556 -0.0979
 3949SOL    HW123306   0.237   2.636   3.891  0.1446 -0.9326 -0.6248
 3949SOL    HW223307   0.180   2.738   3.802  0.3519 -0.0009 -0.5906
 3950SOL     OW23308   3.062   4.609   6.514  0.1374  0.0486 -0.1488
 3950SOL    HW123309   3.085   4.647   6.599 -3.5783 -0.4904  1.1182
 3950SOL    HW223310   3.013   4.533   6.547 -2.6824  0.6379 -2.9220
 3951SOL     OW23311   2.764   2.752  15.280 -0.1926  0.0858 -0.1176
 3951SOL    HW123312   2.672   2.727  15.275 -0.3766  0.4234  1.4194
 3951SOL    HW223313   2.773   2.767  15.186  0.4606  2.1305  0.2624
 3952SOL     OW23314   1.423   4.081   3.343  0.3203 -0.1749  0.2695
 3952SOL    HW123315   1.338   4.125   3.335  1.2131  1.4019 -0.5280
 3952SOL    HW223316   1.442   4.055   3.253 -0.6267  0.7769 -0.2128
 3953SOL     OW23317   1.731   3.766  11.397 -0.0894  0.7870  0.0840
 3953SOL    HW123318   1.762   3.762  11.307  1.8300  1.0946  0.7198
 3953SOL    HW223319   1.657   3.826  11.391 -0.5213  0.2596  0.0988
 3954SOL     OW23320   0.824   1.127   7.709 -0.1942 -0.1103  0.7245
 3954SOL    HW123321   0.866   1.071   7.643  3.2768  1.2481  1.7802
 3954SOL    HW223322   0.899   1.181   7.730 -0.7526  0.8923  0.1365
 3955SOL     OW23323   0.793   2.648  12.818 -0.2530  0.2872  0.1461
 3955SOL    HW123324   0.860   2.581  12.806  0.4280  0.7919  1.1459
 3955SOL    HW223325   0.722   2.584  12.825  1.2225 -1.2795  0.7774
 3956SOL     OW23326   1.694   2.362  16.755 -0.3158 -0.3917  0.0334
 3956SOL    HW123327   1.788   2.375  16.744 -0.5261  2.0264  1.1794
 3956SOL    HW223328   1.674   2.268  16.752  0.6551 -0.5515 -1.8978
 3957SOL     OW23329   2.453   4.121  13.796  0.1192  0.3187 -0.3480
 3957SOL    HW123330   2.428   4.173  13.872  0.1847 -0.3336  0.1225
 3957SOL    HW223331   2.547   4.128  13.783  0.5981 -0.8278  2.3259
 3958SOL     OW23332   0.035   4.305   5.164 -0.4767 -0.2798  0.4169
 3958SOL    HW123333   4.666   4.291   5.132 -0.5953  1.2889  0.0778
 3958SOL    HW223334   0.062   4.213   5.171  1.2082  0.2317  0.7022
 3959SOL     OW23335   1.306   0.206   2.679  0.1198  0.6172  0.4862
 3959SOL    HW123336   1.226   0.195   2.629  1.4680  2.5724 -2.0972
 3959SOL    HW223337   1.310   0.122   2.725  2.6733  1.1575  1.2788
 3960SOL     OW23338   1.115   2.119  11.555  0.4715 -0.0581 -0.2571
 3960SOL    HW123339   1.181   2.171  11.601  0.9698 -1.1890  0.2866
 3960SOL    HW223340   1.167   2.081  11.485  0.0502 -3.7849  1.4795
 3961SOL     OW23341   0.224   4.061   3.778  0.5397  0.0587  0.0576
 3961SOL    HW123342   0.316   4.054   3.804  1.2152  2.0897 -1.8514
 3961SOL    HW223343   0.203   4.145   3.818 -0.3681 -0.0492 -0.1904
 3962SOL     OW23344   1.964   3.061   3.350  0.5218  0.2011 -0.4020
 3962SOL    HW123345   1.871   3.037   3.346  0.5717  0.2305 -1.8577
 3962SOL    HW223346   1.997   3.002   3.417  0.4808  1.2059  0.4941
 3963SOL     OW23347   2.664   3.086  12.884 -0.4755  0.2317 -0.7166
 3963SOL    HW123348   2.673   3.092  12.980  0.2389 -1.0889 -0.6945
 3963SOL    HW223349   2.573   3.058  12.881 -0.9476  1.8145 -1.3220
 3964SOL     OW23350   0.181   3.731   5.945 -0.0615  0.7352  0.4826
 3964SOL    HW123351   0.165   3.668   6.016  0.9828 -1.3039 -1.0620
 3964SOL    HW223352   0.098   3.732   5.898 -1.0258 -1.0547  2.1399
 3965SOL     OW23353   3.372   1.006   7.529 -0.0901 -0.1964  0.7664
 3965SOL    HW123354   3.428   1.083   7.522 -1.0335  0.2968 -1.4707
 3965SOL    HW223355   3.429   0.929   7.522  0.8090  0.4024  1.5408
 3966SOL     OW23356   0.171   0.790  14.506 -0.4399 -0.1163 -0.0952
 3966SOL    HW123357   0.075   0.799  14.506 -0.6316 -2.0497 -1.7834
 3966SOL    HW223358   0.193   0.780  14.413  0.9896  0.8238  0.1540
 3967SOL     OW23359   1.031   3.157   3.278 -0.1524 -0.2274 -0.2070
 3967SOL    HW123360   0.962   3.091   3.276 -1.1596  0.8060  0.3499
 3967SOL    HW223361   1.106   3.098   3.286  0.1485  0.1395 -0.3215
 3968SOL     OW23362   0.247   4.562   8.868 -0.9905  0.2713 -1.0804
 3968SOL    HW123363   0.190   4.619   8.920  1.5610  1.3047  0.5462
 3968SOL    HW223364   0.192   4.484   8.876 -0.9137  0.3794  0.5209
 3969SOL     OW23365   3.256   2.686   2.925  0.3398 -0.2298 -0.3879
 3969SOL    HW123366   3.278   2.668   2.834 -0.3458 -1.8385 -0.2253
 3969SOL    HW223367   3.297   2.609   2.965 -1.5310 -1.1679 -0.3054
 3970SOL     OW23368   3.094   2.090   7.807  0.3733 -0.2231  0.8298
 3970SOL    HW123369   3.143   2.089   7.725 -0.1936  0.7970  0.4862
 3970SOL    HW223370   3.050   2.174   7.808  0.6011 -0.1053  1.5803
 3971SOL     OW23371   2.122   3.326   7.444  0.1881  0.4843  0.3373
 3971SOL    HW123372   2.189   3.294   7.383  0.0086 -1.3390  1.0846
 3971SOL    HW223373   2.175   3.368   7.511 -0.8365  1.0056  0.8047
 3972SOL     OW23374   0.209   0.825  14.803  0.1113 -0.4247 -0.0445
 3972SOL    HW123375   0.191   0.837  14.710  0.4766 -1.7249 -0.2823
 3972SOL    HW223376   0.117   0.829  14.832 -0.0403 -0.3248 -0.5472
 3973SOL     OW23377   1.922   1.625   1.963  0.5972  0.1257  0.4440
 3973SOL    HW123378   1.958   1.696   2.015  1.4269  0.7863 -1.0216
 3973SOL    HW223379   1.996   1.618   1.903  1.0467  0.9031  0.9000
 3974SOL     OW23380   3.487   2.747  11.951 -0.5180 -0.2971  0.1477
 3974SOL    HW123381   3.459   2.836  11.929  1.0880  0.7842  2.4817
 3974SOL    HW223382   3.564   2.768  12.004 -0.0706 -1.2370 -0.1270
 3975SOL     OW23383   3.785   3.987   4.499 -0.4437 -0.0724 -0.4349
 3975SOL    HW123384   3.824   4.000   4.413 -1.2549 -0.4147 -0.8542
 3975SOL    HW223385   3.803   4.073   4.537  0.5889 -0.8780  0.8853
 3976SOL     OW23386   0.611   1.812   5.968 -0.3599 -0.4049 -0.3917
 3976SOL    HW123387   0.648   1.900   5.980  1.8003 -0.9492 -3.0748
 3976SOL    HW223388   0.535   1.838   6.020 -0.5802 -0.6531 -0.5958
 3977SOL     OW23389   4.532   1.460   3.660  1.0370 -0.1976 -0.6812
 3977SOL    HW123390   4.568   1.425   3.741  3.4217  0.4373 -1.4377
 3977SOL    HW223391   4.536   1.555   3.676 -0.4554 -0.3196  0.3467
 3978SOL     OW23392   4.494   0.464   8.776 -0.3440 -0.1281  0.0403
 3978SOL    HW123393   4.569   0.508   8.815 -1.1613  0.1293  1.2989
 3978SOL    HW223394   4.488   0.531   8.708 -2.0617  1.0163  1.3532
 3979SOL     OW23395   3.031   0.626   5.201  0.4333 -0.3420  0.6077
 3979SOL    HW123396   3.066   0.608   5.114 -0.1067 -2.5081  0.8301
 3979SOL    HW223397   2.956   0.682   5.181  0.7210 -0.2540 -0.1909
 3980SOL     OW23398   0.056   0.402   8.502  0.2860 -0.2133 -0.3285
 3980SOL    HW123399   0.100   0.480   8.468  1.5334 -0.8480 -0.1499
 3980SOL    HW223400   4.711   0.440   8.561  0.2408 -2.2633  0.9444
 3981SOL     OW23401   4.093   3.055   2.709  0.5210 -0.3737  1.1290
 3981SOL    HW123402   4.010   3.008   2.706  0.4273 -0.1533  0.0471
 3981SOL    HW223403   4.088   3.089   2.798 -0.1746 -0.9173  1.2913
 3982SOL     OW23404   3.772   0.880   7.895 -0.2642 -0.2341  0.2189
 3982SOL    HW123405   3.749   0.793   7.862 -2.9294 -0.6071  3.0946
 3982SOL    HW223406   3.683   0.916   7.897 -1.0099 -2.1456  1.2241
 3983SOL     OW23407   3.199   4.227  15.900 -0.4951  0.2496  0.2475
 3983SOL    HW123408   3.200   4.322  15.888  0.8555 -0.0022 -1.5797
 3983SOL    HW223409   3.277   4.224  15.956 -0.3843  1.6166  0.1718
 3984SOL     OW23410   0.419   1.597   3.695 -0.4364 -0.0783  0.3438
 3984SOL    HW123411   0.433   1.682   3.737 -0.3564 -0.8457  1.8533
 3984SOL    HW223412   0.510   1.569   3.685 -0.6179 -1.1608  1.7982
 3985SOL     OW23413   4.308   0.783   4.336  0.6066 -0.0506  0.3965
 3985SOL    HW123414   4.273   0.852   4.281 -0.7307  0.3291  1.7371
 3985SOL    HW223415   4.265   0.797   4.420 -1.2250 -1.9896 -0.2206
 3986SOL     OW23416   2.925   0.879  15.248 -0.7429 -0.7362  0.2279
 3986SOL    HW123417   2.860   0.847  15.185 -1.5928  1.2858  0.0908
 3986SOL    HW223418   2.996   0.828  15.208  2.1206  1.3294  2.7131
 3987SOL     OW23419   1.481   2.103  10.414 -0.1081  0.2827  0.1685
 3987SOL    HW123420   1.424   2.028  10.394 -2.4538  2.1020 -0.0638
 3987SOL    HW223421   1.568   2.079  10.383 -0.5099  1.4966 -1.9174
 3988SOL     OW23422   4.499   3.393  16.736 -0.2866  0.7364 -0.5406
 3988SOL    HW123423   4.530   3.316  16.783 -3.1870 -1.1486 -1.7478
 3988SOL    HW223424   4.565   3.415  16.671  1.1469 -1.2805  0.2399
 3989SOL     OW23425   1.297   3.978   3.647 -0.2249  0.0883  0.2393
 3989SOL    HW123426   1.206   4.003   3.634  0.3394  1.1302 -1.6664
 3989SOL    HW223427   1.345   3.976   3.564  0.1572  1.9064  0.4241
 3990SOL     OW23428   0.728   0.785   5.225 -0.0448  0.3138  0.4012
 3990SOL    HW123429   0.708   0.853   5.161 -3.8522 -2.2660 -1.1709
 3990SOL    HW223430   0.817   0.811   5.247  0.9486 -1.3661 -1.5409
 3991SOL     OW23431   1.103   2.196   6.817  0.5809  0.4227  0.2531
 3991SOL    HW123432   1.069   2.107   6.827 -0.9300  1.0484  0.6918
 3991SOL    HW223433   1.194   2.184   6.790  0.9570  2.6819  0.4874
 3992SOL     OW23434   0.708   0.786  15.640 -0.1928 -0.0760  0.0110
 3992SOL    HW123435   0.783   0.845  15.650  1.2375 -1.3857 -3.0345
 3992SOL    HW223436   0.657   0.829  15.572  1.9651 -0.7501 -2.0363
 3993SOL     OW23437   0.592   1.941   5.586 -0.0722  0.4461 -0.4267
 3993SOL    HW123438   0.665   1.881   5.600 -1.0796 -0.1576  2.2332
 3993SOL    HW223439   0.518   1.882   5.576 -0.2686  0.9395 -1.8574
 3994SOL     OW23440   4.340   0.237   4.202  0.0708 -0.1521  0.1555
 3994SOL    HW123441   4.321   0.233   4.296  2.4140 -0.9219  0.6086
 3994SOL    HW223442   4.435   0.244   4.194  0.2016 -1.5235  0.4818
 3995SOL     OW23443   1.204   1.167  17.316  0.0835  0.0839 -0.2197
 3995SOL    HW123444   1.117   1.197  17.289  1.7813  4.1457 -1.0476
 3995SOL    HW223445   1.224   1.092  17.261 -1.2897  1.8959 -3.1964
 3996SOL     OW23446   0.821   0.352   7.694  0.0567  0.2808 -0.1888
 3996SOL    HW123447   0.894   0.309   7.740  0.8682 -0.5034 -2.2264
 3996SOL    HW223448   0.866   0.414   7.636 -0.3879  0.9556  0.1964
 3997SOL     OW23449   0.832   1.131  11.361  0.0955  0.0454  0.0533
 3997SOL    HW123450   0.760   1.082  11.322  0.3011 -2.1186  2.3835
 3997SOL    HW223451   0.905   1.071  11.346  1.5908  2.1891 -1.2607
 3998SOL     OW23452   2.298   0.726   3.123 -0.2150 -0.2703  0.2204
 3998SOL    HW123453   2.391   0.747   3.113  0.2417 -1.5590  1.6771
 3998SOL    HW223454   2.303   0.633   3.104  1.2086 -0.2871  0.6915
 3999SOL     OW23455   3.176   0.916   7.370  0.6030  1.1959 -0.2470
 3999SOL    HW123456   3.234   0.931   7.445 -0.0026  1.8384  0.0960
 3999SOL    HW223457   3.198   0.828   7.340 -1.7554  0.2370  0.8387
 4000SOL     OW23458   4.434   2.868  17.003 -0.0013  0.0349  0.0818
 4000SOL    HW123459   4.438   2.888  16.910 -2.1680  0.0678 -0.0206
 4000SOL    HW223460   4.339   2.869  17.013  0.3157 -1.1773  3.3860
 4001SOL     OW23461   3.537   3.820   1.280  0.5162  0.0875  0.8495
 4001SOL    HW123462   3.513   3.732   1.249 -0.6296  0.3932  0.8593
 4001SOL    HW223463   3.450   3.859   1.273  0.7073  0.3772  0.0552
 4002SOL     OW23464   1.614   1.515  13.191  0.8084  0.7111  0.2135
 4002SOL    HW123465   1.623   1.546  13.101  0.3129  0.7049  0.1626
 4002SOL    HW223466   1.690   1.456  13.195  0.9425  0.8250 -0.7879
 4003SOL     OW23467   3.429   3.394   4.792 -1.0169 -0.4147 -0.1386
 4003SOL    HW123468   3.390   3.470   4.749  0.3708  1.0626  1.2406
 4003SOL    HW223469   3.359   3.361   4.849 -1.2678  1.8214  0.8701
 4004SOL     OW23470   2.633   2.835   8.706  0.1608  0.2694  0.0200
 4004SOL    HW123471   2.696   2.845   8.635 -1.2299 -4.1260 -1.8265
 4004SOL    HW223472   2.557   2.795   8.663  0.0678 -0.2169  0.6441
 4005SOL     OW23473   1.470   0.227   3.576 -0.2868  0.4986  0.7218
 4005SOL    HW123474   1.458   0.211   3.482  1.0023 -2.3964  1.0391
 4005SOL    HW223475   1.521   0.149   3.600 -1.3725 -0.3932  0.1196
 4006SOL     OW23476   4.655   4.084   3.520 -0.0194 -0.3112 -0.1650
 4006SOL    HW123477   4.582   4.071   3.581  0.8084 -0.5439  0.7835
 4006SOL    HW223478   4.626   4.036   3.443  0.1330 -0.9886  0.1960
 4007SOL     OW23479   4.019   2.964   5.397  0.3726  0.8620 -0.4193
 4007SOL    HW123480   3.997   2.873   5.382  1.0909  0.7143 -0.5888
 4007SOL    HW223481   4.006   3.007   5.312  1.7787 -0.5918 -1.3599
 4008SOL     OW23482   1.391   2.142   5.664 -0.0048  0.5193  0.6123
 4008SOL    HW123483   1.458   2.210   5.667  1.4108 -0.8215 -0.4864
 4008SOL    HW223484   1.413   2.094   5.584 -2.8864 -1.4148  0.9688
 4009SOL     OW23485   3.182   2.111   4.282 -0.4118  0.2824 -0.0904
 4009SOL    HW123486   3.110   2.160   4.322 -1.4808 -0.2583 -1.3377
 4009SOL    HW223487   3.253   2.158   4.324 -1.7593 -0.3424  2.8850
 4010SOL     OW23488   3.693   3.640   7.222  0.1143  0.4135  0.7553
 4010SOL    HW123489   3.614   3.688   7.246 -0.1726 -0.2235  1.0686
 4010SOL    HW223490   3.657   3.552   7.224 -0.3968  0.6355  1.3529
 4011SOL     OW23491   2.379   2.965   0.080 -0.4819  0.5080  0.1356
 4011SOL    HW123492   2.422   3.005   0.005 -0.7733 -1.4538 -1.0694
 4011SOL    HW223493   2.350   3.049   0.114  0.6675  0.3523  1.5308
 4012SOL     OW23494   1.378   1.335   2.366 -0.0791 -0.0141  0.2869
 4012SOL    HW123495   1.443   1.317   2.433  1.7593  2.5640 -0.7921
 4012SOL    HW223496   1.312   1.275   2.400 -0.7079  0.4467 -0.1148
 4013SOL     OW23497   4.586   3.190   2.844  0.0605  0.1043  0.2227
 4013SOL    HW123498   4.580   3.285   2.841  2.4673  0.2519 -0.0057
 4013SOL    HW223499   4.579   3.167   2.937  2.5544  0.5304  0.5132
 4014SOL     OW23500   1.958   3.633   3.264  0.1150  0.5941 -1.0826
 4014SOL    HW123501   1.967   3.546   3.303 -2.3063  0.4478 -0.8263
 4014SOL    HW223502   1.965   3.613   3.171 -1.4458  1.7155 -1.4494
 4015SOL     OW23503   3.608   3.873   3.339  0.1309 -0.0429 -0.2054
 4015SOL    HW123504   3.539   3.817   3.303 -2.0512  0.8013  2.6109
 4015SOL    HW223505   3.655   3.812   3.396  1.6831 -0.2351 -1.7001
 4016SOL     OW23506   1.299   1.131  11.945  0.0677 -0.0496 -0.1726
 4016SOL    HW123507   1.235   1.101  12.009 -1.2845  1.5547 -0.7689
 4016SOL    HW223508   1.250   1.120  11.864  0.7740 -2.2085 -0.3009
 4017SOL     OW23509   2.930   2.768   6.043 -0.0041  0.5868 -0.0803
 4017SOL    HW123510   3.016   2.730   6.057 -0.2887  0.2176  0.6682
 4017SOL    HW223511   2.876   2.694   6.070 -0.5177  1.3861  1.1133
 4018SOL     OW23512   0.720   2.635   2.115  0.1830 -0.0835 -0.2979
 4018SOL    HW123513   0.763   2.630   2.030 -1.3274 -1.3185 -0.9956
 4018SOL    HW223514   0.799   2.635   2.168  0.6103 -2.2352 -0.9152
 4019SOL     OW23515   0.108   2.555   0.947 -0.1748  0.1773 -0.7377
 4019SOL    HW123516   0.025   2.517   0.917 -0.6424  0.9973 -0.4782
 4019SOL    HW223517   0.164   2.551   0.869  0.1864  1.4671 -0.5498
 4020SOL     OW23518   1.763   3.914   3.559  0.3158  0.5979  0.4576
 4020SOL    HW123519   1.807   3.901   3.475  1.9835 -2.7392  1.8833
 4020SOL    HW223520   1.707   3.837   3.567  0.2657  0.7637  1.7898
 4021SOL     OW23521   3.937   2.451   0.343  0.7736 -0.4423  0.0413
 4021SOL    HW123522   3.953   2.523   0.404 -1.2185 -2.6613  3.1816
 4021SOL    HW223523   3.846   2.470   0.317  0.3105  1.0006  2.6802
 4022SOL     OW23524   0.302   3.017   8.687  0.2964 -1.0698  0.1316
 4022SOL    HW123525   0.243   2.946   8.711 -3.2727  1.1657 -2.0523
 4022SOL    HW223526   0.331   2.987   8.601 -2.2505 -0.0098 -1.1019
 4023SOL     OW23527   4.583   2.138   2.801  0.0891  0.3588 -0.2782
 4023SOL    HW123528   4.625   2.201   2.742  2.3738 -2.4084 -1.5848
 4023SOL    HW223529   4.532   2.205   2.848  0.1205 -0.2223  0.5956
 4024SOL     OW23530   0.926   2.470   4.565 -0.4721  0.0882 -0.1302
 4024SOL    HW123531   0.997   2.436   4.621  0.6402 -1.0439 -2.2383
 4024SOL    HW223532   0.976   2.523   4.503  1.0949 -0.2851  0.7929
 4025SOL     OW23533   2.554   3.366   6.995 -0.0035 -0.0895  0.5878
 4025SOL    HW123534   2.504   3.285   6.986 -0.6480  0.2590  1.0784
 4025SOL    HW223535   2.487   3.433   6.987  2.1105  1.9321 -0.0889
 4026SOL     OW23536   0.970   4.306   2.351 -0.2321  0.0061  0.3722
 4026SOL    HW123537   1.057   4.316   2.312 -0.5599  0.7916 -0.1612
 4026SOL    HW223538   0.992   4.320   2.443 -1.5931  3.0705  0.2232
 4027SOL     OW23539   0.279   1.758   8.955  0.1135  0.1432  0.7177
 4027SOL    HW123540   0.345   1.697   8.923 -0.8412 -1.4811  1.8371
 4027SOL    HW223541   0.267   1.724   9.044 -1.0615  0.3996  0.6503
 4028SOL     OW23542   1.919   3.588   4.004  0.7291  0.5032 -0.0363
 4028SOL    HW123543   1.950   3.502   3.975 -0.2520  0.2898 -0.4632
 4028SOL    HW223544   1.934   3.635   3.922  2.3346  3.2809  1.8641
 4029SOL     OW23545   2.491   3.164  17.149  0.4591  0.1497 -0.0752
 4029SOL    HW123546   2.574   3.142  17.191  0.3102  2.2906  1.3228
 4029SOL    HW223547   2.523   3.238  17.098  1.1772  0.5423  0.9448
 4030SOL     OW23548   4.286   2.733  10.242  0.3267  0.3157  0.0473
 4030SOL    HW123549   4.319   2.818  10.211 -2.3573  0.8292 -1.3634
 4030SOL    HW223550   4.214   2.723  10.180  2.1679  0.6212 -2.1446
 4031SOL     OW23551   0.617   4.361   3.611 -0.0363 -0.0271  0.8328
 4031SOL    HW123552   0.526   4.362   3.580  0.3289 -1.0665 -0.2748
 4031SOL    HW223553   0.622   4.453   3.638 -2.6910 -0.3159  2.2803
 4032SOL     OW23554   1.668   2.150  15.148  0.2400  0.5481 -0.1371
 4032SOL    HW123555   1.762   2.163  15.152  0.6768 -3.1508  1.5307
 4032SOL    HW223556   1.649   2.124  15.238 -0.3067  1.4481  0.0141
 4033SOL     OW23557   1.585   0.049   0.486 -0.5451 -0.4086  0.2261
 4033SOL    HW123558   1.545   0.063   0.572 -0.6378 -0.3986  0.1809
 4033SOL    HW223559   1.670   0.024   0.521  0.4821  1.9103 -0.5951
 4034SOL     OW23560   4.637   2.462   0.760 -0.0861 -0.6335 -0.0513
 4034SOL    HW123561   0.004   2.451   0.721  0.7465 -2.1935  2.2455
 4034SOL    HW223562   4.582   2.429   0.689  0.6447  0.2387 -1.0360
 4035SOL     OW23563   1.587   0.955  10.338 -0.1605  0.2626 -0.5764
 4035SOL    HW123564   1.602   0.894  10.266 -0.6224  1.1978 -1.4630
 4035SOL    HW223565   1.532   1.024  10.301  1.0945  1.4201 -0.2799
 4036SOL     OW23566   0.966   2.245   7.832 -0.3982  0.2353 -0.3484
 4036SOL    HW123567   0.940   2.171   7.887 -0.2503  0.7029  0.3393
 4036SOL    HW223568   1.060   2.254   7.848 -0.2568 -0.4258 -0.7965
 4037SOL     OW23569   3.522   1.513   2.571 -0.8573  0.0699  0.7545
 4037SOL    HW123570   3.481   1.429   2.589  1.3946 -1.0547  0.6449
 4037SOL    HW223571   3.478   1.557   2.644  1.8033  1.0046  1.8181
 4038SOL     OW23572   1.590   4.171   5.005  0.2193  0.7008  0.6649
 4038SOL    HW123573   1.667   4.221   4.979  0.7732 -0.4203  0.1442
 4038SOL    HW223574   1.578   4.104   4.938 -1.3678  1.6075  0.0391
 4039SOL     OW23575   1.236   1.761  11.461 -0.4868  0.6702  0.0663
 4039SOL    HW123576   1.213   1.839  11.410  0.1689  0.0805 -1.1295
 4039SOL    HW223577   1.158   1.753  11.516 -1.6287  3.4092 -1.1098
 4040SOL     OW23578   0.167   0.026   7.213  0.5798  0.2164  0.3593
 4040SOL    HW123579   0.162   0.120   7.226  0.4379 -0.2191  3.4755
 4040SOL    HW223580   0.256   0.010   7.183  0.4170 -0.2093  0.1014
 4041SOL     OW23581   0.361   2.717   4.570 -0.3761  0.7638 -0.4934
 4041SOL    HW123582   0.349   2.807   4.542  0.4489  1.5205  1.5585
 4041SOL    HW223583   0.389   2.726   4.661 -1.3839  0.3801 -0.1329
 4042SOL     OW23584   2.176   0.504   2.514 -0.5948 -0.5187 -0.0614
 4042SOL    HW123585   2.183   0.536   2.424 -2.1437 -0.3474 -0.1240
 4042SOL    HW223586   2.188   0.411   2.494  0.5149 -0.6967  1.3833
 4043SOL     OW23587   0.030   4.440  15.823  0.3241 -0.3909 -0.1076
 4043SOL    HW123588   0.121   4.428  15.797  0.6587 -2.5814  2.0400
 4043SOL    HW223589   4.711   4.363  15.782 -2.0081  0.6155  0.2501
 4044SOL     OW23590   0.442   3.585   1.585 -0.3202  0.4361  0.1579
 4044SOL    HW123591   0.461   3.524   1.514 -2.0281 -1.4297  1.3001
 4044SOL    HW223592   0.372   3.634   1.542 -1.6268 -0.3469  1.4178
 4045SOL     OW23593   1.752   2.962   2.301  0.9339  0.5032 -0.4985
 4045SOL    HW123594   1.706   2.947   2.219 -2.9151  0.3725  1.7261
 4045SOL    HW223595   1.702   2.904   2.357  1.2999 -0.5869 -1.2882
 4046SOL     OW23596   0.609   1.028  15.931 -0.4320 -0.4446  0.0691
 4046SOL    HW123597   0.533   1.044  15.875 -0.5185  2.3446  0.9695
 4046SOL    HW223598   0.608   0.933  15.937 -2.1645 -0.2245  3.2597
 4047SOL     OW23599   4.380   2.407   8.924 -0.0698 -0.4495 -0.2880
 4047SOL    HW123600   4.427   2.371   8.849  0.3185 -1.2486  0.3397
 4047SOL    HW223601   4.455   2.421   8.982 -0.6618 -2.5303  0.9666
 4048SOL     OW23602   1.007   2.976   7.587  0.0435  0.1611  0.6856
 4048SOL    HW123603   0.979   2.885   7.589  2.0161 -0.4588  0.4653
 4048SOL    HW223604   0.967   3.004   7.669 -0.3310 -3.0532  1.6085
 4049SOL     OW23605   3.172   1.222   8.234  0.4105 -0.0413  0.6597
 4049SOL    HW123606   3.214   1.239   8.150 -0.1079  1.9836  0.8053
 4049SOL    HW223607   3.134   1.135   8.224 -0.2948  0.4925 -1.2232
 4050SOL     OW23608   1.838   3.169   8.803 -0.1886  0.2451  0.2947
 4050SOL    HW123609   1.848   3.193   8.711  2.0802 -2.2614 -0.1311
 4050SOL    HW223610   1.918   3.196   8.850  0.8422  0.8588 -1.8354
 4051SOL     OW23611   1.744   3.937   1.802 -0.5187 -0.3238  0.0435
 4051SOL    HW123612   1.763   3.847   1.830  0.5749  0.6786  2.5373
 4051SOL    HW223613   1.771   3.983   1.881 -0.8023  0.4810 -0.3318
 4052SOL     OW23614   3.881   1.461   7.703 -0.0672 -0.0870 -0.0906
 4052SOL    HW123615   3.966   1.499   7.680  0.1113 -0.4250  0.0070
 4052SOL    HW223616   3.847   1.516   7.774 -1.5298  0.0823 -0.9196
 4053SOL     OW23617   3.276   4.332   8.518 -0.9721 -0.1338 -0.8274
 4053SOL    HW123618   3.290   4.424   8.538 -1.0098 -0.2466 -0.2928
 4053SOL    HW223619   3.214   4.302   8.584 -0.4957 -1.3980 -0.9495
 4054SOL     OW23620   0.231   0.803  14.236  0.0954  0.0236 -0.4007
 4054SOL    HW123621   0.191   0.850  14.164  2.1407 -0.3173 -1.7628
 4054SOL    HW223622   0.268   0.721  14.202 -0.5329 -0.6154  0.4667
 4055SOL     OW23623   2.223   1.598   6.532  0.5952 -0.4026 -0.1036
 4055SOL    HW123624   2.177   1.681   6.538  2.2541  0.5527 -0.6200
 4055SOL    HW223625   2.259   1.600   6.443  0.7802  2.0576  0.0209
 4056SOL     OW23626   2.960   0.320   5.476 -0.6265 -0.0647 -0.0771
 4056SOL    HW123627   2.926   0.404   5.444  0.9743  0.2882 -0.8337
 4056SOL    HW223628   2.912   0.322   5.559  1.1429  3.1410  0.8546
 4057SOL     OW23629   3.336   0.613  17.446 -0.3785 -0.3229 -0.0069
 4057SOL    HW123630   3.252   0.658  17.433  0.1536  0.6395 -0.0873
 4057SOL    HW223631   3.360   0.628  17.537  1.1299  2.4845 -0.8843
 4058SOL     OW23632   3.323   3.220   2.406  0.3254 -0.3676 -0.0589
 4058SOL    HW123633   3.306   3.148   2.466 -0.7304  0.5442  0.7216
 4058SOL    HW223634   3.241   3.227   2.357 -0.5531  1.5399  1.7475
 4059SOL     OW23635   2.372   0.824   4.513  0.5316 -0.1065 -0.1302
 4059SOL    HW123636   2.370   0.764   4.438  0.2757  1.7990 -1.6542
 4059SOL    HW223637   2.358   0.906   4.465  1.8132  0.1346 -0.1166
 4060SOL     OW23638   1.328   1.852  10.420  0.6164  0.0596 -0.2029
 4060SOL    HW123639   1.291   1.767  10.395  0.0730 -0.2463  1.6406
 4060SOL    HW223640   1.241   1.892  10.431  0.4620  0.5987 -3.3657
 4061SOL     OW23641   1.464   4.634  15.628 -0.0280 -0.0231  0.5877
 4061SOL    HW123642   1.373   4.607  15.615  0.0763  0.0477 -0.2599
 4061SOL    HW223643   1.500   4.545  15.621  3.2411  1.3735 -0.1104
 4062SOL     OW23644   0.046   0.260   8.862 -0.4125  0.1608 -0.0621
 4062SOL    HW123645   4.686   0.227   8.820  1.1058 -1.7320 -1.4478
 4062SOL    HW223646   0.048   0.354   8.841  2.2428 -0.3801 -2.1614
 4063SOL     OW23647   1.575   2.291   3.520 -0.3390  0.0667  0.2884
 4063SOL    HW123648   1.492   2.339   3.521  0.4052  1.3334  1.8954
 4063SOL    HW223649   1.594   2.283   3.614 -0.9091  2.1434  0.5940
 4064SOL     OW23650   0.079   2.879   4.577 -0.5228 -0.0543  0.1394
 4064SOL    HW123651   0.030   2.909   4.654 -1.9634 -0.2399 -0.6908
 4064SOL    HW223652   0.147   2.946   4.576  0.5959 -1.2125 -0.1703
 4065SOL     OW23653   2.629   2.409  15.390 -0.0565  0.2370  0.3603
 4065SOL    HW123654   2.670   2.487  15.428  1.5270 -1.8708  3.0065
 4065SOL    HW223655   2.535   2.428  15.394 -0.3553 -0.7936 -2.0439
 4066SOL     OW23656   2.521   1.609   2.263  0.0918 -0.0496 -0.1519
 4066SOL    HW123657   2.472   1.612   2.181  0.2720 -0.9240 -0.2944
 4066SOL    HW223658   2.589   1.670   2.233 -0.6696  0.7160 -0.3184
 4067SOL     OW23659   2.680   3.688   2.070  0.2146  0.6313  0.5851
 4067SOL    HW123660   2.747   3.628   2.105 -1.9983 -2.3539 -0.3370
 4067SOL    HW223661   2.736   3.763   2.050  1.7609 -0.4650  0.7282
 4068SOL     OW23662   1.396   2.256   6.159 -0.0087 -0.1651  0.7401
 4068SOL    HW123663   1.335   2.229   6.090  1.8323 -1.6575 -0.2818
 4068SOL    HW223664   1.367   2.345   6.178  0.0778  0.3291 -1.4559
 4069SOL     OW23665   2.025   3.686  12.030  0.3989 -0.3548  0.1608
 4069SOL    HW123666   2.013   3.761  12.088 -2.0688 -0.5543 -0.0939
 4069SOL    HW223667   1.952   3.705  11.972 -1.2083 -1.7278  1.7175
 4070SOL     OW23668   1.196   4.179   5.070 -0.0342 -0.2570 -0.4485
 4070SOL    HW123669   1.261   4.249   5.075 -1.8658  1.2794  1.3547
 4070SOL    HW223670   1.218   4.120   5.142  0.1411  1.4712  0.9077
 4071SOL     OW23671   3.030   1.020   2.026  0.4101 -0.3958  0.9419
 4071SOL    HW123672   3.079   1.096   2.056  0.8476  0.2218 -1.3521
 4071SOL    HW223673   2.965   1.068   1.976  1.5672  1.3563  1.1225
 4072SOL     OW23674   3.869   2.251   0.900 -0.3774  0.6608 -0.0204
 4072SOL    HW123675   3.866   2.344   0.920  0.5959  1.3537 -3.0838
 4072SOL    HW223676   3.844   2.208   0.982 -0.7015  0.7910 -0.0536
 4073SOL     OW23677   1.003   1.085   5.036  0.7050  0.6534 -0.4916
 4073SOL    HW123678   0.960   1.170   5.040  2.2710  1.4259 -0.1211
 4073SOL    HW223679   0.965   1.039   4.961 -0.1358  0.7035 -0.0923
 4074SOL     OW23680   0.585   3.100   4.622  0.2944 -1.0002 -0.2276
 4074SOL    HW123681   0.667   3.110   4.574 -0.1609 -0.0418 -0.7987
 4074SOL    HW223682   0.622   3.089   4.709  0.1045  0.9571  0.0940
 4075SOL     OW23683   1.927   0.464   7.133  0.0824  0.0668  0.2379
 4075SOL    HW123684   1.894   0.452   7.222  1.8857  0.2511  0.9296
 4075SOL    HW223685   1.969   0.382   7.109  0.5905  1.3118 -3.1209
 4076SOL     OW23686   3.622   3.874   1.832 -0.3255  0.3590  0.1692
 4076SOL    HW123687   3.624   3.940   1.902  2.1991  0.9781 -0.5090
 4076SOL    HW223688   3.566   3.923   1.771 -0.2392  1.5062  1.0084
 4077SOL     OW23689   1.029   0.399  12.231 -0.0874 -0.0857  0.9339
 4077SOL    HW123690   1.035   0.491  12.207  0.8583 -1.4128 -3.8279
 4077SOL    HW223691   0.968   0.370  12.163  1.1182  2.6210 -1.2934
 4078SOL     OW23692   4.431   4.146   8.865 -0.7667 -0.2819  0.3853
 4078SOL    HW123693   4.472   4.116   8.783 -1.3197 -1.6380  0.5999
 4078SOL    HW223694   4.341   4.124   8.842 -1.6409  1.6936  2.0325
 4079SOL     OW23695   0.753   1.991  11.662  0.2499  0.0818 -0.3071
 4079SOL    HW123696   0.724   1.973  11.572  2.3644 -0.0527 -0.9473
 4079SOL    HW223697   0.675   1.951  11.702  0.6822  0.3620  0.7961
 4080SOL     OW23698   3.322   4.196   0.248  0.3639  0.0505 -0.0603
 4080SOL    HW123699   3.240   4.217   0.292  0.8093  1.1223  0.2512
 4080SOL    HW223700   3.291   4.123   0.194 -0.0919 -0.3618  0.7634
 4081SOL     OW23701   0.892   3.888   1.044 -0.2378 -0.5072  0.0141
 4081SOL    HW123702   0.919   3.888   1.136  1.2218  0.8262 -0.4188
 4081SOL    HW223703   0.874   3.799   1.011 -0.7013 -0.0630 -0.9258
 4082SOL     OW23704   0.460   0.327   6.757  0.2276 -0.4253 -0.3982
 4082SOL    HW123705   0.409   0.247   6.741  1.1599 -0.5266 -2.7036
 4082SOL    HW223706   0.415   0.354   6.838  0.7069 -0.5781 -0.0827
 4083SOL     OW23707   3.189   2.384  15.152 -0.2338  0.5105  0.0105
 4083SOL    HW123708   3.257   2.404  15.216 -1.6874  0.0457  1.6899
 4083SOL    HW223709   3.186   2.289  15.153 -2.7018  0.5740  1.0732
 4084SOL     OW23710   0.586   0.305   8.804  0.1686 -0.5219 -0.2387
 4084SOL    HW123711   0.558   0.386   8.762 -2.3645 -1.1916  0.1707
 4084SOL    HW223712   0.541   0.239   8.752  4.2612 -1.9759 -1.9405
 4085SOL     OW23713   1.783   3.571   6.380 -0.1951  0.8530 -0.3166
 4085SOL    HW123714   1.711   3.577   6.443 -0.4058 -0.2248 -0.4514
 4085SOL    HW223715   1.805   3.664   6.377  1.4588  0.4978  0.9665
 4086SOL     OW23716   3.082   4.528   1.921 -0.7328 -0.1275 -0.6725
 4086SOL    HW123717   3.042   4.602   1.875 -0.5132 -0.5150 -1.4879
 4086SOL    HW223718   3.044   4.550   2.006  0.7985  0.3860 -0.1147
 4087SOL     OW23719   0.077   4.647   6.466  0.1515  0.1389  0.0631
 4087SOL    HW123720   0.014   4.635   6.537 -1.3789 -1.6978 -1.6140
 4087SOL    HW223721   0.092   4.553   6.454 -1.8165 -0.1432 -0.1819
 4088SOL     OW23722   4.038   0.613   2.969 -0.1684 -0.0548 -0.4340
 4088SOL    HW123723   3.993   0.557   2.905  2.0097 -0.2382 -1.7913
 4088SOL    HW223724   4.119   0.616   2.918 -0.4866  1.2087 -0.8634
 4089SOL     OW23725   4.262   2.030  13.127 -0.3090  0.3104 -0.2638
 4089SOL    HW123726   4.247   1.986  13.043  2.2480 -4.2693  1.6436
 4089SOL    HW223727   4.229   2.117  13.108 -1.3025  0.3621  1.6597
 4090SOL     OW23728   1.923   1.289   2.165 -0.7904  0.2108  0.4407
 4090SOL    HW123729   1.847   1.248   2.209 -0.7697 -1.2600 -0.8985
 4090SOL    HW223730   1.920   1.222   2.097  1.2622 -0.3336  0.8833
 4091SOL     OW23731   4.279   0.919  16.490  0.1359 -0.6409  0.1611
 4091SOL    HW123732   4.237   0.970  16.422 -2.4884 -1.5194  1.0912
 4091SOL    HW223733   4.301   0.836  16.447  0.7359 -2.2416  3.4784
 4092SOL     OW23734   2.036   1.437   7.996  0.5396 -0.3272 -0.3557
 4092SOL    HW123735   2.050   1.343   8.010  0.4689 -0.1782  0.7127
 4092SOL    HW223736   2.020   1.441   7.901 -3.6952 -0.0639  0.3774
 4093SOL     OW23737   0.856   4.631   3.574  0.1934 -0.1212  0.5235
 4093SOL    HW123738   0.866   0.002   3.600  1.2174 -0.2968  0.7442
 4093SOL    HW223739   0.801   4.600   3.645  1.0529 -0.7518  0.9219
 4094SOL     OW23740   3.525   1.533   2.172 -0.2507 -0.0017  0.1838
 4094SOL    HW123741   3.439   1.533   2.215 -1.4894 -0.5160 -2.3127
 4094SOL    HW223742   3.509   1.617   2.129 -1.8640 -0.7758 -0.7178
 4095SOL     OW23743   3.158   3.245  13.002  0.1499  0.6820  0.3286
 4095SOL    HW123744   3.205   3.162  13.004  0.6510  0.8399 -3.8201
 4095SOL    HW223745   3.142   3.268  12.910 -1.6821 -2.7352 -0.2027
 4096SOL     OW23746   0.425   4.252   6.498  0.1899 -0.5154 -0.2347
 4096SOL    HW123747   0.377   4.193   6.441 -1.1608 -0.1929  0.5759
 4096SOL    HW223748   0.441   4.194   6.573 -1.4955 -1.0463 -0.2859
 4097SOL     OW23749   4.564   2.061  12.885  0.3053 -0.9336  0.1803
 4097SOL    HW123750   4.486   2.115  12.870  1.4378  1.0394  1.4024
 4097SOL    HW223751   4.528   1.981  12.847  2.1485 -2.2918  1.2809
 4098SOL     OW23752   3.940   3.426  15.825  0.1965 -0.3197 -0.3384
 4098SOL    HW123753   3.877   3.498  15.828  1.3077  0.7242 -2.6944
 4098SOL    HW223754   3.932   3.403  15.732  0.5631 -0.2484 -0.3864
 4099SOL     OW23755   4.025   2.856   3.610  0.1004  0.2041  0.3529
 4099SOL    HW123756   4.003   2.949   3.606 -1.1651 -0.1371 -0.8661
 4099SOL    HW223757   4.030   2.846   3.705 -1.7261 -0.8336  0.3372
 4100SOL     OW23758   1.924   3.926   5.406  0.3921 -0.2121 -0.0840
 4100SOL    HW123759   1.928   3.945   5.312 -0.5041  2.5377  0.4366
 4100SOL    HW223760   1.862   3.854   5.409 -1.0595  0.9978 -1.3156
 4101SOL     OW23761   0.036   4.270  12.816 -0.3514  0.0318  0.4132
 4101SOL    HW123762   0.079   4.341  12.864 -0.8872  0.6742 -0.0736
 4101SOL    HW223763   4.679   4.254  12.870 -0.1775 -2.5986 -0.1293
 4102SOL     OW23764   1.302   1.372   8.079  0.8393  0.0197 -0.2249
 4102SOL    HW123765   1.383   1.333   8.045  1.1402  0.3022  0.1638
 4102SOL    HW223766   1.260   1.290   8.107  1.3271 -0.6563 -1.4522
 4103SOL     OW23767   2.899   0.342  12.484  0.7026 -0.8348  0.6073
 4103SOL    HW123768   2.812   0.379  12.469  0.7458 -0.9553  0.0776
 4103SOL    HW223769   2.860   0.272  12.536  0.8085 -0.9714  0.4993
 4104SOL     OW23770   4.289   1.682   1.705 -0.4894 -0.6564 -0.4768
 4104SOL    HW123771   4.259   1.657   1.617  0.7870 -0.8750 -0.8475
 4104SOL    HW223772   4.213   1.730   1.739 -2.0441 -3.7639  0.3906
 4105SOL     OW23773   2.159   3.899   4.981 -0.2097  0.3679  0.4625
 4105SOL    HW123774   2.213   3.965   5.022  0.0933  0.2813  0.2046
 4105SOL    HW223775   2.169   3.921   4.888 -0.9233 -3.7166 -0.5854
 4106SOL     OW23776   3.263   0.405  17.068  0.1946 -0.1994 -0.2473
 4106SOL    HW123777   3.338   0.433  17.119  0.3130  1.7874 -1.5407
 4106SOL    HW223778   3.287   0.435  16.980 -1.1339  0.8315 -0.2588
 4107SOL     OW23779   1.465   1.813  16.705 -0.8341 -0.2683  0.8528
 4107SOL    HW123780   1.432   1.759  16.778 -0.3550 -0.7686  0.6998
 4107SOL    HW223781   1.559   1.800  16.715 -0.6680 -0.0785 -0.4827
 4108SOL     OW23782   3.809   3.474   8.172  0.2290  0.1588  0.3198
 4108SOL    HW123783   3.778   3.489   8.083 -1.0537 -0.0141  0.7480
 4108SOL    HW223784   3.849   3.387   8.168  0.3995  0.2790 -0.5844
 4109SOL     OW23785   4.234   2.332   4.464  0.3217 -0.0698 -0.4556
 4109SOL    HW123786   4.316   2.313   4.419 -0.4973  0.8134 -2.3123
 4109SOL    HW223787   4.181   2.252   4.466 -2.8286  2.0433 -0.2225
 4110SOL     OW23788   1.544   3.639   6.202 -0.0339  0.4404  0.2165
 4110SOL    HW123789   1.614   3.583   6.167 -0.0435  0.2327  0.5285
 4110SOL    HW223790   1.546   3.621   6.296 -0.1726 -0.6111  0.0207
 4111SOL     OW23791   2.114   4.253   0.475 -0.0840 -0.2713  0.5158
 4111SOL    HW123792   2.201   4.213   0.487  0.0008 -0.1048  0.4472
 4111SOL    HW223793   2.104   4.242   0.380  1.1406  2.8215  0.0282
 4112SOL     OW23794   3.768   2.240  10.320 -0.1615  0.3744  0.3027
 4112SOL    HW123795   3.834   2.174  10.300 -1.6113 -1.5893  2.0294
 4112SOL    HW223796   3.770   2.216  10.412 -0.8107 -0.3055  0.1327
 4113SOL     OW23797   3.316   4.661   2.296  0.1001 -0.4217  0.5012
 4113SOL    HW123798   3.409   4.655   2.274  0.5837 -1.1053  2.6814
 4113SOL    HW223799   3.310   4.566   2.303  0.5513 -0.4763  0.1699
 4114SOL     OW23800   3.681   2.483   5.727 -0.4820 -0.0114 -0.1046
 4114SOL    HW123801   3.640   2.460   5.810 -0.9939 -1.0651 -0.6425
 4114SOL    HW223802   3.740   2.554   5.752 -0.0866 -0.2917 -0.2356
 4115SOL     OW23803   1.547   2.032   3.410 -0.6477 -0.3190  0.5744
 4115SOL    HW123804   1.538   2.124   3.434 -0.6446  0.2593 -1.5922
 4115SOL    HW223805   1.470   1.982   3.435 -0.9001 -1.1030 -1.7887
 4116SOL     OW23806   3.368   3.594   8.473 -0.4375  0.3527 -0.0335
 4116SOL    HW123807   3.357   3.525   8.407  0.7986 -0.0147  0.1433
 4116SOL    HW223808   3.352   3.667   8.414  0.2263  1.1918  0.8210
 4117SOL     OW23809   3.584   1.771   2.997 -0.4636  0.8994 -0.1806
 4117SOL    HW123810   3.570   1.688   3.043 -1.9231  2.2713  1.8435
 4117SOL    HW223811   3.657   1.750   2.938  1.2831  1.4764  1.8015
 4118SOL     OW23812   1.875   0.114   4.860 -0.8340 -0.4091  0.4118
 4118SOL    HW123813   1.872   0.206   4.886  1.2962 -0.3191  0.3524
 4118SOL    HW223814   1.909   0.079   4.942  1.2310 -0.6397 -0.5492
 4119SOL     OW23815   2.248   1.257   4.193 -0.5548 -0.5473 -0.2111
 4119SOL    HW123816   2.171   1.257   4.136  0.2056  1.6032 -1.2376
 4119SOL    HW223817   2.226   1.202   4.268  0.4286 -1.1553 -0.3700
 4120SOL     OW23818   2.852   1.323   6.792  0.1396 -0.0395 -0.0983
 4120SOL    HW123819   2.875   1.400   6.844 -0.2624 -1.1982  1.8105
 4120SOL    HW223820   2.878   1.344   6.703  1.6089  1.4953  0.6946
 4121SOL     OW23821   3.425   2.932  16.196 -0.1143 -0.5079  0.7618
 4121SOL    HW123822   3.477   2.857  16.167 -0.0114 -0.7545  1.5863
 4121SOL    HW223823   3.395   2.961  16.110 -1.4403 -3.2395  0.2777
 4122SOL     OW23824   3.728   3.930   8.403 -0.1000 -0.1868 -0.2420
 4122SOL    HW123825   3.691   3.903   8.487  1.3118 -0.8027  0.1762
 4122SOL    HW223826   3.738   3.843   8.364 -0.9492 -0.1413 -0.5592
 4123SOL     OW23827   3.962   3.291   3.937  0.4458 -0.3384  0.0560
 4123SOL    HW123828   3.999   3.214   3.980  2.6636  2.2913  2.7953
 4123SOL    HW223829   4.023   3.353   3.976 -0.8605 -0.0817  1.6828
 4124SOL     OW23830   0.199   2.668   0.167  0.3311 -0.3014  0.0095
 4124SOL    HW123831   0.178   2.731   0.098 -0.1468  0.1991  0.6267
 4124SOL    HW223832   0.180   2.584   0.124 -1.2366  0.1759 -0.2004
 4125SOL     OW23833   2.156   0.109   8.052 -0.2012 -0.1886  0.0918
 4125SOL    HW123834   2.210   0.187   8.062 -0.2555  0.0425 -1.4788
 4125SOL    HW223835   2.209   0.057   7.991  0.4998  1.7305 -0.9234
 4126SOL     OW23836   4.189   2.802   8.515 -0.1851 -0.1427 -0.0277
 4126SOL    HW123837   4.218   2.785   8.605 -2.8445  1.8816  1.2216
 4126SOL    HW223838   4.166   2.711   8.495 -2.3112  0.9679 -2.7507
 4127SOL     OW23839   0.259   2.266   3.008 -0.0776 -0.2770  0.1341
 4127SOL    HW123840   0.319   2.260   2.934 -0.9627 -4.2727 -0.2714
 4127SOL    HW223841   0.194   2.205   2.973 -1.6139  0.5399  1.5320
 4128SOL     OW23842   2.474   3.761  11.000  0.0866 -0.0159 -0.2599
 4128SOL    HW123843   2.444   3.761  11.091  0.1765 -1.5924 -0.2323
 4128SOL    HW223844   2.497   3.673  10.971  0.9145 -0.3383  1.3856
 4129SOL     OW23845   2.185   2.506  11.203  0.3696  0.5469  0.4085
 4129SOL    HW123846   2.199   2.593  11.240 -0.2943  0.9574 -0.3307
 4129SOL    HW223847   2.132   2.459  11.267 -0.2034 -0.9566 -1.1751
 4130SOL     OW23848   4.537   0.950   4.209  0.1474  0.1510 -0.5142
 4130SOL    HW123849   4.533   0.864   4.251  1.8929  0.2621 -0.1445
 4130SOL    HW223850   4.599   0.940   4.136 -1.2416  0.3514 -1.7264
 4131SOL     OW23851   3.639   4.390  17.248  0.2283 -0.4058  0.4887
 4131SOL    HW123852   3.702   4.350  17.308 -0.7585 -0.3056  1.5886
 4131SOL    HW223853   3.607   4.312  17.202 -2.3240  0.8508  0.1088
 4132SOL     OW23854   3.681   2.158   3.753  0.0164  0.2640  0.3745
 4132SOL    HW123855   3.639   2.140   3.669  3.2278  1.3653 -1.4453
 4132SOL    HW223856   3.657   2.250   3.758 -3.0598 -0.6856  2.9719
 4133SOL     OW23857   1.972   1.528  15.020 -0.3082 -0.2492  0.2649
 4133SOL    HW123858   2.002   1.619  15.012 -0.8139 -0.0457  0.6417
 4133SOL    HW223859   2.041   1.497  15.077 -0.0814 -2.3569 -1.1665
 4134SOL     OW23860   2.308   3.355  11.524  0.2094 -0.3195 -0.2817
 4134SOL    HW123861   2.241   3.424  11.524 -1.0735 -1.5462  0.7064
 4134SOL    HW223862   2.362   3.374  11.448 -0.7510 -1.7424 -1.3168
 4135SOL     OW23863   2.227   0.994   5.080 -0.4723  0.4332  0.5168
 4135SOL    HW123864   2.201   0.965   5.167  0.9990 -1.4972  0.3023
 4135SOL    HW223865   2.157   1.059   5.067 -0.2552  0.1606 -2.0680
 4136SOL     OW23866   0.725   2.797   4.682 -0.2536 -0.1440 -0.4147
 4136SOL    HW123867   0.689   2.823   4.597 -3.4139  0.1702  1.0255
 4136SOL    HW223868   0.695   2.706   4.686 -0.7985  0.0248 -0.6097
 4137SOL     OW23869   3.781   1.274   6.201 -0.0702 -0.7403  0.1914
 4137SOL    HW123870   3.821   1.197   6.240  3.0635  0.3667 -0.8667
 4137SOL    HW223871   3.694   1.235   6.205  0.0873 -1.1022  0.0667
 4138SOL     OW23872   0.808   3.495   7.477 -0.4695 -0.1398  0.2253
 4138SOL    HW123873   0.840   3.405   7.486 -1.2174 -0.5964 -1.6004
 4138SOL    HW223874   0.719   3.478   7.445 -0.2963 -0.5879 -0.0203
 4139SOL     OW23875   2.305   3.527  13.478 -0.1641 -0.7361  0.4072
 4139SOL    HW123876   2.387   3.546  13.524 -1.0142  2.8457  0.4590
 4139SOL    HW223877   2.340   3.521  13.389  0.7988 -0.2036  0.7426
 4140SOL     OW23878   0.654   0.859   1.246  0.0068  0.4238  0.4199
 4140SOL    HW123879   0.586   0.856   1.314 -1.0795 -0.4285 -0.6875
 4140SOL    HW223880   0.600   0.884   1.171  0.2744 -2.4888 -0.7252
 4141SOL     OW23881   2.251   0.005   2.619 -0.1608  0.6754  0.3753
 4141SOL    HW123882   2.166   4.712   2.579 -1.7107  0.1863  3.7944
 4141SOL    HW223883   2.252   0.092   2.660  0.6362  0.5690  0.5928
 4142SOL     OW23884   4.156   1.993   8.811 -0.2431  0.3845 -0.1384
 4142SOL    HW123885   4.090   1.963   8.749 -1.1903  1.8352  0.1591
 4142SOL    HW223886   4.149   2.086   8.790 -0.1280  0.4445  0.0879
 4143SOL     OW23887   1.124   3.327  16.390 -0.1715  0.0330 -0.2146
 4143SOL    HW123888   1.132   3.400  16.328  2.3523  1.0103  1.2746
 4143SOL    HW223889   1.140   3.256  16.328 -0.7913 -0.2871 -0.0159
 4144SOL     OW23890   0.687   2.655   5.932  0.5935  0.0113  0.1311
 4144SOL    HW123891   0.693   2.687   6.022 -0.2392 -2.8837  1.2061
 4144SOL    HW223892   0.687   2.740   5.889 -1.7844 -0.5417 -0.9655
 4145SOL     OW23893   4.065   1.507   4.701  0.4808 -0.7362  0.2373
 4145SOL    HW123894   4.091   1.433   4.756  1.1342 -0.0859  0.8186
 4145SOL    HW223895   4.080   1.568   4.773 -0.6685  0.1717 -0.3086
 4146SOL     OW23896   0.915   3.179   3.970  0.3814 -0.1390  0.5093
 4146SOL    HW123897   0.984   3.223   4.019  1.1848  0.1141 -0.8555
 4146SOL    HW223898   0.882   3.244   3.908 -0.2619 -0.8968  0.0562
 4147SOL     OW23899   1.389   2.467   5.890  0.3601  0.0880  0.1103
 4147SOL    HW123900   1.455   2.515   5.940  0.8029 -0.5643  0.1522
 4147SOL    HW223901   1.395   2.384   5.937  1.0596 -0.4236 -0.8688
 4148SOL     OW23902   0.791   0.396   3.834  0.3529 -0.3966  0.3844
 4148SOL    HW123903   0.881   0.399   3.865  0.9629 -1.7364 -1.2382
 4148SOL    HW223904   0.783   0.487   3.804  2.0302 -0.7450 -1.0973
 4149SOL     OW23905   2.534   1.827   6.322  0.3098  0.1150  0.2946
 4149SOL    HW123906   2.623   1.801   6.347  0.6125  0.1300 -0.7760
 4149SOL    HW223907   2.530   1.826   6.227 -1.1583  0.2710  0.3565
 4150SOL     OW23908   2.820   1.448   4.207  0.2762 -0.0989  0.6791
 4150SOL    HW123909   2.803   1.451   4.302 -4.3608  0.2791 -0.2001
 4150SOL    HW223910   2.796   1.538   4.186  2.6002  0.3392 -0.1002
 4151SOL     OW23911   4.034   3.996   5.640  0.7872  0.2812  0.0229
 4151SOL    HW123912   3.990   4.012   5.557 -0.3237  0.2383  0.6103
 4151SOL    HW223913   4.075   4.082   5.654  1.0150  0.2536 -0.4806
 4152SOL     OW23914   1.915   4.154  12.306 -0.4081 -0.5771  0.2774
 4152SOL    HW123915   1.861   4.161  12.227 -0.9544  1.6286  0.8802
 4152SOL    HW223916   1.865   4.186  12.381 -0.3506  0.5402 -0.1701
 4153SOL     OW23917   2.409   0.920   7.828 -0.0719 -0.1931 -0.6298
 4153SOL    HW123918   2.352   0.948   7.757 -1.3728 -2.3552 -0.4362
 4153SOL    HW223919   2.465   0.997   7.835 -0.7486  0.2164  0.2588
 4154SOL     OW23920   0.224   1.881   2.813  0.0102  0.1795  0.1323
 4154SOL    HW123921   0.316   1.856   2.822 -0.4582 -1.6391 -0.0492
 4154SOL    HW223922   0.181   1.805   2.773 -2.1944  0.7188  1.4171
 4155SOL     OW23923   4.618   3.692   2.678 -0.3822 -0.7029 -0.3304
 4155SOL    HW123924   4.703   3.735   2.674 -0.3041 -0.5501  3.2728
 4155SOL    HW223925   4.646   3.604   2.655  2.4903 -0.0733  0.8257
 4156SOL     OW23926   2.835   0.790   4.821 -0.0989  0.0200 -0.3186
 4156SOL    HW123927   2.816   0.701   4.792 -0.3149 -0.1521  0.3356
 4156SOL    HW223928   2.910   0.814   4.768  0.7830  0.2096  1.0006
 4157SOL     OW23929   0.214   2.634  17.500 -0.5685  0.1930 -0.0791
 4157SOL    HW123930   0.274   2.679  17.440 -1.1890 -0.0284 -0.8568
 4157SOL    HW223931   0.160   2.709  17.527 -1.4404 -0.2832 -0.5091
 4158SOL     OW23932   2.361   0.394   0.524  0.2679  0.1483 -0.1337
 4158SOL    HW123933   2.281   0.373   0.574  0.7004 -0.7069  0.2094
 4158SOL    HW223934   2.345   0.346   0.443 -2.4824 -1.8049  1.5302
 4159SOL     OW23935   1.206   1.883  11.768  0.2330 -0.1506 -0.0450
 4159SOL    HW123936   1.172   1.910  11.683  0.1457 -0.6162 -0.1618
 4159SOL    HW223937   1.164   1.939  11.833 -1.3869 -0.2667 -0.9843
 4160SOL     OW23938   0.485   3.316  13.926  0.2326 -0.4580  0.0166
 4160SOL    HW123939   0.501   3.407  13.950 -0.8460 -0.2919  0.1182
 4160SOL    HW223940   0.418   3.313  13.858  1.7180 -3.2015 -1.2901
 4161SOL     OW23941   4.473   0.794   5.302  0.3594 -0.2176  0.4362
 4161SOL    HW123942   4.539   0.814   5.369  1.1386 -1.9503  0.1957
 4161SOL    HW223943   4.493   0.700   5.293 -0.8156 -0.4104 -0.1355
 4162SOL     OW23944   1.446   0.367   9.763 -0.4075 -0.0918 -0.5297
 4162SOL    HW123945   1.495   0.431   9.815  2.7496 -2.0430 -1.1356
 4162SOL    HW223946   1.398   0.317   9.829  1.2192 -2.2658 -0.9974
 4163SOL     OW23947   1.423   1.566   6.028 -0.0453  0.1706  0.0770
 4163SOL    HW123948   1.328   1.554   6.022 -0.2031  0.0740  2.7197
 4163SOL    HW223949   1.444   1.481   6.066  0.1066  0.8413  1.4948
 4164SOL     OW23950   0.527   4.113   0.718  0.2704 -0.2177  0.5835
 4164SOL    HW123951   0.583   4.050   0.762  0.5306  0.3506  1.0648
 4164SOL    HW223952   0.512   4.174   0.790 -2.3447  1.2142 -1.1376
 4165SOL     OW23953   4.592   3.852  15.836  0.2381  0.0226  0.6874
 4165SOL    HW123954   4.582   3.768  15.879 -3.3531 -1.0830 -2.3779
 4165SOL    HW223955   4.672   3.841  15.785  0.7143 -0.2819  1.5078
 4166SOL     OW23956   2.874   3.229  13.130 -0.1067 -0.4001  0.4270
 4166SOL    HW123957   2.816   3.154  13.141 -0.0128 -0.5292  0.0502
 4166SOL    HW223958   2.818   3.303  13.155  1.1377  0.1241  1.6517
 4167SOL     OW23959   0.787   2.308   0.279  0.2362  0.0572  0.0041
 4167SOL    HW123960   0.707   2.293   0.329  0.2733 -4.2903 -1.2395
 4167SOL    HW223961   0.839   2.232   0.303  2.9240  2.0680  0.4910
 4168SOL     OW23962   0.724   2.045   7.205  0.8426  0.2460  0.4760
 4168SOL    HW123963   0.782   2.119   7.224  2.6031 -0.4393 -2.2852
 4168SOL    HW223964   0.771   1.976   7.252  0.7337 -0.3706 -0.3216
 4169SOL     OW23965   4.286   1.097  11.655 -0.2695  0.5461  0.2541
 4169SOL    HW123966   4.368   1.048  11.644 -0.0020  1.2541 -1.0479
 4169SOL    HW223967   4.304   1.186  11.623  0.5116  1.9138  4.6192
 4170SOL     OW23968   1.191   4.000  17.378  0.0067  0.1905  0.6863
 4170SOL    HW123969   1.170   3.909  17.400 -0.0315 -0.3299 -1.5351
 4170SOL    HW223970   1.175   4.012  17.285  1.1597 -0.3703  0.4201
 4171SOL     OW23971   0.761   4.323  16.460  0.2010  0.3863  0.2958
 4171SOL    HW123972   0.811   4.378  16.399  0.3761 -0.1580 -0.0561
 4171SOL    HW223973   0.691   4.387  16.472 -0.1227  0.4788 -2.0475
 4172SOL     OW23974   3.530   2.772   2.474 -0.3556  0.1436  0.2233
 4172SOL    HW123975   3.473   2.712   2.426 -0.0169 -0.5682  0.7024
 4172SOL    HW223976   3.533   2.714   2.550  2.6635  0.4341  0.3240
 4173SOL     OW23977   2.019   4.242  12.817  0.3628  0.0352 -0.2476
 4173SOL    HW123978   2.071   4.238  12.737  2.0724  3.3286  0.6988
 4173SOL    HW223979   1.977   4.156  12.813  1.5762 -0.6924  3.2929
 4174SOL     OW23980   3.067   3.747   8.101 -0.2769 -0.1891  0.0666
 4174SOL    HW123981   3.077   3.770   8.009  1.5915  0.0980  0.3445
 4174SOL    HW223982   3.059   3.652   8.092  2.5957 -0.2845 -1.4914
 4175SOL     OW23983   2.747   4.336   4.715  0.5285  0.3324 -0.0222
 4175SOL    HW123984   2.782   4.259   4.761 -0.7097 -0.9097 -1.1439
 4175SOL    HW223985   2.654   4.323   4.735  0.3840  1.9364  0.3320
 4176SOL     OW23986   1.561   2.714  11.494  0.7784  0.1240 -0.6451
 4176SOL    HW123987   1.619   2.788  11.511 -0.3036  0.4917  1.3973
 4176SOL    HW223988   1.486   2.762  11.458 -0.3643 -0.9583  0.3106
 4177SOL     OW23989   3.389   3.131   1.500  0.3905  0.1497  0.2195
 4177SOL    HW123990   3.379   3.052   1.553  0.6400  0.2221  0.3747
 4177SOL    HW223991   3.394   3.199   1.568 -0.0261  0.2217  0.1815
 4178SOL     OW23992   4.448   3.212   6.957 -0.0666 -0.0485 -0.2794
 4178SOL    HW123993   4.424   3.141   6.897  0.1574 -1.2303  1.0390
 4178SOL    HW223994   4.521   3.179   7.009  0.2359  0.6937 -0.2335
 4179SOL     OW23995   4.556   1.051  12.487  0.6838  0.5816 -0.0716
 4179SOL    HW123996   4.565   0.962  12.519 -2.3652  0.7449  1.3023
 4179SOL    HW223997   4.629   1.103  12.520  1.7078 -0.9602  0.0791
 4180SOL     OW23998   1.923   0.268   5.736 -0.0971  0.0347  0.3562
 4180SOL    HW123999   1.984   0.315   5.679  0.4796 -1.2294 -0.0635
 4180SOL    HW224000   1.978   0.191   5.752 -1.5186 -0.6809  1.8312
 4181SOL     OW24001   2.589   2.185  14.146 -0.0038 -0.3269 -0.4728
 4181SOL    HW124002   2.572   2.222  14.232 -0.9321 -0.2847 -0.6744
 4181SOL    HW224003   2.685   2.184  14.140 -0.0123  1.8305 -1.3264
 4182SOL     OW24004   2.383   0.253  16.145  0.1320 -0.0616 -0.7615
 4182SOL    HW124005   2.365   0.347  16.154  0.0259 -0.2078  0.6066
 4182SOL    HW224006   2.478   0.259  16.157  0.1703 -0.7705 -0.6827
 4183SOL     OW24007   3.205   2.605  12.077  0.2778  0.1145 -0.0710
 4183SOL    HW124008   3.258   2.627  12.000  1.3867  0.0948  0.6848
 4183SOL    HW224009   3.134   2.556  12.036 -0.5021  1.3020 -0.1063
 4184SOL     OW24010   4.677   4.682  14.300 -0.3583  0.1962  0.1718
 4184SOL    HW124011   4.663   0.018  14.376  0.4930 -0.0458  0.5149
 4184SOL    HW224012   4.610   4.710  14.238 -1.3683 -0.2074  1.0756
 4185SOL     OW24013   1.884   3.714  12.891 -0.0689 -0.2508  0.0485
 4185SOL    HW124014   1.885   3.774  12.817 -0.3420  0.1966  0.4073
 4185SOL    HW224015   1.852   3.779  12.954 -0.1327 -0.2191 -0.0174
 4186SOL     OW24016   1.793   1.129   5.982 -0.0823 -0.3682  0.2171
 4186SOL    HW124017   1.703   1.130   5.948 -0.0245  1.6365  0.1310
 4186SOL    HW224018   1.809   1.035   5.987  1.0825 -0.1431  0.6801
 4187SOL     OW24019   0.526   4.088   3.468 -0.3158  0.1987  0.1503
 4187SOL    HW124020   0.616   4.074   3.498 -0.6751 -3.2722 -0.3821
 4187SOL    HW224021   0.480   4.015   3.511  1.2494 -1.6122 -1.2220
 4188SOL     OW24022   3.378   0.320   8.515  0.1243 -0.0380 -0.0306
 4188SOL    HW124023   3.387   0.232   8.478  2.0716  0.0322  0.2769
 4188SOL    HW224024   3.309   0.302   8.579 -0.7174  0.6235 -0.7533
 4189SOL     OW24025   0.254   2.712  12.573 -0.2620 -0.2571  0.0943
 4189SOL    HW124026   0.329   2.677  12.623  2.9841  1.3285 -3.6904
 4189SOL    HW224027   0.187   2.646  12.590 -1.2576  0.6005 -0.5180
 4190SOL     OW24028   2.544   3.349   8.752  0.1654  0.0334 -0.3303
 4190SOL    HW124029   2.633   3.363   8.785  0.1793  0.7317 -0.6659
 4190SOL    HW224030   2.491   3.341   8.831  0.8196 -0.6255  0.0404
 4191SOL     OW24031   4.118   2.067   7.937  0.1100  0.3567  0.3389
 4191SOL    HW124032   4.104   2.082   8.030  1.5685 -0.4040  0.6709
 4191SOL    HW224033   4.095   2.144   7.884  1.8360  0.2863 -0.5196
 4192SOL     OW24034   0.850   3.060   5.105  0.1222  0.1940 -0.2807
 4192SOL    HW124035   0.814   3.041   5.192 -2.0666 -2.2536 -1.7433
 4192SOL    HW224036   0.939   3.032   5.128  0.1277 -0.0633 -0.6252
 4193SOL     OW24037   3.085   1.774   3.541  0.5202  0.1354  1.0968
 4193SOL    HW124038   3.068   1.718   3.465 -1.9153  0.1970  1.6266
 4193SOL    HW224039   3.157   1.723   3.578  0.9458 -0.6163 -0.7444
 4194SOL     OW24040   4.566   2.341   5.208 -0.5719  0.0709 -0.0671
 4194SOL    HW124041   4.571   2.346   5.112  0.3332 -1.5290 -0.1031
 4194SOL    HW224042   4.580   2.434   5.225 -1.3527 -0.0477  1.1681
 4195SOL     OW24043   1.201   3.750  15.503 -0.1549 -0.4271 -0.7395
 4195SOL    HW124044   1.124   3.694  15.490 -2.5393  2.0839  2.7048
 4195SOL    HW224045   1.246   3.745  15.418 -1.3934 -2.8271 -1.2600
 4196SOL     OW24046   2.994   4.126   6.657 -0.4596 -0.0747 -0.0099
 4196SOL    HW124047   3.012   4.035   6.680  1.0871  0.7537  2.0309
 4196SOL    HW224048   3.050   4.136   6.580 -1.0238  0.9874 -0.2872
 4197SOL     OW24049   1.229   1.132   6.352 -0.3627 -0.3422  0.0480
 4197SOL    HW124050   1.159   1.159   6.410 -0.1712 -0.6546  0.4224
 4197SOL    HW224051   1.179   1.147   6.272  0.8110  0.8871 -0.4678
 4198SOL     OW24052   1.268   1.393   7.305 -0.4214 -0.6021 -0.8226
 4198SOL    HW124053   1.270   1.338   7.383 -0.3369 -0.0378 -0.4239
 4198SOL    HW224054   1.351   1.439   7.320 -0.5083 -1.6493  2.6731
 4199SOL     OW24055   4.235   2.476   3.840 -0.5105 -0.4602  0.5102
 4199SOL    HW124056   4.176   2.465   3.766  0.7668  1.7550 -0.8137
 4199SOL    HW224057   4.171   2.530   3.887 -0.2006  0.1580  0.2194
 4200SOL     OW24058   0.643   2.693   6.788  0.3153  0.0620 -0.0047
 4200SOL    HW124059   0.692   2.623   6.746 -0.5077 -0.4019 -0.1902
 4200SOL    HW224060   0.687   2.699   6.874  0.2634  1.8197 -0.1045
 4201SOL     OW24061   0.071   3.164  16.321 -0.1112 -0.2263 -0.3916
 4201SOL    HW124062   0.036   3.166  16.410  0.5684  1.8370 -0.1726
 4201SOL    HW224063   0.009   3.215  16.269 -0.3962 -0.5425 -0.3623
 4202SOL     OW24064   3.847   1.554   6.918 -0.0918  0.0502  0.0862
 4202SOL    HW124065   3.780   1.549   6.987  0.0198 -2.8361  0.0045
 4202SOL    HW224066   3.900   1.475   6.933 -0.4097 -0.3006 -0.7008
 4203SOL     OW24067   0.280   4.427   3.791 -0.3465 -0.0434 -0.0509
 4203SOL    HW124068   0.312   4.417   3.701  0.9368 -0.0510  0.4077
 4203SOL    HW224069   0.321   4.354   3.837  0.1322  0.0512 -0.3246
 4204SOL     OW24070   2.741   3.514   8.354  0.4745 -0.1629 -0.4592
 4204SOL    HW124071   2.744   3.576   8.281 -4.2481  1.0436  0.3996
 4204SOL    HW224072   2.705   3.567   8.424  1.2589  0.6496 -0.6732
 4205SOL     OW24073   1.727   2.757   3.878  0.0412 -0.2121 -0.2769
 4205SOL    HW124074   1.792   2.687   3.878  0.4284  0.1438 -0.0330
 4205SOL    HW224075   1.677   2.740   3.957  0.6243 -3.1562 -0.5201
 4206SOL     OW24076   1.113   1.079   8.819  0.6303  0.1253  0.2021
 4206SOL    HW124077   1.111   1.166   8.859 -2.3663 -0.8130  2.0999
 4206SOL    HW224078   1.026   1.046   8.845 -0.3487  1.1324 -1.7780
 4207SOL     OW24079   4.427   3.852   5.208 -0.2416  0.5853  0.2344
 4207SOL    HW124080   4.334   3.831   5.207 -0.1190  0.1801 -1.5131
 4207SOL    HW224081   4.409   3.941   5.177  3.2765  0.8929 -0.9051
 4208SOL     OW24082   2.956   3.912   4.396  0.6391  0.0709  0.1311
 4208SOL    HW124083   3.035   3.928   4.344 -1.0140 -0.6727 -2.5548
 4208SOL    HW224084   2.890   3.890   4.331  0.1037  0.4566  0.5366
 4209SOL     OW24085   2.287   4.273   3.233  0.4816  0.8597  0.5716
 4209SOL    HW124086   2.236   4.196   3.259  1.2898  0.5671  1.2803
 4209SOL    HW224087   2.369   4.229   3.208 -1.3708 -1.2073 -1.9174
 4210SOL     OW24088   4.252   3.239   2.590  0.3319  0.0225 -0.4303
 4210SOL    HW124089   4.193   3.167   2.613  0.8376  0.0751  1.0407
 4210SOL    HW224090   4.177   3.298   2.580  0.3637  0.2740  0.8117
 4211SOL     OW24091   4.377   3.178   7.737  0.0426  0.3362  0.3416
 4211SOL    HW124092   4.415   3.245   7.681  0.4278 -0.3668 -0.2452
 4211SOL    HW224093   4.288   3.184   7.704 -0.5162  0.8986  1.9796
 4212SOL     OW24094   3.909   1.539   6.607  0.3110 -0.3918 -0.0651
 4212SOL    HW124095   3.883   1.543   6.699  0.4634  0.6375 -0.0705
 4212SOL    HW224096   3.939   1.448   6.603 -1.3396 -0.8802 -1.6640
 4213SOL     OW24097   4.164   4.067   8.401 -0.0135  0.6539  0.7382
 4213SOL    HW124098   4.084   4.090   8.448 -1.6549 -1.0312 -1.2431
 4213SOL    HW224099   4.136   3.983   8.365  0.3224  1.3819 -1.2193
 4214SOL     OW24100   3.078   0.311  15.091  0.5092 -0.0984 -0.1289
 4214SOL    HW124101   3.048   0.370  15.160 -1.4993  0.2911 -1.3431
 4214SOL    HW224102   3.057   0.228  15.133  1.4946 -0.6941 -0.8074
 4215SOL     OW24103   3.226   4.400   6.316  0.0891  0.7041  1.0552
 4215SOL    HW124104   3.321   4.386   6.316  0.0575  0.7243 -3.3665
 4215SOL    HW224105   3.217   4.495   6.323 -0.0357  0.7468  0.2291
 4216SOL     OW24106   1.415   3.867  12.111  0.2834 -0.0583  0.4391
 4216SOL    HW124107   1.378   3.908  12.189 -2.4693  0.2605 -1.0570
 4216SOL    HW224108   1.414   3.771  12.113 -2.4453 -0.0367 -0.3490
 4217SOL     OW24109   4.110   0.762   2.556 -0.1411  0.1613  0.0496
 4217SOL    HW124110   4.097   0.709   2.478  0.5534  1.3123 -0.8357
 4217SOL    HW224111   4.157   0.829   2.506 -0.6745  0.0591 -0.5810
 4218SOL     OW24112   0.522   0.548   5.995 -0.8480  0.0381  0.1264
 4218SOL    HW124113   0.470   0.513   6.067  2.8862 -0.2263  2.6751
 4218SOL    HW224114   0.477   0.633   5.994 -2.2431 -0.6909  1.5208
 4219SOL     OW24115   0.043   4.279   8.078  0.1949  0.0485  0.0608
 4219SOL    HW124116   4.673   4.293   8.049  0.1801  0.7204  0.4346
 4219SOL    HW224117   0.036   4.224   8.155  0.8531  0.3349  0.3215
 4220SOL     OW24118   3.263   1.642   6.790 -0.1480 -0.0886  0.6184
 4220SOL    HW124119   3.277   1.664   6.699  2.4553 -1.0986  0.7786
 4220SOL    HW224120   3.187   1.695   6.813 -2.0962 -1.1711 -3.3961
 4221SOL     OW24121   3.199   3.457   3.904  0.0088  0.8773  0.3648
 4221SOL    HW124122   3.277   3.509   3.924 -0.4283  1.0555  1.5932
 4221SOL    HW224123   3.240   3.398   3.841  0.3405 -0.3759  1.7701
 4222SOL     OW24124   1.911   3.707   4.856  0.7557 -0.1013 -0.4602
 4222SOL    HW124125   1.893   3.795   4.824  0.6353 -0.1149 -0.4306
 4222SOL    HW224126   1.836   3.649   4.844  0.2184  0.6107 -0.5342
 4223SOL     OW24127   3.799   1.587  10.896  0.5768 -0.1384 -0.3552
 4223SOL    HW124128   3.821   1.503  10.938  2.4770  0.5036 -0.0503
 4223SOL    HW224129   3.873   1.604  10.838  0.5165  1.4314  0.0351
 4224SOL     OW24130   3.478   3.354   5.222 -0.1282 -0.3415 -0.0067
 4224SOL    HW124131   3.552   3.298   5.246 -0.3957 -1.2360 -1.2564
 4224SOL    HW224132   3.525   3.426   5.181  0.1380 -0.1663  0.5943
 4225SOL     OW24133   0.722   0.108   5.460 -0.2718 -0.0636 -0.1906
 4225SOL    HW124134   0.692   0.088   5.549 -0.8430 -1.5814 -0.7286
 4225SOL    HW224135   0.784   0.179   5.476 -0.0670 -0.4038  0.5394
 4226SOL     OW24136   3.577   3.644   5.517  0.0325 -0.2901 -0.0981
 4226SOL    HW124137   3.529   3.578   5.568  3.4897 -0.6068  2.7424
 4226SOL    HW224138   3.621   3.592   5.449  1.1605 -2.0263  1.9546
 4227SOL     OW24139   3.439   3.723   3.180  0.2387  0.4266 -0.0639
 4227SOL    HW124140   3.426   3.648   3.238  1.6720  0.6039  0.4760
 4227SOL    HW224141   3.375   3.709   3.110 -0.0561  0.2577  0.2377
 4228SOL     OW24142   3.733   0.912  11.522 -0.2645  0.3575 -0.4825
 4228SOL    HW124143   3.824   0.883  11.526  0.2934  2.1020 -0.6239
 4228SOL    HW224144   3.752   0.949  11.436  1.4135 -0.0796 -0.3087
 4229SOL     OW24145   1.193   1.922   5.343 -0.3852  0.1895 -0.2211
 4229SOL    HW124146   1.236   1.902   5.260  0.9205  2.8477 -0.1954
 4229SOL    HW224147   1.212   1.847   5.399  1.1508  0.2932 -0.6045
 4230SOL     OW24148   0.457   2.177  17.153  0.0966  0.0215 -0.1691
 4230SOL    HW124149   0.446   2.229  17.074 -0.5040  1.0770  0.6002
 4230SOL    HW224150   0.525   2.223  17.202  1.7873  0.1470 -2.6314
 4231SOL     OW24151   2.137   1.129  12.924 -0.0742 -0.5006  0.6715
 4231SOL    HW124152   2.125   1.182  13.003 -0.6007 -0.2277  0.4113
 4231SOL    HW224153   2.228   1.100  12.931 -0.0125 -0.9922 -2.4171
 4232SOL     OW24154   2.605   0.785  15.836  0.0697 -0.0713 -0.1894
 4232SOL    HW124155   2.530   0.765  15.892  0.4430  0.0707  0.3522
 4232SOL    HW224156   2.622   0.875  15.865 -1.8583  0.1259  0.3389
 4233SOL     OW24157   1.293   1.621   2.601 -0.2930 -0.3891  0.2075
 4233SOL    HW124158   1.274   1.681   2.673 -0.0730 -1.9422  1.5674
 4233SOL    HW224159   1.388   1.622   2.608 -0.3578 -2.2099  1.4442
 4234SOL     OW24160   1.890   2.485   5.359  0.1131  0.4095 -0.0531
 4234SOL    HW124161   1.964   2.521   5.310  0.4265 -0.2758 -0.0781
 4234SOL    HW224162   1.837   2.468   5.281  0.5962  1.1209 -0.5382
 4235SOL     OW24163   2.566   3.666  16.597 -0.1591 -0.1835  0.1010
 4235SOL    HW124164   2.584   3.635  16.508 -4.0055  0.2859 -0.8379
 4235SOL    HW224165   2.578   3.579  16.634  0.9476 -0.1836 -0.2536
 4236SOL     OW24166   2.760   1.401   5.282  0.1631  0.2227 -0.4233
 4236SOL    HW124167   2.684   1.367   5.236 -0.2535 -0.9756  1.1598
 4236SOL    HW224168   2.735   1.414   5.373 -1.0026  0.4920 -0.7901
 4237SOL     OW24169   1.074   2.344   8.711  0.4392 -0.1230  0.0759
 4237SOL    HW124170   1.090   2.306   8.798 -0.6839  0.0327  0.3622
 4237SOL    HW224171   0.980   2.352   8.729  0.6874 -0.1328  1.4330
 4238SOL     OW24172   3.229   0.073   7.958 -0.1925  0.5256 -0.3366
 4238SOL    HW124173   3.225   0.140   8.027  0.2651 -0.2661  0.4472
 4238SOL    HW224174   3.321   0.048   7.966 -0.4489 -0.8733 -1.8322
 4239SOL     OW24175   2.919   0.536   8.192 -0.1024  0.0224 -0.0615
 4239SOL    HW124176   2.876   0.615   8.224  3.2481  0.7474  2.6075
 4239SOL    HW224177   2.880   0.528   8.105 -3.3726  0.0776  1.4010
 4240SOL     OW24178   0.499   2.883   2.981 -0.7200 -0.1771 -0.2440
 4240SOL    HW124179   0.498   2.809   2.920  0.1691  0.6601 -1.2860
 4240SOL    HW224180   0.544   2.944   2.923  1.4235  0.6510  2.3209
 4241SOL     OW24181   1.182   4.261   6.008  0.0196 -0.3899 -0.3294
 4241SOL    HW124182   1.194   4.193   6.074 -2.9297 -1.2627 -0.7073
 4241SOL    HW224183   1.175   4.341   6.061  0.5968 -2.3841  2.7786
 4242SOL     OW24184   1.585   0.270  10.556 -0.0923 -0.1054  0.0759
 4242SOL    HW124185   1.612   0.270  10.648  0.5582 -2.4998 -0.1258
 4242SOL    HW224186   1.513   0.333  10.554 -0.6173 -0.7162  0.1011
 4243SOL     OW24187   0.450   2.601   4.828  0.5395  0.5764  0.1512
 4243SOL    HW124188   0.477   2.686   4.861  0.6467  1.0867 -1.2593
 4243SOL    HW224189   0.485   2.537   4.890 -1.2570 -0.1166  0.4422
 4244SOL     OW24190   0.830   2.958   5.631 -0.1036 -0.6518 -0.5915
 4244SOL    HW124191   0.869   3.041   5.659 -2.8406  1.3344 -2.7350
 4244SOL    HW224192   0.900   2.894   5.644 -1.3373 -1.6105  1.2704
 4245SOL     OW24193   1.143   2.525   3.451 -0.3792 -0.5976 -0.7164
 4245SOL    HW124194   1.120   2.433   3.438  2.1332 -1.5947  2.2515
 4245SOL    HW224195   1.235   2.505   3.468 -0.2821  1.1334  0.8059
 4246SOL     OW24196   4.063   0.658   5.277  0.0924 -0.8722  0.1568
 4246SOL    HW124197   4.035   0.749   5.282 -0.9172 -1.0709 -2.1401
 4246SOL    HW224198   4.094   0.644   5.187 -1.4893 -0.2294 -0.4692
 4247SOL     OW24199   3.773   3.040   6.545  0.3553 -0.0373  0.0522
 4247SOL    HW124200   3.684   3.011   6.563 -0.4023  1.5792 -1.1189
 4247SOL    HW224201   3.809   3.039   6.634  1.0304  1.0261 -0.2082
 4248SOL     OW24202   1.225   0.267  12.006 -0.1349 -0.7421  0.2722
 4248SOL    HW124203   1.236   0.238  12.096 -0.2480 -2.7091 -0.3540
 4248SOL    HW224204   1.179   0.197  11.959  0.1119 -0.9269  0.3077
 4249SOL     OW24205   0.565   3.636   6.961 -0.5918 -0.1413  0.4088
 4249SOL    HW124206   0.573   3.730   6.946 -0.1626 -0.2907 -0.3000
 4249SOL    HW224207   0.650   3.594   6.946 -0.4700 -0.9234  3.1824
 4250SOL     OW24208   1.637   3.594   4.060 -0.0852  0.3172  0.1999
 4250SOL    HW124209   1.601   3.552   3.982 -1.8081  1.1922  0.5019
 4250SOL    HW224210   1.730   3.576   4.049 -0.4288 -1.2979 -0.0837
 4251SOL     OW24211   0.235   1.734   1.508 -0.5217 -0.6264 -0.1670
 4251SOL    HW124212   0.216   1.669   1.576 -0.0737  0.2629  0.7971
 4251SOL    HW224213   0.308   1.787   1.540  0.6175 -1.4970 -1.3219
 4252SOL     OW24214   2.657   0.193  14.509 -0.2428  0.0955  0.2421
 4252SOL    HW124215   2.736   0.246  14.494 -0.4330  1.0591  2.6751
 4252SOL    HW224216   2.682   0.130  14.576 -0.9623 -2.2898 -1.7576
 4253SOL     OW24217   0.507   0.040  10.854  0.0002  0.1184 -0.4141
 4253SOL    HW124218   0.586   0.030  10.801 -0.8456  2.2186 -2.0954
 4253SOL    HW224219   0.465   0.117  10.816  0.1437  1.3952  1.9845
 4254SOL     OW24220   1.030   4.540   5.514  0.0240  0.8285 -0.3702
 4254SOL    HW124221   1.056   4.624   5.477 -0.6679  1.9239  1.6380
 4254SOL    HW224222   0.994   4.498   5.435 -0.5215 -0.0557  0.3409
 4255SOL     OW24223   2.238   4.310  14.334 -0.6655  0.6029 -0.3174
 4255SOL    HW124224   2.295   4.344  14.402 -1.5001  1.3458  0.0141
 4255SOL    HW224225   2.287   4.332  14.255 -0.4401 -1.2362 -0.6786
 4256SOL     OW24226   0.078   2.069   2.949 -0.5021 -0.0371  0.4090
 4256SOL    HW124227   0.120   1.997   2.903 -2.5547 -0.5454 -0.6587
 4256SOL    HW224228   4.717   2.086   2.902 -0.2920  1.7794  0.6712
 4257SOL     OW24229   4.372   4.416   6.709 -0.4605 -0.3166  0.2686
 4257SOL    HW124230   4.441   4.372   6.759  0.1014 -1.8559 -1.8633
 4257SOL    HW224231   4.330   4.454   6.786 -0.2602  0.0451  0.2034
 4258SOL     OW24232   2.799   4.140  15.757 -0.1372  0.3047  0.5287
 4258SOL    HW124233   2.749   4.078  15.810 -1.1468  0.5475 -0.1467
 4258SOL    HW224234   2.806   4.095  15.673  0.4382 -2.0159  1.8153
 4259SOL     OW24235   4.492   4.257   7.752 -0.6819  0.5403  0.0616
 4259SOL    HW124236   4.495   4.280   7.845  0.8483 -0.8661  0.3718
 4259SOL    HW224237   4.583   4.276   7.728 -1.1892 -0.2036 -2.4104
 4260SOL     OW24238   2.664   3.485   5.940  0.1282 -0.1085  0.1346
 4260SOL    HW124239   2.592   3.424   5.927  1.4731 -1.2044 -2.1484
 4260SOL    HW224240   2.711   3.443   6.012 -1.3001 -0.0719  1.0821
 4261SOL     OW24241   0.969   0.560   6.868 -0.0340  0.0685 -0.3423
 4261SOL    HW124242   0.879   0.531   6.853  0.6043 -2.1761  0.3110
 4261SOL    HW224243   1.011   0.526   6.789  0.7840  0.2349  0.0153
 4262SOL     OW24244   0.490   0.386   0.663  0.3430  0.0631 -0.5555
 4262SOL    HW124245   0.576   0.414   0.632  0.8702 -2.7465 -1.6356
 4262SOL    HW224246   0.493   0.292   0.646  3.0983 -0.0909  0.6990
 4263SOL     OW24247   4.505   1.999   8.127  0.5989  0.3713 -0.1883
 4263SOL    HW124248   4.459   2.044   8.198 -1.3220  0.0966 -1.2497
 4263SOL    HW224249   4.576   1.953   8.172 -1.9024 -3.6368 -0.2938
 4264SOL     OW24250   4.259   4.646   3.790  0.9860 -1.1206 -0.3495
 4264SOL    HW124251   4.324   4.712   3.814  0.5986 -0.9817  0.3169
 4264SOL    HW224252   4.189   4.709   3.773  0.9485 -1.9387 -3.1802
 4265SOL     OW24253   0.561   4.156  14.487 -0.5728  0.4439 -0.0769
 4265SOL    HW124254   0.608   4.081  14.524 -2.7892 -0.5203  0.7498
 4265SOL    HW224255   0.482   4.164  14.540 -0.8563 -0.2270 -0.4051
 4266SOL     OW24256   2.866   3.200   3.097 -0.0569 -0.2708 -0.2809
 4266SOL    HW124257   2.924   3.191   3.022  3.2646  0.7437  2.1576
 4266SOL    HW224258   2.809   3.124   3.087  0.6682 -0.6891 -1.2068
 4267SOL     OW24259   0.914   1.312   7.119  0.4115  0.3160 -0.4915
 4267SOL    HW124260   0.829   1.313   7.075  0.2872 -1.4778 -0.3133
 4267SOL    HW224261   0.948   1.389   7.075  1.0206  0.4809  0.2735
 4268SOL     OW24262   0.417   1.568   3.362  0.0457  0.0279 -0.6170
 4268SOL    HW124263   0.372   1.494   3.323 -1.0813 -0.6742  2.0181
 4268SOL    HW224264   0.373   1.559   3.446  0.8960  0.9711 -0.0613
 4269SOL     OW24265   3.205   4.104  17.156 -0.1656 -0.0684 -0.0430
 4269SOL    HW124266   3.196   4.144  17.242 -1.0562  1.1883 -0.7157
 4269SOL    HW224267   3.219   4.186  17.108  2.9230  0.4155  1.6342
 4270SOL     OW24268   3.887   4.684   3.877 -0.1986 -0.6945 -0.2852
 4270SOL    HW124269   3.967   4.718   3.835  0.4024  0.6038  1.8932
 4270SOL    HW224270   3.855   4.618   3.816 -2.5181 -1.8605  2.2310
 4271SOL     OW24271   3.728   3.361   8.908 -0.0806  0.0660  0.5033
 4271SOL    HW124272   3.796   3.313   8.861  0.0294 -0.7448  1.5146
 4271SOL    HW224273   3.782   3.438   8.927  1.9815 -0.9488 -1.3082
 4272SOL     OW24274   1.202   1.896   9.589  0.2709 -0.2155 -0.4314
 4272SOL    HW124275   1.224   1.831   9.655  1.4708  0.3487 -0.2804
 4272SOL    HW224276   1.192   1.845   9.509 -0.9561 -1.5772  0.5952
 4273SOL     OW24277   4.615   2.970  12.511  0.6302 -0.4915  0.1183
 4273SOL    HW124278   4.585   3.002  12.597 -1.9136 -0.3073 -0.8203
 4273SOL    HW224279   4.706   2.997  12.516  0.7227 -0.4358 -1.9710
 4274SOL     OW24280   3.934   3.794   6.008  0.6889 -0.0223 -0.1929
 4274SOL    HW124281   3.956   3.772   5.917 -0.8379 -1.1077 -0.3055
 4274SOL    HW224282   4.007   3.753   6.053 -0.6910 -0.0322  2.0249
 4275SOL     OW24283   3.709   0.261   2.202  0.4584 -0.6439 -0.5724
 4275SOL    HW124284   3.669   0.245   2.288 -1.9191 -2.6653 -2.0410
 4275SOL    HW224285   3.733   0.353   2.209  3.0607 -1.5364  2.2911
 4276SOL     OW24286   0.066   2.795  16.027 -0.2009  0.1271  0.0594
 4276SOL    HW124287   0.049   2.792  15.933 -1.5155  0.8288  0.2776
 4276SOL    HW224288   0.162   2.799  16.035 -0.3266 -0.8724  2.0754
 4277SOL     OW24289   0.155   2.945   2.591  0.5618 -0.2506  0.1363
 4277SOL    HW124290   0.152   2.882   2.518 -0.6135 -0.9126  0.7569
 4277SOL    HW224291   0.070   2.987   2.592  0.8902  0.4110  0.0555
 4278SOL     OW24292   0.228   2.239   5.230  0.0750 -0.0366  0.0280
 4278SOL    HW124293   0.249   2.266   5.320  0.2514 -0.3678  0.0865
 4278SOL    HW224294   0.281   2.160   5.223  0.0627  0.0445 -0.9980
 4279SOL     OW24295   0.929   1.961   8.865 -0.1267 -0.2095 -0.1141
 4279SOL    HW124296   0.953   2.053   8.861  0.2619 -0.3352 -0.5446
 4279SOL    HW224297   0.833   1.955   8.860 -0.2975  1.7565  0.5831
 4280SOL     OW24298   0.099   3.314   7.250 -0.1509 -0.1620 -0.2644
 4280SOL    HW124299   0.114   3.386   7.188  0.1233 -0.3447 -0.4107
 4280SOL    HW224300   0.133   3.349   7.332 -0.1020 -0.9604  0.0554
 4281SOL     OW24301   0.638   1.859   8.821 -0.1945  0.2079 -0.3730
 4281SOL    HW124302   0.626   1.768   8.848 -2.3625  0.0009 -2.0414
 4281SOL    HW224303   0.649   1.845   8.727  0.0703 -0.0779 -0.3006
 4282SOL     OW24304   1.030   0.771  15.854 -0.2635  0.0153 -0.5986
 4282SOL    HW124305   1.037   0.696  15.796  0.5769 -1.0268  0.8746
 4282SOL    HW224306   0.974   0.839  15.813 -2.9569 -1.6944  0.2392
 4283SOL     OW24307   1.380   1.801   7.808 -0.8109  0.0774 -0.2087
 4283SOL    HW124308   1.409   1.718   7.846  0.7649  1.3418  1.3402
 4283SOL    HW224309   1.458   1.853   7.829  0.2543 -1.0708 -1.3315
 4284SOL     OW24310   0.508   1.634  17.189 -0.3414  0.1935  0.2807
 4284SOL    HW124311   0.437   1.613  17.250  0.3089  2.5178  1.8485
 4284SOL    HW224312   0.500   1.729  17.201 -1.0021  0.1626  0.0983
 4285SOL     OW24313   0.701   2.357   4.371 -0.0718  0.0867  0.6217
 4285SOL    HW124314   0.748   2.391   4.447  0.4894 -1.0302  0.7693
 4285SOL    HW224315   0.651   2.433   4.343  1.3573  1.5184  1.9393
 4286SOL     OW24316   2.558   0.698   3.014 -0.0475 -0.0615 -0.2643
 4286SOL    HW124317   2.645   0.683   3.050  0.0667  1.8888  0.2419
 4286SOL    HW224318   2.588   0.771   2.961 -0.7823  1.3132  1.2052
 4287SOL     OW24319   2.947   4.536   0.257  0.6291 -0.1001 -0.2884
 4287SOL    HW124320   2.872   4.504   0.207 -2.1076  2.6535  2.0360
 4287SOL    HW224321   3.008   4.463   0.264  1.7438  0.7601 -1.0410
 4288SOL     OW24322   3.169   2.942   6.188 -0.2930  0.0618 -0.0010
 4288SOL    HW124323   3.134   2.906   6.269 -1.6781  0.8703 -0.2436
 4288SOL    HW224324   3.100   3.001   6.156  0.0506  1.4044  1.7150
 4289SOL     OW24325   1.039   4.541  13.267  0.3494 -0.1866  0.0061
 4289SOL    HW124326   1.110   4.523  13.329  0.3793  0.1327  0.0660
 4289SOL    HW224327   1.054   4.633  13.245  1.2393 -0.1210  0.9292
 4290SOL     OW24328   0.293   2.658   9.799 -0.4517 -0.1367 -0.2743
 4290SOL    HW124329   0.209   2.674   9.841 -0.9172 -1.2231 -0.7809
 4290SOL    HW224330   0.314   2.732   9.742 -3.4712 -0.1325 -1.3516
 4291SOL     OW24331   2.477   4.715   0.651 -0.3872  0.2779  0.1435
 4291SOL    HW124332   2.561   0.020   0.613  0.2092 -0.1980  1.1782
 4291SOL    HW224333   2.465   0.058   0.722  0.2141 -0.0386  0.5273
 4292SOL     OW24334   3.182   3.009   8.917 -0.0204 -0.1180  0.5866
 4292SOL    HW124335   3.118   3.012   8.845 -0.2847  1.9272  0.9046
 4292SOL    HW224336   3.221   3.094   8.898 -0.3266  0.1887  1.3527
 4293SOL     OW24337   3.055   4.571   9.209  0.1200  0.4034 -0.2462
 4293SOL    HW124338   3.150   4.566   9.206  0.0170 -0.9264 -1.1742
 4293SOL    HW224339   3.046   4.654   9.257 -2.0582  1.3736 -2.2645
 4294SOL     OW24340   3.917   4.111   8.497 -0.0837 -0.0416  0.0973
 4294SOL    HW124341   3.867   4.152   8.568 -1.1065  1.1962 -1.3552
 4294SOL    HW224342   3.865   4.035   8.472  0.7672 -0.8701  0.8534
 4295SOL     OW24343   2.737   3.915   6.393  0.0554 -0.0766  0.4572
 4295SOL    HW124344   2.822   3.909   6.436  0.5664  0.2418 -0.5194
 4295SOL    HW224345   2.743   4.006   6.364 -0.5057  0.7086  2.7855
 4296SOL     OW24346   3.776   1.296   7.943 -0.4129  1.0370  0.1077
 4296SOL    HW124347   3.759   1.295   7.849  2.0250 -0.5071 -0.3104
 4296SOL    HW224348   3.867   1.267   7.950 -0.1528  1.2958 -2.3225
 4297SOL     OW24349   0.482   1.192  10.107  0.3469  0.1465 -0.0828
 4297SOL    HW124350   0.530   1.264  10.147 -1.0530  1.1852 -0.2676
 4297SOL    HW224351   0.502   1.181  10.014  1.7016 -3.4583  0.6157
 4298SOL     OW24352   3.062   3.583  16.345  0.2626 -0.0326 -0.0705
 4298SOL    HW124353   2.994   3.538  16.296  0.3233  0.4775 -0.6140
 4298SOL    HW224354   3.119   3.510  16.370  0.2335  0.8536  2.5809
 4299SOL     OW24355   0.057   2.064   9.598  0.4179 -0.6502 -0.1694
 4299SOL    HW124356   0.067   2.077   9.503  2.4970 -0.0543  0.1165
 4299SOL    HW224357   0.151   2.075   9.613  0.3524  0.5998 -0.6543
 4300SOL     OW24358   3.709   2.945   7.106 -0.0556 -0.1415 -0.0287
 4300SOL    HW124359   3.788   2.893   7.122  0.5109  0.4415 -0.9375
 4300SOL    HW224360   3.741   3.027   7.070 -1.1730  0.4149  0.2723
 4301SOL     OW24361   0.440   0.800   6.008 -0.3207 -0.1361 -0.4251
 4301SOL    HW124362   0.457   0.851   5.929 -0.0506 -0.0925 -0.3367
 4301SOL    HW224363   0.358   0.839   6.040  0.4682  1.1493  0.0109
 4302SOL     OW24364   4.353   2.371   2.321  0.1941 -0.4337  0.3605
 4302SOL    HW124365   4.318   2.455   2.294  0.4632 -0.4763 -0.1118
 4302SOL    HW224366   4.331   2.305   2.255 -2.7274  1.2450 -0.3513
 4303SOL     OW24367   2.718   0.853   9.709 -0.3447  0.2342  0.0885
 4303SOL    HW124368   2.791   0.900   9.668 -0.2740  0.0595  0.0130
 4303SOL    HW224369   2.672   0.831   9.628  0.8462 -3.1844  0.3433
 4304SOL     OW24370   2.396   0.608   9.349  0.5515  0.3567 -0.0229
 4304SOL    HW124371   2.344   0.596   9.270 -0.4701  0.6437  0.6107
 4304SOL    HW224372   2.331   0.638   9.412 -1.3335 -0.9727 -1.3345
 4305SOL     OW24373   3.129   4.264   6.841 -0.2563 -0.1973  0.5331
 4305SOL    HW124374   3.072   4.329   6.881 -1.7886 -2.3270  1.8538
 4305SOL    HW224375   3.075   4.212   6.782  1.8213 -1.3294 -0.3899
 4306SOL     OW24376   2.458   4.271   3.554  1.1474 -0.0544 -0.1619
 4306SOL    HW124377   2.478   4.180   3.531  0.9604 -0.5168  1.5118
 4306SOL    HW224378   2.445   4.255   3.647 -1.6642 -0.4127 -0.6142
 4307SOL     OW24379   3.926   2.354   9.232 -0.3567  0.5023  0.5330
 4307SOL    HW124380   3.984   2.404   9.289  0.2531 -1.0141  1.2486
 4307SOL    HW224381   3.984   2.318   9.165  0.6890  1.6311  0.8493
 4308SOL     OW24382   0.290   2.285   5.507  0.0366 -0.3623 -0.6569
 4308SOL    HW124383   0.364   2.345   5.518  1.1972 -2.0700  0.7796
 4308SOL    HW224384   0.322   2.196   5.525 -1.4513 -0.7637  0.0124
 4309SOL     OW24385   0.472   4.163   5.545  0.4012 -0.1006  0.4443
 4309SOL    HW124386   0.415   4.233   5.516 -0.9481 -0.9985  0.9422
 4309SOL    HW224387   0.493   4.191   5.634  2.5068 -2.1965  0.6229
 4310SOL     OW24388   1.861   0.466   3.882 -0.4450 -0.2563  0.5331
 4310SOL    HW124389   1.802   0.538   3.860  0.2891  0.1744 -0.0443
 4310SOL    HW224390   1.852   0.407   3.807 -1.0975 -1.3453  1.4615
 4311SOL     OW24391   0.401   0.061   0.225 -0.0416  0.2463  0.4893
 4311SOL    HW124392   0.414   0.053   0.130 -1.0226  0.7292  0.3217
 4311SOL    HW224393   0.482   0.019   0.256 -0.5580 -0.8804  0.2932
 4312SOL     OW24394   4.689   3.844   7.161 -0.3790 -0.2587  0.4918
 4312SOL    HW124395   4.639   3.786   7.104 -0.9747 -0.1053  0.8549
 4312SOL    HW224396   0.059   3.818   7.142 -0.0542  1.2849 -0.0325
 4313SOL     OW24397   3.929   1.828  15.906 -0.2531 -0.3032  0.2283
 4313SOL    HW124398   4.010   1.826  15.958  0.4709  2.6736 -0.8238
 4313SOL    HW224399   3.944   1.772  15.829  0.0113  1.0618 -0.7076
 4314SOL     OW24400   0.788   3.550   3.451  0.1220  0.6443  0.0018
 4314SOL    HW124401   0.779   3.643   3.473  2.2876  1.3123 -1.8315
 4314SOL    HW224402   0.758   3.543   3.360  0.0179 -0.5098  0.1284
 4315SOL     OW24403   1.684   3.021  15.802 -0.0731  0.6540 -0.1483
 4315SOL    HW124404   1.660   2.975  15.721 -1.7694 -2.7584  2.2803
 4315SOL    HW224405   1.595   3.040  15.832  0.0712  1.4502 -0.2198
 4316SOL     OW24406   0.464   1.083   0.032  0.0900  0.7392 -0.4403
 4316SOL    HW124407   0.546   1.131   0.045  0.4490  0.8651 -3.2119
 4316SOL    HW224408   0.478   1.020   0.103  1.0406  1.8408  0.3432
 4317SOL     OW24409   2.498   4.536   2.871  0.0137  0.1726 -0.1010
 4317SOL    HW124410   2.491   4.558   2.964  0.7664 -0.5933  0.1353
 4317SOL    HW224411   2.453   4.452   2.873 -1.7953  1.1261 -0.6992
 4318SOL     OW24412   0.952   2.178  15.285 -0.6515 -0.6252  0.2094
 4318SOL    HW124413   0.990   2.133  15.360 -0.9655  0.1854  0.8532
 4318SOL    HW224414   0.990   2.126  15.215 -2.1750  0.2629 -1.2898
 4319SOL     OW24415   1.274   4.107   6.762  0.2803  0.1398 -0.0458
 4319SOL    HW124416   1.218   4.145   6.830 -0.7964 -1.4985  0.0082
 4319SOL    HW224417   1.341   4.175   6.763  0.1589  0.2691 -1.5956
 4320SOL     OW24418   1.718   1.415  16.319  0.1826  0.4002 -0.7976
 4320SOL    HW124419   1.637   1.369  16.294 -0.5758  1.6918 -0.7236
 4320SOL    HW224420   1.708   1.483  16.253 -1.7160  0.3804 -0.5500
 4321SOL     OW24421   3.820   0.301   3.424  0.0047 -0.2594  0.1547
 4321SOL    HW124422   3.785   0.284   3.512 -0.6940  2.7385  0.4717
 4321SOL    HW224423   3.911   0.328   3.437  0.6706 -1.6874 -1.6090
 4322SOL     OW24424   3.104   1.660  15.608 -0.4167 -0.3966 -0.1365
 4322SOL    HW124425   3.167   1.617  15.550  0.4431  0.5644  0.0812
 4322SOL    HW224426   3.118   1.754  15.595 -0.7548  0.1691  3.6944
 4323SOL     OW24427   3.938   1.100   6.373  1.0520 -0.1176  0.4477
 4323SOL    HW124428   3.896   1.016   6.392  0.4478  0.3475  1.1323
 4323SOL    HW224429   3.957   1.149   6.453 -2.9251  2.9219 -0.4502
 4324SOL     OW24430   4.364   3.892   6.810  0.1383 -0.0755  0.3038
 4324SOL    HW124431   4.348   3.808   6.768 -0.9995  0.0441  0.4948
 4324SOL    HW224432   4.414   3.865   6.887  1.3104 -2.6830 -1.3626
 4325SOL     OW24433   0.969   1.335   4.547  0.2115  0.1214 -0.5405
 4325SOL    HW124434   0.877   1.320   4.526  0.2140 -2.1330  1.0049
 4325SOL    HW224435   0.986   1.427   4.528  1.7592  0.0538  0.4642
 4326SOL     OW24436   0.415   0.820   0.836 -0.1212 -0.3640 -0.6280
 4326SOL    HW124437   0.371   0.890   0.884  0.1605 -0.0717 -0.7943
 4326SOL    HW224438   0.380   0.841   0.749 -1.2934  1.0232  0.1800
 4327SOL     OW24439   1.477   0.134   6.482 -0.2317  0.0391 -0.4897
 4327SOL    HW124440   1.511   0.055   6.441 -0.3906 -0.9330  1.2430
 4327SOL    HW224441   1.545   0.159   6.544 -0.2901  1.6926 -1.1039
 4328SOL     OW24442   2.529   2.335   1.933 -0.3982  0.3033 -0.0803
 4328SOL    HW124443   2.623   2.320   1.937 -0.7280 -1.7472  0.4471
 4328SOL    HW224444   2.508   2.255   1.982 -0.3863  1.3283  1.5671
 4329SOL     OW24445   0.933   2.738   7.616  0.3614 -0.1868  0.0881
 4329SOL    HW124446   0.879   2.698   7.684 -0.7128  0.6855 -0.2535
 4329SOL    HW224447   1.006   2.676   7.609  0.7914  0.4921 -1.5550
 4330SOL     OW24448   3.576   3.893   0.922  0.3100 -0.3795 -0.1091
 4330SOL    HW124449   3.588   3.968   0.980  0.5773 -0.1043 -0.5220
 4330SOL    HW224450   3.482   3.880   0.931  0.5822 -1.9080  0.5662
 4331SOL     OW24451   0.762   0.963   8.757 -0.2311  0.3510 -0.0987
 4331SOL    HW124452   0.741   0.921   8.841 -2.3567  1.1761 -0.2270
 4331SOL    HW224453   0.699   1.034   8.765 -1.0641 -0.4790  0.7663
 4332SOL     OW24454   2.445   4.204   5.272 -0.2338 -0.1792 -0.0270
 4332SOL    HW124455   2.536   4.234   5.280 -0.9562  1.4018  2.2771
 4332SOL    HW224456   2.410   4.216   5.360  0.1413  1.6236 -0.1112
 4333SOL     OW24457   3.164   2.220  15.974 -0.0093 -0.1197 -0.3706
 4333SOL    HW124458   3.098   2.287  15.995 -0.8745 -1.0956  0.0443
 4333SOL    HW224459   3.148   2.216  15.880 -1.0828  2.1959 -0.2836
 4334SOL     OW24460   1.208   1.218   3.709  0.0944  0.4275  0.1011
 4334SOL    HW124461   1.274   1.154   3.682  1.2536  0.5289  2.7497
 4334SOL    HW224462   1.149   1.218   3.633 -0.3296 -0.9760  0.4248
 4335SOL     OW24463   2.580   0.761   7.061  0.0769  0.5591  0.2637
 4335SOL    HW124464   2.537   0.846   7.060  0.0299  0.5477  1.3954
 4335SOL    HW224465   2.566   0.749   6.967  1.6750  2.9003 -0.2653
 4336SOL     OW24466   4.154   1.063  16.319 -0.3917  0.4222  0.2064
 4336SOL    HW124467   4.077   1.114  16.345 -0.5223  1.0330 -1.3721
 4336SOL    HW224468   4.137   1.065  16.225  1.1332  0.3474 -0.0640
 4337SOL     OW24469   3.459   0.854   1.999  0.1511 -0.2682 -0.2132
 4337SOL    HW124470   3.481   0.790   1.931  0.1184 -1.2826  0.7339
 4337SOL    HW224471   3.434   0.928   1.944 -0.0643  0.0896  0.3739
 4338SOL     OW24472   1.314   3.434   7.164 -0.0152 -0.4000  0.7024
 4338SOL    HW124473   1.400   3.407   7.196 -0.3472 -0.4981  1.5171
 4338SOL    HW224474   1.328   3.526   7.142 -0.3526 -0.1449  1.5447
 4339SOL     OW24475   2.956   2.864   7.794  0.1856 -0.1893  0.1020
 4339SOL    HW124476   2.915   2.939   7.751  2.4191  0.0437 -1.6310
 4339SOL    HW224477   2.930   2.882   7.885  0.6746 -0.4856  0.3002
 4340SOL     OW24478   4.328   0.096   8.087  0.0239 -0.1707  0.1611
 4340SOL    HW124479   4.247   0.045   8.086  0.7152 -1.2444 -0.0501
 4340SOL    HW224480   4.334   0.092   8.183  2.5776 -0.5335 -0.0230
 4341SOL     OW24481   3.621   0.819   6.746  0.2188  0.1486  0.3706
 4341SOL    HW124482   3.594   0.910   6.760  1.1222  0.6440 -1.1307
 4341SOL    HW224483   3.539   0.784   6.782  0.6154  1.0964  2.1923
 4342SOL     OW24484   3.979   3.624  13.209 -0.1743 -0.3453  0.6428
 4342SOL    HW124485   4.046   3.557  13.195  2.5322  2.5593 -0.3408
 4342SOL    HW224486   3.898   3.573  13.210 -0.7936  0.6351  0.4001
 4343SOL     OW24487   0.583   1.100   7.421 -0.4134 -0.0185  0.1717
 4343SOL    HW124488   0.609   1.176   7.474  0.8334 -1.2058  1.2380
 4343SOL    HW224489   0.656   1.099   7.360 -0.8038 -0.3050 -0.2847
 4344SOL     OW24490   3.254   4.308   9.655  0.0231  0.0683 -0.1623
 4344SOL    HW124491   3.335   4.258   9.645 -0.4077 -0.3860 -1.4082
 4344SOL    HW224492   3.293   4.390   9.627  2.6193 -1.1976 -0.2326
 4345SOL     OW24493   3.887   3.201   1.603  0.6135 -0.3510  0.2802
 4345SOL    HW124494   3.852   3.280   1.563 -1.3380 -1.2027  0.3137
 4345SOL    HW224495   3.955   3.179   1.538 -0.0585 -1.6380  0.0196
 4346SOL     OW24496   1.078   4.061   0.904  0.4100  0.1012  0.4803
 4346SOL    HW124497   1.156   4.006   0.903  0.8028  0.6443  1.0452
 4346SOL    HW224498   1.024   3.995   0.946 -1.3303 -0.3487 -2.3996
 4347SOL     OW24499   3.769   1.821   2.792  0.1875 -0.3280 -0.3353
 4347SOL    HW124500   3.729   1.811   2.706 -2.5382 -4.0540  1.3782
 4347SOL    HW224501   3.735   1.910   2.806  1.0854  0.1895 -1.4775
 4348SOL     OW24502   3.793   3.256   2.208  0.8341 -0.0417  0.5456
 4348SOL    HW124503   3.785   3.272   2.114  0.2668 -1.9077  0.2786
 4348SOL    HW224504   3.821   3.165   2.203 -0.4964 -0.4120 -0.2026
 4349SOL     OW24505   3.938   2.163   3.691 -0.1207 -0.6030 -0.4013
 4349SOL    HW124506   3.852   2.157   3.735  0.5212  1.1633  1.0932
 4349SOL    HW224507   3.906   2.202   3.610  2.3624  1.2379 -0.4954
 4350SOL     OW24508   0.086   1.657   7.093  0.1991 -0.3312  0.0772
 4350SOL    HW124509   0.074   1.621   7.005 -1.2002 -0.5843  0.3670
 4350SOL    HW224510   0.005   1.703   7.114 -1.2658 -1.3615 -3.3641
 4351SOL     OW24511   1.464   2.112   2.484 -0.2122  0.5479 -0.3233
 4351SOL    HW124512   1.411   2.069   2.551  2.4523 -3.6577 -0.9323
 4351SOL    HW224513   1.538   2.051   2.483  0.2240  1.0311  2.4519
 4352SOL     OW24514   1.028   1.756   3.006 -0.4847  0.2107  0.5034
 4352SOL    HW124515   1.047   1.667   3.038  0.5287  0.2078 -0.0808
 4352SOL    HW224516   0.991   1.787   3.089  1.2775  0.4206  1.2201
 4353SOL     OW24517   0.906   0.399   1.373 -0.0010  0.1872 -0.5759
 4353SOL    HW124518   0.835   0.446   1.330 -1.4849  0.6768  2.4089
 4353SOL    HW224519   0.969   0.471   1.381 -2.2007  1.6763  3.4379
 4354SOL     OW24520   3.911   2.834  16.764  0.5796 -0.1619  0.2926
 4354SOL    HW124521   3.872   2.750  16.787  1.3847 -0.4104  0.7497
 4354SOL    HW224522   3.839   2.870  16.713  0.6228  2.9024  2.3768
 4355SOL     OW24523   4.111   4.547  12.671 -0.0276 -0.4484  0.1635
 4355SOL    HW124524   4.202   4.536  12.698  0.4964  0.1094 -1.3904
 4355SOL    HW224525   4.115   4.571  12.579  1.6422  1.0717  0.6369
 4356SOL     OW24526   2.003   2.023   0.547  0.1721  0.1491  0.0314
 4356SOL    HW124527   2.034   2.018   0.638  0.0456 -0.8265  0.0285
 4356SOL    HW224528   1.917   1.981   0.550  1.0029 -1.5408  0.2745
 4357SOL     OW24529   2.405   4.666  13.773  1.1956 -0.4191  0.5184
 4357SOL    HW124530   2.496   4.674  13.746  1.3644 -1.9523  0.6587
 4357SOL    HW224531   2.411   4.596  13.838  1.7415 -0.2896  0.6043
 4358SOL     OW24532   0.353   2.991   3.777 -0.3274  0.2335 -0.3838
 4358SOL    HW124533   0.289   3.062   3.767  0.1225  0.6137 -0.5265
 4358SOL    HW224534   0.340   2.936   3.700  1.1684  0.5672 -0.8564
 4359SOL     OW24535   4.035   2.742   9.498  0.8131 -0.6849 -0.7654
 4359SOL    HW124536   4.003   2.784   9.418 -0.3735 -0.4865 -0.1827
 4359SOL    HW224537   4.082   2.812   9.544 -0.7435  0.2943 -0.6426
 4360SOL     OW24538   4.349   2.610   9.366 -0.5179 -0.5191  0.0131
 4360SOL    HW124539   4.364   2.522   9.332  2.5318  0.5315 -1.3288
 4360SOL    HW224540   4.374   2.589   9.456 -0.4272 -1.1504 -0.1611
 4361SOL     OW24541   0.491   2.866   4.895 -0.1654  0.4843  0.5457
 4361SOL    HW124542   0.556   2.900   4.832 -0.2281  0.6674  0.5777
 4361SOL    HW224543   0.435   2.939   4.922 -2.0953 -0.9947  0.5336
 4362SOL     OW24544   3.716   1.771   7.295 -0.1042 -0.6384  0.0069
 4362SOL    HW124545   3.804   1.759   7.258  0.1784  2.0472 -0.1892
 4362SOL    HW224546   3.684   1.847   7.246  0.4708 -0.8665 -0.7294
 4363SOL     OW24547   0.674   0.439   4.933  0.0202  0.0113 -0.1555
 4363SOL    HW124548   0.670   0.532   4.911  1.1113  0.0557 -0.1861
 4363SOL    HW224549   0.581   0.416   4.934 -0.3682  1.6130  0.7208
 4364SOL     OW24550   2.358   4.116   3.777  0.4319  0.6350  0.7815
 4364SOL    HW124551   2.313   4.039   3.813  1.2409 -0.9634 -1.6362
 4364SOL    HW224552   2.451   4.096   3.784  0.0982 -2.2506 -2.3506
 4365SOL     OW24553   4.161   4.544   6.900 -0.0136  0.8055 -0.7196
 4365SOL    HW124554   4.129   4.566   6.988  1.2174  0.9501 -0.3093
 4365SOL    HW224555   4.108   4.465   6.884  0.1094  0.2581  1.5920
 4366SOL     OW24556   3.740   4.105   3.178  0.4524 -0.1642  0.3831
 4366SOL    HW124557   3.720   4.027   3.125  2.8431 -0.4106 -0.1852
 4366SOL    HW224558   3.694   4.082   3.258  1.5050 -1.7623  0.5394
 4367SOL     OW24559   2.780   0.709   7.861 -0.7581 -0.1491  0.5084
 4367SOL    HW124560   2.827   0.732   7.782 -0.9257 -0.0087  0.4498
 4367SOL    HW224561   2.821   0.627   7.888  0.1023 -0.5548 -2.1290
 4368SOL     OW24562   2.954   3.314  10.338  0.2580 -0.9171  0.1468
 4368SOL    HW124563   3.048   3.326  10.351 -0.0039 -0.4172  1.6084
 4368SOL    HW224564   2.935   3.383  10.275 -0.5416 -0.7778  0.5361
 4369SOL     OW24565   4.466   3.130   0.904  0.7876  0.3309  0.3227
 4369SOL    HW124566   4.463   3.193   0.976  1.2433 -1.4589  1.9210
 4369SOL    HW224567   4.549   3.149   0.860 -0.2962  0.2949 -1.7273
 4370SOL     OW24568   0.054   4.406   5.408 -0.1540 -0.4577 -1.1714
 4370SOL    HW124569   0.043   4.380   5.316 -0.4209 -0.1087 -1.2356
 4370SOL    HW224570   4.684   4.425   5.433  0.2147 -1.9473  1.2525
 4371SOL     OW24571   0.498   1.401   0.979  0.5711  0.0774  0.6190
 4371SOL    HW124572   0.553   1.324   0.996 -1.6394 -1.6302  0.0998
 4371SOL    HW224573   0.470   1.411   1.071 -0.1176 -2.0234  0.6490
 4372SOL     OW24574   3.396   4.006   3.006  0.2522  0.1131 -0.1749
 4372SOL    HW124575   3.385   3.911   3.011  2.1412 -0.2035 -1.6908
 4372SOL    HW224576   3.451   4.010   2.928 -0.5186  1.0766 -0.6608
 4373SOL     OW24577   0.018   4.021   2.968  0.0397 -0.0817  0.2131
 4373SOL    HW124578   4.713   3.929   2.963 -2.3973  0.3922  3.4704
 4373SOL    HW224579   0.082   4.034   2.899  1.4511  0.2755  1.5866
 4374SOL     OW24580   3.277   2.444   8.984  0.5079  0.5430 -0.4355
 4374SOL    HW124581   3.300   2.517   8.927 -0.7360  1.1431 -0.1739
 4374SOL    HW224582   3.338   2.452   9.057 -0.2237  1.4011  0.0894
 4375SOL     OW24583   0.812   2.396   8.739  0.2103  0.9754 -0.8360
 4375SOL    HW124584   0.823   2.491   8.745 -0.3270  1.0116 -0.3588
 4375SOL    HW224585   0.720   2.391   8.767  0.3206  0.2702 -0.5916
 4376SOL     OW24586   1.834   1.161   2.543 -0.5818 -0.0088  0.3144
 4376SOL    HW124587   1.926   1.184   2.536 -0.9914  2.1763  2.0536
 4376SOL    HW224588   1.829   1.135   2.635 -2.6924 -0.1839  0.1634
 4377SOL     OW24589   1.311   2.326   3.995 -0.3812 -0.3816  0.2195
 4377SOL    HW124590   1.360   2.247   3.972 -0.1708  0.0029 -0.6645
 4377SOL    HW224591   1.383   2.377   4.033  0.2661 -2.5843  1.9158
 4378SOL     OW24592   4.083   2.556   2.171 -0.5357 -0.4519  0.5572
 4378SOL    HW124593   4.004   2.608   2.187  1.0945  1.9631  0.7944
 4378SOL    HW224594   4.144   2.584   2.240  1.1746 -1.7908 -0.4333
 4379SOL     OW24595   4.421   1.840  10.389  0.1518  0.7472 -0.5706
 4379SOL    HW124596   4.508   1.876  10.374  0.8134  0.9792  3.6101
 4379SOL    HW224597   4.401   1.885  10.472 -3.1159  2.9273 -2.5470
 4380SOL     OW24598   1.116   2.783  10.573  0.1869  0.0258  0.4402
 4380SOL    HW124599   1.038   2.818  10.530  0.7188 -0.2522 -0.7514
 4380SOL    HW224600   1.126   2.697  10.531  2.7343  0.3889  0.3034
 4381SOL     OW24601   2.179   4.153   6.360 -0.2293  0.6755  0.0435
 4381SOL    HW124602   2.145   4.220   6.300  1.2651  0.3773 -1.1206
 4381SOL    HW224603   2.220   4.098   6.294  2.2513  2.8894 -0.2702
 4382SOL     OW24604   3.962   1.797   7.209  0.1802 -0.1108 -0.0073
 4382SOL    HW124605   3.963   1.804   7.114  0.4134 -1.5898 -0.1182
 4382SOL    HW224606   3.981   1.887   7.234  1.2191  0.4885 -2.9101
 4383SOL     OW24607   2.577   3.087   6.130 -0.4197 -0.4393 -0.4822
 4383SOL    HW124608   2.508   3.037   6.087 -0.6001 -0.4468 -0.1874
 4383SOL    HW224609   2.639   3.016   6.147 -0.3642  0.0360  1.3293
 4384SOL     OW24610   4.308   2.225   2.100  0.2114 -0.1509  0.0631
 4384SOL    HW124611   4.366   2.150   2.087 -0.6578 -1.2615  2.6159
 4384SOL    HW224612   4.256   2.225   2.019  0.4361 -0.0456 -0.0815
 4385SOL     OW24613   3.478   3.512   0.116  0.2228 -0.2443 -0.1367
 4385SOL    HW124614   3.523   3.431   0.090  0.5047 -0.8767  2.2941
 4385SOL    HW224615   3.556   3.568   0.115 -0.3457  0.5549  0.4109
 4386SOL     OW24616   0.019   2.269  10.501  0.1070 -0.3493 -0.3324
 4386SOL    HW124617   4.675   2.210  10.540  1.1194 -0.3318  1.3398
 4386SOL    HW224618   0.099   2.245  10.547  0.7313 -1.0180 -1.7726
 4387SOL     OW24619   3.722   0.850   2.681  0.4699 -0.5734  0.5042
 4387SOL    HW124620   3.668   0.814   2.752 -2.0551  1.2537 -0.4754
 4387SOL    HW224621   3.759   0.779   2.629 -0.7221 -0.7237 -0.1234
 4388SOL     OW24622   4.655   2.955   4.831  0.4963  0.1724 -0.1154
 4388SOL    HW124623   4.578   2.991   4.786  1.3852  1.9478 -0.2325
 4388SOL    HW224624   4.627   2.951   4.922 -2.0829  1.0108 -0.8528
 4389SOL     OW24625   0.841   0.472   1.069 -0.2919  0.3889  0.0223
 4389SOL    HW124626   0.830   0.487   0.975 -0.3376 -0.1461 -0.0595
 4389SOL    HW224627   0.811   0.381   1.067 -2.1270  0.9549  1.6835
 4390SOL     OW24628   3.505   2.623   7.984 -0.4329  0.8392  0.5153
 4390SOL    HW124629   3.438   2.575   8.033 -0.7599  1.0174  0.2434
 4390SOL    HW224630   3.535   2.688   8.047 -0.3445 -1.0842  2.4829
 4391SOL     OW24631   0.958   4.263   6.294  0.2766 -0.0149  0.1319
 4391SOL    HW124632   1.001   4.249   6.378 -2.6470 -1.5784  1.3785
 4391SOL    HW224633   0.972   4.356   6.275  3.6333 -0.8981 -1.8363
 4392SOL     OW24634   1.769   4.113  15.339 -0.2035  0.1092 -0.2357
 4392SOL    HW124635   1.853   4.149  15.310 -0.9306  2.8878  1.0984
 4392SOL    HW224636   1.718   4.161  15.274  0.2393  0.0998 -0.5965
 4393SOL     OW24637   3.868   1.314  15.116 -0.2005 -1.1499  0.2194
 4393SOL    HW124638   3.955   1.309  15.077  0.2863  1.5944  0.9825
 4393SOL    HW224639   3.864   1.227  15.158 -2.7313 -1.1518  0.0061
 4394SOL     OW24640   2.131   1.785   6.876  0.5815  0.1619  0.3907
 4394SOL    HW124641   2.110   1.838   6.953  0.8008  2.0335 -0.8383
 4394SOL    HW224642   2.222   1.766   6.902  1.4086  2.2700 -0.9245
 4395SOL     OW24643   0.103   1.356   6.258  0.1030  0.5824 -0.4602
 4395SOL    HW124644   0.050   1.281   6.229  2.8502 -0.7143 -2.0885
 4395SOL    HW224645   0.191   1.330   6.232 -0.9281 -2.6706 -0.7073
 4396SOL     OW24646   3.220   2.917   8.505 -0.0335  0.8508 -0.2965
 4396SOL    HW124647   3.215   3.001   8.459  0.2883  0.4940 -0.9800
 4396SOL    HW224648   3.187   2.854   8.441 -1.5159  0.6788  0.6286
 4397SOL     OW24649   2.516   1.434   3.545  0.3373  0.6423  0.0651
 4397SOL    HW124650   2.596   1.391   3.577 -0.6901  0.5307  2.4636
 4397SOL    HW224651   2.509   1.500   3.614  2.0301  0.4459  0.4336
 4398SOL     OW24652   3.928   2.067  15.081  0.3512 -0.1293  0.4475
 4398SOL    HW124653   3.952   2.144  15.132  1.5583  0.5636 -1.1662
 4398SOL    HW224654   3.928   1.997  15.146 -2.4171 -0.4253  0.1253
 4399SOL     OW24655   4.334   1.081  12.323 -0.1567  0.2365 -0.1206
 4399SOL    HW124656   4.282   1.049  12.397 -3.1232  1.7911 -1.5001
 4399SOL    HW224657   4.416   1.075  12.372  0.2863 -0.0532 -0.9009
 4400SOL     OW24658   3.739   4.022   3.608 -0.3664 -0.0825  0.1629
 4400SOL    HW124659   3.809   4.019   3.543 -0.5869  0.3264 -0.0940
 4400SOL    HW224660   3.671   4.059   3.552 -0.7291 -2.5462 -1.0608
 4401SOL     OW24661   3.035   4.430   8.159  0.1014 -0.0566  0.1764
 4401SOL    HW124662   3.012   4.408   8.069  1.3041  0.7581 -0.3192
 4401SOL    HW224663   3.112   4.378   8.184 -1.4873 -0.7053  3.8110
 4402SOL     OW24664   4.467   3.653  11.919 -0.0640  0.1561 -1.0897
 4402SOL    HW124665   4.448   3.746  11.905 -0.9208  0.0592 -0.5355
 4402SOL    HW224666   4.377   3.621  11.926  0.3212 -0.4161  1.5196
 4403SOL     OW24667   4.123   1.199   8.153 -0.1716 -0.1322  0.1823
 4403SOL    HW124668   4.046   1.162   8.111  0.7246 -1.4680 -0.2747
 4403SOL    HW224669   4.079   1.253   8.219  0.1926  0.3058  0.0736
 4404SOL     OW24670   0.544   1.620   5.648  0.1274  0.4347  0.5746
 4404SOL    HW124671   0.531   1.558   5.719 -1.1431 -0.0367 -0.0645
 4404SOL    HW224672   0.460   1.665   5.639 -0.0667  0.2343  1.4150
 4405SOL     OW24673   2.462   0.360  15.315  0.1703  0.0050  0.4061
 4405SOL    HW124674   2.428   0.411  15.241  0.7881  1.8986  1.4133
 4405SOL    HW224675   2.384   0.371  15.370 -0.2081  1.4601 -0.4089
 4406SOL     OW24676   2.230   0.649  12.884 -0.0401  0.2586 -0.0952
 4406SOL    HW124677   2.321   0.642  12.856 -0.7096 -0.2422 -2.0948
 4406SOL    HW224678   2.201   0.724  12.833  1.2612  1.1286  0.4503
 4407SOL     OW24679   4.589   1.343  14.086  0.3349 -0.0739  0.0079
 4407SOL    HW124680   4.622   1.258  14.059  1.4520  1.2299 -2.6698
 4407SOL    HW224681   4.499   1.330  14.057  0.5312  0.9945 -1.0815
 4408SOL     OW24682   1.371   0.206  10.000 -0.4466 -0.3387 -0.1887
 4408SOL    HW124683   1.302   0.172   9.943  0.1640 -1.7241 -0.0989
 4408SOL    HW224684   1.452   0.170   9.965 -0.3689 -0.2659 -0.0857
 4409SOL     OW24685   3.306   2.451  11.812 -0.0877 -0.9125  0.5174
 4409SOL    HW124686   3.296   2.387  11.741 -0.4774  0.5974 -0.7917
 4409SOL    HW224687   3.214   2.466  11.831  0.6011  2.2835  1.3713
 4410SOL     OW24688   0.945   0.501   2.784 -0.1057 -0.6860  0.0840
 4410SOL    HW124689   1.006   0.556   2.736  1.6964 -1.1211  1.8589
 4410SOL    HW224690   0.861   0.534   2.752 -0.7721 -2.0495  0.4481
 4411SOL     OW24691   3.553   2.198   6.244 -0.5907  0.0140 -0.3881
 4411SOL    HW124692   3.646   2.216   6.241 -0.8473  1.7716  2.2559
 4411SOL    HW224693   3.545   2.117   6.295 -0.2027  0.6687  0.7150
 4412SOL     OW24694   4.699   2.551  10.395 -0.4554  0.6734 -0.3984
 4412SOL    HW124695   4.651   2.485  10.346  1.2016  0.6133 -1.9612
 4412SOL    HW224696   0.032   2.490  10.446  0.1935  2.4570  1.0783
 4413SOL     OW24697   4.629   1.580  17.117  0.4290  0.5834  0.4273
 4413SOL    HW124698   4.715   1.549  17.146 -0.3754 -1.6681  0.4083
 4413SOL    HW224699   4.663   1.655  17.068  0.8010  0.0938 -0.0673
 4414SOL     OW24700   4.588   1.639   1.748  0.2208 -0.2412  0.0965
 4414SOL    HW124701   4.558   1.730   1.756  0.1678 -0.3527  1.2257
 4414SOL    HW224702   4.511   1.585   1.763  0.1740 -0.2635 -0.2226
 4415SOL     OW24703   4.612   4.161   4.789 -0.5943  0.6504 -0.6971
 4415SOL    HW124704   4.685   4.200   4.741 -0.1079  0.1366 -0.3758
 4415SOL    HW224705   4.667   4.102   4.840 -1.8323  1.1008  1.1803
 4416SOL     OW24706   3.519   2.663  13.796 -0.1358 -0.0043 -0.1037
 4416SOL    HW124707   3.599   2.622  13.829 -2.2485 -3.6649  0.4856
 4416SOL    HW224708   3.552   2.726  13.731 -3.0067 -0.2178 -1.7490
 4417SOL     OW24709   3.958   2.904  11.391  0.1839  0.0992 -0.1479
 4417SOL    HW124710   3.954   2.952  11.309  1.6762  0.2261 -0.1422
 4417SOL    HW224711   3.881   2.943  11.434  0.4541 -0.2139  0.6193
 4418SOL     OW24712   2.902   4.517   6.002  0.3678  0.2044 -0.3333
 4418SOL    HW124713   2.975   4.578   5.996  2.2920 -1.7548  2.9251
 4418SOL    HW224714   2.885   4.512   5.908  0.7394  1.4150 -0.4586
 4419SOL     OW24715   4.396   3.185   2.075  0.3146 -0.4732 -0.2671
 4419SOL    HW124716   4.383   3.221   2.162  0.3705  0.4604 -0.6433
 4419SOL    HW224717   4.402   3.261   2.017  0.2773 -2.4354 -2.8753
 4420SOL     OW24718   3.920   1.977   6.068 -0.1671  0.1540 -0.3439
 4420SOL    HW124719   3.893   1.946   5.982 -0.4193  0.6985 -0.4610
 4420SOL    HW224720   4.015   1.983   6.053 -0.0337  1.5157  1.0097
 4421SOL     OW24721   1.390   1.002   7.803 -0.6659 -0.1156  0.4879
 4421SOL    HW124722   1.394   1.095   7.780  0.0021 -0.2432  0.0643
 4421SOL    HW224723   1.449   0.975   7.732  1.5313  1.7671  1.5927
 4422SOL     OW24724   1.907   1.913  11.770  0.5596 -0.3140  0.5480
 4422SOL    HW124725   1.816   1.886  11.764  0.2659  0.2078  2.7650
 4422SOL    HW224726   1.894   1.954  11.855 -1.2942  1.3409 -0.5293
 4423SOL     OW24727   1.900   0.615   7.906  0.2294 -0.0658 -0.0526
 4423SOL    HW124728   1.859   0.529   7.902  1.1955 -0.5733  0.9163
 4423SOL    HW224729   1.993   0.596   7.902  0.3082  0.1315  0.7696
 4424SOL     OW24730   3.275   1.730   5.696 -0.4705 -0.3960  0.3567
 4424SOL    HW124731   3.336   1.745   5.623 -0.8736  0.2154  0.1391
 4424SOL    HW224732   3.320   1.668   5.753  0.0226 -0.7910 -0.4667
 4425SOL     OW24733   0.424   0.818   2.946 -0.0184  0.7692 -0.0359
 4425SOL    HW124734   0.434   0.793   2.854  2.3200  0.7532  0.2175
 4425SOL    HW224735   0.340   0.863   2.945 -0.2494  0.3830  1.9916
 4426SOL     OW24736   1.935   2.922   6.809  0.1838 -0.4602  0.0596
 4426SOL    HW124737   1.990   2.891   6.737 -0.4053  2.2946 -1.6062
 4426SOL    HW224738   1.948   3.017   6.803  0.2807 -0.5279 -0.8350
 4427SOL     OW24739   1.699   4.323   5.902 -0.7905  0.3086  0.0381
 4427SOL    HW124740   1.714   4.417   5.893  1.0792  0.1519  1.6772
 4427SOL    HW224741   1.710   4.284   5.815 -0.2730 -0.3190  0.3944
 4428SOL     OW24742   0.845   2.091   3.663 -0.1489 -0.5603 -0.3012
 4428SOL    HW124743   0.938   2.072   3.678 -0.5495 -2.0136  0.3147
 4428SOL    HW224744   0.805   2.079   3.749 -0.3647  1.8096 -0.0703
 4429SOL     OW24745   0.986   3.858   4.181 -0.4541  0.2656 -0.4005
 4429SOL    HW124746   1.047   3.880   4.110  1.4500  2.0249  1.7750
 4429SOL    HW224747   1.041   3.793   4.226  2.4096  2.7989 -0.2383
 4430SOL     OW24748   1.888   1.461  15.431  0.5012 -0.2145 -0.5886
 4430SOL    HW124749   1.905   1.368  15.440 -0.3015 -0.1867  1.0517
 4430SOL    HW224750   1.879   1.466  15.336 -1.4120 -2.6065 -0.5156
 4431SOL     OW24751   0.510   1.632   0.100  0.1709  0.3135  1.0995
 4431SOL    HW124752   0.529   1.690   0.026 -0.5225 -0.0463  0.6415
 4431SOL    HW224753   0.427   1.597   0.069  1.4437 -1.1950 -0.5980
 4432SOL     OW24754   2.192   2.055   4.722  0.4127  0.0190 -0.3825
 4432SOL    HW124755   2.277   2.077   4.684  0.8344  0.5542  0.8525
 4432SOL    HW224756   2.212   1.965   4.750 -0.8376 -0.4446 -0.9683
 4433SOL     OW24757   4.400   0.414   3.429  0.2849  0.0057  0.0330
 4433SOL    HW124758   4.349   0.462   3.364 -0.8402  0.3373  1.1621
 4433SOL    HW224759   4.462   0.369   3.370  0.7570 -1.2429  1.4720
 4434SOL     OW24760   0.130   1.275   4.163 -0.2001 -0.1606  0.0613
 4434SOL    HW124761   0.168   1.266   4.076  2.4673  0.1462  1.1984
 4434SOL    HW224762   0.147   1.191   4.207  0.6795  0.4482  0.8743
 4435SOL     OW24763   0.980   0.956   0.210  0.2137 -0.1424  0.6265
 4435SOL    HW124764   0.990   0.990   0.122  2.8860  0.0732  1.0298
 4435SOL    HW224765   0.944   0.869   0.192  1.3965 -0.3718 -0.5683
 4436SOL     OW24766   1.811   2.292   4.916  0.0614 -0.6660 -0.1810
 4436SOL    HW124767   1.857   2.234   4.977 -1.9149 -1.5310  0.4876
 4436SOL    HW224768   1.815   2.242   4.835 -1.6003 -0.3165 -0.4780
 4437SOL     OW24769   4.445   2.065   5.097  0.2858 -0.1811  0.1806
 4437SOL    HW124770   4.539   2.047   5.100  0.4603  0.6046 -0.5902
 4437SOL    HW224771   4.436   2.153   5.133 -0.0299  0.3274 -1.1355
 4438SOL     OW24772   4.373   2.908   3.114 -0.3229 -0.6458  0.2115
 4438SOL    HW124773   4.384   2.987   3.166  0.8296 -0.7292  0.1053
 4438SOL    HW224774   4.458   2.866   3.130  0.9499  1.1834 -1.7299
 4439SOL     OW24775   1.979   3.180  11.544  0.2369 -0.0811  0.4783
 4439SOL    HW124776   1.941   3.196  11.457 -2.3042 -0.9420  1.4333
 4439SOL    HW224777   1.919   3.117  11.583 -0.2074  0.0727  0.0535
 4440SOL     OW24778   0.298   3.746   4.733  0.3520  0.8133  0.2915
 4440SOL    HW124779   0.342   3.788   4.807  0.9712 -1.8210  1.3863
 4440SOL    HW224780   0.254   3.817   4.685 -1.4924  0.8783  2.0981
 4441SOL     OW24781   1.345   1.999   6.713 -0.6418 -0.2746 -0.4748
 4441SOL    HW124782   1.347   2.014   6.619  1.3842 -1.4256 -0.6211
 4441SOL    HW224783   1.276   1.934   6.714 -0.3132 -0.6291 -1.9311
 4442SOL     OW24784   2.876   0.927   5.724  0.2761  0.1425  0.4923
 4442SOL    HW124785   2.916   0.842   5.705  1.7661  0.5145  1.9685
 4442SOL    HW224786   2.784   0.900   5.719  0.1525  0.2656  2.0903
 4443SOL     OW24787   4.376   2.229   0.198 -0.0261  0.5928 -0.0601
 4443SOL    HW124788   4.284   2.258   0.200 -0.6649 -1.4719  0.2973
 4443SOL    HW224789   4.370   2.136   0.175  0.4684  0.8774 -1.3394
 4444SOL     OW24790   0.807   0.843   5.574 -0.0572  0.3569  0.1795
 4444SOL    HW124791   0.784   0.758   5.538 -2.4633  1.2978 -0.5339
 4444SOL    HW224792   0.902   0.841   5.589 -0.1265  1.0251  0.7257
 4445SOL     OW24793   3.961   0.050   2.135  0.0573 -0.3081  0.1159
 4445SOL    HW124794   3.976   0.081   2.224  1.0359 -0.8172  0.1304
 4445SOL    HW224795   3.974   4.676   2.151  0.0141 -0.7497 -2.3676
 4446SOL     OW24796   0.616   1.630   7.786  0.5418 -0.2683 -0.0832
 4446SOL    HW124797   0.691   1.666   7.834  1.7040 -2.9383  0.1536
 4446SOL    HW224798   0.552   1.633   7.856  1.4604  1.3510  0.6921
 4447SOL     OW24799   4.204   4.633  17.182 -0.1511  0.3776 -0.3228
 4447SOL    HW124800   4.187   4.559  17.241  0.1599  0.7729  0.2702
 4447SOL    HW224801   4.177   4.604  17.095 -0.1264 -1.4717  0.2902
 4448SOL     OW24802   1.392   3.214   3.419  0.2338 -0.2330  0.1618
 4448SOL    HW124803   1.343   3.140   3.383 -0.3419 -0.2479  0.9794
 4448SOL    HW224804   1.323   3.280   3.409  0.4365  0.1575  1.3449
 4449SOL     OW24805   4.074   4.099   0.723  0.4761  0.0308  0.0779
 4449SOL    HW124806   4.168   4.102   0.703  0.1093  0.9430 -1.5246
 4449SOL    HW224807   4.083   4.107   0.818  1.0253  1.0622 -0.0664
 4450SOL     OW24808   3.635   4.073   1.335 -0.1479  0.0668 -0.7065
 4450SOL    HW124809   3.593   4.002   1.384 -3.7473  2.5734 -0.1670
 4450SOL    HW224810   3.643   4.033   1.249 -1.0543  0.0211 -0.7735
 4451SOL     OW24811   1.776   2.599   5.580  0.5471  1.3940 -0.6954
 4451SOL    HW124812   1.689   2.627   5.551  0.0328  1.1692  0.6580
 4451SOL    HW224813   1.813   2.560   5.500 -1.0105 -0.2778 -0.6101
 4452SOL     OW24814   1.585   3.158  11.742 -0.2834  0.0530 -0.1548
 4452SOL    HW124815   1.583   3.215  11.665 -0.8022  0.2857  0.0260
 4452SOL    HW224816   1.564   3.070  11.709 -2.3412  0.4499  0.0456
 4453SOL     OW24817   3.507   3.885   4.299  0.3464 -0.5687  0.1659
 4453SOL    HW124818   3.447   3.948   4.258 -0.9865 -0.6854  1.9460
 4453SOL    HW224819   3.589   3.925   4.271  1.4772 -1.4805  2.1722
 4454SOL     OW24820   2.215   4.266   8.456  0.6375 -0.0236  0.4727
 4454SOL    HW124821   2.264   4.274   8.373  2.3125 -2.0421  1.2601
 4454SOL    HW224822   2.149   4.335   8.448  0.1775 -0.4617  0.5099
 4455SOL     OW24823   3.055   2.370   7.630 -0.1132  1.6091  0.2191
 4455SOL    HW124824   3.056   2.465   7.626  0.7703  1.5160 -1.5999
 4455SOL    HW224825   3.144   2.348   7.600 -1.8522 -0.5176 -3.3375
 4456SOL     OW24826   0.608   1.559  13.748  0.4479  0.2434  0.2630
 4456SOL    HW124827   0.551   1.500  13.699  0.3123  0.9922 -0.4815
 4456SOL    HW224828   0.666   1.498  13.795 -1.1518 -0.4704  1.2993
 4457SOL     OW24829   3.405   2.730   7.543  0.2166  0.4027  0.2495
 4457SOL    HW124830   3.350   2.750   7.467  0.5548  0.6118  0.0597
 4457SOL    HW224831   3.454   2.811   7.553 -0.6248  0.9920 -0.3660
 4458SOL     OW24832   0.692   2.849  10.663 -0.3356  0.0863  0.3425
 4458SOL    HW124833   0.638   2.918  10.623  1.9117  1.2558 -0.6556
 4458SOL    HW224834   0.635   2.788  10.710 -0.9764  0.0669 -0.4618
 4459SOL     OW24835   1.280   1.596   0.288 -0.1417 -0.9088  0.2401
 4459SOL    HW124836   1.215   1.559   0.228  1.2478 -0.4436 -1.5449
 4459SOL    HW224837   1.249   1.543   0.362 -1.0090 -1.3951 -0.4737
 4460SOL     OW24838   3.082   0.978   4.359 -0.7450 -0.0642  0.5412
 4460SOL    HW124839   3.042   0.914   4.418  0.8573 -1.0439  0.5667
 4460SOL    HW224840   3.019   0.993   4.289 -2.2065 -2.3277  1.3566
 4461SOL     OW24841   4.263   0.910  15.770  0.0129  0.3627 -0.1021
 4461SOL    HW124842   4.312   0.880  15.694  1.0940  2.5357 -0.2567
 4461SOL    HW224843   4.212   0.982  15.731  0.3505  1.6212  1.7702
 4462SOL     OW24844   1.967   3.073  14.222  0.2444 -0.1849 -0.0764
 4462SOL    HW124845   2.036   3.036  14.277  0.4432  0.0925 -0.1386
 4462SOL    HW224846   1.993   3.037  14.138  1.5162 -0.7442  0.5558
 4463SOL     OW24847   0.504   1.930   2.829  0.1239  1.1481 -0.6185
 4463SOL    HW124848   0.538   1.922   2.740  1.8282  0.3906  0.1216
 4463SOL    HW224849   0.564   1.887   2.889 -0.6134  2.1744  0.8603
 4464SOL     OW24850   0.717   2.370   9.477  0.0528 -0.2791  0.3302
 4464SOL    HW124851   0.802   2.327   9.471  1.3224  2.3801 -0.6126
 4464SOL    HW224852   0.709   2.425   9.399 -0.1666 -1.8537 -0.7617
 4465SOL     OW24853   0.404   3.956  11.269  0.6063 -0.1811 -0.3222
 4465SOL    HW124854   0.344   3.897  11.224 -1.5733 -0.4142  2.9449
 4465SOL    HW224855   0.485   3.906  11.261  0.8779  0.2318 -0.1424
 4466SOL     OW24856   2.658   0.214  16.254 -0.5289  0.1028  0.3442
 4466SOL    HW124857   2.724   0.233  16.320  0.5825  0.8659 -0.9981
 4466SOL    HW224858   2.723   0.180  16.192 -0.4925 -0.5913  0.7641
 4467SOL     OW24859   3.896   1.350   4.382 -0.4618  0.0716 -0.4744
 4467SOL    HW124860   3.827   1.407   4.417  1.1624 -0.1195  3.0204
 4467SOL    HW224861   3.839   1.280   4.351  0.6013 -0.6824 -0.7304
 4468SOL     OW24862   1.679   3.947   6.135 -0.3859  0.0259  0.4732
 4468SOL    HW124863   1.589   3.943   6.104 -0.2680  0.1506  0.1106
 4468SOL    HW224864   1.690   4.042   6.144  4.4977 -0.3829 -0.9320
 4469SOL     OW24865   0.575   0.687   3.143 -0.0682 -0.0136 -0.2239
 4469SOL    HW124866   0.524   0.728   3.073 -2.8685  0.4619  2.0768
 4469SOL    HW224867   0.663   0.697   3.107  1.0591 -1.6827  2.0491
 4470SOL     OW24868   4.421   2.659   3.854 -0.3411 -0.1481 -0.1305
 4470SOL    HW124869   4.376   2.709   3.786 -1.7879 -0.7389  0.3902
 4470SOL    HW224870   4.356   2.591   3.872 -0.0651 -1.4796 -4.0514
 4471SOL     OW24871   3.697   0.183  12.975  0.7190  0.3024  0.0881
 4471SOL    HW124872   3.697   0.134  12.892  0.1442  0.3405  0.0641
 4471SOL    HW224873   3.771   0.243  12.968 -0.5469  1.8621 -0.0262
 4472SOL     OW24874   0.965   1.698   3.946 -0.2191  0.1158  0.3739
 4472SOL    HW124875   0.913   1.719   3.869  1.0154 -0.1023 -0.5194
 4472SOL    HW224876   0.985   1.607   3.922 -0.6087 -0.1024  0.8702
 4473SOL     OW24877   1.209   0.697   1.907  0.5707 -0.6940 -0.1838
 4473SOL    HW124878   1.160   0.765   1.953  0.2426 -2.0834  1.5134
 4473SOL    HW224879   1.286   0.702   1.963 -0.1407 -3.0803  0.9887
 4474SOL     OW24880   4.281   4.153   6.930  0.2272 -0.0737  0.5380
 4474SOL    HW124881   4.319   4.077   6.885  1.6962 -0.0583  1.7595
 4474SOL    HW224882   4.187   4.142   6.911  0.4712 -1.2704  0.0522
 4475SOL     OW24883   2.020   1.389   4.419  0.1810  0.1818 -0.1815
 4475SOL    HW124884   2.043   1.372   4.510 -2.8212 -0.1256  0.5269
 4475SOL    HW224885   2.041   1.307   4.374 -2.6124  0.5632 -2.2438
 4476SOL     OW24886   3.790   0.219   0.364 -0.5498  0.0028 -0.1710
 4476SOL    HW124887   3.867   0.263   0.401  1.1227 -2.3740 -0.8222
 4476SOL    HW224888   3.794   0.134   0.406  0.8910  0.1477 -0.0321
 4477SOL     OW24889   0.776   3.837  10.154 -0.4400  0.8549 -0.3483
 4477SOL    HW124890   0.760   3.757  10.204 -0.9126  1.4087  0.3914
 4477SOL    HW224891   0.835   3.819  10.081  2.7285  1.5850  2.0577
 4478SOL     OW24892   3.179   1.663   6.110 -1.0178  0.5831 -0.0506
 4478SOL    HW124893   3.232   1.742   6.127 -0.0864  0.3338 -1.7423
 4478SOL    HW224894   3.115   1.689   6.044  0.9061  4.6907 -0.3497
 4479SOL     OW24895   1.305   2.955   6.859 -0.0362  0.0049  0.4941
 4479SOL    HW124896   1.249   2.944   6.936 -2.9936  1.1222 -1.4895
 4479SOL    HW224897   1.374   2.898   6.894  1.0825  0.7068 -0.5912
 4480SOL     OW24898   0.056   3.901  16.778  0.0874  0.1293  0.3974
 4480SOL    HW124899   0.096   3.979  16.818 -0.5071  1.1386 -0.9720
 4480SOL    HW224900   4.698   3.946  16.745  1.2794  1.1861 -0.9819
 4481SOL     OW24901   0.010   4.066  15.653 -0.3698 -0.4301  0.4274
 4481SOL    HW124902   4.714   4.053  15.559  1.8044  0.6253 -0.0719
 4481SOL    HW224903   0.033   3.975  15.671  0.0928  0.0835  2.4089
 4482SOL     OW24904   3.115   2.428   9.581  0.1246  0.1044 -0.1436
 4482SOL    HW124905   3.144   2.500   9.637  1.2377  1.7557 -2.8319
 4482SOL    HW224906   3.101   2.364   9.651 -0.0502 -1.0225 -1.2172
 4483SOL     OW24907   2.497   2.761   1.260  0.0650 -0.1287 -0.6199
 4483SOL    HW124908   2.408   2.761   1.295  0.2707 -3.5896 -0.1191
 4483SOL    HW224909   2.547   2.741   1.339 -2.3177 -1.3437  0.5893
 4484SOL     OW24910   0.682   4.278  12.111  0.4121  0.0662  0.3716
 4484SOL    HW124911   0.756   4.249  12.164  0.6238 -1.0642 -0.5328
 4484SOL    HW224912   0.697   4.263  12.017  0.3853  0.8388  0.2448
 4485SOL     OW24913   3.719   2.594   7.149  0.1003  0.1682 -0.3561
 4485SOL    HW124914   3.793   2.554   7.194 -0.7761 -0.9194  0.1008
 4485SOL    HW224915   3.709   2.678   7.195 -1.6058  0.0567 -0.5327
 4486SOL     OW24916   3.896   4.451   0.386  0.2865 -0.2504  0.5489
 4486SOL    HW124917   3.883   4.357   0.395  2.5763 -0.7862 -1.7321
 4486SOL    HW224918   3.804   4.472   0.370  1.1278  2.8189 -0.2193
 4487SOL     OW24919   1.027   1.674  10.550 -0.3197  0.1159  0.1939
 4487SOL    HW124920   1.004   1.749  10.496  1.4311 -0.3804 -1.2592
 4487SOL    HW224921   1.001   1.594  10.504  0.9986 -0.7222  0.9033
 4488SOL     OW24922   0.586   3.068  10.540  0.4450  0.2619 -0.5946
 4488SOL    HW124923   0.598   3.154  10.582 -1.1845  1.2276 -2.1221
 4488SOL    HW224924   0.507   3.080  10.488  1.5492 -1.7016 -2.7005
 4489SOL     OW24925   4.558   4.514   9.446  0.4748  0.0536 -0.1581
 4489SOL    HW124926   4.531   4.552   9.362  0.9030 -2.4015 -1.4095
 4489SOL    HW224927   4.554   4.419   9.436 -2.0547 -0.0561  1.8142
 4490SOL     OW24928   2.115   4.595  15.092  0.3583 -0.0791 -0.0017
 4490SOL    HW124929   2.084   4.617  15.004 -3.3109  0.6372  1.4910
 4490SOL    HW224930   2.159   4.677  15.115  0.3071  0.7106 -2.7240
 4491SOL     OW24931   1.437   1.807   0.381 -0.1923 -1.0651 -0.4580
 4491SOL    HW124932   1.403   1.805   0.471 -2.0178 -1.5899 -1.1561
 4491SOL    HW224933   1.394   1.723   0.363 -2.6646  0.5716 -2.1760
 4492SOL     OW24934   1.278   1.574  15.539  0.1534  0.1556  0.3125
 4492SOL    HW124935   1.203   1.516  15.529  0.4415 -0.0033 -0.9330
 4492SOL    HW224936   1.319   1.537  15.617 -0.7804 -2.0595 -0.2659
 4493SOL     OW24937   2.039   0.061   8.389 -0.7078  0.5092  0.2706
 4493SOL    HW124938   1.996   4.702   8.421  2.6640 -1.8912 -1.1572
 4493SOL    HW224939   1.976   0.121   8.428  0.9601  2.4156  0.0087
 4494SOL     OW24940   4.347   4.265   8.540 -0.1791 -0.0064  0.9334
 4494SOL    HW124941   4.295   4.189   8.514 -0.4057 -0.5045  2.8439
 4494SOL    HW224942   4.437   4.251   8.511 -0.1717 -0.8989  1.4136
 4495SOL     OW24943   3.925   4.647   6.005 -0.6700 -0.3067 -0.4556
 4495SOL    HW124944   3.877   4.575   6.047  0.1796 -1.2417 -1.0838
 4495SOL    HW224945   3.966   4.701   6.072  2.4699 -2.5509 -0.5627
 4496SOL     OW24946   0.011   1.711   4.803 -0.3595  0.1537  0.3797
 4496SOL    HW124947   0.042   1.801   4.807  0.7809 -0.3591  2.6417
 4496SOL    HW224948   0.086   1.665   4.765 -2.3728 -0.6289 -2.7300
 4497SOL     OW24949   3.890   4.311   1.307  0.1574 -0.0703 -0.2087
 4497SOL    HW124950   3.802   4.291   1.274 -0.2245  2.1307 -0.5384
 4497SOL    HW224951   3.902   4.401   1.274  0.8878 -0.2514 -0.4286
 4498SOL     OW24952   4.165   1.926  10.339  0.2450 -0.6492  0.4752
 4498SOL    HW124953   4.151   1.911  10.432 -0.2310 -1.7264  0.2244
 4498SOL    HW224954   4.260   1.920  10.341  0.1544 -2.5583 -0.7500
 4499SOL     OW24955   2.676   0.721   2.078 -0.0371  0.4813  0.1479
 4499SOL    HW124956   2.649   0.780   2.008  1.6409 -1.3366 -2.0628
 4499SOL    HW224957   2.590   0.719   2.120  0.0215 -0.3990  0.2207
 4500SOL     OW24958   2.480   1.619   3.743 -0.6658  0.3993 -0.3752
 4500SOL    HW124959   2.550   1.678   3.770 -1.9649  1.9797 -0.5065
 4500SOL    HW224960   2.410   1.640   3.805  0.8185  0.9533  1.1192
 4501SOL     OW24961   2.236   3.339   5.633 -0.1348 -0.2533  0.2368
 4501SOL    HW124962   2.245   3.327   5.728  0.6842  1.6754  0.4016
 4501SOL    HW224963   2.225   3.249   5.601 -1.3545  0.1006 -0.2941
 4502SOL     OW24964   1.011   4.580   6.357 -0.2319  0.0340 -0.1980
 4502SOL    HW124965   0.933   4.636   6.349  1.4045  1.9928 -2.4338
 4502SOL    HW224966   1.067   4.643   6.402  1.2115 -2.6586  1.7172
 4503SOL     OW24967   0.598   2.197   3.382  0.1714 -0.2753 -0.1284
 4503SOL    HW124968   0.640   2.112   3.392  2.2585  0.8624  0.7591
 4503SOL    HW224969   0.660   2.246   3.328  1.5148 -0.7650  0.9770
 4504SOL     OW24970   3.582   2.125   3.512 -0.4054  0.6960  0.3791
 4504SOL    HW124971   3.497   2.081   3.507  0.1467 -0.3696  0.3672
 4504SOL    HW224972   3.601   2.160   3.425 -2.0182 -2.2323 -1.1666
 4505SOL     OW24973   3.778   2.851  13.769 -0.3395 -0.0227 -0.4023
 4505SOL    HW124974   3.847   2.796  13.807 -1.0995 -2.1117 -2.0438
 4505SOL    HW224975   3.789   2.815  13.681  0.7150  1.4273 -0.8719
 4506SOL     OW24976   2.573   2.276   4.481 -0.5524  0.2497 -0.1333
 4506SOL    HW124977   2.488   2.262   4.522  0.3157 -1.5467  1.0545
 4506SOL    HW224978   2.596   2.184   4.466  1.5646  1.0193 -1.6105
 4507SOL     OW24979   1.801   0.919   1.203 -0.2195 -0.1761 -0.4529
 4507SOL    HW124980   1.776   0.899   1.293 -1.9596  1.2186 -0.6288
 4507SOL    HW224981   1.863   0.850   1.178  0.2850  0.4631 -0.9609
 4508SOL     OW24982   2.752   2.421   2.793  0.5421 -0.0366 -0.8041
 4508SOL    HW124983   2.725   2.342   2.839 -2.7819  3.0794  2.5420
 4508SOL    HW224984   2.832   2.445   2.840 -1.1479 -0.4732  2.2771
 4509SOL     OW24985   2.690   2.718   1.469  0.1333  0.6261  0.0384
 4509SOL    HW124986   2.688   2.622   1.470 -0.8738  0.6584  0.8311
 4509SOL    HW224987   2.778   2.733   1.433  1.1940 -2.0152  1.5383
 4510SOL     OW24988   1.644   3.636   7.912 -0.0561  0.1024  0.3248
 4510SOL    HW124989   1.722   3.678   7.876 -1.4135  3.4117  1.2639
 4510SOL    HW224990   1.648   3.558   7.856 -1.0659  0.7647 -0.6797
 4511SOL     OW24991   4.465   2.341   0.566  0.1866  0.6306 -0.1602
 4511SOL    HW124992   4.535   2.294   0.521  1.9825  0.3065  2.8983
 4511SOL    HW224993   4.383   2.315   0.525  0.3472 -0.7912  0.4170
 4512SOL     OW24994   1.196   2.338  15.405 -0.8887  0.3403  0.3116
 4512SOL    HW124995   1.203   2.244  15.389  0.7686  0.7871 -1.6034
 4512SOL    HW224996   1.274   2.373  15.363 -2.0062  1.0851 -1.1099
 4513SOL     OW24997   1.013   0.783  17.054 -0.0100  0.0541 -0.7669
 4513SOL    HW124998   1.043   0.727  17.126 -0.9020  1.7780  0.9593
 4513SOL    HW224999   0.922   0.795  17.083  0.7082 -0.3818  1.7306
 4514SOL     OW25000   3.295   3.957  15.177 -0.2964 -0.3488  0.2755
 4514SOL    HW125001   3.318   3.865  15.185  2.7485  0.3389 -0.4462
 4514SOL    HW225002   3.246   3.969  15.258 -1.5753 -2.1826 -0.2416
 4515SOL     OW25003   2.071   0.891  13.210 -0.2594  0.2997  0.1866
 4515SOL    HW125004   1.987   0.933  13.227  0.3651  0.8263  1.9240
 4515SOL    HW225005   2.136   0.959  13.230 -2.0997  1.9593  0.4472
 4516SOL     OW25006   4.245   4.226   4.520 -0.8283  0.5160 -0.4722
 4516SOL    HW125007   4.205   4.312   4.508  1.3561  1.7023  0.8319
 4516SOL    HW225008   4.257   4.209   4.426  0.5295 -1.1735  0.0114
 4517SOL     OW25009   2.891   0.173  14.864  0.3756 -0.0451  0.1155
 4517SOL    HW125010   2.840   0.098  14.832 -1.4895  0.5827  1.6521
 4517SOL    HW225011   2.864   0.181  14.955  1.6037 -0.0592  0.4768
 4518SOL     OW25012   3.063   3.733   2.822  0.3259 -0.4868 -0.4294
 4518SOL    HW125013   3.046   3.807   2.765  1.7802  0.3343  0.2155
 4518SOL    HW225014   2.979   3.714   2.865 -0.4964  0.6439 -1.5439
 4519SOL     OW25015   3.275   1.631   3.653 -0.3876  0.2835 -0.3053
 4519SOL    HW125016   3.362   1.638   3.613 -0.4924 -1.0805 -0.7658
 4519SOL    HW225017   3.269   1.536   3.657  2.9992  0.0754  0.0151
 4520SOL     OW25018   1.112   2.447  17.661  0.3929  0.3584 -0.0273
 4520SOL    HW125019   1.186   2.426   0.034 -0.3418 -0.3220  0.6960
 4520SOL    HW225020   1.076   2.524   0.022 -2.8702 -0.8479 -0.5304
 4521SOL     OW25021   3.589   0.363   7.842  0.6366  0.0380 -0.1733
 4521SOL    HW125022   3.683   0.380   7.837  0.1383  2.6849 -0.6546
 4521SOL    HW225023   3.565   0.391   7.754 -2.4083 -0.0499  0.6441
 4522SOL     OW25024   3.388   1.970  15.689  0.2726 -0.5351 -0.2387
 4522SOL    HW125025   3.426   2.024  15.758 -0.6135  0.7668 -0.7725
 4522SOL    HW225026   3.456   1.903  15.690  0.4889 -0.3181 -0.2015
 4523SOL     OW25027   1.503   3.627   6.787 -0.2152  0.1051  0.4107
 4523SOL    HW125028   1.510   3.631   6.883  1.8288  1.1902  0.2235
 4523SOL    HW225029   1.465   3.714   6.777 -0.7469  0.2047  3.2778
 4524SOL     OW25030   3.391   4.581   2.744 -0.2445 -0.3444 -0.4801
 4524SOL    HW125031   3.465   4.520   2.735  0.6501  0.8119 -0.9280
 4524SOL    HW225032   3.391   4.614   2.655  0.4674  1.1372  0.0716
 4525SOL     OW25033   4.594   4.719   2.214  0.1768 -0.9262 -0.0669
 4525SOL    HW125034   4.674   4.700   2.263 -0.5802 -2.2771  0.6473
 4525SOL    HW225035   4.521   4.694   2.271 -1.8027  0.0536 -2.1594
 4526SOL     OW25036   1.072   2.948   4.904 -0.3468  0.6535  0.1947
 4526SOL    HW125037   0.983   2.919   4.925  0.4323 -0.4554  1.9125
 4526SOL    HW225038   1.065   2.918   4.813  0.8544  1.5914 -0.2035
 4527SOL     OW25039   2.690   4.408   3.284 -0.2729  0.1946 -0.0546
 4527SOL    HW125040   2.621   4.472   3.303 -0.4200  0.8012 -2.6461
 4527SOL    HW225041   2.771   4.458   3.295 -0.6744  0.5904  1.1826
 4528SOL     OW25042   4.035   1.284   5.317  0.0555  0.3030 -0.0719
 4528SOL    HW125043   4.054   1.265   5.226 -0.6776  0.6638 -0.3060
 4528SOL    HW225044   3.939   1.284   5.309  0.2127  0.3900 -1.9080
 4529SOL     OW25045   0.980   1.051  17.639 -0.2798 -0.7844  0.0157
 4529SOL    HW125046   0.975   1.139  17.602  0.7176 -1.7633 -2.4441
 4529SOL    HW225047   0.950   0.992  17.569 -2.4378 -0.6337  0.7998
 4530SOL     OW25048   0.400   3.863   1.575  0.6190  0.7057  0.2902
 4530SOL    HW125049   0.326   3.806   1.555  1.7287 -0.5966 -0.0996
 4530SOL    HW225050   0.380   3.894   1.664  0.8160 -0.6517  0.8035
 4531SOL     OW25051   3.906   4.695   2.742  0.4415 -0.1177  0.1163
 4531SOL    HW125052   3.832   4.685   2.802 -0.6277 -2.1481 -1.5698
 4531SOL    HW225053   3.949   4.609   2.740 -2.4097 -1.5043 -1.4394
 4532SOL     OW25054   3.740   2.923   6.061 -0.3043  0.2184  0.0443
 4532SOL    HW125055   3.736   2.907   6.156 -0.4729  0.2138  0.0373
 4532SOL    HW225056   3.742   3.019   6.061 -0.1505  0.2244  2.4411
 4533SOL     OW25057   0.140   1.406  16.280 -0.2347 -0.3040 -0.5076
 4533SOL    HW125058   0.191   1.360  16.213 -2.1216  0.8272 -2.7181
 4533SOL    HW225059   0.056   1.367  16.256  0.6637 -1.6875 -1.4094
 4534SOL     OW25060   0.894   3.163  17.659  0.3231  0.7012  0.3025
 4534SOL    HW125061   0.827   3.096  17.674  1.4161  0.5871  4.4977
 4534SOL    HW225062   0.877   3.180  17.566  1.0299 -2.1474 -0.3674
 4535SOL     OW25063   3.804   2.313   5.112  0.1801 -0.0884 -0.2729
 4535SOL    HW125064   3.810   2.270   5.197  0.4299  2.2060  0.8916
 4535SOL    HW225065   3.822   2.406   5.129  1.9698 -0.2981 -1.0143
 4536SOL     OW25066   4.429   4.296  10.111 -0.2786 -0.0219 -0.1246
 4536SOL    HW125067   4.519   4.327  10.119 -0.4529  0.3699  0.3286
 4536SOL    HW225068   4.441   4.236  10.038  1.2914  1.8042 -1.3715
 4537SOL     OW25069   1.378   4.049   7.334  0.4321 -0.5301 -0.1012
 4537SOL    HW125070   1.350   4.140   7.333 -0.2463 -0.7439 -1.0195
 4537SOL    HW225071   1.307   4.021   7.391 -0.1299  0.1413 -0.4679
 4538SOL     OW25072   4.557   3.647   4.860 -0.4720 -0.1942 -0.3914
 4538SOL    HW125073   4.616   3.655   4.935 -0.5624 -0.0198 -0.3385
 4538SOL    HW225074   4.469   3.676   4.883 -0.5239  0.2777 -1.1687
 4539SOL     OW25075   1.512   0.656  11.634  0.4383 -0.3917 -0.4440
 4539SOL    HW125076   1.521   0.585  11.697 -2.6545 -1.0946 -0.7782
 4539SOL    HW225077   1.533   0.732  11.689 -3.1750 -0.1500  0.6113
 4540SOL     OW25078   0.489   4.472   7.830 -0.1255  0.9746 -0.3685
 4540SOL    HW125079   0.459   4.424   7.907  3.1087 -0.0425  0.2659
 4540SOL    HW225080   0.425   4.442   7.766  1.0516 -0.8387 -0.7012
 4541SOL     OW25081   0.596   2.095   8.476  0.2225  0.0906  0.4160
 4541SOL    HW125082   0.650   2.174   8.468 -0.4598  0.5495  0.3491
 4541SOL    HW225083   0.591   2.097   8.571 -1.7875 -0.6257  0.3137
 4542SOL     OW25084   1.292   3.346  11.733 -0.1947  0.1959 -0.1746
 4542SOL    HW125085   1.239   3.422  11.758 -1.1652 -0.9434  1.2387
 4542SOL    HW225086   1.325   3.305  11.813 -0.9991  0.6613  0.4102
 4543SOL     OW25087   3.724   0.693  15.686 -0.2985 -0.4202  0.0425
 4543SOL    HW125088   3.764   0.608  15.702 -0.4637 -0.3988  0.5873
 4543SOL    HW225089   3.681   0.702  15.771  0.7035  0.2929  0.4795
 4544SOL     OW25090   2.266   1.304   0.906 -0.0349 -0.4348  0.6852
 4544SOL    HW125091   2.301   1.356   0.979  0.4375  1.0596 -0.6196
 4544SOL    HW225092   2.176   1.335   0.909 -0.1292 -0.7664  1.4567
 4545SOL     OW25093   4.601   2.116  11.968 -0.4550 -0.1894 -0.6414
 4545SOL    HW125094   4.554   2.194  11.996  0.3482 -0.4738  1.4797
 4545SOL    HW225095   4.650   2.153  11.894  2.3241  0.8351  1.6933
 4546SOL     OW25096   2.010   3.363   6.103  0.0451  0.0289  0.3911
 4546SOL    HW125097   2.023   3.350   6.197 -0.4348 -0.2138  0.4257
 4546SOL    HW225098   1.939   3.299   6.092 -0.2586  0.5236 -0.5042
 4547SOL     OW25099   1.652   1.443   4.255  0.0812 -0.1619 -0.4266
 4547SOL    HW125100   1.569   1.406   4.225  1.1137 -1.6755 -1.4265
 4547SOL    HW225101   1.680   1.474   4.169  1.4578  1.3029  0.5571
 4548SOL     OW25102   2.939   1.666  13.234 -0.1484 -0.1219  0.0146
 4548SOL    HW125103   2.920   1.598  13.169 -2.3846 -1.3129  1.8984
 4548SOL    HW225104   3.034   1.670  13.228 -0.2946 -0.1937 -2.3138
 4549SOL     OW25105   0.742   1.072  16.793 -0.0814  0.3158 -0.2713
 4549SOL    HW125106   0.682   1.113  16.731 -2.1394  0.2381  1.6423
 4549SOL    HW225107   0.821   1.084  16.741 -1.4260  0.6186 -2.2350
 4550SOL     OW25108   3.060   1.356   2.579  0.3957  0.0529 -1.0060
 4550SOL    HW125109   3.015   1.360   2.494  0.8657 -1.1500 -1.3071
 4550SOL    HW225110   3.068   1.449   2.598 -0.9425 -0.6890  3.2250
 4551SOL     OW25111   3.212   3.148   4.708 -0.2564  0.2698 -0.2109
 4551SOL    HW125112   3.252   3.124   4.791  0.3583 -0.1342 -0.6224
 4551SOL    HW225113   3.133   3.094   4.716  0.2366 -0.1720  1.6414
 4552SOL     OW25114   0.701   1.445  17.111 -0.4518 -0.0005 -0.0707
 4552SOL    HW125115   0.754   1.421  17.187  0.7591 -0.5205 -1.0805
 4552SOL    HW225116   0.637   1.506  17.148 -1.4757 -0.3021 -1.3350
 4553SOL     OW25117   2.243   0.234   6.562  0.1561  0.3648 -0.0406
 4553SOL    HW125118   2.271   0.156   6.609  0.1002  0.1106 -0.4229
 4553SOL    HW225119   2.153   0.246   6.592  0.2859  1.6843 -0.1951
 4554SOL     OW25120   2.098   2.950   4.618  0.1238  0.5548  0.2343
 4554SOL    HW125121   2.150   3.019   4.576  1.8621  0.2007  1.8035
 4554SOL    HW225122   2.047   2.995   4.685 -0.7186  0.1582 -0.1524
 4555SOL     OW25123   1.244   3.009   3.321 -0.1913 -0.5231  0.1839
 4555SOL    HW125124   1.310   2.939   3.318  2.8203  2.5006 -3.7494
 4555SOL    HW225125   1.211   3.015   3.411 -1.1418 -2.0497 -0.0544
 4556SOL     OW25126   2.721   0.268  15.362 -0.2287  0.5735 -0.1713
 4556SOL    HW125127   2.743   0.273  15.455 -1.1989 -1.6515  0.1600
 4556SOL    HW225128   2.634   0.307  15.354  0.1302  1.5973  0.8135
 4557SOL     OW25129   2.758   3.406  10.522  0.4674  0.1149  0.3095
 4557SOL    HW125130   2.754   3.314  10.499 -0.8245 -0.2542  1.9738
 4557SOL    HW225131   2.848   3.421  10.494  0.8357 -1.2840  0.7354
 4558SOL     OW25132   0.580   0.788   3.955 -0.2755 -0.6071  0.0149
 4558SOL    HW125133   0.559   0.701   3.988 -1.8527 -0.1801  0.1136
 4558SOL    HW225134   0.628   0.826   4.029  1.4191 -1.2497 -0.7449
 4559SOL     OW25135   1.271   3.206   1.012  0.2780  0.3141  0.2690
 4559SOL    HW125136   1.192   3.214   0.959 -0.3621  0.2532  1.2092
 4559SOL    HW225137   1.250   3.236   1.100 -0.9818  0.5490 -0.0998
 4560SOL     OW25138   0.549   1.829   4.784 -0.0044  0.0074 -0.5592
 4560SOL    HW125139   0.625   1.781   4.819 -0.0325 -1.0400 -1.9587
 4560SOL    HW225140   0.586   1.856   4.700 -0.5342  2.1016 -0.1094
 4561SOL     OW25141   4.707   2.791  15.756  0.8341 -0.0773 -0.7479
 4561SOL    HW125142   0.030   2.865  15.715 -1.4501  1.5722 -0.2178
 4561SOL    HW225143   0.041   2.714  15.740  0.7901 -0.4582  0.9076
 4562SOL     OW25144   3.979   0.068   4.560 -0.2896 -0.0165  0.3098
 4562SOL    HW125145   3.975   0.087   4.654  3.8472  3.1695 -0.1600
 4562SOL    HW225146   3.935   4.704   4.545 -0.0880 -0.0047 -0.3623
 4563SOL     OW25147   0.724   0.118   6.665 -0.0362  0.6487 -0.0414
 4563SOL    HW125148   0.668   0.194   6.685 -0.5251  0.5278 -0.9659
 4563SOL    HW225149   0.752   0.154   6.580 -1.6648  1.0881 -0.4008
 4564SOL     OW25150   2.039   2.275   8.918  0.3026  0.2483  0.1494
 4564SOL    HW125151   2.085   2.193   8.898  1.7083  1.0889 -0.0844
 4564SOL    HW225152   2.059   2.280   9.011 -0.3070 -1.1223  0.3661
 4565SOL     OW25153   3.250   2.087   2.176 -0.1617 -0.1992 -0.2070
 4565SOL    HW125154   3.248   2.027   2.101  0.6394  1.0672 -1.2361
 4565SOL    HW225155   3.327   2.056   2.222 -1.1287  0.1799  1.6759
 4566SOL     OW25156   0.516   0.808   5.693 -0.0115  0.2897  0.3673
 4566SOL    HW125157   0.561   0.827   5.611 -2.3966 -0.8416 -1.1987
 4566SOL    HW225158   0.444   0.747   5.675  1.2507 -0.3947 -2.3483
 4567SOL     OW25159   4.294   2.897   9.019  0.1009 -0.3763 -0.1477
 4567SOL    HW125160   4.290   2.984   8.980 -1.0754 -0.4306 -0.1301
 4567SOL    HW225161   4.289   2.929   9.109  0.1204 -0.0788 -0.2541
 4568SOL     OW25162   3.753   3.478   5.368 -0.1081  0.1943  0.2453
 4568SOL    HW125163   3.802   3.428   5.303 -1.0798 -0.6204  0.1416
 4568SOL    HW225164   3.811   3.457   5.442  0.5791 -0.4313 -0.4720
 4569SOL     OW25165   1.783   2.227   1.447 -0.3846  0.0270  0.3723
 4569SOL    HW125166   1.784   2.156   1.383  1.8643 -1.7115  2.3219
 4569SOL    HW225167   1.719   2.284   1.405 -0.9482 -0.0041  1.1750
 4570SOL     OW25168   2.271   0.257   3.932  0.3117 -0.0466  0.0878
 4570SOL    HW125169   2.276   0.283   4.024  1.9161 -1.3453  0.3521
 4570SOL    HW225170   2.331   0.183   3.923  0.7473  0.0310  2.3693
 4571SOL     OW25171   3.319   4.596   5.193 -0.1939  0.3206  0.6867
 4571SOL    HW125172   3.362   4.664   5.245  0.2739 -0.9450  1.9596
 4571SOL    HW225173   3.325   4.528   5.260 -1.0739 -0.0200  0.4294
 4572SOL     OW25174   1.214   0.604   3.471  0.4775  0.2668 -0.0764
 4572SOL    HW125175   1.300   0.613   3.513  0.9951  2.0313 -1.5276
 4572SOL    HW225176   1.231   0.559   3.388 -1.2080 -2.8117  1.2437
 4573SOL     OW25177   0.476   2.043  16.827  0.4812  0.3922  0.1328
 4573SOL    HW125178   0.524   1.969  16.865 -0.6938 -0.4949 -0.1370
 4573SOL    HW225179   0.478   2.032  16.732  0.7931 -0.7746  0.2669
 4574SOL     OW25180   2.832   1.007   2.202 -0.2555  0.1096 -0.3790
 4574SOL    HW125181   2.910   1.025   2.150  0.4857 -3.8013 -0.6589
 4574SOL    HW225182   2.820   0.912   2.196  1.5333 -0.1360 -0.1669
 4575SOL     OW25183   4.716   1.821   1.187  0.1534  0.5590  0.3193
 4575SOL    HW125184   4.699   1.886   1.119 -0.8793 -1.0792 -0.9898
 4575SOL    HW225185   4.698   1.742   1.137 -2.1167  1.0646  0.3345
 4576SOL     OW25186   2.959   2.311   6.424 -0.2499  0.0695  0.2293
 4576SOL    HW125187   2.952   2.354   6.509 -1.0429  0.8841 -0.2525
 4576SOL    HW225188   3.001   2.228   6.446  0.0776 -0.0663 -0.9430
 4577SOL     OW25189   1.365   2.907  11.466  0.6997 -0.3780  0.2818
 4577SOL    HW125190   1.317   2.854  11.402 -0.5861 -0.7003  1.5217
 4577SOL    HW225191   1.304   2.979  11.482  1.5001 -0.4174  3.4754
 4578SOL     OW25192   2.657   4.465   7.140 -0.2600  0.0973  0.3497
 4578SOL    HW125193   2.595   4.533   7.111 -0.2597  0.1046  0.3665
 4578SOL    HW225194   2.740   4.503   7.111  0.0836 -0.5515  0.4940
 4579SOL     OW25195   2.403   4.423   4.454  0.5996 -0.3872  0.2037
 4579SOL    HW125196   2.437   4.505   4.489  1.8012 -0.1100 -1.5889
 4579SOL    HW225197   2.480   4.383   4.413  0.6965  0.2482 -0.2451
 4580SOL     OW25198   0.634   2.875   8.038 -0.5911 -0.0215 -0.1691
 4580SOL    HW125199   0.650   2.808   8.105 -0.6987  1.1429  1.0171
 4580SOL    HW225200   0.699   2.942   8.059  1.4191 -2.0476  0.1448
 4581SOL     OW25201   4.616   2.157   1.777 -0.3102  0.9819  0.1883
 4581SOL    HW125202   4.572   2.074   1.759  2.5908 -0.3027 -0.8738
 4581SOL    HW225203   4.699   2.141   1.732 -0.5167 -1.4150  0.6657
 4582SOL     OW25204   2.912   1.245   7.171 -0.0936 -0.1373 -0.0725
 4582SOL    HW125205   2.908   1.255   7.266  2.4125  1.0523 -0.0810
 4582SOL    HW225206   2.923   1.340   7.161  1.9212 -0.1265  2.2524
 4583SOL     OW25207   2.530   0.088   7.882 -0.0157 -0.1721  0.1324
 4583SOL    HW125208   2.465   0.019   7.871  0.3202 -0.6119  0.8976
 4583SOL    HW225209   2.611   0.045   7.852 -0.0627 -1.1556  1.4271
 4584SOL     OW25210   3.048   3.738   4.034  0.0345  0.6627  0.0822
 4584SOL    HW125211   2.983   3.698   3.976 -0.2413  1.7744 -0.3855
 4584SOL    HW225212   3.080   3.668   4.091  1.3574  0.9933 -0.2536
 4585SOL     OW25213   1.621   0.206  10.819  0.3130 -0.2754 -0.0407
 4585SOL    HW125214   1.668   0.274  10.868 -1.9493 -0.2108  2.0406
 4585SOL    HW225215   1.585   0.159  10.894  2.5678 -0.3411  1.0078
 4586SOL     OW25216   2.022   1.848   6.073  0.1586  0.7638  0.1369
 4586SOL    HW125217   2.116   1.845   6.056  0.2827  1.7147  0.6446
 4586SOL    HW225218   2.000   1.786   6.003  2.1699  0.2219 -0.0140
 4587SOL     OW25219   4.112   0.146  13.269  0.4221 -0.5127 -0.5770
 4587SOL    HW125220   4.199   0.180  13.288 -0.2409  1.2948 -0.8220
 4587SOL    HW225221   4.073   0.217  13.218 -2.9077 -1.2188  0.9464
 4588SOL     OW25222   2.558   3.743   4.010  0.7123  0.1367  0.3386
 4588SOL    HW125223   2.513   3.659   4.019  2.2501 -0.7511 -0.2032
 4588SOL    HW225224   2.646   3.712   4.034  0.7898 -1.3724 -1.8852
 4589SOL     OW25225   1.536   1.243   8.019  0.0813  0.1476  0.3048
 4589SOL    HW125226   1.534   1.170   8.081  1.3366 -0.3507 -0.2432
 4589SOL    HW225227   1.627   1.269   8.005 -0.4066  1.2730 -0.7298
 4590SOL     OW25228   2.042   3.638   7.746  0.1210  0.1442 -0.4612
 4590SOL    HW125229   2.087   3.701   7.690 -0.3475 -1.5589 -2.7302
 4590SOL    HW225230   2.083   3.656   7.830  1.5643 -0.4295 -1.0498
 4591SOL     OW25231   2.347   4.299   2.900 -0.2511  0.3469  0.1441
 4591SOL    HW125232   2.271   4.305   2.958 -0.1504  1.1378  0.1879
 4591SOL    HW225233   2.387   4.219   2.935  0.0789  0.5803  0.3001
 4592SOL     OW25234   2.572   2.375  12.499 -0.0510  0.4672  0.9358
 4592SOL    HW125235   2.509   2.423  12.552 -1.2051 -0.2666  0.2238
 4592SOL    HW225236   2.554   2.418  12.416 -0.4280  0.4920  1.0291
 4593SOL     OW25237   3.921   2.368   2.076  0.6225  0.1607 -0.1377
 4593SOL    HW125238   3.867   2.334   2.148  0.0581  1.0401 -0.1586
 4593SOL    HW225239   3.975   2.431   2.124 -2.3390  0.9282  2.1877
 4594SOL     OW25240   2.684   2.256  15.971 -0.0431  0.2988 -0.3862
 4594SOL    HW125241   2.698   2.243  15.877 -0.3890 -1.4793 -0.1927
 4594SOL    HW225242   2.766   2.298  15.996  0.8561 -0.5127 -1.9136
 4595SOL     OW25243   3.342   1.295   2.687  0.1316 -0.7957  0.1649
 4595SOL    HW125244   3.344   1.338   2.773 -0.7939 -1.4739  0.5291
 4595SOL    HW225245   3.254   1.259   2.677 -0.2828  0.1938  0.2002
 4596SOL     OW25246   1.113   1.031  10.372 -0.2817  0.0477 -0.3398
 4596SOL    HW125247   1.065   1.112  10.391 -0.6620 -0.5386  1.2027
 4596SOL    HW225248   1.182   1.042  10.438  0.2608  0.1598 -0.9203
 4597SOL     OW25249   3.935   4.005  15.012 -0.5570 -0.4533  0.4790
 4597SOL    HW125250   4.011   3.956  14.983 -0.1306  0.2709  0.3683
 4597SOL    HW225251   3.978   4.077  15.059  0.3241 -0.5300 -0.2268
 4598SOL     OW25252   3.498   2.681  16.108  0.1581  0.1882  0.2324
 4598SOL    HW125253   3.482   2.593  16.075  1.1264  0.5308 -1.1283
 4598SOL    HW225254   3.588   2.699  16.083  0.8169 -0.7519  1.9705
 4599SOL     OW25255   4.252   1.160  16.994 -0.0449  0.1789 -0.4287
 4599SOL    HW125256   4.190   1.129  16.929  0.4879 -2.2764  0.2173
 4599SOL    HW225257   4.204   1.225  17.045  0.2185 -1.1779  1.5710
 4600SOL     OW25258   0.689   0.956   5.004  0.1081 -0.0174 -0.2534
 4600SOL    HW125259   0.653   1.038   4.972 -0.2245  0.5969  1.6719
 4600SOL    HW225260   0.768   0.939   4.954  0.3445  1.8656 -0.5220
 4601SOL     OW25261   3.346   0.905   2.246  0.0968  0.3856  0.1362
 4601SOL    HW125262   3.339   0.987   2.197 -1.6792 -0.7508 -1.5181
 4601SOL    HW225263   3.391   0.855   2.177  0.3186 -0.3277  0.7964
 4602SOL     OW25264   2.822   0.970   7.980 -0.0474  0.5266  0.4140
 4602SOL    HW125265   2.812   0.936   7.891  1.4180  1.7837 -0.2171
 4602SOL    HW225266   2.801   0.891   8.030  0.1278  1.3545  1.8018
 4603SOL     OW25267   2.039   3.048   0.187  0.4826 -0.4913 -0.0104
 4603SOL    HW125268   1.998   2.995   0.118 -1.2321 -0.3640  0.9206
 4603SOL    HW225269   2.098   2.985   0.229 -0.2990  1.0006  3.2565
 4604SOL     OW25270   3.167   2.544  11.396 -0.0465 -0.1916 -0.3789
 4604SOL    HW125271   3.089   2.562  11.344  1.5859  0.9715 -2.3997
 4604SOL    HW225272   3.166   2.618  11.457  2.2362  0.4662 -1.1577
 4605SOL     OW25273   0.439   0.494   3.702 -0.3796  0.3852 -0.5188
 4605SOL    HW125274   0.391   0.577   3.697 -1.1154 -0.0141 -0.1252
 4605SOL    HW225275   0.475   0.480   3.614 -1.9813 -2.6102 -0.7252
 4606SOL     OW25276   3.915   4.523   9.260 -0.1857  0.2708 -0.3616
 4606SOL    HW125277   3.962   4.498   9.339  0.2027  1.4700 -0.2051
 4606SOL    HW225278   3.906   4.618   9.264  1.7698  0.3935  0.9687
 4607SOL     OW25279   2.333   0.985   6.329  0.1289 -0.2398 -0.2920
 4607SOL    HW125280   2.298   0.955   6.413  1.8678  0.7915  0.8184
 4607SOL    HW225281   2.419   0.942   6.328  0.3464  0.1631  1.3155
 4608SOL     OW25282   2.653   2.148   2.817 -0.0265  0.4075 -0.2332
 4608SOL    HW125283   2.601   2.193   2.750  0.1725  3.2822  1.5518
 4608SOL    HW225284   2.600   2.073   2.845  2.2725 -0.8038  0.9030
 4609SOL     OW25285   0.530   0.146   3.456 -0.0289 -0.0663  0.7348
 4609SOL    HW125286   0.626   0.153   3.463  0.0992  0.8020 -2.0112
 4609SOL    HW225287   0.504   0.112   3.542 -2.7961 -0.7130 -0.3633
 4610SOL     OW25288   0.159   1.973  17.414  0.4609 -0.4292 -0.4512
 4610SOL    HW125289   0.227   1.938  17.357  0.4331 -0.0835 -0.7001
 4610SOL    HW225290   0.181   2.064  17.391 -0.2478 -0.5965 -1.8294
 4611SOL     OW25291   3.019   2.520   7.951 -0.1070  0.3668 -0.3311
 4611SOL    HW125292   3.084   2.584   7.979  1.9853 -1.1764 -1.6143
 4611SOL    HW225293   3.001   2.550   7.862  1.4527 -0.1059 -0.8060
 4612SOL     OW25294   3.429   2.883  13.616  0.5104 -0.8974  0.3557
 4612SOL    HW125295   3.459   2.822  13.549  1.3476  0.4831 -0.5093
 4612SOL    HW225296   3.352   2.923  13.576  0.4145  0.4871  1.8944
 4613SOL     OW25297   4.447   0.161   3.838  0.1137 -0.1408  0.2499
 4613SOL    HW125298   4.437   0.256   3.843  4.3513  0.3215  0.2826
 4613SOL    HW225299   4.538   0.171   3.809  0.3875 -0.6185  0.9335
 4614SOL     OW25300   0.159   0.670   1.608  0.1971  0.8558 -0.3788
 4614SOL    HW125301   0.128   0.618   1.534  0.8955  1.2258 -0.9296
 4614SOL    HW225302   0.219   0.729   1.563  3.4247 -1.7405  0.5630
 4615SOL     OW25303   2.182   1.458   1.856 -0.3917  0.6771 -0.1874
 4615SOL    HW125304   2.107   1.438   1.801 -1.7402  0.6548  1.6339
 4615SOL    HW225305   2.214   1.370   1.873  0.5175  0.6863 -1.9038
 4616SOL     OW25306   1.808   2.945  11.660 -0.7834  0.6598  0.2234
 4616SOL    HW125307   1.725   2.954  11.613  0.5174  2.7769 -1.6541
 4616SOL    HW225308   1.776   2.905  11.741 -0.5113  1.2741  0.6317
 4617SOL     OW25309   1.154   1.405   0.451 -0.0993 -0.0559  0.1675
 4617SOL    HW125310   1.144   1.310   0.456  2.0093 -0.2778  0.1921
 4617SOL    HW225311   1.062   1.429   0.451  0.6635  2.9354 -0.1264
 4618SOL     OW25312   4.335   2.620   5.281 -0.5026  0.2311  1.1887
 4618SOL    HW125313   4.293   2.582   5.358  2.5771 -1.0374  2.2488
 4618SOL    HW225314   4.427   2.623   5.308 -0.0777  0.0578 -0.2344
 4619SOL     OW25315   3.276   3.877   8.788  0.5257 -0.0340 -0.1664
 4619SOL    HW125316   3.210   3.889   8.719 -1.4166  2.4508  2.1108
 4619SOL    HW225317   3.234   3.808   8.840 -0.9486  0.6028 -0.4896
 4620SOL     OW25318   1.035   1.705  17.016 -0.0544 -0.0864 -0.1420
 4620SOL    HW125319   0.995   1.654  16.945 -0.8488  0.9492 -0.4406
 4620SOL    HW225320   1.096   1.763  16.972  0.8023  0.2409  1.4714
 4621SOL     OW25321   2.302   2.772   5.856  0.1797  0.0155  0.2285
 4621SOL    HW125322   2.337   2.732   5.776  2.0441 -1.0960  1.5928
 4621SOL    HW225323   2.256   2.700   5.899  1.0869 -1.0047 -0.4906
 4622SOL     OW25324   2.451   4.571  12.233 -0.1552 -0.5995  0.3424
 4622SOL    HW125325   2.393   4.497  12.249  0.3582 -0.8045  1.2449
 4622SOL    HW225326   2.489   4.537  12.152  1.3413  0.9318  0.3832
 4623SOL     OW25327   1.576   1.147  11.836  0.4263  0.5733 -0.0542
 4623SOL    HW125328   1.592   1.063  11.793  2.2520 -0.2590  2.2291
 4623SOL    HW225329   1.485   1.126  11.858  0.8371 -0.9755  0.1806
 4624SOL     OW25330   4.178   0.828   2.065  0.2911 -0.3358 -0.1955
 4624SOL    HW125331   4.186   0.924   2.065  1.9435 -0.4642 -0.0593
 4624SOL    HW225332   4.127   0.807   1.987  0.1142  1.0560 -0.4641
 4625SOL     OW25333   0.932   0.203   1.947  0.4213 -0.1528  0.2081
 4625SOL    HW125334   0.968   0.290   1.930  1.9472 -0.6244  0.9488
 4625SOL    HW225335   0.963   0.158   1.868 -2.7951  1.5290 -2.0112
 4626SOL     OW25336   0.731   3.070   4.851 -0.3891  0.2179  0.2376
 4626SOL    HW125337   0.773   3.152   4.825  1.8768 -0.9050  0.3201
 4626SOL    HW225338   0.761   3.059   4.941 -4.1773 -2.1909  1.1886
 4627SOL     OW25339   4.574   4.301   6.819 -0.0315 -0.0024  0.4723
 4627SOL    HW125340   4.555   4.221   6.770  0.2001  2.0431 -2.9641
 4627SOL    HW225341   4.610   4.265   6.900 -2.0654  1.1157  1.9061
 4628SOL     OW25342   0.071   1.272   8.331 -0.1150  0.3100  0.2794
 4628SOL    HW125343   0.146   1.264   8.272 -1.5857  1.0618 -1.6965
 4628SOL    HW225344   0.127   1.252   8.406  1.5574  0.6356 -0.8681
 4629SOL     OW25345   1.194   0.998  15.635 -0.1956  0.0637  0.3416
 4629SOL    HW125346   1.261   0.931  15.632 -1.6079 -1.3905  1.3152
 4629SOL    HW225347   1.245   1.077  15.617  2.4738 -1.6739  0.4107
 4630SOL     OW25348   2.180   0.992   3.121 -0.0827  0.9141  0.2707
 4630SOL    HW125349   2.205   0.900   3.125 -0.0642  0.9831  1.9057
 4630SOL    HW225350   2.136   0.988   3.037  2.6369 -0.9482 -1.0682
 4631SOL     OW25351   0.099   2.445   0.058  0.2530 -0.6548 -0.0808
 4631SOL    HW125352   0.034   2.380   0.032 -1.3014  1.0071 -0.3445
 4631SOL    HW225353   0.149   2.440  17.660 -0.1573 -2.6055 -0.1896
 4632SOL     OW25354   3.037   1.408   4.852 -0.0393  0.0573  0.0270
 4632SOL    HW125355   3.039   1.394   4.757 -0.0952  0.7428 -0.0811
 4632SOL    HW225356   2.963   1.358   4.886  0.5198 -2.3470 -2.3458
 4633SOL     OW25357   2.971   3.650  11.672  0.2222 -0.2958  0.4346
 4633SOL    HW125358   3.067   3.657  11.665  0.3807 -2.3133  0.5482
 4633SOL    HW225359   2.937   3.710  11.606 -0.4990 -1.5119 -0.2890
 4634SOL     OW25360   4.234   0.163   9.575  0.7088 -0.4325  0.2258
 4634SOL    HW125361   4.206   0.188   9.487  0.1801  0.5324  0.6562
 4634SOL    HW225362   4.277   0.082   9.550  2.3550  1.1861 -2.1738
 4635SOL     OW25363   3.806   0.535   2.226  0.2438  0.4227 -0.0208
 4635SOL    HW125364   3.887   0.584   2.237  0.6023 -0.2450  0.3813
 4635SOL    HW225365   3.741   0.603   2.211 -0.2701  0.1738  1.0117
 4636SOL     OW25366   2.779   0.511  13.282  0.0480 -0.0608  0.2661
 4636SOL    HW125367   2.727   0.457  13.342 -1.3720  2.3152  1.2054
 4636SOL    HW225368   2.870   0.495  13.307  0.6526  1.1419 -1.2023
 4637SOL     OW25369   2.560   2.925   1.574  0.1414  0.5159  0.1133
 4637SOL    HW125370   2.497   2.922   1.502 -1.0836  0.3114  1.1848
 4637SOL    HW225371   2.617   2.852   1.549 -1.3728 -1.2910  1.9383
 4638SOL     OW25372   3.508   0.845   8.282  0.1725 -0.0088 -0.0095
 4638SOL    HW125373   3.472   0.815   8.198 -2.0739  1.6853  0.3278
 4638SOL    HW225374   3.438   0.813   8.340  1.7457  0.4630  2.1467
 4639SOL     OW25375   3.866   3.980  11.024 -0.0539 -0.2332 -0.0096
 4639SOL    HW125376   3.832   4.027  11.101 -2.7542 -0.6525 -0.9234
 4639SOL    HW225377   3.952   3.961  11.060 -0.4302 -0.2531  0.8776
 4640SOL     OW25378   2.112   3.803  17.321 -0.1209  0.0788 -0.7312
 4640SOL    HW125379   2.132   3.725  17.269  1.1300 -0.6847  0.8870
 4640SOL    HW225380   2.193   3.853  17.325 -0.6794  0.7851  2.0416
 4641SOL     OW25381   3.455   2.104   5.209 -0.5914 -0.0486 -0.3258
 4641SOL    HW125382   3.539   2.084   5.167 -0.9663  0.4682 -1.3206
 4641SOL    HW225383   3.404   2.157   5.148 -0.3678  1.0259  0.4249
 4642SOL     OW25384   3.089   3.478   8.178  0.1450 -0.3791 -0.2758
 4642SOL    HW125385   3.024   3.437   8.236 -1.6702 -0.9792 -2.7189
 4642SOL    HW225386   3.085   3.415   8.106  1.3881  0.6835 -1.2817
 4643SOL     OW25387   0.317   3.377   8.333 -0.6929  0.1393  0.2931
 4643SOL    HW125388   0.241   3.379   8.274 -1.0296  2.2912  0.7972
 4643SOL    HW225389   0.300   3.294   8.377  2.7962  0.1415  1.5520
 4644SOL     OW25390   2.435   0.921  11.006 -0.2692  0.1195  0.3240
 4644SOL    HW125391   2.429   0.869  11.086  0.3318  1.7428  1.4194
 4644SOL    HW225392   2.480   1.000  11.035 -0.4243  1.0236 -1.8819
 4645SOL     OW25393   0.248   4.182   9.445 -0.2952  0.0938 -0.3019
 4645SOL    HW125394   0.179   4.116   9.439 -1.2745  0.9765  1.0787
 4645SOL    HW225395   0.326   4.128   9.457  0.4198  0.8348 -1.6403
 4646SOL     OW25396   2.701   3.966  11.228  0.1412 -0.1262  0.2730
 4646SOL    HW125397   2.609   3.941  11.239 -0.3673  1.1872 -1.0140
 4646SOL    HW225398   2.688   4.058  11.205  1.0953  0.2851  1.3972
 4647SOL     OW25399   3.267   2.740   6.617  0.6866 -0.4110 -0.2866
 4647SOL    HW125400   3.259   2.824   6.573  1.3994 -0.3651 -0.3304
 4647SOL    HW225401   3.288   2.679   6.547 -0.0753 -1.3914  0.3383
 4648SOL     OW25402   0.511   1.005   6.186  0.1922  0.4848  0.5330
 4648SOL    HW125403   0.604   1.028   6.181  0.6847 -1.5224  0.4283
 4648SOL    HW225404   0.501   0.944   6.113  1.7119 -3.2969  3.5011
 4649SOL     OW25405   3.651   1.223   4.318 -0.1052  0.0001  0.3113
 4649SOL    HW125406   3.622   1.142   4.275 -1.3059  1.7898 -2.2590
 4649SOL    HW225407   3.596   1.221   4.397  0.6314  1.6693  0.8521
 4650SOL     OW25408   2.968   3.847   4.666  0.1330 -0.6854 -0.2766
 4650SOL    HW125409   2.950   3.871   4.575  1.4378 -0.1046 -0.3887
 4650SOL    HW225410   2.937   3.757   4.665 -0.7193 -0.3988  0.5265
 4651SOL     OW25411   4.203   0.656   4.963 -0.2342 -0.2726  0.1570
 4651SOL    HW125412   4.171   0.719   4.897 -0.3263  0.5185  0.9524
 4651SOL    HW225413   4.249   0.719   5.019  2.3524 -0.8233 -1.3519
 4652SOL     OW25414   0.780   3.869   8.928 -0.6436  0.0968  0.5877
 4652SOL    HW125415   0.688   3.879   8.951 -1.0906 -3.0257  0.0909
 4652SOL    HW225416   0.789   3.951   8.879  1.5602  1.3330  3.1049
 4653SOL     OW25417   0.032   2.458   5.782 -0.0182  0.8222  0.0707
 4653SOL    HW125418   0.054   2.369   5.755  1.3144  1.2700 -0.2996
 4653SOL    HW225419   0.032   2.495   5.694  0.8115 -1.0372 -0.7041
 4654SOL     OW25420   2.779   3.181  15.268  0.8519  0.3624 -0.6449
 4654SOL    HW125421   2.843   3.212  15.204 -1.6591 -0.2336 -3.4174
 4654SOL    HW225422   2.802   3.095  15.302  3.0428  0.9145 -0.7012
 4655SOL     OW25423   2.575   1.944  14.782 -0.0386  0.0901 -0.4316
 4655SOL    HW125424   2.542   1.945  14.872 -1.4566  0.1645 -0.9407
 4655SOL    HW225425   2.555   1.856  14.751  0.2090  0.7146 -2.3532
 4656SOL     OW25426   3.370   4.377   7.849 -0.3145 -0.4064  0.8121
 4656SOL    HW125427   3.337   4.358   7.937 -1.0833 -3.1631 -0.0816
 4656SOL    HW225428   3.420   4.297   7.834 -1.5300 -1.0040 -0.0567
 4657SOL     OW25429   0.743   2.172   6.258 -0.3395  0.0952  0.3098
 4657SOL    HW125430   0.789   2.227   6.322  1.8580  1.1991 -2.2152
 4657SOL    HW225431   0.710   2.105   6.318  3.5556  0.3875  2.7914
 4658SOL     OW25432   1.388   2.162   9.837 -0.4310  0.8983 -0.1251
 4658SOL    HW125433   1.365   2.078   9.877 -0.4160  0.7738 -0.3797
 4658SOL    HW225434   1.415   2.132   9.750  0.9612  1.4098  0.1336
 4659SOL     OW25435   1.506   1.937   4.452  0.0220 -0.2337  0.0216
 4659SOL    HW125436   1.444   2.009   4.446  2.8595  2.0957 -1.5441
 4659SOL    HW225437   1.528   1.945   4.545 -0.5425 -0.2436  0.1535
 4660SOL     OW25438   1.205   0.316  15.980 -0.2203 -0.4879  0.3414
 4660SOL    HW125439   1.284   0.323  16.032 -0.4427 -2.2078  0.9002
 4660SOL    HW225440   1.153   0.384  16.023 -1.1622  0.0937 -1.6798
 4661SOL     OW25441   1.236   2.608  14.476  0.2905 -0.1648 -0.0896
 4661SOL    HW125442   1.332   2.608  14.476  0.2986  1.1684  3.5800
 4661SOL    HW225443   1.227   2.703  14.489 -0.4897 -0.1624 -0.6404
 4662SOL     OW25444   2.851   3.012   5.302  0.6915  0.3713  0.5064
 4662SOL    HW125445   2.779   3.068   5.274 -0.8921 -1.9777 -0.0959
 4662SOL    HW225446   2.915   3.014   5.231  0.4930 -0.1128  0.3122
 4663SOL     OW25447   2.307   1.069   2.672 -0.2553 -0.4173 -0.2481
 4663SOL    HW125448   2.396   1.098   2.691  0.4900 -1.3009 -2.3713
 4663SOL    HW225449   2.263   1.116   2.743 -1.0525  0.2301 -1.1783
 4664SOL     OW25450   4.344   2.476   8.573  0.2109 -0.8809 -0.3991
 4664SOL    HW125451   4.290   2.433   8.507 -1.3646  0.4316  0.0309
 4664SOL    HW225452   4.387   2.548   8.527 -0.1868 -0.9380 -0.8596
 4665SOL     OW25453   3.191   1.038   1.012 -0.2788 -0.1976 -0.2496
 4665SOL    HW125454   3.130   1.077   0.950  1.3881 -0.8099 -2.2794
 4665SOL    HW225455   3.248   1.114   1.027 -0.5481 -0.0429 -0.0175
 4666SOL     OW25456   3.161   1.481  10.446  0.2020 -1.2626  0.1225
 4666SOL    HW125457   3.105   1.433  10.507  0.0131 -1.4383 -0.1916
 4666SOL    HW225458   3.218   1.419  10.402  0.6247 -0.7331 -0.0772
 4667SOL     OW25459   2.846   2.162   8.258 -0.3817 -0.3544  0.4454
 4667SOL    HW125460   2.907   2.236   8.255 -1.6105  0.4903 -3.7308
 4667SOL    HW225461   2.769   2.206   8.222 -0.5593 -1.7647 -0.8822
 4668SOL     OW25462   2.913   2.083   2.729  0.3816 -0.0741 -0.1082
 4668SOL    HW125463   2.845   2.129   2.779  1.2084 -0.3737  1.2993
 4668SOL    HW225464   2.905   2.002   2.779 -0.2920  1.8349  2.9278
 4669SOL     OW25465   4.261   4.495  10.241 -0.3612 -0.0584  0.0036
 4669SOL    HW125466   4.296   4.417  10.198 -2.7451 -0.7696 -0.6659
 4669SOL    HW225467   4.341   4.548  10.243 -0.1768 -0.2815 -1.1005
 4670SOL     OW25468   2.401   0.093  12.881  0.2464 -0.0488  0.3908
 4670SOL    HW125469   2.431   0.025  12.942  1.7676  1.0589  0.9038
 4670SOL    HW225470   2.406   0.177  12.926  0.8835  0.0395  0.1599
 4671SOL     OW25471   1.065   2.596   4.365  0.2823 -0.0307 -0.3584
 4671SOL    HW125472   1.081   2.535   4.293 -1.5918 -0.6780 -0.2143
 4671SOL    HW225473   1.142   2.647   4.339  0.0793 -0.5922 -2.0254
 4672SOL     OW25474   3.290   0.088   1.595 -0.4926 -0.5210 -0.7798
 4672SOL    HW125475   3.220   0.096   1.530 -0.5057 -0.4566 -0.7576
 4672SOL    HW225476   3.282   0.007   1.646  0.3948  1.2229  2.1496
 4673SOL     OW25477   1.643   0.689   7.725 -0.2154 -0.0716 -0.5216
 4673SOL    HW125478   1.714   0.634   7.693  0.0759 -0.9578  1.6803
 4673SOL    HW225479   1.662   0.694   7.819  2.7627  0.7120 -1.1443
 4674SOL     OW25480   2.297   0.620   0.671 -0.4975 -0.4289 -0.0765
 4674SOL    HW125481   2.267   0.675   0.598 -0.9420 -1.6405 -0.7908
 4674SOL    HW225482   2.215   0.585   0.704 -1.1296  0.9740 -0.1463
 4675SOL     OW25483   3.639   2.353   2.820 -0.0457 -0.0204 -0.2805
 4675SOL    HW125484   3.607   2.309   2.742 -0.4811 -0.8947  0.3905
 4675SOL    HW225485   3.734   2.359   2.807  0.3401 -2.9254  1.2435
 4676SOL     OW25486   4.147   2.342   9.034 -0.2010 -0.0347 -0.1944
 4676SOL    HW125487   4.112   2.288   8.962  1.8823  0.8289 -1.8626
 4676SOL    HW225488   4.232   2.368   8.997  0.2301 -0.6052  0.4064
 4677SOL     OW25489   4.418   1.496  14.888  0.2595 -0.3551  0.2206
 4677SOL    HW125490   4.512   1.505  14.904  0.1400 -0.8982  1.1589
 4677SOL    HW225491   4.408   1.433  14.959 -0.2415  1.3789  1.7103
 4678SOL     OW25492   3.777   0.875   4.489  0.3120 -0.2903  0.1137
 4678SOL    HW125493   3.785   0.782   4.510  0.8715 -0.2337  0.1601
 4678SOL    HW225494   3.692   0.899   4.526 -0.0474 -3.0276  1.0853
 4679SOL     OW25495   0.998   4.076   8.273  0.4994  0.7031  0.5614
 4679SOL    HW125496   1.021   3.988   8.304  0.8306  0.3273 -0.7521
 4679SOL    HW225497   1.062   4.126   8.324 -0.1935  0.5825  1.5582
 4680SOL     OW25498   2.037   0.716   7.094 -0.4913  0.1058  0.3023
 4680SOL    HW125499   1.997   0.629   7.097  1.4529 -0.8260 -0.4827
 4680SOL    HW225500   2.096   0.705   7.168  0.6145  1.0879 -0.4298
 4681SOL     OW25501   1.909   3.642   3.608  0.2475  0.2539 -0.0567
 4681SOL    HW125502   1.838   3.599   3.559  0.4987 -1.4989  1.1051
 4681SOL    HW225503   1.980   3.579   3.598 -1.0513 -1.0682 -0.9863
 4682SOL     OW25504   0.020   1.673   8.920  0.1307  0.2090 -0.1862
 4682SOL    HW125505   0.071   1.752   8.906 -1.4020  1.3035  0.4410
 4682SOL    HW225506   0.002   1.661   9.014 -0.0054  0.0633 -0.2310
 4683SOL     OW25507   3.199   3.701  11.025 -0.3562  0.2269 -0.5838
 4683SOL    HW125508   3.202   3.638  11.097 -2.4457  0.0364 -0.6697
 4683SOL    HW225509   3.191   3.638  10.954  0.0398 -0.9077  0.3734
 4684SOL     OW25510   4.345   2.692   4.511 -0.3053 -0.7885 -0.9471
 4684SOL    HW125511   4.298   2.659   4.587  0.1823  2.9382  1.0078
 4684SOL    HW225512   4.328   2.786   4.520  0.1998 -0.5684 -2.2873
 4685SOL     OW25513   3.925   0.110   6.669  0.1776 -0.2054 -0.1939
 4685SOL    HW125514   3.941   0.204   6.661  0.8037 -0.2242  0.7340
 4685SOL    HW225515   3.940   0.081   6.579 -2.3099 -1.3004 -0.2366
 4686SOL     OW25516   3.339   2.438  17.048 -0.0096  0.4677 -0.2461
 4686SOL    HW125517   3.373   2.426  17.137  2.8042  1.2775 -1.2301
 4686SOL    HW225518   3.255   2.392  17.037 -0.8530  1.5829  1.4346
 4687SOL     OW25519   4.600   3.094   0.282  0.3180  0.5313  0.6274
 4687SOL    HW125520   4.584   3.032   0.211  0.4786 -0.5939  1.5929
 4687SOL    HW225521   4.515   3.095   0.325 -1.1709  0.0671 -2.2933
 4688SOL     OW25522   2.719   4.714   6.162  0.0717 -0.0175 -0.3304
 4688SOL    HW125523   2.771   4.656   6.106  0.6445  0.7335 -0.5745
 4688SOL    HW225524   2.779   0.040   6.220  3.4021 -1.5943 -2.5424
 4689SOL     OW25525   2.553   3.300   4.568 -0.1615  0.0873 -0.3144
 4689SOL    HW125526   2.547   3.303   4.664 -0.9391 -1.0988 -0.3154
 4689SOL    HW225527   2.616   3.228   4.558 -0.5260 -0.0302 -1.7216
 4690SOL     OW25528   1.010   3.234   8.727 -0.1305 -0.3466  0.2054
 4690SOL    HW125529   1.054   3.170   8.783  0.1955 -0.8080 -0.5969
 4690SOL    HW225530   0.961   3.173   8.672 -0.0167  0.9571 -1.3546
 4691SOL     OW25531   2.447   3.074  12.155 -0.0231 -0.7314 -0.1622
 4691SOL    HW125532   2.464   3.045  12.245 -1.3236  3.0284  1.2955
 4691SOL    HW225533   2.462   3.168  12.157 -1.9745 -0.4431  0.7923
 4692SOL     OW25534   1.777   2.474   5.116  0.0094 -0.5533  0.1649
 4692SOL    HW125535   1.764   2.410   5.046 -1.3877  0.5987 -0.6385
 4692SOL    HW225536   1.692   2.517   5.122 -0.6728 -1.7711 -0.7536
 4693SOL     OW25537   1.487   2.658   7.815  0.3538  0.5933 -0.2447
 4693SOL    HW125538   1.468   2.749   7.836  0.3393  0.6856 -0.6532
 4693SOL    HW225539   1.432   2.651   7.737  0.7360 -1.4775 -0.3224
 4694SOL     OW25540   3.715   2.668  11.336 -0.6151  0.7492  0.2886
 4694SOL    HW125541   3.781   2.624  11.390 -1.4246  1.9561  2.2345
 4694SOL    HW225542   3.771   2.683  11.259 -1.5962  0.9118 -0.3934
 4695SOL     OW25543   0.730   1.610  10.554  0.0772 -0.1730  0.6695
 4695SOL    HW125544   0.775   1.653  10.626 -2.9840  0.5902  2.1164
 4695SOL    HW225545   0.637   1.626  10.569 -0.2951  0.5255 -2.2274
 4696SOL     OW25546   0.772   3.552   4.591  0.1475  0.3858  0.1199
 4696SOL    HW125547   0.858   3.586   4.616  1.0667 -1.2911 -0.7354
 4696SOL    HW225548   0.732   3.511   4.668 -0.0884  1.1115  0.3846
 4697SOL     OW25549   2.358   2.161   7.664 -0.5298 -0.1173 -0.3157
 4697SOL    HW125550   2.343   2.195   7.575 -0.1146  2.3842  0.5605
 4697SOL    HW225551   2.434   2.216   7.680 -0.5227 -0.6632  1.4632
 4698SOL     OW25552   3.012   0.342   3.974  0.6344 -0.3583  0.1823
 4698SOL    HW125553   3.107   0.350   3.969  0.7458 -1.4051  0.6224
 4698SOL    HW225554   2.999   0.250   3.998  2.1313  0.4019  4.0334
 4699SOL     OW25555   1.752   1.794   9.998  0.3233 -0.6879  0.2640
 4699SOL    HW125556   1.673   1.769  10.046  0.2498  1.7165  1.3695
 4699SOL    HW225557   1.764   1.885  10.024  1.4621 -0.2141 -1.9830
 4700SOL     OW25558   0.540   1.865   9.492  0.6311  0.3147  0.5492
 4700SOL    HW125559   0.545   1.941   9.435  0.0030  0.2209  0.3670
 4700SOL    HW225560   0.444   1.862   9.497  0.5727  0.0766 -0.8917
 4701SOL     OW25561   3.093   1.265   7.918 -0.5241  0.2935  0.2923
 4701SOL    HW125562   3.014   1.307   7.951 -0.0038  1.7212 -0.2970
 4701SOL    HW225563   3.123   1.318   7.844 -2.9854  1.0111 -0.2071
 4702SOL     OW25564   4.316   1.545   7.221 -0.0760 -0.2241  0.1639
 4702SOL    HW125565   4.256   1.508   7.286  1.0446 -0.4436  1.0910
 4702SOL    HW225566   4.347   1.466   7.178 -1.3528 -0.0546 -1.0608
 4703SOL     OW25567   4.052   3.096   8.295  0.3551  0.0589  0.3022
 4703SOL    HW125568   4.145   3.073   8.295  0.7009  1.4834 -2.8679
 4703SOL    HW225569   4.011   3.010   8.290  0.0458  0.2492 -0.4340
 4704SOL     OW25570   2.080   2.278   1.461  0.8086 -0.4463  0.0759
 4704SOL    HW125571   2.035   2.321   1.388  0.7617  2.1189  1.6311
 4704SOL    HW225572   2.011   2.218   1.487  0.3291 -0.4648 -1.2468
 4705SOL     OW25573   1.526   1.107   1.531 -0.5170 -0.2829  0.6254
 4705SOL    HW125574   1.477   1.183   1.562 -0.7188 -0.5168  0.8763
 4705SOL    HW225575   1.510   1.113   1.437  1.1479  1.4694  0.4538
 4706SOL     OW25576   2.750   0.355   9.698 -0.4745 -0.8922  0.8672
 4706SOL    HW125577   2.768   0.420   9.630 -1.7302 -1.0903  0.3658
 4706SOL    HW225578   2.766   0.407   9.777 -1.3939  1.6556 -0.6277
 4707SOL     OW25579   3.751   4.369   7.309  0.5949  0.2945 -0.0866
 4707SOL    HW125580   3.667   4.342   7.345  0.8454 -2.3695 -1.4520
 4707SOL    HW225581   3.763   4.301   7.241  1.5407 -0.0692  0.4414
 4708SOL     OW25582   2.939   1.346   6.542 -0.4976  0.3611 -0.3189
 4708SOL    HW125583   2.899   1.349   6.455 -1.7841 -0.2809  0.2444
 4708SOL    HW225584   3.033   1.351   6.523 -0.4946  3.7960  0.5119
 4709SOL     OW25585   1.562   1.397   5.760 -0.1072 -0.4740 -0.4871
 4709SOL    HW125586   1.655   1.393   5.738 -0.2580  1.1789 -1.3692
 4709SOL    HW225587   1.554   1.317   5.813  1.2706  0.0324  0.4886
 4710SOL     OW25588   1.481   2.663  10.239  0.0927  0.4643  0.1881
 4710SOL    HW125589   1.541   2.612  10.292  0.8580 -0.7966 -1.8982
 4710SOL    HW225590   1.406   2.605  10.228 -1.2630  1.9205  1.6527
 4711SOL     OW25591   0.137   4.112   0.162 -0.0747 -1.0888 -0.0532
 4711SOL    HW125592   0.187   4.032   0.179  1.5659  0.5507  2.7754
 4711SOL    HW225593   0.156   4.125   0.069 -0.2342  0.7762  0.1702
 4712SOL     OW25594   0.918   2.328   3.833  0.6203  0.8567  0.0917
 4712SOL    HW125595   0.867   2.307   3.911  0.6811  0.4666  0.0249
 4712SOL    HW225596   0.858   2.383   3.783  0.0444  2.5331  2.6139
 4713SOL     OW25597   1.206   1.978   3.536  0.3452  0.0426 -0.0572
 4713SOL    HW125598   1.164   1.905   3.582  0.5250  0.2281  0.4046
 4713SOL    HW225599   1.201   2.046   3.604  2.5347  0.1797 -0.0341
 4714SOL     OW25600   3.234   2.763   7.325 -0.1505 -0.9720  0.1263
 4714SOL    HW125601   3.197   2.678   7.348 -1.1760 -0.4116  0.5524
 4714SOL    HW225602   3.198   2.788   7.240  1.3634  0.8902  0.0357
 4715SOL     OW25603   3.497   3.839   6.106 -0.0717  0.2854 -0.0624
 4715SOL    HW125604   3.587   3.869   6.097 -0.4269  2.1549  2.4163
 4715SOL    HW225605   3.463   3.827   6.017  0.9736  2.7061 -0.8038
 4716SOL     OW25606   0.728   1.063   1.423 -0.2483 -0.6320 -0.6402
 4716SOL    HW125607   0.701   1.111   1.345 -2.7750 -1.7660 -0.4457
 4716SOL    HW225608   0.659   0.998   1.424 -0.5721 -0.2455  2.7377
 4717SOL     OW25609   0.990   2.058  16.457  0.6857  0.0718  0.7810
 4717SOL    HW125610   0.905   2.084  16.493  1.0773  1.5800  0.6348
 4717SOL    HW225611   1.041   2.070  16.538 -1.6947 -0.2101  2.3154
 4718SOL     OW25612   4.418   2.063  15.928 -0.2396 -0.1026  0.1995
 4718SOL    HW125613   4.497   2.113  15.949 -1.5693  1.5350  1.3293
 4718SOL    HW225614   4.438   2.046  15.836 -1.7628 -0.5078 -0.0572
 4719SOL     OW25615   3.115   2.526   2.238  0.1191 -0.4958 -0.4883
 4719SOL    HW125616   3.036   2.572   2.266  1.0101  0.5841  0.2275
 4719SOL    HW225617   3.073   2.440   2.243  0.8555 -0.8638 -0.6577
 4720SOL     OW25618   4.570   0.339   3.632  0.0399 -0.2968  0.1397
 4720SOL    HW125619   4.635   0.357   3.565 -1.3522 -1.0976 -1.4405
 4720SOL    HW225620   4.492   0.367   3.583 -0.7275  0.1614  1.6251
 4721SOL     OW25621   4.309   4.305   6.019 -0.2971 -0.1566 -0.1649
 4721SOL    HW125622   4.301   4.224   6.069 -0.5693  0.0840  0.1796
 4721SOL    HW225623   4.219   4.329   5.996 -1.3551 -0.5796  3.4714
 4722SOL     OW25624   1.006   2.754   3.452 -0.3890 -0.6526 -0.2118
 4722SOL    HW125625   0.968   2.739   3.538  1.6110 -0.4903  0.7125
 4722SOL    HW225626   1.058   2.674   3.450  1.7234  0.6856  1.2683
 4723SOL     OW25627   0.360   3.006   8.001 -0.6762  0.3895 -0.1879
 4723SOL    HW125628   0.337   2.938   7.938 -0.9511 -0.4414  0.8193
 4723SOL    HW225629   0.441   2.976   8.042 -1.7682  1.6232  2.8295
 4724SOL     OW25630   3.648   0.779   4.175  0.3769  0.3397  0.0862
 4724SOL    HW125631   3.635   0.700   4.227 -2.3283  2.1439  2.2006
 4724SOL    HW225632   3.606   0.839   4.237 -0.7823  2.5141 -2.7905
 4725SOL     OW25633   0.531   0.423   3.455 -0.1866 -0.0624 -0.6200
 4725SOL    HW125634   0.486   0.415   3.371  0.6542 -0.5799 -1.0229
 4725SOL    HW225635   0.556   0.332   3.473  1.3941  0.7476  1.2711
 4726SOL     OW25636   3.282   1.058   4.514 -0.2158  0.7918 -0.5201
 4726SOL    HW125637   3.211   1.027   4.457  0.4324  0.8545 -1.3637
 4726SOL    HW225638   3.280   1.005   4.594 -3.8002  0.1042 -1.0591
 4727SOL     OW25639   4.642   1.875   7.144 -0.2031  0.0609 -0.3438
 4727SOL    HW125640   0.011   1.874   7.180 -0.1389  0.5084 -0.4914
 4727SOL    HW225641   4.620   1.968   7.144 -2.0781 -0.3863  0.3920
 4728SOL     OW25642   4.162   3.172   4.844 -0.0472 -0.3259  0.3746
 4728SOL    HW125643   4.089   3.150   4.787 -0.1754  1.7453 -0.2715
 4728SOL    HW225644   4.128   3.232   4.911  2.0471  0.4500  0.7553
 4729SOL     OW25645   2.035   4.605   3.379  0.0160 -0.1043  0.0267
 4729SOL    HW125646   2.129   4.584   3.382 -0.1474 -0.5819  1.5670
 4729SOL    HW225647   2.007   4.521   3.342 -0.6465  0.5052 -0.8622
 4730SOL     OW25648   3.797   3.619   1.833 -0.0809  0.2695  0.0453
 4730SOL    HW125649   3.734   3.672   1.882 -0.3504 -0.3891  0.4166
 4730SOL    HW225650   3.791   3.666   1.750  1.7209  0.6013  0.0994
 4731SOL     OW25651   1.798   1.707  14.790 -0.0414 -0.4764  0.6608
 4731SOL    HW125652   1.721   1.655  14.811 -1.3109  1.2296  0.1653
 4731SOL    HW225653   1.828   1.640  14.729 -3.4758 -0.7681 -0.6668
 4732SOL     OW25654   2.198   3.549  11.737  0.4572 -0.0889  0.3266
 4732SOL    HW125655   2.216   3.642  11.752 -1.9720  0.2697  0.9340
 4732SOL    HW225656   2.103   3.541  11.729  0.2136  1.6670  1.3865
 4733SOL     OW25657   2.765   0.519   6.743  0.0506 -0.0300  0.2171
 4733SOL    HW125658   2.686   0.573   6.749 -0.4308 -0.2778 -3.6622
 4733SOL    HW225659   2.813   0.551   6.667  0.8182  2.5971  1.8271
 4734SOL     OW25660   0.794   0.814  17.210  0.7540  0.0023  0.5681
 4734SOL    HW125661   0.756   0.746  17.266  0.7826  0.5596  1.2599
 4734SOL    HW225662   0.712   0.845  17.171  1.3669  0.0720 -0.6506
 4735SOL     OW25663   2.212   0.143  12.394 -0.0696 -0.4286  0.0185
 4735SOL    HW125664   2.162   0.071  12.432  2.8966 -1.3854  2.1216
 4735SOL    HW225665   2.139   0.194  12.359  0.1268  1.3336  2.1862
 4736SOL     OW25666   2.727   1.268   4.037 -0.3690 -0.1852  0.2571
 4736SOL    HW125667   2.776   1.325   4.096  2.9115 -1.6729 -1.0670
 4736SOL    HW225668   2.658   1.233   4.093 -0.6803 -0.6545 -0.4153
 4737SOL     OW25669   1.854   4.099   2.706  0.2024  0.0568 -0.3656
 4737SOL    HW125670   1.874   4.005   2.709 -0.9819 -0.0890  2.9598
 4737SOL    HW225671   1.787   4.107   2.637 -0.9544  1.2177  0.9061
 4738SOL     OW25672   1.862   2.148   3.468  0.0236  0.1461 -0.1761
 4738SOL    HW125673   1.776   2.189   3.461 -1.0833 -2.0141  0.7261
 4738SOL    HW225674   1.912   2.196   3.403 -0.4956 -0.4998 -1.0518
 4739SOL     OW25675   2.207   4.693  12.722  0.2585  0.0112  0.3376
 4739SOL    HW125676   2.210   4.616  12.779  2.1193 -0.8585 -0.9446
 4739SOL    HW225677   2.284   0.017  12.759  1.0507 -0.3134 -0.9565
 4740SOL     OW25678   4.686   0.815   8.479  0.4101 -0.2847  0.1663
 4740SOL    HW125679   0.039   0.872   8.456 -0.5192  0.7344 -0.2521
 4740SOL    HW225680   4.704   0.744   8.417 -0.8794  0.7162 -1.3674
 4741SOL     OW25681   1.611   0.655   9.636  0.0271  0.0562 -0.6529
 4741SOL    HW125682   1.526   0.636   9.596  0.7431  0.2072 -2.2564
 4741SOL    HW225683   1.587   0.641   9.727  1.0410 -1.1088 -0.5651
 4742SOL     OW25684   2.512   2.693   2.916  0.5650  0.0395 -0.2139
 4742SOL    HW125685   2.521   2.742   2.997 -2.1425  0.0717  0.0625
 4742SOL    HW225686   2.538   2.767   2.862 -0.2676  0.7831  0.4136
 4743SOL     OW25687   4.138   1.095   2.133 -0.0108 -0.4912  0.5530
 4743SOL    HW125688   4.058   1.092   2.081  0.8262  1.8294 -0.8803
 4743SOL    HW225689   4.096   1.096   2.219  0.4453 -2.0923  0.8039
 4744SOL     OW25690   1.411   2.431  15.267 -0.2485 -0.5207  0.2097
 4744SOL    HW125691   1.400   2.493  15.196 -1.7751 -1.4118 -0.3361
 4744SOL    HW225692   1.506   2.437  15.281 -0.8378  2.7643  2.8175
 4745SOL     OW25693   0.787   0.586   0.792  0.0551  0.3848  0.1928
 4745SOL    HW125694   0.701   0.578   0.832  0.1919  5.2452  1.4787
 4745SOL    HW225695   0.770   0.556   0.702 -0.2259  1.5013 -0.1225
 4746SOL     OW25696   3.860   1.547   3.443  0.0013 -0.3400 -0.5987
 4746SOL    HW125697   3.823   1.635   3.443  0.1385 -0.2819 -0.9216
 4746SOL    HW225698   3.919   1.554   3.368  0.7567 -1.8043 -0.1400
 4747SOL     OW25699   0.342   4.479   3.179  0.6169 -0.3325 -0.3610
 4747SOL    HW125700   0.246   4.474   3.187  0.5423  0.5119 -0.7036
 4747SOL    HW225701   0.364   4.390   3.203 -0.7974 -0.7558 -0.6073
 4748SOL     OW25702   3.307   0.936   8.637 -0.2768 -0.4902 -0.0600
 4748SOL    HW125703   3.265   0.881   8.571 -0.1354 -0.3979 -0.2250
 4748SOL    HW225704   3.280   1.019   8.597  2.0276  0.4161  0.2624
 4749SOL     OW25705   0.689   3.697   5.827 -0.0269  0.1700  0.4822
 4749SOL    HW125706   0.728   3.733   5.907  0.1751  0.1070  0.4138
 4749SOL    HW225707   0.742   3.617   5.823 -0.6195 -0.4127  3.8771
 4750SOL     OW25708   2.675   3.591  16.867  0.0873  0.1316 -0.3663
 4750SOL    HW125709   2.760   3.633  16.868  0.2550 -0.2003 -0.8052
 4750SOL    HW225710   2.611   3.659  16.887  0.3819 -0.2189  1.8434
 4751SOL     OW25711   2.202   1.349   5.392 -0.0198 -0.1285 -0.2344
 4751SOL    HW125712   2.244   1.389   5.316  0.6862 -2.3059 -0.9911
 4751SOL    HW225713   2.108   1.353   5.373  0.3734  1.8717 -1.7095
 4752SOL     OW25714   3.801   2.889   2.469  0.3800 -0.2026  0.1606
 4752SOL    HW125715   3.830   2.917   2.381  0.7323 -1.9787 -0.2923
 4752SOL    HW225716   3.717   2.845   2.452 -0.3074  1.0358  0.4006
 4753SOL     OW25717   2.473   4.117   6.354 -0.6126 -0.4047  0.0863
 4753SOL    HW125718   2.486   4.153   6.265  1.0974 -0.9336  0.1271
 4753SOL    HW225719   2.508   4.186   6.411 -2.7747  1.3872 -0.7523
 4754SOL     OW25720   0.911   4.506   1.554 -0.1685  0.4656  0.0114
 4754SOL    HW125721   0.883   4.420   1.521  0.3476 -0.7183  2.6882
 4754SOL    HW225722   0.981   4.526   1.492 -1.4295  0.7397 -1.3481
 4755SOL     OW25723   2.831   0.456   3.757 -0.1387  0.3926  0.3554
 4755SOL    HW125724   2.867   0.418   3.837 -0.7516 -1.1316 -0.0905
 4755SOL    HW225725   2.913   0.465   3.709  0.5237  1.5201  1.7073
 4756SOL     OW25726   0.212   2.250  17.406 -0.8394 -0.2374  0.2160
 4756SOL    HW125727   0.248   2.287  17.325 -0.9701  2.1291  1.2111
 4756SOL    HW225728   0.150   2.320  17.429  0.8626  1.6295 -0.8189
 4757SOL     OW25729   1.894   1.927  17.462 -0.0382  0.1704  0.4239
 4757SOL    HW125730   1.925   2.018  17.470  0.7991 -0.2879  2.2548
 4757SOL    HW225731   1.843   1.900  17.538 -1.3355 -0.3384 -0.6329
 4758SOL     OW25732   0.801   2.845   8.320 -0.0969 -0.0405  0.5265
 4758SOL    HW125733   0.823   2.762   8.279  3.3006  0.2425  1.8121
 4758SOL    HW225734   0.745   2.826   8.395 -0.5033 -1.7389 -0.2165
 4759SOL     OW25735   4.101   1.585   7.624 -0.3661 -0.2143  0.4902
 4759SOL    HW125736   4.190   1.600   7.654 -0.4534  0.1411  0.5698
 4759SOL    HW225737   4.116   1.520   7.556 -0.3584 -0.3799  0.6471
 4760SOL     OW25738   4.256   1.397   5.453  0.0744 -0.4772 -0.4240
 4760SOL    HW125739   4.287   1.444   5.376 -1.3265  0.2629 -0.5338
 4760SOL    HW225740   4.174   1.358   5.421  0.5840 -2.0735  0.1692
 4761SOL     OW25741   2.378   1.894   4.559  0.0692 -0.3085 -0.2603
 4761SOL    HW125742   2.369   1.966   4.497 -3.8210  0.1299  0.8117
 4761SOL    HW225743   2.395   1.823   4.498  2.5242 -0.1509  0.2294
 4762SOL     OW25744   3.532   3.601   5.092 -1.0553  0.9106  1.0190
 4762SOL    HW125745   3.538   3.638   5.004 -1.4283 -0.5081  0.3963
 4762SOL    HW225746   3.595   3.656   5.139  1.0044 -0.3226 -0.3088
 4763SOL     OW25747   4.355   0.343  16.124 -0.3061  0.0408  0.5815
 4763SOL    HW125748   4.319   0.424  16.087 -1.9138 -0.9308 -0.0229
 4763SOL    HW225749   4.328   0.275  16.062  2.7562 -0.0046 -0.7214
 4764SOL     OW25750   0.991   1.736  11.000  0.1155 -0.0336 -0.4373
 4764SOL    HW125751   0.920   1.735  10.936 -0.5070  0.7035  0.2252
 4764SOL    HW225752   1.004   1.645  11.024  0.3721  0.8650  2.8709
 4765SOL     OW25753   1.522   2.224   6.555 -0.0801  0.0994  0.3371
 4765SOL    HW125754   1.486   2.304   6.516  0.0949 -0.8979 -1.8715
 4765SOL    HW225755   1.467   2.217   6.633  0.8462 -1.9898  0.7982
 4766SOL     OW25756   4.271   2.031   6.442 -0.2152 -0.5442 -0.3363
 4766SOL    HW125757   4.251   1.949   6.488  0.4673  0.1185  1.1605
 4766SOL    HW225758   4.309   2.081   6.514  0.6398  0.4391 -1.4812
 4767SOL     OW25759   0.200   3.012  17.457  0.0469 -0.0590 -0.5737
 4767SOL    HW125760   0.262   2.994  17.387 -0.1607  1.5493 -1.1658
 4767SOL    HW225761   0.152   3.084  17.416  2.1995  1.6585 -0.1032
 4768SOL     OW25762   0.136   0.425   1.872  0.1600  0.0995  0.4191
 4768SOL    HW125763   0.086   0.491   1.824 -0.9909 -1.2168 -0.1713
 4768SOL    HW225764   0.195   0.390   1.806  1.0794  3.4252 -0.5448
 4769SOL     OW25765   2.656   0.113   4.333 -0.0503  0.1271  1.0886
 4769SOL    HW125766   2.687   0.202   4.320 -0.9511  0.4381  1.0678
 4769SOL    HW225767   2.637   0.123   4.426 -0.2822 -2.1472  1.2884
 4770SOL     OW25768   1.092   1.839   8.085 -0.0789 -0.0657 -0.3934
 4770SOL    HW125769   1.041   1.814   8.162 -2.1023  0.3084 -1.6253
 4770SOL    HW225770   1.107   1.754   8.043 -2.1352 -0.3279 -0.6000
 4771SOL     OW25771   1.142   0.321  13.504  0.2869  0.6412 -0.4141
 4771SOL    HW125772   1.056   0.356  13.481  1.0946  2.2966 -0.9605
 4771SOL    HW225773   1.194   0.341  13.426  0.2399 -0.9095 -0.8323
 4772SOL     OW25774   0.653   4.594  15.803 -0.5489 -0.1207 -0.4577
 4772SOL    HW125775   0.679   4.526  15.866  1.3707  1.5102  0.5237
 4772SOL    HW225776   0.558   4.590  15.805 -0.5441 -0.4516 -0.8136
 4773SOL     OW25777   3.719   3.066  12.556 -0.0809  0.4202  0.2575
 4773SOL    HW125778   3.631   3.078  12.592  0.0241  0.1260  0.6057
 4773SOL    HW225779   3.686   3.004  12.491 -1.6967  1.2171  0.3019
 4774SOL     OW25780   0.422   1.840   5.348 -0.0829  0.8552  0.0419
 4774SOL    HW125781   0.417   1.791   5.266  1.2646  1.6552 -0.5233
 4774SOL    HW225782   0.390   1.773   5.408  0.0091  0.4250 -0.3885
 4775SOL     OW25783   1.332   2.925  14.368 -0.3055 -0.5528 -0.2206
 4775SOL    HW125784   1.330   2.903  14.461 -0.1913  1.8111  0.3505
 4775SOL    HW225785   1.241   2.926  14.340  0.1080  0.1692 -1.6059
 4776SOL     OW25786   4.670   2.205  13.650 -0.5845  0.1240 -0.0122
 4776SOL    HW125787   4.701   2.128  13.602 -1.7938 -1.1600  1.2710
 4776SOL    HW225788   4.707   2.170  13.730 -0.8314  0.9123  0.4531
 4777SOL     OW25789   0.780   2.260   4.074 -0.1141  0.0482  0.3294
 4777SOL    HW125790   0.711   2.326   4.070 -1.1630 -1.2200 -2.0363
 4777SOL    HW225791   0.807   2.267   4.166 -1.0326  1.3431  0.5105
 4778SOL     OW25792   2.480   3.052  10.604  0.1028 -0.0607 -0.4857
 4778SOL    HW125793   2.436   3.079  10.523  1.7492  2.3111 -0.5615
 4778SOL    HW225794   2.561   3.014  10.571 -0.1740 -0.9035 -0.2154
 4779SOL     OW25795   4.372   3.845   7.871  0.4555 -0.3089 -0.1022
 4779SOL    HW125796   4.308   3.908   7.904  1.6697  0.8614  0.0272
 4779SOL    HW225797   4.428   3.903   7.819  1.1128  0.2348  1.2193
 4780SOL     OW25798   4.447   1.534  13.153 -0.0664 -0.7531 -0.3777
 4780SOL    HW125799   4.375   1.527  13.215 -2.2379  0.5015 -2.7290
 4780SOL    HW225800   4.465   1.441  13.141 -1.1837 -1.6028  4.5883
 4781SOL     OW25801   1.977   1.184   7.078  0.0730  0.2629  0.8689
 4781SOL    HW125802   2.056   1.201   7.027  0.3072  0.4640  1.2906
 4781SOL    HW225803   1.925   1.265   7.080  0.7355  0.6796  1.4390
 4782SOL     OW25804   3.761   0.018   9.553  0.0899 -0.3972  0.5899
 4782SOL    HW125805   3.808   0.101   9.562  1.5881 -1.0644 -1.0934
 4782SOL    HW225806   3.683   0.028   9.607  0.6064  2.8738  0.7059
 4783SOL     OW25807   4.423   1.330   1.651 -0.0073 -0.1225 -0.1160
 4783SOL    HW125808   4.340   1.282   1.650  0.7632 -1.4715  0.1111
 4783SOL    HW225809   4.409   1.374   1.735  1.9632 -0.0052  0.1705
 4784SOL     OW25810   4.087   3.297   4.508 -0.5019 -0.2477  0.0875
 4784SOL    HW125811   4.130   3.288   4.593  0.6258  1.1184 -0.3572
 4784SOL    HW225812   4.021   3.366   4.510 -0.4703 -0.2169  0.0782
 4785SOL     OW25813   4.246   3.135   8.916  0.0397 -0.5981 -0.4076
 4785SOL    HW125814   4.275   3.120   8.826  2.1824  1.0275  0.0159
 4785SOL    HW225815   4.261   3.228   8.930  1.7889 -1.0231  0.5966
 4786SOL     OW25816   3.499   2.291   8.620  0.6077 -0.3433  0.3070
 4786SOL    HW125817   3.494   2.201   8.651 -0.1695 -0.9413 -1.5127
 4786SOL    HW225818   3.581   2.332   8.646 -0.0780  0.5548  1.0221
 4787SOL     OW25819   1.518   2.932  14.152 -0.0431  0.2921 -0.3095
 4787SOL    HW125820   1.468   2.946  14.232 -1.5702  0.8241 -1.3691
 4787SOL    HW225821   1.444   2.920  14.094  0.8252 -2.9375 -0.7348
 4788SOL     OW25822   1.931   2.202  12.344  0.4824 -0.7741  0.1623
 4788SOL    HW125823   1.940   2.187  12.438 -0.9148  0.0230  0.4238
 4788SOL    HW225824   2.015   2.161  12.325  1.9421  0.9164  3.0492
 4789SOL     OW25825   1.309   2.157   5.047  0.3161  0.1282  0.5062
 4789SOL    HW125826   1.351   2.242   5.058 -0.4772  0.5210  0.4730
 4789SOL    HW225827   1.239   2.190   4.991  0.3395  0.3974  0.6337
 4790SOL     OW25828   3.655   0.148  16.798  0.1241  0.4873  0.1694
 4790SOL    HW125829   3.676   0.170  16.889  0.0744  1.0563  0.0426
 4790SOL    HW225830   3.571   0.104  16.809 -0.1081  1.0710  0.7673
 4791SOL     OW25831   1.848   3.959  15.574 -0.2963  0.8136 -0.5528
 4791SOL    HW125832   1.822   4.010  15.497  0.3636  0.6274 -0.9015
 4791SOL    HW225833   1.766   3.916  15.596  0.2903 -0.4447 -0.8574
 4792SOL     OW25834   2.808   0.573  11.822  0.0393 -0.0168  0.3145
 4792SOL    HW125835   2.821   0.666  11.800 -0.1474 -0.6782 -2.5885
 4792SOL    HW225836   2.716   0.553  11.836 -0.1917  1.4744  0.9643
 4793SOL     OW25837   2.954   2.364   6.700  0.1254 -0.5390 -0.1897
 4793SOL    HW125838   2.958   2.352   6.795 -0.3761  0.6374 -0.0240
 4793SOL    HW225839   3.045   2.386   6.681  0.9357 -0.3756  3.8498
 4794SOL     OW25840   3.308   0.604  15.774 -0.5787 -0.1639 -0.1912
 4794SOL    HW125841   3.330   0.684  15.821 -1.3307 -1.5835  2.5612
 4794SOL    HW225842   3.311   0.543  15.848  1.2499 -1.0264 -0.9856
 4795SOL     OW25843   4.542   2.787  15.211 -0.2813  0.4464  0.3406
 4795SOL    HW125844   4.508   2.723  15.274  0.7666  0.0410  0.4894
 4795SOL    HW225845   4.477   2.856  15.219  0.9763  1.5484  1.0073
 4796SOL     OW25846   0.326   3.969   4.375  0.1423  0.0727  0.1384
 4796SOL    HW125847   0.384   3.962   4.451  1.2762  2.9235 -0.4738
 4796SOL    HW225848   0.330   3.885   4.330 -0.1900  0.6230 -0.9123
 4797SOL     OW25849   1.182   0.706   6.708  0.0805  0.0691  0.4488
 4797SOL    HW125850   1.216   0.716   6.797 -0.0462 -2.9957  0.8590
 4797SOL    HW225851   1.244   0.636   6.686  0.6159  0.2057  1.4979
 4798SOL     OW25852   0.478   0.927  14.281 -0.1295  0.1711 -0.8131
 4798SOL    HW125853   0.400   0.872  14.277  0.0576 -0.1099 -0.6283
 4798SOL    HW225854   0.492   0.936  14.187  0.2070  3.5361 -0.4291
 4799SOL     OW25855   1.447   4.324   6.779  0.1418  0.5804  0.1823
 4799SOL    HW125856   1.504   4.371   6.718 -1.2251  2.7745  0.5761
 4799SOL    HW225857   1.507   4.281   6.840  2.0141  0.7896 -1.5166
 4800SOL     OW25858   1.624   4.440  14.907  0.0821  0.6365 -0.5255
 4800SOL    HW125859   1.670   4.463  14.988  0.2374 -0.5617 -0.2719
 4800SOL    HW225860   1.537   4.440  14.948  0.9847  1.1350  1.3670
 4801SOL     OW25861   0.385   1.925   4.381  0.5688  0.4374 -0.0863
 4801SOL    HW125862   0.455   1.989   4.365  0.4418  1.1120  2.1040
 4801SOL    HW225863   0.416   1.894   4.466  1.6439 -1.0368 -1.0230
 4802SOL     OW25864   4.138   1.892   3.422 -0.9572 -0.2067  0.3483
 4802SOL    HW125865   4.190   1.811   3.423 -0.5473  0.0361 -0.8159
 4802SOL    HW225866   4.145   1.904   3.327  1.8505  0.7240  0.6794
 4803SOL     OW25867   4.669   1.874   4.238  0.1357 -0.3052 -0.2284
 4803SOL    HW125868   0.043   1.887   4.229  0.2167 -1.6366 -1.3111
 4803SOL    HW225869   4.657   1.866   4.333 -0.9405 -0.1295 -0.3415
 4804SOL     OW25870   4.623   0.103   6.321 -0.6647 -0.0978  0.2241
 4804SOL    HW125871   4.625   0.136   6.410 -1.4816  1.4767 -0.3452
 4804SOL    HW225872   4.694   0.039   6.327 -0.9469 -0.3845  0.5113
 4805SOL     OW25873   2.042   1.732  11.979 -0.4311  0.1666  0.3396
 4805SOL    HW125874   1.997   1.651  11.956  0.8883 -0.0446 -1.5476
 4805SOL    HW225875   1.964   1.783  11.997 -0.5973  0.7790 -2.0725
 4806SOL     OW25876   3.747   2.773  14.978 -0.3437 -0.8936  0.5042
 4806SOL    HW125877   3.821   2.740  14.926 -1.3996 -0.0966 -1.5094
 4806SOL    HW225878   3.793   2.771  15.062  0.8522 -0.1865 -0.1378
 4807SOL     OW25879   1.952   2.198  17.530 -0.1239 -0.3666 -0.1707
 4807SOL    HW125880   2.048   2.200  17.527 -0.1121 -1.8128 -0.6451
 4807SOL    HW225881   1.926   2.255  17.458 -0.8485 -0.3921  0.0774
 4808SOL     OW25882   3.879   2.092   8.444 -0.5256  0.0867 -0.0586
 4808SOL    HW125883   3.789   2.104   8.412 -0.1099  1.5169 -0.6823
 4808SOL    HW225884   3.924   2.050   8.371  0.7096  0.2952  0.5839
 4809SOL     OW25885   2.296   3.977   0.152 -0.3812 -0.0557  0.2205
 4809SOL    HW125886   2.287   3.929   0.070 -2.2093  0.1483  0.2947
 4809SOL    HW225887   2.207   4.008   0.172 -0.3795 -0.9033  1.6213
 4810SOL     OW25888   1.767   0.474   5.975 -0.1074 -0.0289 -0.4426
 4810SOL    HW125889   1.725   0.560   5.984 -2.6793 -1.2919 -0.1581
 4810SOL    HW225890   1.804   0.469   6.063 -0.4258  0.7055 -0.2627
 4811SOL     OW25891   1.000   4.362  15.760  0.6185 -0.7403 -0.3993
 4811SOL    HW125892   0.934   4.321  15.703  1.0946  3.0049 -3.6400
 4811SOL    HW225893   0.973   4.453  15.756  0.8938 -0.5218  3.0380
 4812SOL     OW25894   2.526   0.609  11.797 -0.1335  0.0201  0.0441
 4812SOL    HW125895   2.478   0.643  11.721  1.5265 -1.4955 -1.6901
 4812SOL    HW225896   2.508   0.519  11.769  1.3312 -1.2782  3.2615
 4813SOL     OW25897   2.032   3.938  17.555  0.2076 -0.0347 -0.4299
 4813SOL    HW125898   2.111   3.913  17.603 -0.6329 -0.7574  0.5738
 4813SOL    HW225899   2.044   3.883  17.478  2.6968 -0.6269  0.3743
 4814SOL     OW25900   0.921   4.444  16.243 -0.7977  0.3668  0.1431
 4814SOL    HW125901   0.949   4.365  16.198 -0.6083 -0.0172  0.9223
 4814SOL    HW225902   0.983   4.509  16.211 -0.2064  0.8041  2.1529
 4815SOL     OW25903   1.385   4.352   7.558 -0.0638  0.9129 -0.0570
 4815SOL    HW125904   1.320   4.391   7.616 -0.0143  1.5459 -0.4279
 4815SOL    HW225905   1.381   4.263   7.595  1.8268  0.1741 -1.5899
 4816SOL     OW25906   2.576   1.162   7.884 -0.0460  0.2066 -0.3912
 4816SOL    HW125907   2.510   1.172   7.952  0.5466 -0.7495  0.3193
 4816SOL    HW225908   2.652   1.213   7.913 -0.2601 -0.5863  1.5258
 4817SOL     OW25909   4.248   1.006   3.116  0.1796  0.0360 -0.4948
 4817SOL    HW125910   4.262   1.015   3.210  1.2837 -1.1743 -0.5334
 4817SOL    HW225911   4.155   1.026   3.107  0.2044  1.5002  2.7503
 4818SOL     OW25912   3.773   4.665   7.618 -0.1854  0.4364 -0.7455
 4818SOL    HW125913   3.781   4.694   7.527 -2.4297  3.3989 -0.0146
 4818SOL    HW225914   3.788   4.571   7.606  2.8269  0.6436  1.4837
 4819SOL     OW25915   3.631   4.624   9.348 -0.2930 -0.1363  1.0004
 4819SOL    HW125916   3.652   4.697   9.291  1.5211 -2.0323 -0.7394
 4819SOL    HW225917   3.697   4.656   9.409 -1.0728 -0.1226  1.8367
 4820SOL     OW25918   3.563   3.508   4.079 -0.2611 -0.2265 -0.1810
 4820SOL    HW125919   3.521   3.424   4.062 -0.1615 -0.3348  0.1118
 4820SOL    HW225920   3.522   3.565   4.014 -0.6848  1.1273  1.3055
 4821SOL     OW25921   3.777   2.144   8.814  0.5564 -0.3267 -0.0638
 4821SOL    HW125922   3.781   2.239   8.813 -0.7729 -0.2560  1.2558
 4821SOL    HW225923   3.848   2.122   8.753  0.6383 -0.5758  0.1228
 4822SOL     OW25924   2.731   1.552   7.944  0.2502  0.0280  0.0074
 4822SOL    HW125925   2.763   1.470   7.981 -1.5740 -1.1868 -1.0923
 4822SOL    HW225926   2.788   1.552   7.867 -0.3822 -0.6820 -0.4625
 4823SOL     OW25927   1.251   4.204  14.895 -0.2309 -0.1381 -0.3379
 4823SOL    HW125928   1.286   4.212  14.806 -1.8840 -0.0193 -0.9812
 4823SOL    HW225929   1.297   4.281  14.929  0.2327 -0.6257  0.1343
 4824SOL     OW25930   1.491   4.557  14.248  0.1195 -0.6023  0.0283
 4824SOL    HW125931   1.539   4.483  14.211  1.0068 -0.9805  1.9691
 4824SOL    HW225932   1.569   4.604  14.277  0.3650 -0.6047 -0.6217
 4825SOL     OW25933   2.553   2.571   2.669  0.4994  0.1104  0.0191
 4825SOL    HW125934   2.533   2.624   2.747  0.5063 -0.7329  0.5932
 4825SOL    HW225935   2.611   2.506   2.708  0.8067  0.1883 -0.3071
 4826SOL     OW25936   0.543   3.695   2.857 -0.9365 -0.5200 -0.1265
 4826SOL    HW125937   0.504   3.772   2.898 -1.8187  0.2533 -2.4290
 4826SOL    HW225938   0.473   3.653   2.808  1.0082 -1.0860 -2.3984
 4827SOL     OW25939   3.185   3.461   2.168  0.0658 -0.7322 -1.1836
 4827SOL    HW125940   3.231   3.538   2.201  0.2186 -1.8902  1.2539
 4827SOL    HW225941   3.250   3.406   2.122  1.0431  0.2548 -0.9841
 4828SOL     OW25942   0.633   4.236  17.233 -0.1049  0.7411  0.2572
 4828SOL    HW125943   0.671   4.281  17.308 -0.2046  1.2633 -0.0069
 4828SOL    HW225944   0.698   4.169  17.210 -1.0159  0.0934 -0.4267
 4829SOL     OW25945   0.054   0.880   6.318 -0.2455  0.2164 -0.0359
 4829SOL    HW125946   0.121   0.819   6.348 -1.2011 -0.4614  0.7348
 4829SOL    HW225947   4.696   0.826   6.304  0.2656 -0.6400  0.4536
 4830SOL     OW25948   3.776   3.182   6.056  0.4593  0.6742  0.1406
 4830SOL    HW125949   3.834   3.217   6.124  1.9121  2.4869 -2.0463
 4830SOL    HW225950   3.726   3.259   6.028 -1.2832 -0.6372 -0.3805
 4831SOL     OW25951   1.339   1.205  12.448  0.2240  0.2085  0.4901
 4831SOL    HW125952   1.432   1.219  12.431  0.0400  1.0268  0.1494
 4831SOL    HW225953   1.335   1.125  12.396 -1.6324  0.2831  0.5098
 4832SOL     OW25954   4.009   4.416   3.446 -0.0351  0.3300 -0.4712
 4832SOL    HW125955   4.031   4.341   3.391 -2.4360 -0.5169 -0.2787
 4832SOL    HW225956   3.989   4.480   3.377 -0.7199 -0.3389 -0.8832
 4833SOL     OW25957   4.226   4.623  13.047  0.1584  0.4682  0.7569
 4833SOL    HW125958   4.249   4.713  13.023  1.7612 -0.4227 -1.0983
 4833SOL    HW225959   4.283   4.571  12.989 -0.0251  0.0233  0.9767
 4834SOL     OW25960   0.985   3.630   2.498  0.4032  0.2838  0.1943
 4834SOL    HW125961   0.941   3.674   2.425 -0.3698  1.1800  1.1872
 4834SOL    HW225962   0.917   3.654   2.561 -0.6638 -0.2276 -0.7718
 4835SOL     OW25963   0.530   3.839   3.895  0.0785 -0.3377 -0.3336
 4835SOL    HW125964   0.621   3.869   3.902 -0.6811  1.8488  0.3511
 4835SOL    HW225965   0.520   3.835   3.990  0.4442  1.1869 -0.2241
 4836SOL     OW25966   0.414   1.933  17.288 -0.2292  0.2420  0.5207
 4836SOL    HW125967   0.430   2.010  17.234 -1.4089  0.5343  0.5800
 4836SOL    HW225968   0.474   1.945  17.362 -0.7003  1.0264  0.7730
 4837SOL     OW25969   0.397   3.964   8.623  0.1543  0.2000  0.1823
 4837SOL    HW125970   0.366   4.054   8.615  0.7193  0.4760  1.1348
 4837SOL    HW225971   0.439   3.955   8.708  1.0415 -0.8268 -0.3520
 4838SOL     OW25972   1.132   4.465   7.669 -0.3474  0.0099 -0.4035
 4838SOL    HW125973   1.118   4.504   7.755  0.3873 -0.3005 -0.1507
 4838SOL    HW225974   1.042   4.444   7.644  0.2419 -0.1410 -2.4176
 4839SOL     OW25975   0.422   1.139   3.323 -0.3018 -0.3265 -0.7531
 4839SOL    HW125976   0.390   1.138   3.413  1.1340 -1.8404 -0.2579
 4839SOL    HW225977   0.438   1.045   3.314  1.5251 -0.1936  1.0268
 4840SOL     OW25978   0.918   4.196   5.085 -0.3269  0.0723 -0.3113
 4840SOL    HW125979   0.910   4.215   5.179 -1.1968 -2.2334  0.0843
 4840SOL    HW225980   1.013   4.201   5.073 -0.3599 -2.3848 -1.6606
 4841SOL     OW25981   1.271   2.087  15.341 -0.0126  0.2338  0.1513
 4841SOL    HW125982   1.302   2.016  15.397  2.2009  1.8598  0.9486
 4841SOL    HW225983   1.236   2.028  15.274 -0.0310  0.6503 -0.2027
 4842SOL     OW25984   0.496   3.656   7.875  0.0115  0.3773 -0.1804
 4842SOL    HW125985   0.485   3.668   7.969  0.4986 -0.2359 -0.0461
 4842SOL    HW225986   0.433   3.585   7.863  1.4220 -0.7219 -1.1828
 4843SOL     OW25987   3.275   1.423   0.155 -0.5427  0.2096  0.2712
 4843SOL    HW125988   3.196   1.393   0.200 -0.2024 -1.4656 -0.2472
 4843SOL    HW225989   3.289   1.502   0.207  0.1942  0.2365  0.0402
 4844SOL     OW25990   3.688   0.052   4.016 -0.0537 -0.1433 -0.5085
 4844SOL    HW125991   3.630   0.084   3.947 -0.5427 -2.4363 -1.1783
 4844SOL    HW225992   3.768   0.033   3.967  1.6298  3.4126  0.9210
 4845SOL     OW25993   4.101   3.929   9.941  0.0904 -0.6518 -0.1281
 4845SOL    HW125994   4.023   3.984   9.944  0.5254  0.0787 -2.1442
 4845SOL    HW225995   4.089   3.879  10.022  1.4462 -1.0611 -0.1655
 4846SOL     OW25996   0.256   0.505   7.297  0.6480 -0.5712  0.3736
 4846SOL    HW125997   0.178   0.553   7.324  0.5339 -0.4872 -0.1149
 4846SOL    HW225998   0.307   0.584   7.276  1.1525 -1.4635 -1.6810
 4847SOL     OW25999   1.523   1.300   4.045 -0.3798 -0.6416 -0.8185
 4847SOL    HW126000   1.433   1.305   4.012  0.2655 -0.1624 -2.5155
 4847SOL    HW226001   1.566   1.315   3.961  1.4541  1.9803  0.5949
 4848SOL     OW26002   3.583   3.642   1.524  0.1121 -0.0297  0.2441
 4848SOL    HW126003   3.558   3.668   1.436 -0.2558  0.2713  0.4385
 4848SOL    HW226004   3.638   3.718   1.546  0.9798 -0.8761  0.9934
 4849SOL     OW26005   3.942   3.324   5.229  0.6943 -0.9255 -0.2225
 4849SOL    HW126006   4.020   3.313   5.284  0.2047  0.8976  0.8653
 4849SOL    HW226007   3.970   3.356   5.144  1.0331 -2.4979 -0.6959
 4850SOL     OW26008   3.317   3.737   4.430 -0.3458  0.2839  0.2570
 4850SOL    HW126009   3.286   3.827   4.435 -2.4709 -0.6304  3.2010
 4850SOL    HW226010   3.380   3.765   4.363  1.8615 -2.5982  1.0907
 4851SOL     OW26011   0.878   3.498   5.765  0.1695 -0.1068  0.2855
 4851SOL    HW126012   0.940   3.480   5.836  1.3382 -0.7676 -0.9153
 4851SOL    HW226013   0.926   3.558   5.708  1.4073 -0.1177  1.3253
 4852SOL     OW26014   3.806   0.598  17.180  0.3516  0.4933 -0.2582
 4852SOL    HW126015   3.858   0.678  17.170  1.7702 -0.4704 -0.5826
 4852SOL    HW226016   3.869   0.542  17.226 -2.8728 -0.9108  2.4085
 4853SOL     OW26017   2.287   0.546   5.280 -0.6005  0.1264 -0.2169
 4853SOL    HW126018   2.253   0.551   5.191 -0.5503 -2.2887 -0.3925
 4853SOL    HW226019   2.380   0.550   5.259 -0.1773  0.5839  1.7225
 4854SOL     OW26020   2.153   3.568   4.784 -0.1321  0.0413  0.2482
 4854SOL    HW126021   2.105   3.497   4.826  0.3730  1.7801  3.7182
 4854SOL    HW226022   2.088   3.639   4.782 -1.3550 -1.1419 -2.9779
 4855SOL     OW26023   1.561   3.933  12.920 -0.1264  0.0972  0.0300
 4855SOL    HW126024   1.621   3.981  12.863 -0.2439  0.8940  0.5755
 4855SOL    HW226025   1.623   3.918  12.992 -0.3651  0.5321  0.3295
 4856SOL     OW26026   0.509   0.525   3.966 -0.3222 -0.1859  0.5062
 4856SOL    HW126027   0.531   0.439   4.003  0.1685 -0.0575  0.5077
 4856SOL    HW226028   0.469   0.494   3.884  0.4620 -0.3440  0.1809
 4857SOL     OW26029   0.034   2.897   5.274 -0.5409  0.0955  0.7759
 4857SOL    HW126030   0.095   2.947   5.328  0.1504 -1.6953  1.6836
 4857SOL    HW226031   0.012   2.959   5.205  2.5467  1.1514  0.7647
 4858SOL     OW26032   0.733   2.049  10.111 -0.5098  0.8216  0.2619
 4858SOL    HW126033   0.720   1.954  10.106 -2.1427  1.0724 -0.1954
 4858SOL    HW226034   0.747   2.079  10.201  0.6013  1.6948 -0.2012
 4859SOL     OW26035   2.480   3.952   6.607  1.0225  0.2718  0.1428
 4859SOL    HW126036   2.389   3.979   6.616  1.4499  1.6974  0.1874
 4859SOL    HW226037   2.516   4.036   6.577 -1.6461  1.2987 -0.2319
 4860SOL     OW26038   0.073   3.994   9.391  0.2577 -0.2730  0.4053
 4860SOL    HW126039   0.076   4.043   9.309 -1.9285 -0.2888  0.3211
 4860SOL    HW226040   4.709   3.950   9.379 -1.0971  2.3035  0.3918
 4861SOL     OW26041   2.203   1.946  11.485 -0.2559 -0.1816 -0.7856
 4861SOL    HW126042   2.222   1.971  11.395  0.8530  0.6363 -0.3224
 4861SOL    HW226043   2.123   1.996  11.500 -1.1207 -0.8572 -3.1616
 4862SOL     OW26044   3.743   3.197   4.718 -0.3817 -0.4942 -0.2259
 4862SOL    HW126045   3.675   3.213   4.653  0.9817 -2.0340 -2.0164
 4862SOL    HW226046   3.715   3.273   4.770 -1.6957  0.2557 -2.0580
 4863SOL     OW26047   1.733   4.404  16.860 -0.0792 -0.7035  0.1737
 4863SOL    HW126048   1.775   4.325  16.824  2.0960  1.2019 -1.4596
 4863SOL    HW226049   1.808   4.463  16.858 -1.7227  1.3738  0.7507
 4864SOL     OW26050   0.777   2.895  16.426 -0.2389 -0.0294  0.7154
 4864SOL    HW126051   0.862   2.908  16.384 -1.3611 -0.1475 -1.5562
 4864SOL    HW226052   0.806   2.923  16.513 -1.2877 -2.0839  1.7307
 4865SOL     OW26053   4.489   0.627   6.035 -0.2793 -0.2559  0.1712
 4865SOL    HW126054   4.510   0.684   6.108 -0.2883 -2.5185  1.9537
 4865SOL    HW226055   4.552   0.557   6.050  1.0435  0.5732 -1.4868
 4866SOL     OW26056   2.780   1.548   0.268  0.1616  0.2545 -0.3213
 4866SOL    HW126057   2.733   1.465   0.276 -2.7693  1.7252 -2.2325
 4866SOL    HW226058   2.739   1.601   0.337 -2.4760 -1.5955 -0.4707
 4867SOL     OW26059   2.039   0.659   6.713 -0.3017  0.3243 -0.0017
 4867SOL    HW126060   2.043   0.725   6.643 -3.0348  1.0382  0.5155
 4867SOL    HW226061   1.957   0.610   6.710 -0.8582  1.2268  0.2566
 4868SOL     OW26062   3.852   0.076   5.499  0.2999 -0.0108 -0.1284
 4868SOL    HW126063   3.841   0.166   5.528 -2.0714 -0.7958  1.4043
 4868SOL    HW226064   3.930   0.056   5.550 -0.7415 -1.9445  0.7015
 4869SOL     OW26065   4.298   0.170   7.700  0.0026  0.3056 -0.3223
 4869SOL    HW126066   4.334   0.082   7.691 -0.9803 -0.2683  1.4474
 4869SOL    HW226067   4.216   0.149   7.656  1.6339 -1.5345 -2.5110
 4870SOL     OW26068   0.423   1.598   5.998  0.4644 -0.8581  0.0752
 4870SOL    HW126069   0.451   1.573   6.085  0.6225 -1.0205 -0.0220
 4870SOL    HW226070   0.500   1.649   5.974  1.1726 -1.9650  0.0221
 4871SOL     OW26071   2.417   1.305   6.477 -0.2936  0.0027 -0.0449
 4871SOL    HW126072   2.346   1.291   6.415 -1.1584  0.4643  0.8418
 4871SOL    HW226073   2.365   1.293   6.557  2.0633 -0.5342  1.4154
 4872SOL     OW26074   1.873   0.855   4.929  0.3721 -0.0239  0.3051
 4872SOL    HW126075   1.945   0.841   4.867  1.0856  0.7606  0.9544
 4872SOL    HW226076   1.877   0.949   4.945  1.4955  0.0684 -0.5055
 4873SOL     OW26077   2.578   0.986  16.022  0.4871  0.1370  0.2859
 4873SOL    HW126078   2.650   0.970  16.083  1.2846 -1.3900 -1.0783
 4873SOL    HW226079   2.515   0.958  16.089 -1.8462  2.3895 -0.9304
 4874SOL     OW26080   2.968   0.421   3.031 -0.4380  0.6198 -0.1421
 4874SOL    HW126081   2.958   0.354   3.098 -0.6905  1.5517  0.7603
 4874SOL    HW226082   3.036   0.480   3.065  0.3204 -0.7870  0.7755
 4875SOL     OW26083   4.144   2.954   6.664 -0.1313 -0.6348  0.0420
 4875SOL    HW126084   4.208   2.957   6.734 -0.6346 -0.0894  0.4815
 4875SOL    HW226085   4.206   2.949   6.591 -0.8357 -1.9258 -0.4764
 4876SOL     OW26086   4.305   1.031   8.269  0.1681  0.0745 -0.3211
 4876SOL    HW126087   4.245   1.102   8.249 -1.0328 -0.8154  0.1420
 4876SOL    HW226088   4.380   1.085   8.297 -0.8502  1.5433 -0.4755
 4877SOL     OW26089   4.469   1.367   7.475 -0.0375  0.3541 -0.4803
 4877SOL    HW126090   4.452   1.332   7.388  0.9705  0.9069 -0.8928
 4877SOL    HW226091   4.381   1.355   7.511  1.0200  0.5455  2.1754
 4878SOL     OW26092   1.232   0.301   7.201 -0.4243  0.2074  0.6595
 4878SOL    HW126093   1.158   0.362   7.196  1.0037  1.8338 -0.4443
 4878SOL    HW226094   1.189   0.217   7.220  0.3218 -0.7134 -1.6847
 4879SOL     OW26095   0.431   0.055   8.954 -0.4760 -0.1257 -0.4899
 4879SOL    HW126096   0.452   4.687   8.925 -1.2385 -0.6080  0.4150
 4879SOL    HW226097   0.449   0.109   8.877 -0.5591 -0.5957 -0.8382
 4880SOL     OW26098   1.369   1.253   4.860 -0.2172  0.7021 -0.2129
 4880SOL    HW126099   1.364   1.171   4.910  0.8731  0.0967 -1.0836
 4880SOL    HW226100   1.319   1.220   4.785 -2.1445  1.9559  0.5434
 4881SOL     OW26101   0.964   2.527   7.317  0.6076 -0.4600 -0.3185
 4881SOL    HW126102   1.028   2.462   7.287 -0.1872 -0.7449 -1.3695
 4881SOL    HW226103   0.887   2.512   7.263  0.3496  0.3333 -0.1744
 4882SOL     OW26104   3.099   1.289   2.084 -0.5275 -0.1707  0.4198
 4882SOL    HW126105   3.042   1.363   2.110 -2.0394 -1.1144 -0.1992
 4882SOL    HW226106   3.138   1.328   2.006 -0.9664 -0.6930 -0.0586
 4883SOL     OW26107   0.519   3.692   4.467  0.0682  0.3706  0.0254
 4883SOL    HW126108   0.506   3.746   4.545  0.1099 -0.6356  0.7263
 4883SOL    HW226109   0.596   3.653   4.506 -0.3215  0.5393  0.9688
 4884SOL     OW26110   0.598   0.243  14.561 -0.3246  0.3732  0.0189
 4884SOL    HW126111   0.538   0.289  14.620  0.8048  2.2291 -0.3079
 4884SOL    HW226112   0.628   0.162  14.603  0.1823  2.0161  2.7939
 4885SOL     OW26113   3.799   0.429   5.439  0.1125 -0.1378 -0.1591
 4885SOL    HW126114   3.888   0.409   5.469 -0.1227 -1.5561 -0.4103
 4885SOL    HW226115   3.796   0.518   5.474  0.0731 -1.0002  2.0340
 4886SOL     OW26116   1.865   2.226   2.313  0.0168 -0.8780 -0.7908
 4886SOL    HW126117   1.856   2.274   2.231 -2.4300  0.2608  0.1233
 4886SOL    HW226118   1.934   2.161   2.299 -1.2582 -2.3016 -0.4310
 4887SOL     OW26119   0.142   0.564   2.870  0.7402 -0.0049  0.1521
 4887SOL    HW126120   0.116   0.584   2.960  2.7849  0.8398  0.5596
 4887SOL    HW226121   0.193   0.645   2.859  0.6213 -0.2828 -2.5122
 4888SOL     OW26122   4.418   1.366   6.851 -0.4620  0.8842  0.7173
 4888SOL    HW126123   4.456   1.454   6.850 -1.3754  1.2462 -2.4170
 4888SOL    HW226124   4.414   1.345   6.944  0.8367 -1.3377  0.2656
 4889SOL     OW26125   1.629   0.881   2.134  1.5047  0.4527  0.3152
 4889SOL    HW126126   1.689   0.852   2.066  1.0301 -0.1159  0.1315
 4889SOL    HW226127   1.689   0.898   2.206  0.8090  0.8658  0.7971
 4890SOL     OW26128   2.815   2.202   5.003 -0.0691 -0.3896  0.7897
 4890SOL    HW126129   2.736   2.182   4.952 -0.7426  2.7883  0.5390
 4890SOL    HW226130   2.792   2.292   5.026  1.3998  0.3205 -0.5223
 4891SOL     OW26131   4.677   0.772   4.428 -0.2987  0.3199 -0.2230
 4891SOL    HW126132   0.014   0.792   4.354 -0.3879  0.7969 -0.1582
 4891SOL    HW226133   4.638   0.854   4.457 -1.2211 -0.8636  1.9220
 4892SOL     OW26134   2.188   2.853  13.962 -0.1030 -0.2264 -0.3195
 4892SOL    HW126135   2.145   2.938  13.956  2.4394  0.9736 -1.3921
 4892SOL    HW226136   2.108   2.801  13.975 -1.1845  1.1132 -1.6496
 4893SOL     OW26137   1.540   0.508  17.468  0.0650  0.4134 -0.1221
 4893SOL    HW126138   1.542   0.596  17.504  0.6424 -0.0268  0.9263
 4893SOL    HW226139   1.447   0.504  17.447 -0.1556  2.5232  0.4730
 4894SOL     OW26140   2.245   4.334   6.557  0.2584  0.0636  0.0903
 4894SOL    HW126141   2.233   4.242   6.534 -1.1963  0.7270 -1.7616
 4894SOL    HW226142   2.239   4.387   6.478  1.8112 -2.1255 -1.4836
 4895SOL     OW26143   4.000   2.507   4.881 -0.6501  0.2511 -0.1914
 4895SOL    HW126144   3.925   2.455   4.851 -0.9221 -0.5472  1.8546
 4895SOL    HW226145   3.948   2.541   4.955 -1.7513 -1.0566 -0.3780
 4896SOL     OW26146   3.593   3.323   7.079  0.1713 -0.4004 -0.0507
 4896SOL    HW126147   3.560   3.409   7.055 -3.5663 -2.0723 -0.9577
 4896SOL    HW226148   3.619   3.287   6.994  0.9400 -1.7256  0.7504
 4897SOL     OW26149   3.756   4.625   8.583 -0.5060  0.2811 -0.5215
 4897SOL    HW126150   3.760   4.705   8.636  0.9512 -1.0044  1.3459
 4897SOL    HW226151   3.735   4.559   8.650  0.3005 -0.7942 -1.3345
 4898SOL     OW26152   0.985   1.250  12.319 -0.1136  0.3905 -0.0798
 4898SOL    HW126153   0.978   1.168  12.368 -0.0984 -1.4239 -3.1332
 4898SOL    HW226154   0.903   1.298  12.331 -0.0667  0.4597 -0.0400
 4899SOL     OW26155   4.538   3.649   3.483  0.5097  0.7226  0.4076
 4899SOL    HW126156   4.487   3.665   3.404 -1.5055 -0.3847  1.4816
 4899SOL    HW226157   4.623   3.664   3.442 -0.0213  0.3955 -0.8117
 4900SOL     OW26158   1.523   4.554  14.600  0.3517 -0.6078 -0.9000
 4900SOL    HW126159   1.458   4.532  14.666  2.0996  2.1707  1.7599
 4900SOL    HW226160   1.500   4.504  14.522 -0.6449 -0.0318 -0.9751
 4901SOL     OW26161   4.356   3.405   8.882 -0.3540 -0.6298  0.0658
 4901SOL    HW126162   4.280   3.426   8.828 -0.1531 -0.9969 -0.3543
 4901SOL    HW226163   4.421   3.413   8.813  0.9407  0.7074  1.4387
 4902SOL     OW26164   4.471   3.008   6.257 -0.1993 -0.6046  0.2048
 4902SOL    HW126165   4.451   2.991   6.165  0.3665 -1.4743  0.2396
 4902SOL    HW226166   4.497   3.100   6.259  2.5723 -1.4012  0.6587
 4903SOL     OW26167   2.809   1.400   1.629 -0.0262 -0.0187  0.2186
 4903SOL    HW126168   2.759   1.359   1.558 -1.0648  1.2482  0.2045
 4903SOL    HW226169   2.741   1.450   1.675  0.7067 -0.5648  1.9088
 4904SOL     OW26170   3.019   2.801  12.187 -0.1029  0.2974 -0.8092
 4904SOL    HW126171   2.946   2.748  12.217  1.6925 -0.8750  1.5481
 4904SOL    HW226172   3.069   2.738  12.135 -1.5107 -1.9457  0.6086
 4905SOL     OW26173   1.391   0.752   2.105  0.1030  0.0668  0.1065
 4905SOL    HW126174   1.481   0.785   2.106  0.3610 -0.6745  1.7641
 4905SOL    HW226175   1.383   0.715   2.193  0.6853  0.2186  0.2223
 4906SOL     OW26176   1.936   4.213   4.088 -0.9081 -0.4569  0.2876
 4906SOL    HW126177   1.919   4.244   3.998 -0.1919 -0.4477  0.1525
 4906SOL    HW226178   1.971   4.291   4.131  1.0905 -2.1197  1.6596
 4907SOL     OW26179   1.098   1.447   8.868  0.1138 -0.1298  0.4736
 4907SOL    HW126180   1.141   1.388   8.929  0.4858  0.9209  1.2348
 4907SOL    HW226181   1.015   1.400   8.874  0.1089 -0.8202 -4.9945
 4908SOL     OW26182   3.959   3.601   4.307 -0.2653  0.0106 -1.0939
 4908SOL    HW126183   3.897   3.625   4.239 -0.4613  0.8949 -0.5975
 4908SOL    HW226184   3.995   3.681   4.345 -1.4364  0.0700 -0.1249
 4909SOL     OW26185   1.074   3.735  12.608  0.8912  0.4217  0.6603
 4909SOL    HW126186   1.000   3.712  12.551  1.2831 -2.5303  1.3385
 4909SOL    HW226187   1.133   3.778  12.546 -1.1632 -1.0578 -2.3104
 4910SOL     OW26188   2.820   0.779   5.102  0.2594 -0.5413  0.5903
 4910SOL    HW126189   2.823   0.873   5.120 -1.4612 -0.0150 -1.8843
 4910SOL    HW226190   2.785   0.775   5.013  2.7172  4.7391 -0.5838
 4911SOL     OW26191   0.268   2.578   4.179 -0.1389 -0.3981  0.5615
 4911SOL    HW126192   0.198   2.609   4.236 -2.6939 -1.6006 -1.8953
 4911SOL    HW226193   0.209   2.549   4.109 -0.6179 -0.3839  0.9573
 4912SOL     OW26194   0.092   1.165   0.285  0.2929  0.0879  1.1283
 4912SOL    HW126195   0.002   1.131   0.280  0.0886  0.6690  0.8607
 4912SOL    HW226196   0.089   1.239   0.345  0.5520  0.9592  0.0823
 4913SOL     OW26197   3.838   2.910   4.063 -0.6765  0.1404  0.0641
 4913SOL    HW126198   3.905   2.878   4.124 -0.0603  0.7173 -0.2973
 4913SOL    HW226199   3.777   2.954   4.122 -2.6971  1.3091 -2.9121
 4914SOL     OW26200   2.387   3.422  11.967 -0.1823  0.3272 -0.0474
 4914SOL    HW126201   2.326   3.436  12.039 -1.6773 -0.5595 -1.1410
 4914SOL    HW226202   2.457   3.378  12.015 -1.0397 -0.1326  0.7752
 4915SOL     OW26203   2.338   3.069   1.146  0.0988  0.1302 -0.1051
 4915SOL    HW126204   2.329   3.089   1.239  0.4140 -2.0238  0.3876
 4915SOL    HW226205   2.401   3.138   1.128  1.1573 -0.1197  2.5924
 4916SOL     OW26206   0.080   3.221   6.436  0.1365 -0.5529 -0.3800
 4916SOL    HW126207   0.139   3.245   6.507 -0.9249 -1.5715  0.8473
 4916SOL    HW226208   0.113   3.134   6.412  1.5486  0.2666 -1.3879
 4917SOL     OW26209   0.351   2.763  17.316  0.2310  0.2246 -0.1938
 4917SOL    HW126210   0.438   2.770  17.278 -0.3670  2.6516 -1.1267
 4917SOL    HW226211   0.302   2.715  17.250  0.0107  2.0479 -1.3558
 4918SOL     OW26212   1.850   0.870   6.583  0.5351 -0.0310  0.0118
 4918SOL    HW126213   1.757   0.849   6.594  1.0792 -1.7328  1.4393
 4918SOL    HW226214   1.875   0.866   6.675 -0.3757  1.5205  0.3285
 4919SOL     OW26215   1.448   2.927   4.857  0.4388  0.0800 -0.1765
 4919SOL    HW126216   1.391   2.982   4.911  0.7973 -2.2958  2.5935
 4919SOL    HW226217   1.412   2.943   4.770 -1.1323 -1.1958  0.2367
 4920SOL     OW26218   1.817   4.651   2.324  0.0102  0.0752  0.2715
 4920SOL    HW126219   1.830   4.594   2.248 -0.1617  3.3439 -2.2479
 4920SOL    HW226220   1.757   4.716   2.287 -0.3231  1.0514  2.5580
 4921SOL     OW26221   2.378   2.074   5.284  0.5938 -0.2215  0.2146
 4921SOL    HW126222   2.386   2.061   5.189 -0.8199 -2.2827  0.3725
 4921SOL    HW226223   2.454   2.024   5.314  1.6675  1.2216 -0.0737
 4922SOL     OW26224   2.223   0.558   1.881  0.7184  0.1070  0.0565
 4922SOL    HW126225   2.315   0.534   1.870  0.4733 -1.4663  1.3843
 4922SOL    HW226226   2.226   0.555   1.977 -1.3945 -0.2756  0.1112
 4923SOL     OW26227   3.337   3.855  17.333 -0.6014 -0.4667  0.4036
 4923SOL    HW126228   3.378   3.883  17.251 -3.1153 -1.4520 -1.1723
 4923SOL    HW226229   3.421   3.852  17.379  0.1337 -1.1094 -0.9839
 4924SOL     OW26230   2.255   3.109   4.480  0.5411 -0.3240 -0.3013
 4924SOL    HW126231   2.208   3.192   4.477 -1.0193 -1.1386  1.3494
 4924SOL    HW226232   2.341   3.141   4.508  0.2659  0.8679 -0.8361
 4925SOL     OW26233   3.504   4.011  10.536  0.4217  0.1340  0.2034
 4925SOL    HW126234   3.597   4.035  10.534  0.9147 -1.6379  1.7848
 4925SOL    HW226235   3.483   3.985  10.625  2.5869  0.5605  0.8566
 4926SOL     OW26236   1.962   1.037   4.142 -0.3207  0.2762  0.4080
 4926SOL    HW126237   1.985   1.106   4.079 -1.1612  0.9754  0.8720
 4926SOL    HW226238   1.955   0.959   4.087  1.2622  0.6747 -0.3723
 4927SOL     OW26239   1.873   2.621   4.269 -0.3405 -0.2651  0.1436
 4927SOL    HW126240   1.818   2.642   4.345  2.1604 -3.2740  2.8317
 4927SOL    HW226241   1.921   2.702   4.250 -0.2560 -0.8080 -1.8830
 4928SOL     OW26242   2.644   3.639   6.253 -0.1761  0.3991  0.3800
 4928SOL    HW126243   2.681   3.553   6.233  0.3104  1.1051 -1.7633
 4928SOL    HW226244   2.660   3.691   6.174 -1.2013  2.0492  1.2716
 4929SOL     OW26245   2.578   1.562   7.702  0.0105  0.4356 -0.2543
 4929SOL    HW126246   2.589   1.542   7.795  0.1313 -0.8484 -0.5515
 4929SOL    HW226247   2.666   1.576   7.667 -0.8396  2.9602 -1.3892
 4930SOL     OW26248   1.711   2.978  17.610 -0.5779 -0.2101 -0.3042
 4930SOL    HW126249   1.806   2.986  17.617 -1.1287  2.4094  3.9951
 4930SOL    HW226250   1.694   2.924   0.003  0.9983 -1.8989 -1.1504
 4931SOL     OW26251   2.709   4.684   1.624  0.1650 -0.1635  0.6168
 4931SOL    HW126252   2.756   4.607   1.658 -1.9602 -0.3025  3.2250
 4931SOL    HW226253   2.700   0.019   1.702 -1.0578 -0.4859  0.6947
 4932SOL     OW26254   4.633   1.405   4.255 -0.3965 -0.7111  0.1517
 4932SOL    HW126255   4.714   1.373   4.214 -1.5088 -0.8879 -1.9124
 4932SOL    HW226256   4.578   1.329   4.240 -1.2756  0.3546 -1.9900
 4933SOL     OW26257   2.594   1.517   6.231  0.3781  0.3442  0.4016
 4933SOL    HW126258   2.663   1.451   6.227 -1.1358 -1.1820 -0.7789
 4933SOL    HW226259   2.640   1.584   6.281  1.0746  0.6574 -0.6551
 4934SOL     OW26260   3.061   2.532  14.701  0.1987 -0.2275  0.1140
 4934SOL    HW126261   2.996   2.471  14.736 -0.9099  0.5739 -0.5551
 4934SOL    HW226262   3.029   2.619  14.727  2.5037 -0.0832  2.4361
 4935SOL     OW26263   0.382   0.368  13.434  0.2937 -0.6159  0.2603
 4935SOL    HW126264   0.350   0.376  13.345  1.8192  0.1889 -0.2183
 4935SOL    HW226265   0.400   0.275  13.442 -0.3156 -0.7937 -0.4459
 4936SOL     OW26266   2.858   1.834   4.936 -0.5001  0.2433 -0.5352
 4936SOL    HW126267   2.932   1.775   4.945 -1.5943 -1.0101  0.2214
 4936SOL    HW226268   2.887   1.898   4.871 -1.1099  0.3380 -0.7187
 4937SOL     OW26269   1.685   1.286   4.711 -0.5124 -0.2840 -0.0318
 4937SOL    HW126270   1.629   1.357   4.741  0.8832  1.1078 -0.7278
 4937SOL    HW226271   1.726   1.321   4.632  0.2306  2.6777  1.6820
 4938SOL     OW26272   3.036   4.266   6.133 -0.3300 -0.0503  0.5845
 4938SOL    HW126273   3.010   4.327   6.063 -1.8234 -1.5150 -0.1177
 4938SOL    HW226274   3.117   4.298   6.173 -0.3495  0.7117  0.0301
 4939SOL     OW26275   2.032   0.387   8.272 -0.2789  0.0224  0.6148
 4939SOL    HW126276   2.121   0.352   8.278  0.1937  0.9427 -1.0955
 4939SOL    HW226277   2.000   0.358   8.358  1.0272 -2.1867  0.3644
 4940SOL     OW26278   1.028   0.453   7.505 -0.1828 -0.5053  0.2769
 4940SOL    HW126279   1.006   0.366   7.473  0.0680 -0.8548  1.0456
 4940SOL    HW226280   1.085   0.424   7.577 -0.3269  0.3299  0.7364
 4941SOL     OW26281   0.084   4.581   4.514  0.4062 -0.5934  0.1588
 4941SOL    HW126282   0.124   4.551   4.596  2.9566  2.7869  0.1546
 4941SOL    HW226283   0.106   4.674   4.517 -0.9564 -0.2873  0.8584
 4942SOL     OW26284   1.713   2.565   8.060  0.0962 -0.5203 -0.2843
 4942SOL    HW126285   1.661   2.502   8.110  2.9707 -2.0326  0.8626
 4942SOL    HW226286   1.683   2.651   8.087 -2.2866 -1.5185  0.2354
 4943SOL     OW26287   2.979   3.185   0.201  0.3537 -0.0560  0.0159
 4943SOL    HW126288   2.945   3.261   0.154  1.5825  0.3969 -0.1204
 4943SOL    HW226289   3.018   3.131   0.133 -2.7811 -1.0862 -0.9943
 4944SOL     OW26290   0.302   2.631   6.635  0.3451  0.1012 -0.2424
 4944SOL    HW126291   0.372   2.694   6.619  1.3777 -0.8548  0.4138
 4944SOL    HW226292   0.289   2.594   6.548  0.9299  0.2491 -0.3976
 4945SOL     OW26293   0.354   2.875   3.440 -0.2879  0.1570  0.5920
 4945SOL    HW126294   0.363   2.965   3.408  1.0167 -0.6568 -1.3104
 4945SOL    HW226295   0.361   2.823   3.360 -0.8390 -1.8751  1.8594
 4946SOL     OW26296   1.167   2.706   2.368 -0.3959 -0.4858 -0.1257
 4946SOL    HW126297   1.231   2.636   2.382 -0.4048 -0.5572 -0.4429
 4946SOL    HW226298   1.215   2.788   2.354 -0.6482 -0.0969  1.2980
 4947SOL     OW26299   3.930   3.808   9.271 -0.2308  0.9787 -0.4702
 4947SOL    HW126300   3.900   3.729   9.226 -0.6947 -0.5463  2.5523
 4947SOL    HW226301   3.885   3.802   9.355  2.9842  0.0100  1.1640
 4948SOL     OW26302   0.962   4.511  11.292  0.0967  0.0753  0.0444
 4948SOL    HW126303   1.025   4.440  11.302 -0.1903  0.0902  1.9564
 4948SOL    HW226304   0.879   4.462  11.291  0.4890 -0.5812 -0.2413
 4949SOL     OW26305   0.848   2.137   2.199 -0.1362  0.0636  0.3920
 4949SOL    HW126306   0.923   2.183   2.160 -1.2730  0.3745 -1.4587
 4949SOL    HW226307   0.810   2.211   2.246 -4.0627 -1.1281 -0.8515
 4950SOL     OW26308   4.465   2.835   7.635 -0.1527 -0.2010  0.3315
 4950SOL    HW126309   4.463   2.741   7.654  0.8345  0.0059  1.4144
 4950SOL    HW226310   4.508   2.872   7.712  0.3993  1.6389 -0.8834
 4951SOL     OW26311   3.876   1.107   2.030 -0.5249  0.9106 -0.1437
 4951SOL    HW126312   3.861   1.046   1.958 -0.1731  0.8816 -0.1934
 4951SOL    HW226313   3.797   1.112   2.082  0.2314  2.8483  0.8147
 4952SOL     OW26314   1.319   1.299  13.251  0.2677 -0.5500  0.0749
 4952SOL    HW126315   1.371   1.236  13.302  0.4640 -0.9668 -0.6474
 4952SOL    HW226316   1.352   1.378  13.294  2.2015 -0.5470 -1.4434
 4953SOL     OW26317   2.326   2.972  13.340 -0.3707  0.0981 -0.2264
 4953SOL    HW126318   2.375   2.938  13.264 -0.4671  0.1894 -0.3303
 4953SOL    HW226319   2.348   3.065  13.337  1.3156 -0.2773 -0.0030
 4954SOL     OW26320   3.030   2.794  14.739 -0.3062  0.3433 -0.2483
 4954SOL    HW126321   3.123   2.798  14.760 -0.4094  1.2963  0.0086
 4954SOL    HW226322   2.981   2.830  14.813 -0.6920 -3.6109  1.4584
 4955SOL     OW26323   3.086   0.394  16.853 -0.4728 -0.2794  0.3106
 4955SOL    HW126324   2.993   0.411  16.841 -0.8348 -1.7455  1.0680
 4955SOL    HW226325   3.125   0.477  16.825 -0.5924 -0.0440  0.8482
 4956SOL     OW26326   2.668   0.988   4.499 -0.1215 -0.0707  0.4188
 4956SOL    HW126327   2.642   0.942   4.420 -0.7264  1.2151 -0.1243
 4956SOL    HW226328   2.633   0.924   4.561  0.0156 -1.1073 -0.5727
 4957SOL     OW26329   1.040   3.534  10.170 -0.0477 -0.1333  0.1112
 4957SOL    HW126330   1.067   3.455  10.125  0.7126 -0.1978  0.6713
 4957SOL    HW226331   1.047   3.599  10.100 -0.4944 -1.5408 -1.2248
 4958SOL     OW26332   0.959   1.205   3.467 -0.2334 -0.3912 -0.4316
 4958SOL    HW126333   1.001   1.122   3.442  0.4168 -0.6037  1.3547
 4958SOL    HW226334   0.870   1.181   3.441 -0.2706  1.8085 -2.3505
 4959SOL     OW26335   3.599   4.603   7.248 -0.2593 -0.1551  0.0017
 4959SOL    HW126336   3.649   4.539   7.197 -3.0987 -2.0679 -0.3376
 4959SOL    HW226337   3.516   4.555   7.248 -1.6407  2.2499 -0.1246
 4960SOL     OW26338   3.536   1.612   5.274 -0.0675  0.5324 -0.1468
 4960SOL    HW126339   3.508   1.650   5.191 -0.4882 -1.7492 -1.0391
 4960SOL    HW226340   3.620   1.656   5.287 -0.5581  1.3238  0.3572
 4961SOL     OW26341   1.461   1.082   3.294  0.2114 -0.5174  0.5269
 4961SOL    HW126342   1.391   1.019   3.276 -0.4659  0.3997 -0.0624
 4961SOL    HW226343   1.458   1.101   3.388 -0.0326  2.2469 -0.0285
 4962SOL     OW26344   4.032   0.432  13.165  0.0229  0.3406 -0.1367
 4962SOL    HW126345   3.988   0.515  13.186  3.3463  1.9366  0.4911
 4962SOL    HW226346   4.115   0.437  13.212  0.7801 -0.3199 -1.4291
 4963SOL     OW26347   3.899   3.618  16.755 -0.1286  0.1517  0.3390
 4963SOL    HW126348   3.883   3.556  16.683 -0.0786 -0.4466  0.8452
 4963SOL    HW226349   3.815   3.664  16.762 -0.1976  0.0934 -0.0422
 4964SOL     OW26350   2.971   2.755   2.052 -0.2999  0.2757  0.2466
 4964SOL    HW126351   3.018   2.821   2.103 -1.3974 -0.4667  2.2105
 4964SOL    HW226352   3.027   2.678   2.065  2.1869  2.0271 -0.1152
 4965SOL     OW26353   2.540   3.228   8.482  0.5440 -0.5588 -0.5838
 4965SOL    HW126354   2.561   3.245   8.574 -1.0731  0.1324 -0.3464
 4965SOL    HW226355   2.610   3.169   8.453  0.8715  1.2749 -3.5560
 4966SOL     OW26356   1.779   3.910  14.134  0.1400 -0.6625 -0.4840
 4966SOL    HW126357   1.846   3.842  14.141 -1.1697 -2.1768 -2.5212
 4966SOL    HW226358   1.833   3.986  14.154 -1.7883  0.9441 -1.4123
 4967SOL     OW26359   1.558   3.585  15.108 -0.5229 -0.6417 -0.5212
 4967SOL    HW126360   1.652   3.579  15.122 -0.4214 -1.6750 -1.7046
 4967SOL    HW226361   1.547   3.640  15.030  0.5339 -0.0905 -0.2750
 4968SOL     OW26362   4.351   1.926  10.633  0.8202  0.0618  0.0367
 4968SOL    HW126363   4.375   1.915  10.724 -2.4452 -0.1762  0.8883
 4968SOL    HW226364   4.260   1.895  10.637  1.5272 -2.0016  0.2427
 4969SOL     OW26365   2.671   3.142   5.126 -0.2889 -0.1447  0.2223
 4969SOL    HW126366   2.609   3.127   5.056  1.3203 -0.3965 -1.1408
 4969SOL    HW226367   2.656   3.236   5.136 -1.6408 -0.3314 -0.0344
 4970SOL     OW26368   1.711   2.785   6.846 -0.5519 -0.5169  0.1697
 4970SOL    HW126369   1.783   2.846   6.834 -1.4226  1.1460  3.2557
 4970SOL    HW226370   1.747   2.708   6.802  1.6296  1.1219 -0.8833
 4971SOL     OW26371   2.925   1.458   2.209 -0.4320  0.0085  0.0381
 4971SOL    HW126372   2.841   1.442   2.167 -0.4941  0.2801  0.0603
 4971SOL    HW226373   2.909   1.472   2.302  2.9954  0.6637  0.5358
 4972SOL     OW26374   3.725   4.594   1.509 -0.2763  0.6964  0.3775
 4972SOL    HW126375   3.730   4.573   1.416  1.0301 -1.0175  0.8425
 4972SOL    HW226376   3.677   4.677   1.505  0.8743  1.3019 -0.7440
 4973SOL     OW26377   0.624   2.344   5.272  0.2517 -0.4319  0.1617
 4973SOL    HW126378   0.591   2.277   5.332 -1.0580 -0.5001 -0.6315
 4973SOL    HW226379   0.715   2.334   5.298  0.7489  0.4442 -1.2863
 4974SOL     OW26380   3.644   4.620   1.948 -0.0046 -0.1279 -0.7182
 4974SOL    HW126381   3.687   4.567   1.881  0.8330 -1.1955  0.6641
 4974SOL    HW226382   3.682   4.707   1.938 -0.2419 -0.0901 -1.2765
 4975SOL     OW26383   1.901   4.614  16.819 -0.3360 -0.6228 -0.4805
 4975SOL    HW126384   1.967   4.545  16.818 -0.2748 -0.5804  0.6407
 4975SOL    HW226385   1.962   4.686  16.805  0.2646 -1.2677 -1.1781
 4976SOL     OW26386   4.127   1.455  15.328 -0.2781 -0.1407 -0.5246
 4976SOL    HW126387   4.155   1.366  15.350  3.4835  0.3813 -3.2845
 4976SOL    HW226388   4.210   1.501  15.317  1.0994 -2.3805  0.6795
 4977SOL     OW26389   0.444   0.171  15.524  0.4233  0.3959 -0.2415
 4977SOL    HW126390   0.380   0.208  15.463 -0.6325  0.7595  1.0930
 4977SOL    HW226391   0.500   0.132  15.457 -2.1536  0.5433 -2.4947
 4978SOL     OW26392   4.079   1.341  11.339  0.0534  0.2012  0.7738
 4978SOL    HW126393   4.061   1.250  11.361 -2.6871  0.9499  1.6051
 4978SOL    HW226394   4.028   1.386  11.407 -3.8587 -0.0812 -1.9223
 4979SOL     OW26395   4.340   1.808   8.911  0.2991  0.0257 -0.1238
 4979SOL    HW126396   4.308   1.879   8.854 -1.0052 -1.0286 -0.7200
 4979SOL    HW226397   4.370   1.746   8.845  1.4224 -1.5423  1.8673
 4980SOL     OW26398   1.307   4.372   4.026  0.3187  0.1178 -0.1694
 4980SOL    HW126399   1.246   4.384   3.953 -1.3116 -0.8600  1.0599
 4980SOL    HW226400   1.331   4.464   4.038  2.2556 -0.4850  0.5330
 4981SOL     OW26401   2.643   3.623   7.911 -0.7878  0.1610 -0.8663
 4981SOL    HW126402   2.652   3.637   8.006 -0.3589  0.6485 -0.9796
 4981SOL    HW226403   2.716   3.664   7.865  0.1754 -0.7981 -0.2159
 4982SOL     OW26404   1.403   1.721  11.073 -0.5369  0.2030 -0.1870
 4982SOL    HW126405   1.469   1.652  11.064  1.0935  1.5417  1.4568
 4982SOL    HW226406   1.330   1.677  11.116 -1.9926  1.2248 -1.6479
 4983SOL     OW26407   1.039   2.475   6.142 -0.4050 -0.0601  0.4625
 4983SOL    HW126408   0.996   2.559   6.160  0.2026 -0.0245  1.7726
 4983SOL    HW226409   1.128   2.503   6.120 -1.1694 -0.0887 -2.6966
 4984SOL     OW26410   0.074   2.328  12.066 -0.0029  0.5144  0.2603
 4984SOL    HW126411   4.700   2.317  12.074 -0.6128  4.6611 -0.9564
 4984SOL    HW226412   0.108   2.286  12.145  0.9162  1.4295  0.3603
 4985SOL     OW26413   3.203   4.321   4.946 -0.0830  0.4916 -0.1087
 4985SOL    HW126414   3.128   4.268   4.973  1.0118 -0.3764  1.1932
 4985SOL    HW226415   3.171   4.411   4.956  1.7737  1.4058 -2.2522
 4986SOL     OW26416   2.091   3.436   6.436  0.1568  0.3746 -0.2298
 4986SOL    HW126417   2.002   3.468   6.423  0.2735  0.7979  0.0058
 4986SOL    HW226418   2.134   3.520   6.417 -0.0384  0.5927  0.2806
 4987SOL     OW26419   2.656   4.183   5.765 -0.6545 -0.0170 -0.5734
 4987SOL    HW126420   2.687   4.093   5.765 -1.6182 -0.3611  1.5901
 4987SOL    HW226421   2.563   4.177   5.742 -0.7376  1.2573 -0.5768
 4988SOL     OW26422   3.723   4.306   8.395  0.1122 -0.5502  0.5411
 4988SOL    HW126423   3.765   4.331   8.312 -0.6757 -1.4187 -0.1211
 4988SOL    HW226424   3.796   4.249   8.420  0.9624  0.7739  1.0519
 4989SOL     OW26425   3.016   4.294  13.365 -0.0452  0.1376  0.1937
 4989SOL    HW126426   3.076   4.238  13.318 -1.0857 -0.1274 -0.8289
 4989SOL    HW226427   2.935   4.301  13.313 -0.3079  0.5885  0.6581
 4990SOL     OW26428   1.420   2.468   5.622 -0.2001 -0.5040  0.2928
 4990SOL    HW126429   1.500   2.417   5.620 -0.6682 -1.2477  0.8023
 4990SOL    HW226430   1.388   2.454   5.711 -0.6721  1.5863  0.4715
 4991SOL     OW26431   3.434   1.968   8.015  0.7136 -0.0188  0.2058
 4991SOL    HW126432   3.441   1.908   7.941  1.0894  2.3933 -1.7310
 4991SOL    HW226433   3.527   1.982   8.034  1.2852 -0.0053 -2.6369
 4992SOL     OW26434   0.829   1.746   6.911  0.0182 -0.7652  0.2287
 4992SOL    HW126435   0.846   1.673   6.970 -2.2523 -0.2955  1.4978
 4992SOL    HW226436   0.871   1.717   6.830  1.5923 -0.6837  1.0352
 4993SOL     OW26437   4.420   1.163  16.368  0.4967  0.0716  0.2993
 4993SOL    HW126438   4.428   1.258  16.367  0.1499  0.1026  0.6788
 4993SOL    HW226439   4.328   1.137  16.357  1.1197 -1.5375 -1.1361
 4994SOL     OW26440   2.717   1.304   3.642  0.8912 -0.2518 -0.3295
 4994SOL    HW126441   2.661   1.260   3.705  1.0595  1.7502  1.2211
 4994SOL    HW226442   2.801   1.298   3.689 -0.8319 -0.2615  2.7244
 4995SOL     OW26443   3.502   1.255   7.791 -0.7311 -0.3721 -0.1582
 4995SOL    HW126444   3.411   1.282   7.795 -0.8452 -0.6083 -1.1664
 4995SOL    HW226445   3.491   1.162   7.813  0.2719 -1.2616 -3.3673
 4996SOL     OW26446   0.994   2.064   4.200  0.1722 -0.5162 -0.2853
 4996SOL    HW126447   1.012   2.112   4.281 -1.1781  0.2464 -0.4389
 4996SOL    HW226448   0.902   2.037   4.203  0.3814 -1.2476 -0.6372
 4997SOL     OW26449   1.919   4.186   7.314 -0.0061 -0.0985 -0.0555
 4997SOL    HW126450   1.885   4.096   7.316 -1.5468  0.5510  2.3869
 4997SOL    HW226451   1.875   4.219   7.237 -0.7985  1.8552  1.2435
 4998SOL     OW26452   1.617   0.685   6.057  0.3366 -0.2107 -0.0860
 4998SOL    HW126453   1.558   0.682   6.132  1.8057  0.5312  1.1050
 4998SOL    HW226454   1.558   0.689   5.982  0.8468 -1.6574 -0.5619
 4999SOL     OW26455   2.663   0.040  14.720 -0.1130 -0.8714 -0.6520
 4999SOL    HW126456   2.570   0.060  14.732 -0.2668 -1.3641 -1.0067
 4999SOL    HW226457   2.667   4.676  14.766  0.6810 -1.8335 -2.5080
 5000SOL     OW26458   4.009   3.753   5.729  0.0243 -0.5158 -0.0565
 5000SOL    HW126459   3.923   3.713   5.717  0.2630 -1.1695  0.4327
 5000SOL    HW226460   4.011   3.820   5.660  0.6407 -0.1979  0.2672
 5001SOL     OW26461   0.690   0.265   6.985  0.2825  0.6142  0.3318
 5001SOL    HW126462   0.659   0.348   7.022 -1.5172  0.1905 -0.1913
 5001SOL    HW226463   0.613   0.211   7.002 -0.5388  1.1933 -1.5213
 5002SOL     OW26464   0.576   0.788  15.937  0.0356  0.7316  0.0237
 5002SOL    HW126465   0.602   0.763  15.848 -3.0491 -0.6637 -0.4875
 5002SOL    HW226466   0.577   0.699  15.973  0.2980  0.5816 -0.3387
 5003SOL     OW26467   0.452   2.055  16.541 -0.2128  0.8733  0.2657
 5003SOL    HW126468   0.516   2.118  16.509  0.7835  0.4407  1.3883
 5003SOL    HW226469   0.389   2.039  16.471 -0.8034  0.4531  0.8906
 5004SOL     OW26470   0.918   1.361  11.489 -0.1021  0.0605  0.2569
 5004SOL    HW126471   0.859   1.398  11.555 -2.2995 -1.0220 -1.1183
 5004SOL    HW226472   0.867   1.284  11.462  0.8599  0.0326 -1.4459
 5005SOL     OW26473   3.434   3.732  13.681  0.0062  0.3522  0.2645
 5005SOL    HW126474   3.444   3.778  13.764 -2.3911  1.0263  0.1716
 5005SOL    HW226475   3.445   3.798  13.613  0.5699 -0.2404 -0.2277
 5006SOL     OW26476   1.874   3.109   3.752 -0.0968 -0.1898 -0.6593
 5006SOL    HW126477   1.804   3.139   3.694 -1.5793  0.2774  1.3701
 5006SOL    HW226478   1.831   3.059   3.821  0.2970 -2.2197 -1.9052
 5007SOL     OW26479   3.859   3.756  15.207  0.1877  0.4535 -0.0907
 5007SOL    HW126480   3.902   3.817  15.147  0.5628 -2.1208 -2.4206
 5007SOL    HW226481   3.881   3.785  15.296 -2.7690 -1.4958  1.2803
 5008SOL     OW26482   2.745   1.296   0.041  0.1053  0.0627 -0.1329
 5008SOL    HW126483   2.697   1.317   0.122  0.1441 -1.7414  0.3484
 5008SOL    HW226484   2.666   1.290  17.671  0.6714 -0.9760 -0.8425
 5009SOL     OW26485   0.826   2.307   5.453 -0.2980 -0.5606  0.4504
 5009SOL    HW126486   0.772   2.280   5.527 -1.4611 -0.5132 -0.3867
 5009SOL    HW226487   0.878   2.371   5.501  1.4932 -0.4072 -1.6967
 5010SOL     OW26488   2.773   2.096   7.296  0.1055 -0.0671  0.1220
 5010SOL    HW126489   2.702   2.066   7.353 -1.2322  0.3917 -1.3019
 5010SOL    HW226490   2.754   2.035   7.225 -3.1373  0.4680  0.4984
 5011SOL     OW26491   3.112   3.574  10.403 -0.6064 -0.2387  0.1836
 5011SOL    HW126492   3.168   3.581  10.326 -0.3947 -0.8847  0.2863
 5011SOL    HW226493   3.023   3.593  10.373 -1.3813 -0.5905  2.2301
 5012SOL     OW26494   2.635   2.404   3.774  0.9963 -0.2657 -0.0561
 5012SOL    HW126495   2.615   2.315   3.745 -0.7814 -0.2710  1.2315
 5012SOL    HW226496   2.565   2.451   3.728  1.2387 -0.5195 -0.6814
 5013SOL     OW26497   2.825   0.621   5.695  0.7824 -0.2299 -0.2696
 5013SOL    HW126498   2.903   0.608   5.749 -1.5925 -0.6017  3.0303
 5013SOL    HW226499   2.856   0.611   5.605  1.3497 -1.7816  0.1045
 5014SOL     OW26500   2.751   3.493  13.158 -0.5020 -0.1577 -0.2061
 5014SOL    HW126501   2.801   3.505  13.239 -1.4710  0.1174  0.3501
 5014SOL    HW226502   2.684   3.558  13.177 -1.2672 -1.2138  0.6381
 5015SOL     OW26503   2.820   4.548  13.529  0.0193  0.7148  0.9044
 5015SOL    HW126504   2.835   4.613  13.461 -0.7468 -0.7903 -0.7079
 5015SOL    HW226505   2.784   4.476  13.477  0.3225 -0.5761  2.4856
 5016SOL     OW26506   0.261   1.031  14.039  0.2057 -0.2166  0.1479
 5016SOL    HW126507   0.175   1.072  14.029  2.3270  3.0828 -4.4472
 5016SOL    HW226508   0.289   1.054  14.128 -1.1825 -0.3601  0.6141
 5017SOL     OW26509   0.259   4.265   1.882  0.2203  0.5572 -0.4367
 5017SOL    HW126510   0.354   4.275   1.868  0.4638 -1.8151 -0.3603
 5017SOL    HW226511   0.229   4.339   1.829 -0.4931  1.0151  0.6091
 5018SOL     OW26512   0.115   3.699   2.458  0.7526  0.6990  0.2710
 5018SOL    HW126513   0.076   3.632   2.514  0.7361 -0.6076 -1.3016
 5018SOL    HW226514   0.056   3.692   2.383  0.9920  1.9342 -0.0448
 5019SOL     OW26515   1.207   0.108   0.310 -0.5613 -0.5541 -0.0822
 5019SOL    HW126516   1.131   0.111   0.252 -0.0296  0.5941 -0.7200
 5019SOL    HW226517   1.211   0.197   0.344 -0.4781 -0.8926  0.7850
 5020SOL     OW26518   3.900   2.640   1.203  0.0886  0.1882  0.0971
 5020SOL    HW126519   3.929   2.587   1.278 -3.2829  2.4248  2.9695
 5020SOL    HW226520   3.859   2.712   1.252  1.1818  0.7809  0.1459
 5021SOL     OW26521   3.498   4.571   6.653 -0.0394 -0.2253  0.0220
 5021SOL    HW126522   3.575   4.563   6.596  0.6551  2.8059  0.5381
 5021SOL    HW226523   3.437   4.508   6.615 -1.7924  0.7526  1.2646
 5022SOL     OW26524   3.613   3.949  10.116 -0.2447  0.0244 -0.1912
 5022SOL    HW126525   3.566   3.927  10.196  2.7013 -5.1217  0.1180
 5022SOL    HW226526   3.648   3.861  10.102  0.4552  0.2529  0.1204
 5023SOL     OW26527   2.184   0.548   7.936  0.3306 -0.1407  0.0762
 5023SOL    HW126528   2.207   0.473   7.990  2.0174 -0.1180 -0.6374
 5023SOL    HW226529   2.224   0.529   7.851  0.9447 -0.4646  0.4464
 5024SOL     OW26530   3.606   4.148   0.184  0.6317  0.4006 -0.2579
 5024SOL    HW126531   3.571   4.062   0.205 -1.7004  0.9682 -1.8685
 5024SOL    HW226532   3.530   4.202   0.208  1.3220  1.2478  0.0366
 5025SOL     OW26533   0.095   4.158   5.632  0.2611 -0.1023  0.2504
 5025SOL    HW126534   0.038   4.114   5.568  0.6592  0.6333 -0.5966
 5025SOL    HW226535   0.119   4.234   5.580  0.5049  0.5161  1.2582
 5026SOL     OW26536   3.326   2.676   1.453 -0.2942 -0.5105 -0.4029
 5026SOL    HW126537   3.420   2.667   1.435 -0.0320 -1.0919  1.2328
 5026SOL    HW226538   3.293   2.703   1.368 -0.5919  0.2605 -0.0397
 5027SOL     OW26539   1.576   1.489  14.865  0.7105 -0.0546  0.2314
 5027SOL    HW126540   1.584   1.511  14.957 -1.3727  1.1788  0.1203
 5027SOL    HW226541   1.535   1.402  14.868  0.4866  0.0091 -0.9098
 5028SOL     OW26542   1.025   0.114   8.966  0.2248 -0.4564 -0.2141
 5028SOL    HW126543   0.934   0.110   8.993 -0.2679 -1.0179 -1.9476
 5028SOL    HW226544   1.038   0.208   8.957 -0.0790 -0.6744 -2.8941
 5029SOL     OW26545   1.438   3.084  16.261  0.9011 -0.1209 -0.3549
 5029SOL    HW126546   1.495   3.109  16.334  0.9861 -2.5302  0.3725
 5029SOL    HW226547   1.493   3.120  16.191  2.4894 -1.9412 -0.0051
 5030SOL     OW26548   1.137   3.254   4.204 -0.0396  0.0635 -0.0625
 5030SOL    HW126549   1.232   3.251   4.211 -0.1278  0.6862  1.4671
 5030SOL    HW226550   1.135   3.312   4.128 -1.3555 -1.3295 -1.0754
 5031SOL     OW26551   1.069   2.336  12.503 -0.6406  0.4968 -0.4892
 5031SOL    HW126552   1.038   2.396  12.571  0.5224  2.5513 -1.7758
 5031SOL    HW226553   0.994   2.277  12.497 -0.3945  0.0962  0.3327
 5032SOL     OW26554   4.664   3.987   7.974  0.7628 -0.5923 -0.0883
 5032SOL    HW126555   4.714   4.067   7.992  0.2898  0.2186 -2.4371
 5032SOL    HW226556   0.012   3.937   7.929  2.1385  0.0730  1.2407
 5033SOL     OW26557   0.709   1.456  15.529  0.4802 -0.0439  0.2256
 5033SOL    HW126558   0.735   1.432  15.618  0.9983 -2.3807 -0.5687
 5033SOL    HW226559   0.663   1.539  15.540 -3.0397 -1.8571 -1.1520
 5034SOL     OW26560   2.755   2.054   6.982  0.3531 -0.4649 -0.8052
 5034SOL    HW126561   2.831   2.061   6.924  1.8439 -3.2126  0.8646
 5034SOL    HW226562   2.752   1.959   6.992  0.0099 -0.3533  0.1100
 5035SOL     OW26563   2.351   0.314   2.399  0.3948  0.1933  0.2130
 5035SOL    HW126564   2.324   0.224   2.383  0.4448  0.2351 -0.0988
 5035SOL    HW226565   2.358   0.349   2.310  1.9003 -0.5582  0.0409
 5036SOL     OW26566   0.630   0.316   2.859 -0.5416 -0.2977 -0.4472
 5036SOL    HW126567   0.587   0.342   2.777 -0.9400  1.7631  0.4172
 5036SOL    HW226568   0.551   0.286   2.903  0.1965  0.9487  1.6990
 5037SOL     OW26569   4.311   4.205   3.041  0.0697  0.1395 -0.6348
 5037SOL    HW126570   4.317   4.114   3.013  0.1263 -0.8034  2.3603
 5037SOL    HW226571   4.381   4.192   3.105 -0.4206 -0.0351 -0.1255
 5038SOL     OW26572   0.467   0.893   0.227 -0.1196 -0.1193 -0.7357
 5038SOL    HW126573   0.555   0.920   0.255 -0.2781 -0.4788  0.1075
 5038SOL    HW226574   0.461   0.804   0.261 -0.5975  0.4164  0.6112
 5039SOL     OW26575   4.194   3.726   7.668  0.1154  0.2698  0.0693
 5039SOL    HW126576   4.172   3.773   7.749 -3.0412 -0.3846 -0.4122
 5039SOL    HW226577   4.228   3.802   7.621  2.3648 -1.9785 -1.9739
 5040SOL     OW26578   2.505   0.595   4.597  0.4086  0.0239 -0.1439
 5040SOL    HW126579   2.455   0.673   4.576 -3.4580 -1.2153  4.5643
 5040SOL    HW226580   2.457   0.559   4.671  0.4848  0.9087  0.3358
 5041SOL     OW26581   4.148   3.716   1.311  0.0130 -0.3085 -0.0506
 5041SOL    HW126582   4.173   3.775   1.382 -0.0003 -1.1223  0.6154
 5041SOL    HW226583   4.177   3.637   1.356 -0.5340 -1.1643 -1.1916
 5042SOL     OW26584   1.705   0.413  14.884 -0.1465  0.1214 -0.3679
 5042SOL    HW126585   1.719   0.322  14.858  1.4500  0.4628 -0.6984
 5042SOL    HW226586   1.729   0.459  14.803  0.1944  1.3196  0.4072
 5043SOL     OW26587   2.788   2.563   6.110  0.0047 -0.3968 -0.2058
 5043SOL    HW126588   2.789   2.529   6.020  1.0388  2.1943 -1.2031
 5043SOL    HW226589   2.779   2.482   6.159  1.8623  0.0466  0.8946
 5044SOL     OW26590   2.355   1.455  14.661  0.2819 -0.0780  0.4818
 5044SOL    HW126591   2.261   1.470  14.674  0.0671 -1.6130  0.6830
 5044SOL    HW226592   2.393   1.534  14.700  2.6058 -0.9167 -0.1222
 5045SOL     OW26593   2.226   0.739  15.173  0.3309 -0.8284 -0.0398
 5045SOL    HW126594   2.185   0.818  15.208  0.5173  0.0699 -1.8064
 5045SOL    HW226595   2.161   0.674  15.197 -0.6933  0.5100  0.8311
 5046SOL     OW26596   3.599   4.031   5.818 -0.1913 -0.3490 -0.0500
 5046SOL    HW126597   3.549   4.108   5.846 -1.5400 -1.5095  0.7612
 5046SOL    HW226598   3.540   3.958   5.835 -4.2265  2.7206 -0.7796
 5047SOL     OW26599   0.399   4.464   6.098  0.0769  0.4127  0.5312
 5047SOL    HW126600   0.471   4.421   6.144 -0.0609 -0.6303 -0.2161
 5047SOL    HW226601   0.443   4.537   6.056 -0.5533 -0.5453 -1.8243
 5048SOL     OW26602   1.357   0.795  11.451  0.1947  0.1829  0.4288
 5048SOL    HW126603   1.399   0.778  11.366 -0.1156 -2.5055  0.8301
 5048SOL    HW226604   1.408   0.736  11.507  0.2185 -0.7182 -0.5419
 5049SOL     OW26605   0.631   1.327  14.402  0.7930  0.5575 -0.2382
 5049SOL    HW126606   0.540   1.325  14.432  0.5631 -1.0179 -1.0393
 5049SOL    HW226607   0.664   1.416  14.413 -0.9709  1.6356 -3.6356
 5050SOL     OW26608   0.028   4.192   9.207  0.0373  0.0042  0.4050
 5050SOL    HW126609   4.667   4.182   9.156  0.5569 -1.0290 -0.2021
 5050SOL    HW226610   0.061   4.275   9.174  1.2582 -0.8246 -0.4286
 5051SOL     OW26611   1.168   2.708   9.120  0.1087 -0.0389  0.6985
 5051SOL    HW126612   1.082   2.722   9.081  1.5123  1.1185 -2.0027
 5051SOL    HW226613   1.188   2.796   9.152 -0.0013  0.2414 -0.0008
 5052SOL     OW26614   3.916   1.649   3.203  0.4216 -0.6017  0.2941
 5052SOL    HW126615   3.927   1.563   3.161  1.2987 -1.0740  1.5049
 5052SOL    HW226616   3.949   1.701   3.129  0.2700 -1.0656 -0.0996
 5053SOL     OW26617   0.021   2.110   7.394 -0.4965 -0.4612  0.2743
 5053SOL    HW126618   0.092   2.055   7.360 -1.1252 -2.2146  1.8287
 5053SOL    HW226619   0.079   2.185   7.408 -3.7751  2.3991 -1.4114
 5054SOL     OW26620   0.794   3.296   4.450  0.1411  0.2267 -0.8466
 5054SOL    HW126621   0.714   3.345   4.470  1.1300  0.2393  3.0336
 5054SOL    HW226622   0.776   3.263   4.362  0.2620 -1.7832 -0.1213
 5055SOL     OW26623   3.854   1.080  16.650  0.3487 -0.0555  0.3473
 5055SOL    HW126624   3.864   1.127  16.566  1.2914 -1.7237 -0.4585
 5055SOL    HW226625   3.793   1.010  16.629 -1.3784  0.7370  2.6838
 5056SOL     OW26626   0.173   0.402   0.927 -0.1560  0.1579  0.3775
 5056SOL    HW126627   0.166   0.427   0.834 -1.0841  2.2822  1.0147
 5056SOL    HW226628   0.098   0.450   0.962 -0.4071  1.0431 -1.3740
 5057SOL     OW26629   4.156   2.967   9.609  0.1810  0.4131  0.2539
 5057SOL    HW126630   4.223   2.920   9.658 -0.7960 -0.7102  0.5154
 5057SOL    HW226631   4.149   3.050   9.657  0.0578 -0.0729  1.0857
 5058SOL     OW26632   0.788   2.687  10.445  0.2201 -0.6032  0.3138
 5058SOL    HW126633   0.769   2.705  10.537  0.6731  0.7213  0.1392
 5058SOL    HW226634   0.723   2.619  10.429  1.4460 -1.6979 -0.0533
 5059SOL     OW26635   2.413   0.967  10.546  0.2901  0.5886 -0.0752
 5059SOL    HW126636   2.456   0.886  10.518  2.7641  1.9900 -0.3066
 5059SOL    HW226637   2.398   1.008  10.461  0.6065  0.4791 -0.1843
 5060SOL     OW26638   2.003   3.589  13.829  0.2249 -0.5174 -0.4856
 5060SOL    HW126639   1.977   3.628  13.746  1.4756 -1.6003 -1.3935
 5060SOL    HW226640   2.072   3.527  13.805  0.5901  0.3369 -1.6387
 5061SOL     OW26641   3.288   3.080   3.905 -0.0385  0.9011 -0.0852
 5061SOL    HW126642   3.197   3.060   3.926  0.6394 -1.4045  0.6831
 5061SOL    HW226643   3.279   3.145   3.836 -1.6961 -0.3519 -1.0355
 5062SOL     OW26644   3.266   3.184   8.389  0.0915  0.0138 -0.0666
 5062SOL    HW126645   3.361   3.185   8.401  0.1863  1.2230 -0.9526
 5062SOL    HW226646   3.246   3.240   8.464  0.1358  0.0936 -0.1155
 5063SOL     OW26647   4.392   3.426  14.945 -0.0390  0.2590 -0.4259
 5063SOL    HW126648   4.357   3.491  15.005  0.2579  0.6493 -0.6786
 5063SOL    HW226649   4.484   3.450  14.938 -0.2379  1.1507 -0.0164
 5064SOL     OW26650   2.334   2.943  17.191  0.0023  0.6380 -0.6301
 5064SOL    HW126651   2.249   2.982  17.172  0.1240  0.8767 -0.6798
 5064SOL    HW226652   2.393   3.017  17.178 -0.8832  1.1691 -1.6552
 5065SOL     OW26653   3.030   1.745   4.365 -0.0815  0.2705  0.2505
 5065SOL    HW126654   2.964   1.730   4.432  1.9328  1.6173  2.5117
 5065SOL    HW226655   3.105   1.762   4.422 -0.0098 -2.2811  0.9140
 5066SOL     OW26656   1.445   1.287   5.344  0.2726 -0.0964  0.3422
 5066SOL    HW126657   1.415   1.343   5.273 -0.7373 -0.1992  0.6929
 5066SOL    HW226658   1.463   1.201   5.305  0.7102  1.0664 -2.0147
 5067SOL     OW26659   1.337   0.786   5.330  0.0630  0.0558  0.2116
 5067SOL    HW126660   1.291   0.707   5.360 -1.9822  0.0380 -3.0001
 5067SOL    HW226661   1.317   0.850   5.399 -1.7239  0.8501 -1.0391
 5068SOL     OW26662   3.326   1.548   7.915 -0.1045  0.2028 -0.2245
 5068SOL    HW126663   3.376   1.485   7.967 -1.3655 -0.9413 -0.4098
 5068SOL    HW226664   3.390   1.547   7.843  0.3334 -0.4926  0.1717
 5069SOL     OW26665   1.353   0.656   7.652 -0.1827 -0.7222 -0.4366
 5069SOL    HW126666   1.340   0.639   7.746  0.1842  1.4864  0.0101
 5069SOL    HW226667   1.442   0.691   7.660 -0.6155  0.0924  0.8356
 5070SOL     OW26668   1.705   3.912   1.523 -0.4539  0.2766 -1.0324
 5070SOL    HW126669   1.765   3.914   1.598  1.1251  1.6364 -2.3401
 5070SOL    HW226670   1.775   3.899   1.460  1.7286  0.1199  1.4325
 5071SOL     OW26671   0.851   1.109   9.147  0.3365 -0.7610  0.0223
 5071SOL    HW126672   0.783   1.171   9.172 -0.3856 -0.6529 -2.1812
 5071SOL    HW226673   0.799   1.030   9.128  0.0907 -0.5889 -0.0201
 5072SOL     OW26674   3.786   1.911   6.673 -0.1703  0.5329 -0.1316
 5072SOL    HW126675   3.840   1.973   6.624 -3.1349  2.3991 -1.0547
 5072SOL    HW226676   3.744   1.867   6.599  0.8778 -0.5321 -0.0987
 5073SOL     OW26677   0.610   4.386  17.447  0.1410 -0.0596  0.0468
 5073SOL    HW126678   0.648   4.474  17.442  0.8617 -0.4814 -2.0441
 5073SOL    HW226679   0.573   4.386  17.535  1.5470 -1.0391  0.6336
 5074SOL     OW26680   4.512   0.177   1.251  0.4022 -0.3589 -0.1988
 5074SOL    HW126681   4.419   0.191   1.235  0.6153  1.3789  0.0812
 5074SOL    HW226682   4.532   0.137   1.167 -2.0691  1.1624 -1.4959
 5075SOL     OW26683   2.886   2.981   5.889 -0.1700  0.1124  0.2722
 5075SOL    HW126684   2.895   2.901   5.940  0.2680  0.7993  1.2897
 5075SOL    HW226685   2.819   2.958   5.825 -0.4944 -1.0240  1.0309
 5076SOL     OW26686   4.314   2.166   3.755  0.6825  0.5188  0.1744
 5076SOL    HW126687   4.330   2.254   3.722 -0.5395  0.0691 -1.6184
 5076SOL    HW226688   4.401   2.126   3.745  0.3672  0.1267 -1.0698
 5077SOL     OW26689   3.070   1.413   3.129 -0.1883 -0.4113  0.5587
 5077SOL    HW126690   3.116   1.361   3.195 -0.8350 -0.2928  1.1105
 5077SOL    HW226691   3.133   1.412   3.057  1.8679 -0.9355  2.3524
 5078SOL     OW26692   4.620   0.902   2.936 -0.1471 -0.1851 -0.7751
 5078SOL    HW126693   4.534   0.868   2.961 -0.6374  1.2522 -0.5328
 5078SOL    HW226694   4.612   0.916   2.842 -1.1209  0.2943 -0.6133
 5079SOL     OW26695   0.655   4.149   2.055  0.0060 -0.0260  0.3280
 5079SOL    HW126696   0.716   4.137   2.128  2.4100  0.0660 -1.6861
 5079SOL    HW226697   0.683   4.073   2.004  0.5084 -0.1240  0.7483
 5080SOL     OW26698   4.663   1.378   3.891 -0.1913 -0.0032 -0.0457
 5080SOL    HW126699   4.631   1.346   3.975  0.3007  2.1776  0.9776
 5080SOL    HW226700   0.004   1.445   3.923  1.4183 -0.9722 -1.0772
 5081SOL     OW26701   3.473   4.297   2.503 -0.1541  0.1151 -0.1519
 5081SOL    HW126702   3.537   4.249   2.450  0.9714  1.5011 -0.0543
 5081SOL    HW226703   3.442   4.363   2.440  2.2881  0.8635 -0.5744
 5082SOL     OW26704   1.608   1.210   9.360 -0.3963  0.1265  0.1074
 5082SOL    HW126705   1.694   1.247   9.337 -0.9363  1.0219 -0.4666
 5082SOL    HW226706   1.569   1.213   9.273 -0.3307 -0.0484  0.0708
 5083SOL     OW26707   3.353   3.240   8.986 -0.2484  0.3004  0.2531
 5083SOL    HW126708   3.320   3.245   9.076 -0.2800 -2.8566  0.4088
 5083SOL    HW226709   3.372   3.332   8.972  0.0473 -0.1150 -1.9739
 5084SOL     OW26710   1.914   3.746   1.920  0.0605 -0.6270 -0.1192
 5084SOL    HW126711   1.944   3.711   1.836  2.1571  1.2079 -0.1262
 5084SOL    HW226712   1.999   3.772   1.955  0.6979 -1.4672 -1.0394
 5085SOL     OW26713   3.977   0.938  13.380  0.0778 -0.0472  0.3894
 5085SOL    HW126714   3.951   1.014  13.329 -0.8242  0.8779  2.2383
 5085SOL    HW226715   4.018   0.979  13.456 -0.2028  1.9961 -0.5692
 5086SOL     OW26716   1.630   2.319   1.673 -0.2107  0.6039 -0.1135
 5086SOL    HW126717   1.699   2.310   1.607  0.4077  0.0333  0.6055
 5086SOL    HW226718   1.577   2.243   1.649 -2.4363  2.1734 -0.1501
 5087SOL     OW26719   4.666   1.716   6.604  0.4926  0.3843  0.1801
 5087SOL    HW126720   4.611   1.790   6.577  2.4047  1.0423 -1.9482
 5087SOL    HW226721   4.689   1.670   6.523 -0.7717  0.5050 -0.2511
 5088SOL     OW26722   0.347   2.150   9.705  0.4283  0.9027  0.1568
 5088SOL    HW126723   0.327   2.234   9.746 -1.9178  1.3661 -1.9206
 5088SOL    HW226724   0.441   2.158   9.688  0.5911  0.0179  0.6321
 5089SOL     OW26725   4.296   1.694   8.622  0.7427 -0.6268 -1.3477
 5089SOL    HW126726   4.316   1.768   8.565  0.7823 -0.4376 -1.0829
 5089SOL    HW226727   4.387   1.666   8.633  0.5866 -1.4357 -2.0535
 5090SOL     OW26728   0.747   1.087   1.692  0.5788 -0.2205 -0.4686
 5090SOL    HW126729   0.785   1.175   1.702  4.1610 -1.8499  0.3460
 5090SOL    HW226730   0.753   1.075   1.597 -2.1683  1.4547 -0.8403
 5091SOL     OW26731   1.971   4.269   2.226 -0.0080  0.2060  0.1447
 5091SOL    HW126732   1.982   4.262   2.321 -0.7144  0.7205  0.2571
 5091SOL    HW226733   2.060   4.254   2.193 -0.7868 -0.3723 -1.6711
 5092SOL     OW26734   2.884   2.485   3.740 -0.3731  0.5185  0.7547
 5092SOL    HW126735   2.794   2.458   3.756 -0.0740 -1.5955 -1.0477
 5092SOL    HW226736   2.920   2.398   3.720 -0.5013  0.5670  0.3155
 5093SOL     OW26737   1.413   0.446   2.585  0.4464 -0.4031  0.0171
 5093SOL    HW126738   1.363   0.372   2.619 -0.3471  0.6567  1.1460
 5093SOL    HW226739   1.464   0.409   2.513  1.6685 -0.4743  0.9339
 5094SOL     OW26740   0.283   1.819   1.244  0.1724  0.1009 -0.0055
 5094SOL    HW126741   0.250   1.765   1.316 -1.9973  0.7011 -0.5441
 5094SOL    HW226742   0.207   1.878   1.240 -1.6353 -2.3640 -2.0279
 5095SOL     OW26743   2.707   1.473   2.062 -0.8692 -0.0299  0.2068
 5095SOL    HW126744   2.691   1.564   2.035 -0.2046  0.4003  1.2534
 5095SOL    HW226745   2.679   1.442   1.976 -1.4336 -0.8458  0.6842
 5096SOL     OW26746   2.915   0.598   4.142 -0.2497  0.1671 -0.6130
 5096SOL    HW126747   2.901   0.507   4.167 -0.2742  0.3797  0.1335
 5096SOL    HW226748   2.986   0.592   4.078  0.4444 -0.9341  0.2839
 5097SOL     OW26749   4.435   4.703   4.058  0.2684 -0.3291  0.1460
 5097SOL    HW126750   4.502   4.717   4.125  0.4926 -0.3242 -0.0774
 5097SOL    HW226751   4.409   0.072   4.037 -0.6120 -1.0013 -1.5892
 5098SOL     OW26752   1.247   1.114   2.487  0.5070  0.2177 -0.3010
 5098SOL    HW126753   1.325   1.101   2.543  0.2843  2.4354  0.5320
 5098SOL    HW226754   1.199   1.039   2.521 -0.8805  0.8002 -1.0159
 5099SOL     OW26755   1.782   4.659  17.445 -0.1415 -0.0361  0.4247
 5099SOL    HW126756   1.828   4.714  17.507  0.4031 -1.1595  1.0128
 5099SOL    HW226757   1.825   4.574  17.452  0.1429  0.2327  1.9222
 5100SOL     OW26758   2.997   3.690   3.348 -0.3969  0.2477 -0.0106
 5100SOL    HW126759   3.025   3.765   3.295 -1.8759 -0.2900 -1.5555
 5100SOL    HW226760   3.083   3.649   3.356  0.6566  1.9879 -2.3143
 5101SOL     OW26761   2.652   1.261   5.564  0.0408  0.6588  0.2994
 5101SOL    HW126762   2.605   1.259   5.648 -1.4783 -2.2778 -0.6619
 5101SOL    HW226763   2.715   1.333   5.575 -0.3129  1.2416 -1.4338
 5102SOL     OW26764   1.367   3.438   4.935 -0.0670  0.1872 -0.4156
 5102SOL    HW126765   1.280   3.408   4.910 -0.3198  1.0941 -0.6350
 5102SOL    HW226766   1.363   3.533   4.919 -0.3653  0.0629 -1.0639
 5103SOL     OW26767   2.733   1.489  14.917  0.1943  0.3267  0.0001
 5103SOL    HW126768   2.752   1.489  14.823 -2.5664 -0.7331 -0.5694
 5103SOL    HW226769   2.823   1.474  14.946 -0.3179 -0.0670  1.3732
 5104SOL     OW26770   4.193   1.856  15.670 -0.6392 -0.1179  0.4479
 5104SOL    HW126771   4.215   1.861  15.763 -0.1654 -1.5649  0.4227
 5104SOL    HW226772   4.274   1.898  15.642 -1.4542  0.5511 -0.9128
 5105SOL     OW26773   1.657   3.109  13.065 -0.0964 -0.8168  0.7036
 5105SOL    HW126774   1.633   3.163  12.990  2.7592 -0.3727  0.1133
 5105SOL    HW226775   1.574   3.078  13.101 -0.1021 -1.8715 -0.2347
 5106SOL     OW26776   0.944   2.293   3.385  0.0673  0.0803 -0.5403
 5106SOL    HW126777   0.878   2.304   3.316  0.3007 -3.2843 -1.3410
 5106SOL    HW226778   0.886   2.318   3.457 -0.2149 -1.9024 -0.0809
 5107SOL     OW26779   3.156   1.632   8.873  0.0735 -0.1882 -0.0321
 5107SOL    HW126780   3.215   1.603   8.803 -0.4524 -0.8444 -0.2083
 5107SOL    HW226781   3.070   1.611   8.835 -1.3465  1.4673  2.2971
 5108SOL     OW26782   1.838   0.463   6.260  0.6470 -0.1532  0.1542
 5108SOL    HW126783   1.819   0.408   6.336  0.6575  0.7816  0.8204
 5108SOL    HW226784   1.827   0.548   6.301 -1.3991 -0.6642  0.6398
 5109SOL     OW26785   3.315   3.919   0.126 -0.3295  0.5502 -0.1731
 5109SOL    HW126786   3.340   3.921   0.219 -0.7175  1.6620 -0.0992
 5109SOL    HW226787   3.264   3.838   0.120  1.4718 -0.5054 -1.4682
 5110SOL     OW26788   2.204   0.030   7.244 -0.9084 -0.1248 -0.0588
 5110SOL    HW126789   2.243   4.695   7.177 -1.6562 -0.9934  0.2309
 5110SOL    HW226790   2.175   0.104   7.190  1.3805  1.2129  0.5538
 5111SOL     OW26791   1.512   1.485  10.417 -0.0852  0.3667 -0.1320
 5111SOL    HW126792   1.562   1.545  10.361  1.8682 -2.9316 -1.8946
 5111SOL    HW226793   1.560   1.494  10.499  0.1124  1.7360 -0.3891
 5112SOL     OW26794   3.886   3.501   3.706 -0.0126  0.0949 -0.6251
 5112SOL    HW126795   3.980   3.485   3.693  0.1204 -0.2700  0.7524
 5112SOL    HW226796   3.865   3.433   3.770  0.6570  0.1737 -0.3190
 5113SOL     OW26797   2.287   0.956   2.407  0.1120 -0.2578  0.5534
 5113SOL    HW126798   2.282   0.976   2.501  0.0256 -2.6519  1.0674
 5113SOL    HW226799   2.365   0.900   2.408 -0.6173 -1.3038 -1.2652
 5114SOL     OW26800   2.529   2.865   3.127 -0.1559  0.3633  0.3646
 5114SOL    HW126801   2.518   2.947   3.174  4.2656  0.7888  0.7093
 5114SOL    HW226802   2.606   2.890   3.075  0.2510 -1.5000  0.0845
 5115SOL     OW26803   2.364   2.814  16.515 -0.3205  0.3515  0.2498
 5115SOL    HW126804   2.427   2.859  16.458  0.8149  0.0030  1.2147
 5115SOL    HW226805   2.285   2.848  16.473 -1.8835 -1.4201  1.7411
 5116SOL     OW26806   1.700   0.737   7.422  0.4055  0.1083  0.1323
 5116SOL    HW126807   1.737   0.654   7.454  2.4765 -0.1403 -2.9259
 5116SOL    HW226808   1.755   0.761   7.347  0.0820  1.9204  0.4740
 5117SOL     OW26809   2.614   0.016   4.576  0.1487 -0.1660 -0.0180
 5117SOL    HW126810   2.699   4.707   4.609  0.2855 -0.3769 -0.5665
 5117SOL    HW226811   2.587   0.062   4.656 -0.3418 -1.3294  0.4807
 5118SOL     OW26812   3.771   3.799  16.018 -0.4847  0.2644  0.4604
 5118SOL    HW126813   3.720   3.784  16.098 -0.4577  0.1698  0.4596
 5118SOL    HW226814   3.734   3.730  15.963  0.9256 -2.8220  3.3764
 5119SOL     OW26815   0.509   2.545   4.325  0.4205 -0.3821 -0.3145
 5119SOL    HW126816   0.429   2.556   4.274 -0.6982  1.2042  1.7548
 5119SOL    HW226817   0.534   2.636   4.344  2.0672 -0.9627  0.2644
 5120SOL     OW26818   1.407   4.398   2.383 -0.2594 -0.0863 -0.2373
 5120SOL    HW126819   1.324   4.370   2.344 -0.3967 -0.7672  0.5454
 5120SOL    HW226820   1.420   4.476   2.330 -1.3919  1.0004  1.1046
 5121SOL     OW26821   1.258   1.582  10.333 -0.1881  0.1572 -0.0707
 5121SOL    HW126822   1.194   1.520  10.368  1.1599 -0.5375  1.1327
 5121SOL    HW226823   1.339   1.557  10.378  1.4323  0.8266 -2.5898
 5122SOL     OW26824   0.996   4.165  14.986 -0.4789 -0.6546  0.5377
 5122SOL    HW126825   1.090   4.181  14.975 -0.7634  0.2178 -0.6774
 5122SOL    HW226826   0.966   4.182  14.896  1.1830 -0.9706 -0.0797
 5123SOL     OW26827   1.593   0.927  15.451 -0.4543 -0.1390  0.1151
 5123SOL    HW126828   1.664   0.938  15.389 -1.9195  2.1419 -1.1582
 5123SOL    HW226829   1.593   0.834  15.472  2.9429 -0.4479 -1.2484
 5124SOL     OW26830   1.385   0.910   9.684 -0.0607 -0.2117 -0.1574
 5124SOL    HW126831   1.308   0.869   9.723  0.1331 -0.6029 -0.1786
 5124SOL    HW226832   1.450   0.863   9.737 -2.0279  0.1454  2.5347
 5125SOL     OW26833   2.160   1.547   5.029  0.1974  0.4939 -1.2081
 5125SOL    HW126834   2.080   1.515   5.070  0.3052 -1.4474 -2.4867
 5125SOL    HW226835   2.224   1.523   5.096 -1.2231  0.6977  0.2128
 5126SOL     OW26836   1.658   0.095   2.184 -0.3350 -0.0310  0.3531
 5126SOL    HW126837   1.594   0.126   2.120 -0.2006  2.1763  1.2770
 5126SOL    HW226838   1.710   0.175   2.190 -1.7181  0.8912 -0.0070
 5127SOL     OW26839   0.255   3.061   5.377 -0.1213 -0.1399 -0.0025
 5127SOL    HW126840   0.331   3.111   5.408  1.7065 -2.1084 -1.2269
 5127SOL    HW226841   0.294   3.013   5.304  2.0465  0.3313  0.8233
 5128SOL     OW26842   3.773   3.684   3.547  0.5143  0.7784  0.7578
 5128SOL    HW126843   3.813   3.769   3.568 -2.4469  2.3393 -0.0171
 5128SOL    HW226844   3.818   3.624   3.606  0.1087 -1.8560 -1.6184
 5129SOL     OW26845   1.477   4.596   2.223 -0.0094  0.0196 -0.5771
 5129SOL    HW126846   1.552   4.644   2.188 -0.1559  0.7651  0.1055
 5129SOL    HW226847   1.417   4.591   2.148 -1.3693  2.3397  0.3319
 5130SOL     OW26848   0.956   0.973   7.528  0.0240 -0.4254 -0.3129
 5130SOL    HW126849   0.886   0.911   7.507  1.0445 -1.0462 -1.8495
 5130SOL    HW226850   1.034   0.921   7.509 -0.6849 -0.8314 -2.1232
 5131SOL     OW26851   0.474   0.910  16.247 -0.3633 -0.8330 -0.2608
 5131SOL    HW126852   0.564   0.879  16.234  0.8090  2.5245 -0.3791
 5131SOL    HW226853   0.485   0.998  16.211  0.6225 -0.9783 -0.3194
 5132SOL     OW26854   3.681   1.462   8.119  0.0297  0.3710  0.1463
 5132SOL    HW126855   3.714   1.408   8.048 -0.6460  0.6501 -0.3822
 5132SOL    HW226856   3.688   1.548   8.076  3.5051  0.5261  1.0397
 5133SOL     OW26857   3.866   1.891   2.059  0.8076 -0.1839 -0.6200
 5133SOL    HW126858   3.909   1.977   2.060 -0.6726  0.5450 -0.0911
 5133SOL    HW226859   3.880   1.862   2.149 -0.7125 -0.6267 -0.5291
 5134SOL     OW26860   3.733   1.567   4.503 -0.7962 -0.2420  0.0851
 5134SOL    HW126861   3.790   1.628   4.455 -0.6594 -1.3671 -1.1757
 5134SOL    HW226862   3.643   1.591   4.482 -0.4621  0.3179 -0.7037
 5135SOL     OW26863   1.105   4.574  16.029 -0.4722 -0.0670  0.2213
 5135SOL    HW126864   1.062   4.646  15.983  0.5987  0.5282  0.1279
 5135SOL    HW226865   1.131   4.519  15.955 -0.5175 -0.4130  0.4593
 5136SOL     OW26866   3.682   0.528  13.472 -0.3390  0.0863 -0.1899
 5136SOL    HW126867   3.639   0.544  13.557 -2.3150  0.1306 -1.1945
 5136SOL    HW226868   3.725   0.444  13.486 -1.2660 -0.2650  0.5256
 5137SOL     OW26869   0.834   0.091   6.343 -0.0841 -0.1583  0.0960
 5137SOL    HW126870   0.809   0.120   6.256  1.2560  0.4669 -0.0866
 5137SOL    HW226871   0.847   0.173   6.390  3.2441 -0.7994  0.2833
 5138SOL     OW26872   3.310   0.503   3.398 -0.7134  0.3495  0.3963
 5138SOL    HW126873   3.340   0.479   3.310  2.1566  0.2964  1.3612
 5138SOL    HW226874   3.316   0.599   3.397  0.1538  0.2972  0.3196
 5139SOL     OW26875   0.780   2.548   7.766  0.0290 -0.0171  0.3455
 5139SOL    HW126876   0.710   2.594   7.814  0.8536 -0.4186  1.9197
 5139SOL    HW226877   0.720   2.493   7.715  1.5634 -0.5307 -0.8962
 5140SOL     OW26878   3.098   0.690   1.712 -0.0725  0.2683 -0.2803
 5140SOL    HW126879   3.011   0.703   1.675  0.2693  0.2469 -1.0735
 5140SOL    HW226880   3.075   0.723   1.799  1.6599 -2.0678  1.0650
 5141SOL     OW26881   1.128   1.421  15.838 -0.5263  0.1319 -0.2074
 5141SOL    HW126882   1.067   1.348  15.850 -0.2596 -0.4902 -2.5621
 5141SOL    HW226883   1.168   1.429  15.925  1.3791  0.4544 -1.1136
 5142SOL     OW26884   1.834   3.169   5.781  0.4752  0.3600 -0.4105
 5142SOL    HW126885   1.872   3.097   5.730 -1.2894 -1.2042  0.5082
 5142SOL    HW226886   1.876   3.250   5.752 -0.1746  1.0879  0.6773
 5143SOL     OW26887   3.831   0.155  10.786  1.2361  0.2106  0.2788
 5143SOL    HW126888   3.801   0.064  10.789 -0.3187  0.7154  0.2554
 5143SOL    HW226889   3.832   0.172  10.692  0.8305 -0.0192  0.2303
 5144SOL     OW26890   0.547   2.450   2.895  0.3374 -0.5534  0.1009
 5144SOL    HW126891   0.627   2.438   2.843  1.2025  2.0296  0.7811
 5144SOL    HW226892   0.518   2.360   2.885 -0.0664 -0.2012 -1.8389
 5145SOL     OW26893   0.309   1.693   7.596 -0.1656  0.2896  0.2160
 5145SOL    HW126894   0.337   1.604   7.571  0.1076  0.1102  1.1925
 5145SOL    HW226895   0.219   1.676   7.569  0.3503  0.3443 -1.5865
 5146SOL     OW26896   4.649   3.478   3.216  0.1627 -0.0442  0.4276
 5146SOL    HW126897   4.676   3.443   3.302  0.2240 -0.5493  0.2031
 5146SOL    HW226898   0.016   3.490   3.178  1.7679  0.9098  4.3874
 5147SOL     OW26899   3.003   0.816   6.185  0.1685  0.2804 -0.2551
 5147SOL    HW126900   3.048   0.746   6.231 -1.3457  0.2944  1.2521
 5147SOL    HW226901   3.080   0.862   6.153 -0.8720  1.6713 -0.7640
 5148SOL     OW26902   0.236   3.068   6.893 -0.0091  0.4648 -0.2677
 5148SOL    HW126903   0.169   3.004   6.918 -0.9048  1.2052 -0.7877
 5148SOL    HW226904   0.265   3.105   6.977  0.4258  1.5723 -0.9173
 5149SOL     OW26905   0.045   4.352   3.930  0.6486 -0.5178 -0.1899
 5149SOL    HW126906   4.698   4.415   3.903  0.6964  0.0728  1.0597
 5149SOL    HW226907   0.111   4.385   3.869  1.2577 -0.0693  0.6953
 5150SOL     OW26908   4.074   0.375   4.737  0.2160  0.1827  0.6047
 5150SOL    HW126909   4.160   0.380   4.695 -0.5751  1.5725 -0.8778
 5150SOL    HW226910   4.012   0.361   4.664  0.8825  3.4179 -0.5872
 5151SOL     OW26911   4.260   1.882   0.746 -0.0175  0.3738 -0.7474
 5151SOL    HW126912   4.254   1.938   0.669  1.0754  0.3055 -0.8812
 5151SOL    HW226913   4.239   1.797   0.708  1.9932  0.3544 -1.8394
 5152SOL     OW26914   0.525   1.003   5.877  0.6050 -0.4541  0.0346
 5152SOL    HW126915   0.510   0.949   5.800 -3.2188 -0.7305  0.9708
 5152SOL    HW226916   0.607   1.045   5.855 -0.1226  1.4537  0.9748
 5153SOL     OW26917   4.471   1.558   2.802  0.3047  0.1250  0.4647
 5153SOL    HW126918   4.459   1.470   2.768  1.0623  0.0873  0.2853
 5153SOL    HW226919   4.559   1.586   2.775  0.2491 -0.7245 -0.5741
 5154SOL     OW26920   4.463   3.386   3.609 -0.4136 -0.7109 -0.4481
 5154SOL    HW126921   4.468   3.471   3.567  1.8559 -1.9011 -2.5413
 5154SOL    HW226922   4.478   3.415   3.699 -0.0504 -1.1303 -0.3721
 5155SOL     OW26923   0.065   3.913   1.414 -0.1677  0.0461  0.6040
 5155SOL    HW126924   0.146   3.963   1.408  1.0203 -2.2918 -2.7928
 5155SOL    HW226925   0.016   3.941   1.492 -0.3226 -0.9283  0.8475
 5156SOL     OW26926   2.369   0.677   4.297 -0.0284 -0.1065 -0.4330
 5156SOL    HW126927   2.374   0.582   4.306 -1.2788 -0.3231 -2.0938
 5156SOL    HW226928   2.293   0.694   4.242  1.4295  0.2203 -2.3575
 5157SOL     OW26929   3.934   1.343  13.745 -0.3268 -0.4545  0.5474
 5157SOL    HW126930   3.918   1.433  13.774 -1.2434  0.1840 -2.0220
 5157SOL    HW226931   4.027   1.339  13.727 -0.8806 -1.8397 -1.9650
 5158SOL     OW26932   2.133   1.762   8.061 -0.1650 -0.2269 -0.5496
 5158SOL    HW126933   2.178   1.732   8.140  0.4321  2.7044  0.2162
 5158SOL    HW226934   2.042   1.732   8.066 -0.2102  0.2695  1.3322
 5159SOL     OW26935   4.302   4.479   9.231 -0.3278  0.3898 -0.0787
 5159SOL    HW126936   4.242   4.454   9.161 -0.4699 -1.5454  0.7352
 5159SOL    HW226937   4.241   4.480   9.304 -0.0186  3.0949  0.1163
 5160SOL     OW26938   1.107   1.365  16.714 -0.3759  0.2837 -0.5375
 5160SOL    HW126939   1.038   1.430  16.727  1.0037  1.6437 -0.0778
 5160SOL    HW226940   1.180   1.415  16.750 -0.7153  0.2937  0.1331
 5161SOL     OW26941   2.098   2.658  14.356  0.4487 -0.7690 -0.2982
 5161SOL    HW126942   2.161   2.586  14.351  1.7048  0.2382  1.1177
 5161SOL    HW226943   2.040   2.629  14.285  1.5666  0.1595 -1.5711
 5162SOL     OW26944   1.594   0.867   6.668 -0.0901  0.7622  0.6226
 5162SOL    HW126945   1.601   0.927   6.742 -0.5434  1.7019 -0.0920
 5162SOL    HW226946   1.514   0.894   6.623 -0.6488 -2.7833 -0.5002
 5163SOL     OW26947   2.758   0.199   5.281 -0.0218 -0.0422 -0.9446
 5163SOL    HW126948   2.777   0.112   5.316  1.0752  0.8289  0.5939
 5163SOL    HW226949   2.814   0.211   5.204 -0.7480 -0.1821 -1.5010
 5164SOL     OW26950   1.225   0.687   7.175  0.6348  0.1196  0.2258
 5164SOL    HW126951   1.173   0.733   7.109  1.1370  1.0097  0.4534
 5164SOL    HW226952   1.174   0.703   7.255 -0.5564 -0.2529 -0.4596
 5165SOL     OW26953   3.105   0.978   6.436 -0.2884  0.1108 -0.5216
 5165SOL    HW126954   3.078   0.956   6.525 -1.2975 -2.1989 -1.3843
 5165SOL    HW226955   3.047   0.926   6.380 -2.4426  0.1810  1.6283
 5166SOL     OW26956   2.304   1.778   6.050  0.0682 -0.4322 -0.5205
 5166SOL    HW126957   2.329   1.693   6.085  2.2361  0.1417 -0.6741
 5166SOL    HW226958   2.335   1.784   5.960  2.0767  2.0331  0.3262
 5167SOL     OW26959   0.248   2.428   7.697 -0.4466 -0.5701 -0.2964
 5167SOL    HW126960   0.306   2.373   7.749 -0.4786  0.0194  0.3591
 5167SOL    HW226961   0.215   2.485   7.767  0.5683  2.9466 -2.6677
 5168SOL     OW26962   1.975   2.363   3.244 -0.1656  0.0350  0.2721
 5168SOL    HW126963   1.881   2.380   3.247 -0.2840 -0.5243 -0.1589
 5168SOL    HW226964   2.017   2.445   3.216  0.1171 -0.9358 -2.1676
 5169SOL     OW26965   0.416   0.652  14.892 -0.1287 -0.2869  0.2867
 5169SOL    HW126966   0.360   0.725  14.866  0.6567  0.5988  1.0716
 5169SOL    HW226967   0.433   0.663  14.986 -0.7113 -0.5989  0.4288
 5170SOL     OW26968   4.451   4.706   3.437  0.2748 -0.4629  0.1891
 5170SOL    HW126969   4.457   4.657   3.519 -0.4990  1.3310  1.3322
 5170SOL    HW226970   4.402   4.644   3.384 -0.3966  0.1870  0.0395
 5171SOL     OW26971   2.667   2.038   6.124 -0.4074 -0.0694  0.2263
 5171SOL    HW126972   2.699   2.068   6.038 -2.0821 -0.9473 -0.7000
 5171SOL    HW226973   2.676   1.944   6.110 -1.0255 -0.2487  1.0399
 5172SOL     OW26974   4.543   3.787   1.325 -0.3401  0.3836 -0.0958
 5172SOL    HW126975   4.496   3.866   1.296  0.3593  1.3821  1.4735
 5172SOL    HW226976   4.621   3.826   1.365 -0.4293  0.5022 -0.0387
 5173SOL     OW26977   3.222   4.034  10.614  0.1761  0.3042  0.6372
 5173SOL    HW126978   3.204   4.035  10.708  1.3825  0.1926  0.8705
 5173SOL    HW226979   3.317   4.040  10.605  0.6764 -1.7156  4.3430
 5174SOL     OW26980   0.714   1.365   5.948  0.1793 -0.5755  0.0287
 5174SOL    HW126981   0.626   1.380   5.914  0.7569  0.2699 -1.1113
 5174SOL    HW226982   0.768   1.422   5.893  0.6679 -2.1510 -1.1279
 5175SOL     OW26983   4.289   1.830   8.163  0.0731 -0.6954 -0.0150
 5175SOL    HW126984   4.359   1.886   8.130 -1.3478  1.0463 -0.0395
 5175SOL    HW226985   4.231   1.822   8.088 -0.0723 -0.6284  0.0913
 5176SOL     OW26986   4.059   0.309   5.494  0.5933  0.5140  0.6578
 5176SOL    HW126987   4.111   0.238   5.458  1.3942  1.0752  0.7198
 5176SOL    HW226988   4.098   0.382   5.447 -0.8554  0.3437 -0.8063
 5177SOL     OW26989   1.396   1.886   1.897 -0.2016 -0.1985 -0.0244
 5177SOL    HW126990   1.331   1.821   1.925 -0.0761  0.3147  1.4401
 5177SOL    HW226991   1.344   1.948   1.846 -2.0673 -0.6358  1.3264
 5178SOL     OW26992   3.853   4.609  15.743  0.3113  0.2281 -0.0782
 5178SOL    HW126993   3.757   4.617  15.744  0.0879 -2.4640  0.9599
 5178SOL    HW226994   3.863   4.575  15.832 -2.2376 -0.2169  0.0605
 5179SOL     OW26995   4.634   1.869   6.142  0.3780  0.9628  0.4887
 5179SOL    HW126996   4.686   1.927   6.198 -0.4643  1.6403  0.5681
 5179SOL    HW226997   4.700   1.831   6.084 -0.4333  1.8081 -0.9757
 5180SOL     OW26998   3.721   3.606   5.767  0.5402  0.4455  0.2504
 5180SOL    HW126999   3.730   3.512   5.750 -1.3336  0.6719 -2.0820
 5180SOL    HW227000   3.751   3.625   5.678  2.1075 -0.5576  0.5570
 5181SOL     OW27001   1.158   2.131  16.263  0.1479 -0.5805  0.4408
 5181SOL    HW127002   1.236   2.118  16.316  0.1529  1.2213  0.8812
 5181SOL    HW227003   1.092   2.086  16.316 -1.3290 -0.0951 -0.9877
 5182SOL     OW27004   3.338   1.682   7.550  0.0971 -0.0726  0.2935
 5182SOL    HW127005   3.422   1.637   7.551 -0.5685 -1.3056  0.3001
 5182SOL    HW227006   3.331   1.715   7.640  0.6115 -2.4978  1.2098
 5183SOL     OW27007   0.262   2.893   7.320 -0.1116  0.0234  0.2901
 5183SOL    HW127008   0.347   2.897   7.364 -1.1233  1.4821  2.0829
 5183SOL    HW227009   0.206   2.850   7.384 -1.9882 -2.3462 -2.9130
 5184SOL     OW27010   1.669   4.145   2.519  0.1901  0.8945  0.2575
 5184SOL    HW127011   1.641   4.230   2.486 -2.1756  0.1850  0.3691
 5184SOL    HW227012   1.722   4.111   2.447 -1.1835 -1.8208  0.5193
 5185SOL     OW27013   4.057   1.398   7.036  0.1795 -0.0164  0.5192
 5185SOL    HW127014   4.056   1.384   7.131  1.3505  0.4825  0.6105
 5185SOL    HW227015   4.067   1.492   7.024 -2.2015 -0.1050 -2.1070
 5186SOL     OW27016   2.906   0.211   6.660 -0.3225  0.0495 -0.0509
 5186SOL    HW127017   2.991   0.249   6.681 -0.6254  0.5087  0.3512
 5186SOL    HW227018   2.911   0.151   6.734 -1.9772 -1.0622 -0.8414
 5187SOL     OW27019   0.876   0.210   2.788  0.1594 -0.1363  0.4467
 5187SOL    HW127020   0.797   0.238   2.834  0.3200 -0.7410  1.0843
 5187SOL    HW227021   0.894   0.289   2.737  0.5695  0.4718  1.5272
 5188SOL     OW27022   0.785   1.793  10.345  0.0365  0.3602  0.3139
 5188SOL    HW127023   0.789   1.720  10.406 -3.0425 -1.4488 -1.6478
 5188SOL    HW227024   0.707   1.768  10.294  1.0988 -1.4285 -0.4272
 5189SOL     OW27025   1.276   3.257   6.481 -0.5226  0.5655 -0.3602
 5189SOL    HW127026   1.245   3.211   6.559 -1.2021  0.0455 -0.9305
 5189SOL    HW227027   1.209   3.324   6.467 -1.7326 -0.3875  0.8316
 5190SOL     OW27028   4.504   1.790   5.884  0.3625  0.1197  0.2622
 5190SOL    HW127029   4.502   1.840   5.966 -1.5001  0.3405  0.0987
 5190SOL    HW227030   4.594   1.793   5.852  1.3680  1.6818  3.2201
 5191SOL     OW27031   0.812   3.034  11.619  0.2159 -0.2813 -0.8229
 5191SOL    HW127032   0.785   3.029  11.527 -1.9783  0.1251 -0.2075
 5191SOL    HW227033   0.873   2.962  11.632 -0.0777  0.0886  2.5133
 5192SOL     OW27034   3.560   4.621   6.077 -0.3745 -0.5922 -0.7606
 5192SOL    HW127035   3.615   4.563   6.025  0.2039 -0.2916 -0.4829
 5192SOL    HW227036   3.544   4.560   6.149  0.0920 -1.2043 -1.1765
 5193SOL     OW27037   4.580   2.383   9.109  0.2550 -0.7855 -0.2815
 5193SOL    HW127038   4.609   2.292   9.118 -0.6732 -1.0800 -0.1871
 5193SOL    HW227039   4.592   2.412   9.199  2.2850  1.1070 -1.1907
 5194SOL     OW27040   1.454   3.001   3.741  0.3254 -0.8335  0.4573
 5194SOL    HW127041   1.483   2.923   3.693  0.3660 -1.4217  1.4115
 5194SOL    HW227042   1.365   2.974   3.763 -0.3893  2.5626  1.6753
 5195SOL     OW27043   0.827   3.751   6.723 -0.5527  0.0466 -0.0347
 5195SOL    HW127044   0.817   3.775   6.631 -0.2275 -0.3999 -0.1905
 5195SOL    HW227045   0.909   3.799   6.736 -0.5781 -0.0872  0.6389
 5196SOL     OW27046   2.264   1.042  12.599  0.8243  0.0790  0.2392
 5196SOL    HW127047   2.343   1.057  12.547 -0.4813 -0.9235 -2.0574
 5196SOL    HW227048   2.245   1.135  12.607  0.9259  0.1294 -0.0900
 5197SOL     OW27049   3.945   4.097   4.810  0.1503  0.0416  0.1435
 5197SOL    HW127050   3.969   4.182   4.848 -0.8400  1.2376 -1.9347
 5197SOL    HW227051   3.950   4.123   4.718  0.1596  0.3084  0.2164
 5198SOL     OW27052   3.861   2.163   7.685 -0.1046 -0.2597  0.0542
 5198SOL    HW127053   3.943   2.177   7.637  0.3598  0.7211  1.1174
 5198SOL    HW227054   3.851   2.244   7.736 -2.3435 -0.9733  0.7475
 5199SOL     OW27055   3.155   0.723  15.145 -0.2218  0.2220 -0.1769
 5199SOL    HW127056   3.109   0.687  15.221  0.4395 -2.0864 -0.8395
 5199SOL    HW227057   3.243   0.746  15.176  0.9047 -2.6572 -1.2018
 5200SOL     OW27058   4.521   2.392  14.420 -0.0474 -0.0628  0.0112
 5200SOL    HW127059   4.612   2.419  14.406 -0.2327  0.4741 -0.1407
 5200SOL    HW227060   4.524   2.332  14.494 -1.5901  1.1508  1.0423
 5201SOL     OW27061   4.280   4.596   5.780 -0.0593  0.5963  0.2677
 5201SOL    HW127062   4.345   4.598   5.850 -1.5342 -0.0624  1.6678
 5201SOL    HW227063   4.304   4.521   5.724  1.6172  0.5477  1.0421
 5202SOL     OW27064   2.327   2.509   2.333 -0.1561 -0.2969  0.5017
 5202SOL    HW127065   2.356   2.418   2.323 -1.0900 -0.4988 -0.3719
 5202SOL    HW227066   2.388   2.559   2.279  0.5540 -0.5644  1.0634
 5203SOL     OW27067   1.242   3.815   9.923 -0.4137 -0.2635 -0.2772
 5203SOL    HW127068   1.326   3.774   9.944 -1.6287 -3.4133 -1.4943
 5203SOL    HW227069   1.256   3.824   9.828 -1.0254 -0.0484 -0.3463
 5204SOL     OW27070   2.118   0.210   2.087 -1.1246  0.4608 -0.1814
 5204SOL    HW127071   2.190   0.218   2.025 -0.5378 -1.5792  0.2238
 5204SOL    HW227072   2.165   0.167   2.159  0.2108 -0.6725 -1.7199
 5205SOL     OW27073   1.418   1.498   6.289  0.2866 -0.4181  0.7029
 5205SOL    HW127074   1.371   1.578   6.312  1.3739 -0.3435  2.5959
 5205SOL    HW227075   1.487   1.499   6.355  0.8551  0.5310  0.1069
 5206SOL     OW27076   0.679   3.457   5.208  0.4079  0.1762 -0.3668
 5206SOL    HW127077   0.684   3.553   5.202  0.7233  0.1525 -0.4738
 5206SOL    HW227078   0.675   3.443   5.303 -0.7550 -1.1205 -0.6137
 5207SOL     OW27079   3.155   1.359   7.333 -0.0089  0.3220  0.0164
 5207SOL    HW127080   3.243   1.363   7.369  0.8451 -1.1067 -1.9035
 5207SOL    HW227081   3.124   1.285   7.386 -0.3651 -0.3807 -1.1638
 5208SOL     OW27082   3.261   0.415  12.249 -0.0050 -0.6855  0.4174
 5208SOL    HW127083   3.354   0.437  12.244 -0.5622  0.9477 -2.5929
 5208SOL    HW227084   3.227   0.489  12.299 -0.9083 -0.5887 -0.3379
 5209SOL     OW27085   0.522   1.404   2.322 -0.6646 -0.6869  0.3156
 5209SOL    HW127086   0.557   1.333   2.376  3.0205  1.9123  1.2559
 5209SOL    HW227087   0.430   1.378   2.325 -1.1013  0.6516 -1.7800
 5210SOL     OW27088   1.177   1.257   1.656 -0.7952  0.2200  0.2870
 5210SOL    HW127089   1.103   1.203   1.626 -0.5197  0.2520 -0.4459
 5210SOL    HW227090   1.193   1.223   1.744  1.2314  0.9879  0.2132
 5211SOL     OW27091   0.909   2.893   1.598 -1.0777  0.3592  0.0036
 5211SOL    HW127092   0.843   2.852   1.654 -1.5523  1.3536  0.1738
 5211SOL    HW227093   0.882   2.984   1.585  3.3350  1.4577 -1.4357
 5212SOL     OW27094   2.197   1.252   2.878 -0.1335 -0.4854  0.0327
 5212SOL    HW127095   2.145   1.196   2.934  2.9898 -1.9960  1.4099
 5212SOL    HW227096   2.145   1.332   2.884  1.9654  0.9735 -0.9351
 5213SOL     OW27097   1.230   3.468  15.727  0.5290  0.4169  0.5683
 5213SOL    HW127098   1.270   3.433  15.807  1.3549 -2.3730 -1.0530
 5213SOL    HW227099   1.231   3.393  15.667  2.3300 -0.5815  1.8521
 5214SOL     OW27100   2.648   0.159   7.578 -0.2401 -0.5489 -0.1167
 5214SOL    HW127101   2.632   0.115   7.494  0.2781 -1.9961  0.5399
 5214SOL    HW227102   2.557   0.183   7.594 -1.0881 -3.5695 -0.3064
 5215SOL     OW27103   0.938   2.998   3.751  0.6889 -0.5587  0.5194
 5215SOL    HW127104   0.874   2.985   3.681  1.1292 -1.2197  0.2440
 5215SOL    HW227105   0.883   3.052   3.807  2.1009  2.4353 -0.9449
 5216SOL     OW27106   0.654   4.127  14.970  0.6585 -0.1628  0.3694
 5216SOL    HW127107   0.668   4.046  14.921  1.0564  0.6615 -0.8852
 5216SOL    HW227108   0.673   4.198  14.908 -2.6151 -0.2841 -0.7597
 5217SOL     OW27109   1.033   0.644   7.795  0.3972  0.0039 -0.0212
 5217SOL    HW127110   1.081   0.715   7.836 -0.6425 -0.2973  1.7236
 5217SOL    HW227111   1.057   0.592   7.871  1.0729 -0.4255 -0.5240
 5218SOL     OW27112   0.820   0.963   2.745  0.3519  0.0399  0.4685
 5218SOL    HW127113   0.845   1.055   2.747 -1.1747  0.5023 -2.6666
 5218SOL    HW227114   0.755   0.968   2.816  1.0171  2.3970  0.9018
 5219SOL     OW27115   4.484   2.180  13.211  0.2919  0.1183 -0.1983
 5219SOL    HW127116   4.443   2.095  13.228 -1.9670  1.4053  0.8560
 5219SOL    HW227117   4.414   2.219  13.157 -2.8489 -2.9546  1.6335
 5220SOL     OW27118   0.368   1.597  15.605  0.3114  0.7835 -0.3031
 5220SOL    HW127119   0.453   1.627  15.639  2.2828 -3.7088 -1.3507
 5220SOL    HW227120   0.374   1.630  15.515 -0.9098  0.5041 -0.4812
 5221SOL     OW27121   0.067   1.968   5.936 -0.3935 -0.1490  0.0809
 5221SOL    HW127122   0.121   2.020   5.877  2.7973  0.1012  3.2557
 5221SOL    HW227123   0.106   1.880   5.934 -2.7592 -1.2126  0.4149
 5222SOL     OW27124   3.525   4.348   9.255  0.0233  0.4153 -0.0456
 5222SOL    HW127125   3.606   4.299   9.241  0.3471  0.7938  0.5013
 5222SOL    HW227126   3.551   4.433   9.219  2.3096 -0.0585  0.4821
 5223SOL     OW27127   3.441   1.498   6.317  0.4252 -0.4052  0.2737
 5223SOL    HW127128   3.480   1.519   6.232  0.2286 -1.5288 -0.0915
 5223SOL    HW227129   3.525   1.474   6.356 -0.4272 -1.9945  1.1335
 5224SOL     OW27130   2.095   4.211   3.752 -0.0419  0.5205 -0.3265
 5224SOL    HW127131   2.186   4.240   3.756  0.4005 -0.8911 -0.0658
 5224SOL    HW227132   2.091   4.121   3.719 -0.8488  0.7952 -0.9635
 5225SOL     OW27133   1.587   1.792   6.039  0.0408 -0.8073  0.4202
 5225SOL    HW127134   1.551   1.865   6.089  3.2198  0.7345  0.4990
 5225SOL    HW227135   1.531   1.722   6.072 -1.8696  0.1881 -0.7126
 5226SOL     OW27136   0.380   2.412   0.412  0.4282  0.0703  0.2877
 5226SOL    HW127137   0.367   2.485   0.472 -0.8865  1.8851 -2.2151
 5226SOL    HW227138   0.399   2.461   0.332 -1.1331 -2.5000 -1.6863
 5227SOL     OW27139   3.813   3.318   1.206  0.0691  0.3614 -0.3263
 5227SOL    HW127140   3.835   3.373   1.131 -3.3939  1.3249 -0.6373
 5227SOL    HW227141   3.851   3.233   1.182 -0.1216  0.9107 -2.5886
 5228SOL     OW27142   0.926   4.190   5.362  0.9211 -0.2069 -0.0785
 5228SOL    HW127143   0.900   4.101   5.341  0.9114 -0.1514 -0.2998
 5228SOL    HW227144   0.993   4.186   5.431 -0.5036 -0.4242  1.3133
 5229SOL     OW27145   0.599   2.193   6.633 -0.0154 -0.0654  0.1363
 5229SOL    HW127146   0.658   2.180   6.707 -0.1652  2.6091  0.7379
 5229SOL    HW227147   0.570   2.285   6.634 -0.1756 -0.1146  0.0904
 5230SOL     OW27148   2.140   3.079   8.490 -0.1319 -0.1428  0.7036
 5230SOL    HW127149   2.092   3.029   8.555  0.5260 -1.0578  0.4824
 5230SOL    HW227150   2.231   3.053   8.505  0.0275 -0.6499 -1.1503
 5231SOL     OW27151   4.544   1.217   5.450 -0.1465 -0.6286 -0.3340
 5231SOL    HW127152   4.455   1.224   5.416 -0.4672 -0.5055  0.5202
 5231SOL    HW227153   4.524   1.170   5.531 -0.0443  1.4905  0.9173
 5232SOL     OW27154   1.875   4.436   6.158  0.6018 -0.4102  0.1290
 5232SOL    HW127155   1.815   4.500   6.120  0.6011  0.8417  2.2824
 5232SOL    HW227156   1.918   4.487   6.226  0.5774 -0.3669  0.1122
 5233SOL     OW27157   2.403   2.882   8.413  0.0868  0.3745  0.1044
 5233SOL    HW127158   2.483   2.902   8.364 -1.0338 -0.6856 -2.1526
 5233SOL    HW227159   2.407   2.941   8.489 -1.8596  0.6956 -0.0417
 5234SOL     OW27160   4.018   2.467  12.907 -0.1704 -0.3487 -0.5193
 5234SOL    HW127161   4.006   2.452  12.813  4.1082 -1.7312 -0.8477
 5234SOL    HW227162   4.029   2.562  12.916  1.3938 -0.6869  1.0391
 5235SOL     OW27163   3.996   4.514   8.452 -0.2928 -0.3186 -0.0413
 5235SOL    HW127164   3.987   4.499   8.546  0.5849 -0.6145 -0.0044
 5235SOL    HW227165   3.911   4.484   8.421  0.3620  0.8794 -3.0145
 5236SOL     OW27166   2.401   3.862  12.305 -0.8396  0.4784 -0.5165
 5236SOL    HW127167   2.389   3.892  12.215  3.5745  1.1094 -0.9175
 5236SOL    HW227168   2.491   3.829  12.303 -1.1455 -0.3827 -0.0273
 5237SOL     OW27169   2.855   4.647   5.322 -0.4729  0.2308  0.2448
 5237SOL    HW127170   2.910   4.703   5.377 -2.9455  1.2029  1.7681
 5237SOL    HW227171   2.912   4.587   5.274 -0.8133 -0.9331  1.2681
 5238SOL     OW27172   0.810   1.372   2.972  0.6840  0.0944 -0.3926
 5238SOL    HW127173   0.791   1.466   2.967 -2.3989 -0.3779  2.5201
 5238SOL    HW227174   0.893   1.370   3.019  0.2158 -1.5643  0.3497
 5239SOL     OW27175   2.036   4.423   4.262 -0.1304  0.1111  0.0185
 5239SOL    HW127176   2.027   4.518   4.252  0.5384  0.2522  0.8471
 5239SOL    HW227177   2.098   4.418   4.334  0.9670  0.4467 -0.9138
 5240SOL     OW27178   1.206   1.739  13.642  0.1801  0.3936 -0.9722
 5240SOL    HW127179   1.272   1.761  13.577  0.6673 -1.4521 -1.0914
 5240SOL    HW227180   1.239   1.659  13.683 -1.1519  0.8977  1.0898
 5241SOL     OW27181   1.147   2.331   9.168 -0.4353 -0.0872  0.5275
 5241SOL    HW127182   1.185   2.395   9.228  0.6480  0.6170 -0.8923
 5241SOL    HW227183   1.151   2.255   9.226  0.4418 -0.3157  0.1683
 5242SOL     OW27184   1.644   1.009   8.908  0.1374 -0.2599  0.1958
 5242SOL    HW127185   1.669   1.056   8.828  0.8020  2.0404  1.7660
 5242SOL    HW227186   1.732   0.984   8.938  0.3325  0.8116  0.5182
 5243SOL     OW27187   1.840   2.079   3.089  0.2003 -0.4599  0.1702
 5243SOL    HW127188   1.917   2.130   3.116  1.0529 -1.5446 -0.1849
 5243SOL    HW227189   1.807   2.131   3.017  2.1212  4.1667  2.6114
 5244SOL     OW27190   2.594   3.376  16.673 -0.1025  0.0101  0.0032
 5244SOL    HW127191   2.658   3.307  16.654 -0.3383 -0.3871  0.6251
 5244SOL    HW227192   2.625   3.405  16.759 -1.6643 -0.9258  0.8968
 5245SOL     OW27193   1.362   3.159   2.984 -0.0862  0.4502  0.5167
 5245SOL    HW127194   1.287   3.173   2.927  1.0493 -0.4037 -1.1696
 5245SOL    HW227195   1.346   3.220   3.056  0.6069 -0.4701  1.4697
 5246SOL     OW27196   4.402   1.905   0.379 -0.0121  0.3926  0.5888
 5246SOL    HW127197   4.398   1.873   0.289  0.7063 -0.9640  1.0475
 5246SOL    HW227198   4.307   1.911   0.387  0.0461  0.5664  1.1442
 5247SOL     OW27199   2.174   1.781   0.993 -0.6875 -0.3504  0.0003
 5247SOL    HW127200   2.081   1.801   0.997 -0.9523 -1.3054 -1.6865
 5247SOL    HW227201   2.174   1.697   1.037  1.5450 -1.0963 -1.4207
 5248SOL     OW27202   3.789   2.164   0.670 -0.4252  0.0509  0.1654
 5248SOL    HW127203   3.846   2.188   0.744 -0.2369  0.7854 -0.2105
 5248SOL    HW227204   3.774   2.071   0.688  2.7403 -0.9841 -2.5218
 5249SOL     OW27205   1.539   3.371  11.566  0.0427  0.3506  0.5049
 5249SOL    HW127206   1.531   3.358  11.472 -0.9349  0.8366  0.5142
 5249SOL    HW227207   1.453   3.349  11.603  0.0562  0.2061  0.4518
 5250SOL     OW27208   3.464   4.520   9.552  0.7458  0.1376  0.3570
 5250SOL    HW127209   3.410   4.599   9.552  2.3169  1.1832  1.6581
 5250SOL    HW227210   3.512   4.525   9.469  0.2532  2.3113  0.1982
 5251SOL     OW27211   1.346   4.645   4.048 -0.3475  0.1533  0.2161
 5251SOL    HW127212   1.277   4.693   4.002  0.5592 -1.0654 -2.3496
 5251SOL    HW227213   1.384   4.716   4.101  0.1311 -0.2734  0.4489
 5252SOL     OW27214   3.926   0.879  15.663  0.3912 -0.0742  0.2650
 5252SOL    HW127215   4.004   0.825  15.654  0.1771 -0.3213 -0.0843
 5252SOL    HW227216   3.859   0.810  15.660 -0.7204  1.0638 -1.0445
 5253SOL     OW27217   0.275   3.563   7.708  0.1016  0.1269 -0.1463
 5253SOL    HW127218   0.268   3.468   7.719 -1.0895  0.2315  0.0157
 5253SOL    HW227219   0.332   3.564   7.632 -0.5562  0.3881 -0.6339
 5254SOL     OW27220   0.697   2.535   4.701 -0.1129 -0.0349  0.2252
 5254SOL    HW127221   0.688   2.474   4.775 -0.4761 -0.8192 -0.4650
 5254SOL    HW227222   0.775   2.501   4.656  0.8149  0.3366  1.5329
 5255SOL     OW27223   0.216   4.410   7.093  0.1100 -0.5774 -0.2638
 5255SOL    HW127224   0.137   4.459   7.118  0.3999 -0.5499  0.5817
 5255SOL    HW227225   0.191   4.378   7.006  2.2999 -3.1831  0.0750
 5256SOL     OW27226   1.774   2.224   2.583 -0.1496  0.0535  0.9180
 5256SOL    HW127227   1.763   2.228   2.488  0.0939  0.2233  0.8968
 5256SOL    HW227228   1.858   2.270   2.587 -0.5729  0.8589  0.6142
 5257SOL     OW27229   3.442   0.162  13.038  0.1064 -0.2773  0.4455
 5257SOL    HW127230   3.412   0.248  13.066 -2.2044 -0.1439 -2.4216
 5257SOL    HW227231   3.534   0.175  13.016  0.0292 -0.1352  0.2093
 5258SOL     OW27232   3.476   2.761   0.826  0.2420 -0.3830  0.0501
 5258SOL    HW127233   3.472   2.763   0.730  1.3846 -1.6434 -0.0199
 5258SOL    HW227234   3.554   2.810   0.853 -0.7161  1.2456 -0.1477
 5259SOL     OW27235   2.128   3.568   5.937  0.0569 -0.2273 -0.3695
 5259SOL    HW127236   2.218   3.583   5.908 -0.2215 -1.3180 -1.8164
 5259SOL    HW227237   2.134   3.498   6.002  2.2472 -0.5366 -0.9033
 5260SOL     OW27238   1.539   2.270   5.346  0.4984 -0.4123  0.2656
 5260SOL    HW127239   1.634   2.266   5.356  0.3548 -1.4756  1.1845
 5260SOL    HW227240   1.517   2.185   5.384  0.2665 -0.2427  0.5105
 5261SOL     OW27241   1.300   3.327   3.758 -0.6356  0.2865  0.4520
 5261SOL    HW127242   1.278   3.248   3.709  0.3911 -0.9050  1.9176
 5261SOL    HW227243   1.295   3.392   3.688 -0.8144  0.3162  0.4919
 5262SOL     OW27244   0.199   1.606  11.138  0.1068  0.0362 -0.6672
 5262SOL    HW127245   0.121   1.645  11.178  0.2536 -0.7242  0.3561
 5262SOL    HW227246   0.155   1.564  11.064 -0.3351 -0.6755 -0.0047
 5263SOL     OW27247   1.315   1.557  16.760 -0.4214 -0.5702  0.0877
 5263SOL    HW127248   1.269   1.632  16.797 -1.7482 -0.4909 -1.7208
 5263SOL    HW227249   1.326   1.594  16.672  1.4795  1.6004  1.2584
 5264SOL     OW27250   2.112   1.923   5.612  0.7579  0.0231  0.4238
 5264SOL    HW127251   2.101   1.901   5.519  1.1520 -0.2784  0.4463
 5264SOL    HW227252   2.043   1.874   5.657  1.4481  0.6809  2.1652
 5265SOL     OW27253   2.001   0.108   5.092 -0.2570  0.5435  0.2415
 5265SOL    HW127254   1.998   0.203   5.098  0.1531  0.7489 -2.5932
 5265SOL    HW227255   1.990   0.083   5.184 -2.2645  2.0877  0.3957
 5266SOL     OW27256   4.328   1.325   8.501  0.0306  0.2696 -0.2651
 5266SOL    HW127257   4.348   1.239   8.538 -0.0936  0.1680 -0.4360
 5266SOL    HW227258   4.412   1.370   8.492  1.0649 -1.4422  0.7569
 5267SOL     OW27259   1.186   4.224   3.234  0.1706  0.4228  0.2010
 5267SOL    HW127260   1.139   4.143   3.255  0.3831  0.1028 -0.5888
 5267SOL    HW227261   1.118   4.290   3.228 -1.0441 -0.9754 -1.3745
 5268SOL     OW27262   1.196   2.948  10.807 -0.6232  0.0329  0.3770
 5268SOL    HW127263   1.164   2.897  10.733 -3.7058 -0.3901  1.9861
 5268SOL    HW227264   1.199   2.890  10.883  0.6141  0.9200  1.0053
 5269SOL     OW27265   4.000   2.077  10.701  0.1714  0.0985  0.2435
 5269SOL    HW127266   4.050   1.999  10.676  1.7492  1.6175 -1.2443
 5269SOL    HW227267   4.023   2.135  10.629  1.4129 -0.6309  0.0558
 5270SOL     OW27268   0.452   1.965  15.557  0.6735  0.6115 -0.4438
 5270SOL    HW127269   0.412   1.929  15.636  0.2853  0.5127 -0.6837
 5270SOL    HW227270   0.377   1.961  15.498  0.0511  0.9975  0.3252
 5271SOL     OW27271   2.890   2.225  13.892  0.0486  0.1453  0.1387
 5271SOL    HW127272   2.973   2.268  13.910  1.9255 -3.0357 -0.8619
 5271SOL    HW227273   2.865   2.184  13.975 -1.6512 -0.9825 -0.9277
 5272SOL     OW27274   0.482   2.096   7.103  0.1709  0.2383 -0.1118
 5272SOL    HW127275   0.429   2.017   7.090  1.2185 -0.1855 -1.7554
 5272SOL    HW227276   0.546   2.064   7.166  1.6346  0.0783 -1.7112
 5273SOL     OW27277   3.863   3.840   7.213  0.5068 -0.0414  0.3583
 5273SOL    HW127278   3.802   3.766   7.208  0.1144  0.1306  2.6014
 5273SOL    HW227279   3.902   3.840   7.300 -0.2225  1.3248  0.6897
 5274SOL     OW27280   1.127   1.503   6.063  0.2128 -0.0123  0.3931
 5274SOL    HW127281   1.050   1.559   6.059  0.1163 -0.2288 -0.7673
 5274SOL    HW227282   1.085   1.445   6.126  1.3443  1.1243  2.1951
 5275SOL     OW27283   3.668   3.837   8.651 -0.0812 -0.2675 -0.4229
 5275SOL    HW127284   3.639   3.747   8.664 -1.9677 -0.0737 -3.3359
 5275SOL    HW227285   3.621   3.885   8.719 -1.3476 -0.7524 -0.9613
 5276SOL     OW27286   0.051   0.192   9.128  0.1933 -0.2913  0.1466
 5276SOL    HW127287   0.069   0.227   9.040 -1.6070  1.0435  0.2920
 5276SOL    HW227288   4.676   0.199   9.136 -0.0883 -1.4719 -2.0284
 5277SOL     OW27289   1.169   0.277   4.859  0.3424  0.2308 -0.0114
 5277SOL    HW127290   1.120   0.345   4.813  0.9222  0.4353 -0.3271
 5277SOL    HW227291   1.253   0.321   4.853  0.3015  0.5072  1.3987
 5278SOL     OW27292   1.108   0.430   0.740 -0.0331  0.8187  0.4127
 5278SOL    HW127293   1.022   0.392   0.723 -0.2824  1.7594 -0.3837
 5278SOL    HW227294   1.084   0.518   0.711 -1.1211  0.4230  0.1228
 5279SOL     OW27295   1.166   4.515   4.302 -0.2510 -0.1118  0.0960
 5279SOL    HW127296   1.210   4.600   4.307 -1.2999  0.3396  1.8454
 5279SOL    HW227297   1.222   4.467   4.241 -1.1383  0.2863 -1.0420
 5280SOL     OW27298   1.457   2.115  12.134 -0.3224 -0.0205  0.2442
 5280SOL    HW127299   1.541   2.151  12.162 -0.0003  0.7709 -1.7435
 5280SOL    HW227300   1.460   2.026  12.169 -0.5116  0.5341  1.6638
 5281SOL     OW27301   4.491   4.100   0.431 -0.4598  0.5118 -0.5979
 5281SOL    HW127302   4.545   4.024   0.406 -0.7185  0.5575 -1.2905
 5281SOL    HW227303   4.558   4.167   0.419 -0.0895  0.5454  1.6494
 5282SOL     OW27304   2.069   1.093  14.030  0.1319 -0.0528 -0.1068
 5282SOL    HW127305   2.129   1.032  13.987  0.5265  1.9838 -2.4052
 5282SOL    HW227306   1.998   1.090  13.966  0.1382  0.5945 -0.1448
 5283SOL     OW27307   1.955   1.229  10.674  0.2064 -0.3412 -0.7510
 5283SOL    HW127308   1.966   1.148  10.624  0.6956  0.4173 -1.8712
 5283SOL    HW227309   1.930   1.286  10.601 -0.0814 -0.9643 -1.1380
 5284SOL     OW27310   1.284   0.364   7.609 -0.0815 -0.1615 -0.1848
 5284SOL    HW127311   1.343   0.366   7.533  0.7731  0.0654  0.4863
 5284SOL    HW227312   1.307   0.450   7.644 -2.5992  0.1997  0.5495
 5285SOL     OW27313   4.405   2.157   8.339 -0.7871  0.8624 -0.4780
 5285SOL    HW127314   4.342   2.190   8.402 -0.0670 -0.7150  1.0897
 5285SOL    HW227315   4.463   2.232   8.331 -3.6723  2.8262 -2.7781
 5286SOL     OW27316   0.248   1.519   0.033 -0.1398 -0.0553  0.7080
 5286SOL    HW127317   0.241   1.425   0.045 -2.6309 -0.4316 -3.8102
 5286SOL    HW227318   0.171   1.556   0.076 -0.5790  1.2960 -1.2800
 5287SOL     OW27319   4.490   4.240   7.297 -0.0569 -0.0905 -0.3145
 5287SOL    HW127320   4.410   4.277   7.259  0.2951 -0.4588 -1.4221
 5287SOL    HW227321   4.468   4.150   7.320  0.1517  0.3843  1.7555
 5288SOL     OW27322   4.415   0.986  10.413  0.0675  0.2069  0.1473
 5288SOL    HW127323   4.386   1.024  10.330 -0.4945  1.3496  0.8571
 5288SOL    HW227324   4.343   1.006  10.473  0.0976 -1.0824  0.6118
 5289SOL     OW27325   0.394   0.623   4.985 -0.3564  0.5339  0.1388
 5289SOL    HW127326   0.383   0.529   4.967 -1.8692  1.2114 -2.3768
 5289SOL    HW227327   0.301   0.645   4.984 -0.3784  0.3059 -2.0446
 5290SOL     OW27328   0.695   1.924  10.982 -0.0968  0.5115 -0.0636
 5290SOL    HW127329   0.648   1.945  11.063  0.5709  4.1117 -0.6147
 5290SOL    HW227330   0.748   2.003  10.972 -1.7103  1.1616 -3.4235
 5291SOL     OW27331   2.016   4.456  11.030  0.0179 -0.0200  0.7988
 5291SOL    HW127332   2.076   4.527  11.051  1.6595 -1.7267  1.9485
 5291SOL    HW227333   2.009   4.425  11.120  0.8121 -0.1783  0.8119
 5292SOL     OW27334   2.272   2.281  11.032  0.5085 -0.0493 -0.1254
 5292SOL    HW127335   2.258   2.315  11.120  1.1638  1.9826 -0.8006
 5292SOL    HW227336   2.195   2.320  10.989  0.6804  1.5999  1.0824
 5293SOL     OW27337   4.253   3.659   9.557 -0.1215  0.0830 -0.1128
 5293SOL    HW127338   4.294   3.745   9.571  0.6223 -0.0828 -1.2438
 5293SOL    HW227339   4.328   3.605   9.583  0.8753  1.1621 -0.7016
 5294SOL     OW27340   1.272   1.351   3.921  0.7383 -0.6348 -0.2397
 5294SOL    HW127341   1.258   1.302   3.840 -0.4406  1.4319 -1.2755
 5294SOL    HW227342   1.187   1.393   3.921  1.1754  0.2497  0.4637
 5295SOL     OW27343   1.477   2.200   8.426  0.3512 -0.3673  0.1632
 5295SOL    HW127344   1.470   2.287   8.387  1.2872 -1.4092 -2.3001
 5295SOL    HW227345   1.451   2.217   8.517 -0.0992 -1.1826  0.1866
 5296SOL     OW27346   2.837   3.962   7.779 -0.0262 -0.0289  0.5694
 5296SOL    HW127347   2.900   4.031   7.758 -0.1792  0.1985  0.8741
 5296SOL    HW227348   2.786   3.959   7.698 -0.3182 -0.8396  0.7845
 5297SOL     OW27349   3.768   0.849   3.928  0.4143  0.1845 -0.0588
 5297SOL    HW127350   3.777   0.930   3.978  0.2009  1.3582 -1.9536
 5297SOL    HW227351   3.721   0.796   3.993  0.0186  0.0397 -0.4643
 5298SOL     OW27352   3.162   0.789  13.149 -0.0237 -0.2386  0.3201
 5298SOL    HW127353   3.084   0.842  13.163 -1.4456 -2.2586  0.0322
 5298SOL    HW227354   3.232   0.853  13.162 -0.9206  1.2746 -2.2003
 5299SOL     OW27355   3.039   3.907   8.618 -0.1571  0.3365  0.2464
 5299SOL    HW127356   3.055   3.877   8.528 -0.4825 -1.1863  0.6956
 5299SOL    HW227357   2.948   3.886   8.641  0.4886 -2.7145 -0.0431
 5300SOL     OW27358   2.489   0.299   4.536 -0.0479 -0.4283 -0.4451
 5300SOL    HW127359   2.519   0.385   4.505 -0.8140  0.1637  0.4576
 5300SOL    HW227360   2.404   0.316   4.575 -1.0270 -2.1524 -1.8463
 5301SOL     OW27361   0.673   2.093   5.997  0.0848  0.2993  0.4413
 5301SOL    HW127362   0.684   2.132   6.084 -0.6914 -1.4737  1.3428
 5301SOL    HW227363   0.614   2.150   5.948  0.6970  0.0958 -0.5215
 5302SOL     OW27364   2.745   1.954   9.822 -0.1104  0.3705  0.3419
 5302SOL    HW127365   2.826   1.990   9.857  0.2606  1.4332 -1.6191
 5302SOL    HW227366   2.682   2.025   9.811 -1.6145 -0.8514  1.0472
 5303SOL     OW27367   1.836   3.238   8.112  0.3804  0.1959 -0.3931
 5303SOL    HW127368   1.881   3.313   8.073  0.9739  0.6311  1.1231
 5303SOL    HW227369   1.901   3.188   8.161 -0.2305 -0.6558 -0.4502
 5304SOL     OW27370   0.806   1.355   1.794  0.0619  0.1032 -0.7424
 5304SOL    HW127371   0.865   1.427   1.771  2.8575 -2.4323 -1.4473
 5304SOL    HW227372   0.819   1.342   1.888 -2.8146  2.9187  0.0420
 5305SOL     OW27373   3.239   0.359  16.494  0.0460  0.2426  0.6447
 5305SOL    HW127374   3.249   0.278  16.545  2.6053 -0.1669 -0.4981
 5305SOL    HW227375   3.331   0.386  16.499  0.4686 -0.7700 -1.5567
 5306SOL     OW27376   3.431   2.451   4.472  0.9527  0.7454 -0.4451
 5306SOL    HW127377   3.489   2.400   4.530 -0.0754 -1.0341 -0.9690
 5306SOL    HW227378   3.493   2.490   4.410  1.9971  0.7582  0.6036
 5307SOL     OW27379   4.610   3.105  16.777 -0.1462 -0.4426 -0.1075
 5307SOL    HW127380   4.549   3.032  16.765 -0.0895 -0.2949 -1.2987
 5307SOL    HW227381   4.672   3.050  16.825  0.2421 -1.0154 -1.2555
 5308SOL     OW27382   3.705   0.892   3.392 -0.0735 -0.1978  0.3902
 5308SOL    HW127383   3.713   0.801   3.364 -1.9711  0.4489 -2.3598
 5308SOL    HW227384   3.732   0.890   3.484  2.0631  2.5789 -0.1746
 5309SOL     OW27385   1.032   2.195   8.951 -0.5400 -0.2722 -0.1593
 5309SOL    HW127386   1.090   2.220   9.023 -0.0583 -0.3280 -0.5339
 5309SOL    HW227387   0.959   2.255   8.969 -2.3534 -2.6005  0.1903
 5310SOL     OW27388   3.580   0.194  16.535  0.0148 -0.3868 -0.6247
 5310SOL    HW127389   3.621   0.190  16.622 -0.6158 -1.6371 -0.3880
 5310SOL    HW227390   3.524   0.271  16.536 -0.5625 -0.8084  1.0204
 5311SOL     OW27391   2.992   2.657  15.998 -0.8503  0.2194  0.5860
 5311SOL    HW127392   3.054   2.666  16.071 -0.7788  2.0586  0.2992
 5311SOL    HW227393   3.012   2.731  15.942  2.0225 -1.0614 -0.0619
 5312SOL     OW27394   0.669   3.034   9.289 -0.0699 -0.0753 -0.8062
 5312SOL    HW127395   0.675   3.092   9.212 -0.5271 -0.6377 -1.2625
 5312SOL    HW227396   0.760   3.008   9.305 -0.9591 -2.3890  0.3922
 5313SOL     OW27397   0.877   3.572   8.215  0.3125  0.6403  0.1261
 5313SOL    HW127398   0.852   3.653   8.171  1.6259 -0.3721 -2.4979
 5313SOL    HW227399   0.815   3.572   8.288 -2.3231 -0.0826 -2.0921
 5314SOL     OW27400   2.769   0.444   6.207 -0.0893 -1.0020 -0.3668
 5314SOL    HW127401   2.728   0.374   6.156  1.1654 -0.6948 -1.8328
 5314SOL    HW227402   2.859   0.446   6.173  0.3967 -0.9915  0.9283
 5315SOL     OW27403   3.378   0.918   2.672 -0.2861 -0.7722 -0.0563
 5315SOL    HW127404   3.389   0.845   2.612  0.3002  0.2033 -1.1518
 5315SOL    HW227405   3.416   0.882   2.752 -1.0389  1.9272  1.5326
 5316SOL     OW27406   3.069   1.085   2.414  0.5876 -0.4634 -0.0805
 5316SOL    HW127407   3.077   1.081   2.509  0.6385  0.7500 -0.0313
 5316SOL    HW227408   2.974   1.096   2.409  0.6301 -1.1650 -2.2491
 5317SOL     OW27409   0.505   2.120   0.144  0.6381 -0.3404 -0.1025
 5317SOL    HW127410   0.562   2.165   0.207 -0.0726 -1.2513  1.2000
 5317SOL    HW227411   0.521   2.161   0.060  0.0291 -2.1793 -1.1106
 5318SOL     OW27412   4.122   4.637  13.464 -0.3827  0.0958  0.6444
 5318SOL    HW127413   4.152   4.590  13.542 -0.8948 -1.4594 -0.1057
 5318SOL    HW227414   4.117   0.006  13.499  1.5618 -0.4938  2.4475
 5319SOL     OW27415   1.999   4.585   4.979 -0.5967  0.1210  0.0990
 5319SOL    HW127416   2.000   4.658   5.040 -0.1036  0.0953  0.1175
 5319SOL    HW227417   2.091   4.580   4.955 -0.4878 -0.5100  0.6409
 5320SOL     OW27418   4.005   1.376  15.939  0.1348  0.3731  0.5116
 5320SOL    HW127419   4.094   1.407  15.956  0.0512  0.7415  0.2731
 5320SOL    HW227420   4.004   1.341  15.850 -1.2514 -0.8453  0.9993
 5321SOL     OW27421   2.551   1.412  16.994 -0.6941 -0.0078 -0.0013
 5321SOL    HW127422   2.526   1.475  16.927 -0.9108 -1.4592 -1.2880
 5321SOL    HW227423   2.568   1.463  17.073  0.9643 -0.9616  0.2675
 5322SOL     OW27424   2.336   0.214   7.660 -0.0482 -0.0585 -0.3373
 5322SOL    HW127425   2.263   0.156   7.638 -1.6592  2.4246 -1.5218
 5322SOL    HW227426   2.371   0.174   7.740 -1.0071  1.4863  0.8499
 5323SOL     OW27427   0.240   0.502  12.681 -0.2588 -0.1024  0.0024
 5323SOL    HW127428   0.234   0.465  12.593  2.1148  2.6891 -1.3394
 5323SOL    HW227429   0.323   0.550  12.678  0.2501 -0.9558  0.6946
 5324SOL     OW27430   2.552   1.541   6.611 -0.3963  0.0928 -0.1559
 5324SOL    HW127431   2.473   1.584   6.579 -0.5172  1.1865  1.6323
 5324SOL    HW227432   2.550   1.458   6.563 -1.8820  0.5042 -0.7715
 5325SOL     OW27433   0.890   0.526   5.280  0.2655 -0.0128  0.3655
 5325SOL    HW127434   0.824   0.590   5.252  0.1127 -0.3281  0.0066
 5325SOL    HW227435   0.879   0.538   5.374 -1.5589  1.7482 -0.0670
 5326SOL     OW27436   3.349   3.144   6.095  0.6113  0.3692  0.2361
 5326SOL    HW127437   3.356   3.081   6.024  0.6363  0.8816 -0.2125
 5326SOL    HW227438   3.289   3.086   6.143 -0.7335  1.0638 -0.6135
 5327SOL     OW27439   1.716   0.050   4.101  0.1984  0.5637  0.4256
 5327SOL    HW127440   1.718   0.013   4.189 -0.4703  0.9994  0.6261
 5327SOL    HW227441   1.768   4.703   4.056 -0.4226  0.0661  0.4453
 5328SOL     OW27442   0.321   4.375   5.479 -0.2833  0.4922  0.1665
 5328SOL    HW127443   0.229   4.403   5.475 -0.6736 -0.4180  2.2868
 5328SOL    HW227444   0.357   4.463   5.488 -0.9345  0.5350  2.5056
 5329SOL     OW27445   1.326   1.771   8.210  0.4217 -0.3817 -0.0941
 5329SOL    HW127446   1.259   1.802   8.149 -0.5212  0.4440  1.3669
 5329SOL    HW227447   1.392   1.724   8.159 -2.1024 -1.2460 -2.5785
 5330SOL     OW27448   3.060   0.340  11.227  0.3945  0.4220 -0.1376
 5330SOL    HW127449   3.047   0.308  11.317 -0.4266 -2.3284 -1.2442
 5330SOL    HW227450   3.154   0.331  11.237  0.2912 -0.3084  0.1691
 5331SOL     OW27451   3.302   2.604   4.079 -0.0341  0.3248  0.0112
 5331SOL    HW127452   3.333   2.601   3.989  0.2923  0.0742  0.1278
 5331SOL    HW227453   3.384   2.646   4.105 -0.3932 -0.2139  2.0365
 5332SOL     OW27454   0.400   2.608  15.958  0.0112  0.3462 -0.2347
 5332SOL    HW127455   0.403   2.693  16.002 -3.2762  1.3907 -2.0309
 5332SOL    HW227456   0.494   2.591  15.947  0.1312 -0.6127  2.1952
 5333SOL     OW27457   2.582   0.393  10.842  0.1865 -0.0772  0.1967
 5333SOL    HW127458   2.622   0.432  10.920  0.2400  0.1997  0.0316
 5333SOL    HW227459   2.552   0.470  10.793  0.2025 -0.2214 -0.0409
 5334SOL     OW27460   3.354   2.473  17.340 -0.0920 -0.3196  0.1321
 5334SOL    HW127461   3.288   2.417  17.381 -1.6761  0.3850 -1.4710
 5334SOL    HW227462   3.421   2.404  17.339 -0.2153 -0.4628  1.0977
 5335SOL     OW27463   2.958   1.554   3.790  0.7321 -0.2362 -0.1748
 5335SOL    HW127464   3.027   1.507   3.837  2.0058  0.0609 -1.7450
 5335SOL    HW227465   3.014   1.603   3.730 -2.1738  1.1290 -1.7935
 5336SOL     OW27466   4.145   1.378   1.408 -0.3091  0.1399 -0.4881
 5336SOL    HW127467   4.198   1.399   1.331 -0.3671 -2.1176 -1.1430
 5336SOL    HW227468   4.125   1.463   1.447 -1.7969  0.4941 -1.9989
 5337SOL     OW27469   2.016   3.168   4.215  0.1000 -0.1527  0.7563
 5337SOL    HW127470   1.975   3.082   4.205  1.5380 -0.6632 -0.7896
 5337SOL    HW227471   1.985   3.202   4.299 -2.6784 -1.8185  0.3840
 5338SOL     OW27472   2.417   2.086  11.606  0.0643 -0.2126  0.7263
 5338SOL    HW127473   2.411   2.159  11.544  0.0664 -1.2385 -0.4950
 5338SOL    HW227474   2.346   2.033  11.569 -0.5008  0.3039  1.0528
 5339SOL     OW27475   2.173   0.431  13.944  0.3011  0.6480  0.5679
 5339SOL    HW127476   2.201   0.404  14.031  0.9701  0.6226  0.3464
 5339SOL    HW227477   2.177   0.342  13.909 -0.0929  0.9395 -0.2217
 5340SOL     OW27478   2.523   2.945  10.887 -0.4321 -0.3007  0.2773
 5340SOL    HW127479   2.454   2.933  10.822 -0.2385  0.4999 -0.0773
 5340SOL    HW227480   2.501   2.879  10.953  1.6123 -0.1457  1.1097
 5341SOL     OW27481   0.976   2.899   4.665  0.3931 -0.0191  0.0553
 5341SOL    HW127482   0.950   2.873   4.576  2.4811 -0.3002 -0.4641
 5341SOL    HW227483   0.885   2.880   4.690  0.2360  1.4422  0.5839
 5342SOL     OW27484   4.671   0.790   8.759  0.0464 -0.6357  0.0906
 5342SOL    HW127485   4.583   0.818   8.784  0.4674 -0.5786  1.5611
 5342SOL    HW227486   4.659   0.787   8.664 -1.5342 -0.1203  0.2678
 5343SOL     OW27487   4.479   1.963  15.698 -0.2069 -0.4011  0.6894
 5343SOL    HW127488   4.522   2.029  15.644  1.0054 -2.9531 -1.4583
 5343SOL    HW227489   4.530   1.882  15.687  0.9223  0.2800  0.8668
 5344SOL     OW27490   3.874   2.277   7.264 -0.2944  0.4031  0.3066
 5344SOL    HW127491   3.915   2.194   7.240 -1.5228 -0.3730  0.9383
 5344SOL    HW227492   3.932   2.333   7.212  2.1817 -1.4196  1.1049
 5345SOL     OW27493   2.883   1.879   8.243 -0.3941  0.2820  0.1471
 5345SOL    HW127494   2.894   1.974   8.239  2.1401 -0.0828 -1.6174
 5345SOL    HW227495   2.914   1.866   8.153 -0.2577 -0.6388  0.3274
 5346SOL     OW27496   0.729   1.985   4.232 -0.4044  0.0562 -0.4026
 5346SOL    HW127497   0.679   2.051   4.281  1.1401  0.6826  0.3294
 5346SOL    HW227498   0.671   1.971   4.157 -1.2252 -0.1346  0.2626
 5347SOL     OW27499   1.570   0.295   7.856 -0.1830  0.4064  0.4051
 5347SOL    HW127500   1.542   0.216   7.811  0.2270 -0.8410  2.3356
 5347SOL    HW227501   1.528   0.264   7.937 -1.0380 -2.3896 -1.0977
 5348SOL     OW27502   0.633   0.899   0.958 -0.3425 -0.2860  0.1383
 5348SOL    HW127503   0.569   0.854   0.904  0.4354 -1.8577  0.5250
 5348SOL    HW227504   0.715   0.858   0.929  0.2903  1.8599 -1.0796
 5349SOL     OW27505   0.086   0.435  13.299 -0.7749 -0.1078 -0.2010
 5349SOL    HW127506   0.152   0.383  13.252  0.8349  0.5492  1.3464
 5349SOL    HW227507   0.087   0.512  13.242 -0.1251  0.7542  0.9640
 5350SOL     OW27508   3.320   0.580   5.607  0.3330 -0.3990  0.0214
 5350SOL    HW127509   3.392   0.638   5.583  1.2507 -1.1910  0.8356
 5350SOL    HW227510   3.365   0.496   5.601  1.2729  0.0751  0.5242
 5351SOL     OW27511   1.456   0.586   7.288  0.4299  0.2180 -0.2000
 5351SOL    HW127512   1.379   0.627   7.248 -2.1442 -1.8288  2.6859
 5351SOL    HW227513   1.506   0.660   7.324 -1.0397  0.6834  0.8679
 5352SOL     OW27514   3.540   1.559   7.360 -0.0194 -0.3536  0.3503
 5352SOL    HW127515   3.456   1.579   7.317 -1.3062 -0.2930  2.9094
 5352SOL    HW227516   3.582   1.644   7.360  0.8272 -0.7758 -0.6093
 5353SOL     OW27517   4.015   0.086   8.522 -1.2451 -0.1989 -0.0586
 5353SOL    HW127518   3.995   0.112   8.432 -2.0253 -1.0973 -0.1467
 5353SOL    HW227519   4.011   4.711   8.513  1.8330 -0.4405  0.9552
 5354SOL     OW27520   3.023   1.426  15.373  0.1705 -0.2876 -0.3354
 5354SOL    HW127521   3.016   1.520  15.359 -2.9420 -0.0089  3.1174
 5354SOL    HW227522   3.117   1.412  15.365  0.7707  2.9962  0.9370
 5355SOL     OW27523   3.603   0.250   5.280 -0.1159 -0.0328  0.3077
 5355SOL    HW127524   3.674   0.245   5.344  2.7971  0.6340 -2.8678
 5355SOL    HW227525   3.618   0.338   5.245  0.3707 -0.6736 -1.1076
 5356SOL     OW27526   2.120   4.646   9.445 -0.3076  0.4548 -0.0262
 5356SOL    HW127527   2.200   4.596   9.428  0.5965  2.3503 -1.3122
 5356SOL    HW227528   2.126   4.712   9.377 -1.1885 -0.3818 -0.9225
 5357SOL     OW27529   3.834   2.163   6.248 -0.2887 -0.4035  0.3696
 5357SOL    HW127530   3.868   2.139   6.335  0.6613  0.8674  0.3536
 5357SOL    HW227531   3.867   2.093   6.192  2.4468  0.1236  1.3173
 5358SOL     OW27532   0.178   0.316   1.376 -0.0951  0.1870  0.5601
 5358SOL    HW127533   0.171   0.258   1.300 -2.4863  0.7054  0.3711
 5358SOL    HW227534   0.096   0.365   1.373 -0.1554  0.0729  0.3307
 5359SOL     OW27535   1.827   3.064   6.162 -0.0869 -0.1597  0.5657
 5359SOL    HW127536   1.755   3.003   6.172  0.4927 -1.1398 -1.2381
 5359SOL    HW227537   1.779   3.146   6.171 -0.1209  0.1850 -2.9135
 5360SOL     OW27538   1.943   3.380   3.399  0.2108 -0.1967 -0.8207
 5360SOL    HW127539   1.973   3.290   3.397  3.5364  0.9046 -0.2263
 5360SOL    HW227540   1.863   3.388   3.348 -0.7127  2.2606  0.9692
 5361SOL     OW27541   3.120   2.407   4.260  0.0826  0.0373  0.0132
 5361SOL    HW127542   3.174   2.480   4.229  1.7159 -1.2134 -0.0192
 5361SOL    HW227543   3.073   2.375   4.183  1.4805 -0.9589 -0.4115
 5362SOL     OW27544   3.194   1.208  10.267  0.6066  0.2351  0.3811
 5362SOL    HW127545   3.248   1.170  10.337  2.2384  0.2887 -0.8480
 5362SOL    HW227546   3.107   1.171  10.282 -0.1920  2.2338  0.6792
 5363SOL     OW27547   4.506   2.072   6.591  0.2469  0.0733  0.2688
 5363SOL    HW127548   4.529   2.159   6.559  0.5621 -0.1514 -0.1126
 5363SOL    HW227549   4.508   2.017   6.513  0.9253  1.8650 -0.9495
 5364SOL     OW27550   1.552   2.640  13.463  0.8663 -0.2610  0.1968
 5364SOL    HW127551   1.502   2.674  13.537  1.1664 -0.5244  0.5215
 5364SOL    HW227552   1.639   2.636  13.503  1.4278 -1.0178 -1.0905
 5365SOL     OW27553   2.113   2.864   3.743  0.1358 -0.0619 -0.2898
 5365SOL    HW127554   2.132   2.951   3.779 -0.5739  0.9885 -2.4249
 5365SOL    HW227555   2.116   2.887   3.650 -0.2164  2.2062  0.2706
 5366SOL     OW27556   2.447   3.349   9.001  0.0998 -0.9584  0.6075
 5366SOL    HW127557   2.392   3.367   9.077  0.2945  2.0333  0.0449
 5366SOL    HW227558   2.524   3.401   9.022 -0.7050  1.5594 -2.6024
 5367SOL     OW27559   0.122   0.376   4.927 -0.2418  0.3446 -0.3792
 5367SOL    HW127560   0.158   0.302   4.878  1.3630  1.7323 -1.2734
 5367SOL    HW227561   0.037   0.356   4.889  0.9122 -0.4727 -2.5129
 5368SOL     OW27562   0.777   2.159   3.024  0.5028 -0.7698 -0.0932
 5368SOL    HW127563   0.826   2.077   3.012 -0.1560 -0.8787 -1.9681
 5368SOL    HW227564   0.845   2.220   2.994  0.3762  1.5670  4.3325
 5369SOL     OW27565   2.684   3.599   4.367  0.2654 -0.6067  0.0730
 5369SOL    HW127566   2.726   3.518   4.341 -0.4148 -1.2847  1.0846
 5369SOL    HW227567   2.703   3.590   4.460  1.0220  1.7140  0.1408
 5370SOL     OW27568   4.081   1.546   2.895 -0.1296 -0.5350 -0.2774
 5370SOL    HW127569   4.157   1.517   2.945  0.8629  0.6475 -1.1056
 5370SOL    HW227570   4.014   1.497   2.943  0.2984  0.0499  0.9090
 5371SOL     OW27571   1.498   1.720   9.260  0.5526 -0.0031  0.2217
 5371SOL    HW127572   1.512   1.630   9.289  0.5595 -0.4711 -1.2300
 5371SOL    HW227573   1.589   1.745   9.243  1.4201 -2.4123  1.4362
 5372SOL     OW27574   2.416   1.285  12.530 -0.0111  0.5980 -0.6164
 5372SOL    HW127575   2.432   1.335  12.610 -1.0891  2.4477 -1.5878
 5372SOL    HW227576   2.377   1.358  12.483  0.0205  1.8811  1.3754
 5373SOL     OW27577   0.869   1.411  16.533  0.8149  0.5914  0.3976
 5373SOL    HW127578   0.817   1.450  16.604  0.6704 -1.0582  1.2064
 5373SOL    HW227579   0.796   1.364  16.493  0.2916  0.5180  1.4430
 5374SOL     OW27580   2.963   1.212  11.634  0.8340  0.0707  0.0446
 5374SOL    HW127581   3.000   1.202  11.721  0.2674 -0.2547  0.2500
 5374SOL    HW227582   2.874   1.178  11.645  0.2485  1.1057 -1.4303
 5375SOL     OW27583   1.507   4.512   5.403  0.3331 -0.0591 -0.4157
 5375SOL    HW127584   1.418   4.536   5.429  0.4746  1.0717 -0.9604
 5375SOL    HW227585   1.489   4.443   5.340  1.2141 -0.5643 -0.1066
 5376SOL     OW27586   0.158   0.871   2.885  0.0497  0.0679  0.0261
 5376SOL    HW127587   0.121   0.922   2.814  3.1329  0.2951 -1.3999
 5376SOL    HW227588   0.082   0.877   2.944  0.0020 -0.6323  0.0474
 5377SOL     OW27589   2.440   0.796   3.784  0.3412  0.3412  0.1773
 5377SOL    HW127590   2.510   0.734   3.805  1.0909  0.8386 -0.8472
 5377SOL    HW227591   2.376   0.728   3.767  0.1388  0.3813  0.7640
 5378SOL     OW27592   2.610   2.370  17.091  0.0266  0.0097  0.1234
 5378SOL    HW127593   2.530   2.366  17.142 -0.5355  1.2870 -0.6428
 5378SOL    HW227594   2.666   2.436  17.132 -0.4323 -0.0975  0.9057
 5379SOL     OW27595   4.312   1.100  13.516 -0.4377  0.1552  0.0043
 5379SOL    HW127596   4.383   1.035  13.517 -1.7486 -1.2631 -0.4806
 5379SOL    HW227597   4.293   1.111  13.423  5.3860 -1.2554 -1.3714
 5380SOL     OW27598   3.322   4.309  17.010  0.0053 -0.7170  0.2310
 5380SOL    HW127599   3.330   4.402  16.987 -1.5706 -1.0233 -1.5837
 5380SOL    HW227600   3.345   4.268  16.926  1.2629  0.8505 -0.2017
 5381SOL     OW27601   4.406   0.901  17.403  0.3826 -0.7841 -1.1187
 5381SOL    HW127602   4.404   0.851  17.321 -0.8776 -1.8231 -0.4480
 5381SOL    HW227603   4.315   0.895  17.430  0.4841 -0.9282 -0.8125
 5382SOL     OW27604   2.908   1.702   0.077  0.5119  0.5158  0.2822
 5382SOL    HW127605   2.869   1.640   0.139  1.2874 -1.4924 -1.2270
 5382SOL    HW227606   2.870   1.671  17.678  2.1409 -0.3842 -0.1402
 5383SOL     OW27607   0.461   4.683  12.908 -0.4635  0.2807  0.0617
 5383SOL    HW127608   0.402   4.625  12.861 -0.0837  1.4642 -1.8623
 5383SOL    HW227609   0.475   0.024  12.836  1.1794 -1.1817 -0.8583
 5384SOL     OW27610   1.063   3.342   5.030  0.2188  0.1737  0.1096
 5384SOL    HW127611   1.079   3.419   5.085 -0.1601 -0.8440  1.6507
 5384SOL    HW227612   1.067   3.275   5.099  0.8459  0.6126  0.4960
 5385SOL     OW27613   0.041   3.977   4.949  0.4102 -0.5488  0.1247
 5385SOL    HW127614   0.024   3.886   4.923  0.3251 -0.6282  0.4522
 5385SOL    HW227615   0.013   3.976   5.041  0.8780 -2.7738  0.2465
 5386SOL     OW27616   1.909   1.498   5.182 -0.5688 -0.0295 -0.2564
 5386SOL    HW127617   1.822   1.538   5.185  0.2159  1.6132  0.4841
 5386SOL    HW227618   1.899   1.421   5.239 -1.1164  1.0811  1.1347
 5387SOL     OW27619   2.934   1.172   3.067 -0.0357 -0.0410  0.3108
 5387SOL    HW127620   2.943   1.264   3.094  2.0257  0.1691 -1.0842
 5387SOL    HW227621   2.961   1.174   2.975 -2.7131 -0.0953 -0.4890
 5388SOL     OW27622   4.634   4.693   5.586  0.3028 -0.8597  0.1814
 5388SOL    HW127623   4.586   4.613   5.608  0.3266 -1.1843 -0.9484
 5388SOL    HW227624   0.001   4.674   5.621  0.8333 -0.4756 -0.9325
 5389SOL     OW27625   2.488   2.498   4.287  0.5721 -0.0243  0.2931
 5389SOL    HW127626   2.527   2.424   4.333  1.3677  0.6292  0.6712
 5389SOL    HW227627   2.516   2.479   4.198 -1.7595 -2.4507  0.0974
 5390SOL     OW27628   3.711   2.641   6.768  0.1494  0.2877  0.5110
 5390SOL    HW127629   3.679   2.732   6.766 -1.3650 -0.2214  1.4678
 5390SOL    HW227630   3.802   2.663   6.788  0.0970  0.7027  0.2965
 5391SOL     OW27631   0.817   1.916  14.752  0.0689 -0.4569 -0.3487
 5391SOL    HW127632   0.871   1.974  14.806 -0.8023  0.1444 -0.1115
 5391SOL    HW227633   0.835   1.831  14.793  1.7375  0.1287  0.1284
 5392SOL     OW27634   3.036   2.261   3.711  0.5694  0.1135 -0.0560
 5392SOL    HW127635   3.129   2.244   3.728  1.1802  2.2748 -1.1432
 5392SOL    HW227636   3.018   2.184   3.657  0.9716  0.0454 -0.0969
 5393SOL     OW27637   2.845   0.068   7.810 -0.1058 -0.7264 -0.7483
 5393SOL    HW127638   2.917   0.131   7.798 -0.9269  0.5518  1.0249
 5393SOL    HW227639   2.787   0.098   7.740 -1.4886  2.0873  1.5925
 5394SOL     OW27640   2.070   3.708   6.385  0.3734 -0.0097 -0.1370
 5394SOL    HW127641   2.100   3.744   6.301 -3.7941  0.6016 -1.3496
 5394SOL    HW227642   1.987   3.754   6.390 -0.0155 -0.5975 -1.1043
 5395SOL     OW27643   1.110   2.424   4.173  0.1452  0.3528 -0.0063
 5395SOL    HW127644   1.194   2.428   4.127  0.9029  0.7195  1.4134
 5395SOL    HW227645   1.063   2.361   4.119 -0.5580 -0.6766  1.8105
 5396SOL     OW27646   3.735   0.073   7.374  0.0429  0.2027 -0.0414
 5396SOL    HW127647   3.683   4.718   7.347  0.0177  0.2925 -0.2408
 5396SOL    HW227648   3.751   0.109   7.286 -1.2792 -0.0455 -0.3730
 5397SOL     OW27649   1.333   3.848   8.444 -0.8937 -0.2184 -0.4716
 5397SOL    HW127650   1.312   3.863   8.536  1.7201 -1.1914  0.2883
 5397SOL    HW227651   1.310   3.757   8.424  0.3156 -0.9568  1.5632
 5398SOL     OW27652   3.141   3.834  16.360  0.2469  0.0328 -0.6094
 5398SOL    HW127653   3.192   3.825  16.279 -0.1703  1.7994 -1.0790
 5398SOL    HW227654   3.122   3.743  16.383 -0.6829  0.4135  0.1211
 5399SOL     OW27655   1.617   1.809   2.281  0.3184  0.0691 -0.0246
 5399SOL    HW127656   1.582   1.742   2.222  2.0786 -0.6871 -0.2125
 5399SOL    HW227657   1.637   1.877   2.216 -0.6931  1.4297  1.0911
 5400SOL     OW27658   0.115   1.810   3.260  0.2037 -0.8948 -0.2466
 5400SOL    HW127659   0.033   1.839   3.220  0.2826  0.4290  0.5335
 5400SOL    HW227660   0.079   1.759   3.332 -0.4766  2.3844  1.7167
 5401SOL     OW27661   0.647   2.825  15.068  0.0957  0.3194  0.4089
 5401SOL    HW127662   0.705   2.751  15.048  0.1417  0.3841  0.3048
 5401SOL    HW227663   0.708   2.892  15.098 -0.2101  1.0118 -0.5020
 5402SOL     OW27664   3.936   2.687   7.961 -0.3841  0.1630  0.2613
 5402SOL    HW127665   3.904   2.722   7.877  0.7191 -1.0579 -0.6597
 5402SOL    HW227666   3.997   2.753   7.992  0.4638 -0.4446 -0.1244
 5403SOL     OW27667   1.202   0.833   7.925 -0.1060  0.2137  0.7702
 5403SOL    HW127668   1.261   0.794   7.989 -2.5207 -2.5289  1.3317
 5403SOL    HW227669   1.253   0.902   7.882 -0.0894  0.7126  1.5976
 5404SOL     OW27670   0.389   3.280   8.746 -0.0954 -0.5639  0.2074
 5404SOL    HW127671   0.337   3.212   8.791 -0.6482  0.4959  1.1676
 5404SOL    HW227672   0.475   3.237   8.741  0.9672  1.5906 -0.0670
 5405SOL     OW27673   2.639   3.417   5.158 -0.0916  0.3238  0.2146
 5405SOL    HW127674   2.650   3.441   5.251  1.2027 -2.1328  0.6987
 5405SOL    HW227675   2.730   3.433   5.131  0.2582 -0.3500  0.9614
 5406SOL     OW27676   3.685   2.117   4.445  0.1649 -0.0923  0.3615
 5406SOL    HW127677   3.645   2.148   4.364 -0.5398 -2.6375 -0.2401
 5406SOL    HW227678   3.651   2.177   4.511 -0.5093 -0.0444 -0.0348
 5407SOL     OW27679   2.382   3.688   7.813  0.1459  0.6822 -0.0743
 5407SOL    HW127680   2.379   3.775   7.853 -0.3363  0.4912  0.3077
 5407SOL    HW227681   2.466   3.661   7.850  0.4568 -0.6357 -1.7698
 5408SOL     OW27682   0.908   3.378   8.015  0.5029  0.2949 -0.1311
 5408SOL    HW127683   0.821   3.394   7.980  0.9280  0.1452 -1.2346
 5408SOL    HW227684   0.897   3.436   8.091  2.4363  0.0122  0.3722
 5409SOL     OW27685   2.846   3.081  10.261  0.2514  0.3094 -0.0512
 5409SOL    HW127686   2.884   3.165  10.288  3.2346 -1.8261  2.3579
 5409SOL    HW227687   2.856   3.086  10.166  1.1074  3.3475  0.1994
 5410SOL     OW27688   3.073   1.222   6.064 -0.6355  0.0074 -0.0835
 5410SOL    HW127689   3.017   1.201   5.990 -0.1433  1.0499 -0.7665
 5410SOL    HW227690   3.025   1.183   6.137  1.2246 -0.4789  0.8922
 5411SOL     OW27691   4.389   1.286   0.224 -0.0216 -0.5652  0.2376
 5411SOL    HW127692   4.442   1.225   0.274 -1.0185 -0.5996  1.2485
 5411SOL    HW227693   4.356   1.227   0.156 -2.3303 -1.2243  1.9364
 5412SOL     OW27694   2.001   3.303   3.976 -0.0393 -0.6127  0.9614
 5412SOL    HW127695   2.023   3.274   4.065  0.2413  0.4696  1.2423
 5412SOL    HW227696   1.930   3.247   3.944 -1.8978  1.0443  2.1798
 5413SOL     OW27697   2.972   2.396   4.486 -0.0665  0.9266 -0.0929
 5413SOL    HW127698   3.040   2.431   4.428 -0.6265  1.6462 -0.3188
 5413SOL    HW227699   2.971   2.305   4.456 -1.2362  0.8432  0.1777
 5414SOL     OW27700   1.675   0.431   4.647  0.0099  0.0147  0.0475
 5414SOL    HW127701   1.722   0.420   4.564  2.7540  1.0387  1.4823
 5414SOL    HW227702   1.666   0.336   4.662  0.4145  0.2612  1.8768
 5415SOL     OW27703   3.662   1.529   8.503  1.1675 -0.1058 -0.0751
 5415SOL    HW127704   3.579   1.489   8.530 -0.2150  1.1883 -2.5499
 5415SOL    HW227705   3.654   1.532   8.408 -0.2604  0.6292  0.0821
 5416SOL     OW27706   1.692   4.336   1.868  0.7659 -0.3703  0.3424
 5416SOL    HW127707   1.729   4.258   1.827 -0.7908  0.0876 -1.9424
 5416SOL    HW227708   1.651   4.296   1.944  1.7303 -1.4811  0.2782
 5417SOL     OW27709   3.524   3.769   5.834  0.1043 -0.5220 -0.0154
 5417SOL    HW127710   3.461   3.711   5.790 -1.0795  0.6872  0.0962
 5417SOL    HW227711   3.601   3.714   5.817  0.2963 -0.2722  0.0540
 5418SOL     OW27712   1.082   1.476   3.005 -0.5631  0.6394 -0.4714
 5418SOL    HW127713   1.098   1.441   2.918  4.1702  1.1648  0.1958
 5418SOL    HW227714   1.127   1.418   3.067  1.0056  1.5481 -0.7824
 5419SOL     OW27715   4.052   0.019   4.099  0.2430  0.3469 -0.2247
 5419SOL    HW127716   4.082   0.109   4.088  0.6672 -0.0603 -2.4593
 5419SOL    HW227717   3.986   0.018   4.029  1.5170 -2.8370 -1.3872
 5420SOL     OW27718   1.915   0.606   2.570  0.5983  0.1003 -0.2032
 5420SOL    HW127719   1.984   0.572   2.512  0.1752  2.0611 -1.8671
 5420SOL    HW227720   1.944   0.694   2.595  1.2671 -0.0616 -0.3929
 5421SOL     OW27721   3.936   2.034  10.314 -0.2155  0.1131 -0.0023
 5421SOL    HW127722   4.023   1.994  10.312 -0.2746  0.0901 -2.1806
 5421SOL    HW227723   3.897   1.992  10.391  2.4901 -1.3779  0.5366
 5422SOL     OW27724   1.221   4.318   8.207  0.0283 -0.1292  0.0316
 5422SOL    HW127725   1.192   4.351   8.122  1.2964  1.8551  0.3855
 5422SOL    HW227726   1.234   4.225   8.188 -0.4685  0.3710 -2.7184
 5423SOL     OW27727   4.510   3.637  14.718  0.4580  0.1554  0.3279
 5423SOL    HW127728   4.577   3.610  14.781 -0.9268 -0.7302  1.4118
 5423SOL    HW227729   4.501   3.557  14.666  1.7863 -0.5138  1.1155
 5424SOL     OW27730   1.162   0.345   5.648 -0.1889  0.2678 -0.0708
 5424SOL    HW127731   1.217   0.367   5.724  0.0842 -1.3301  0.1912
 5424SOL    HW227732   1.214   0.353   5.568 -0.0444  1.8031  0.1730
 5425SOL     OW27733   4.104   1.538   2.094  0.2268  0.0296  0.3286
 5425SOL    HW127734   4.149   1.603   2.149 -0.2741 -0.4159  1.2640
 5425SOL    HW227735   4.064   1.474   2.152  2.1176 -0.4245  1.1463
 5426SOL     OW27736   1.500   1.539   7.675  0.1017  0.1758  0.4000
 5426SOL    HW127737   1.491   1.526   7.581 -1.1544  0.3771  0.4921
 5426SOL    HW227738   1.570   1.605   7.669  2.3284 -2.0918  1.6259
 5427SOL     OW27739   4.606   2.546  13.406 -0.0183  0.1306  0.3312
 5427SOL    HW127740   4.610   2.524  13.499  1.6518 -1.6997 -0.1559
 5427SOL    HW227741   4.623   2.458  13.372 -0.9822  0.1681 -0.2595
 5428SOL     OW27742   2.798   3.634   0.942 -0.0116 -0.1885 -0.3912
 5428SOL    HW127743   2.799   3.582   0.862 -0.9806  1.5184 -1.5226
 5428SOL    HW227744   2.874   3.597   0.987  0.3973 -0.9044 -1.6830
 5429SOL     OW27745   1.564   1.712   2.551  0.2311 -0.1087 -0.1692
 5429SOL    HW127746   1.550   1.757   2.468  1.6266  1.0505  0.2088
 5429SOL    HW227747   1.598   1.789   2.597 -1.0782  0.0799  0.4901
 5430SOL     OW27748   1.471   1.497   9.960 -0.5948  0.1196  0.4804
 5430SOL    HW127749   1.414   1.490   9.884  1.3855 -2.6677 -0.7757
 5430SOL    HW227750   1.461   1.590   9.979  0.8891  0.4420 -0.3470
 5431SOL     OW27751   3.917   3.041   6.803 -0.2151  0.3124 -0.0897
 5431SOL    HW127752   3.999   3.027   6.755 -2.5764 -3.1024 -3.2027
 5431SOL    HW227753   3.903   2.961   6.855  1.9368 -0.6723 -1.0314
 5432SOL     OW27754   0.618   1.193  16.998 -0.5471  0.5761 -0.2949
 5432SOL    HW127755   0.683   1.155  16.938 -0.5426 -1.9460  1.3251
 5432SOL    HW227756   0.674   1.253  17.047 -1.2691  1.0216 -0.0230
 5433SOL     OW27757   2.506   3.899   3.297  0.4260 -0.5046  0.3977
 5433SOL    HW127758   2.475   3.881   3.386  0.0669  0.3470  0.4500
 5433SOL    HW227759   2.435   3.871   3.240 -1.0202  2.9477  0.4844
 5434SOL     OW27760   3.920   4.631   8.952 -0.3894 -0.0944 -0.0428
 5434SOL    HW127761   3.999   4.627   9.005 -0.0305 -0.3089 -0.6000
 5434SOL    HW227762   3.952   4.674   8.874 -1.1795 -0.0693 -0.3591
 5435SOL     OW27763   3.345   2.923  11.698  0.2015  0.7613  0.1698
 5435SOL    HW127764   3.424   2.899  11.649  0.4928 -0.3210  1.1838
 5435SOL    HW227765   3.389   2.980  11.761  0.4293  0.1396  0.5743
 5436SOL     OW27766   1.546   3.273   6.583  0.0302 -0.0824  0.3776
 5436SOL    HW127767   1.461   3.284   6.541  0.9078  0.5261 -1.2439
 5436SOL    HW227768   1.528   3.192   6.629  2.7218 -1.1667 -0.4619
 5437SOL     OW27769   3.954   0.271  12.141 -0.0221 -0.0890 -0.2020
 5437SOL    HW127770   4.021   0.217  12.101  0.9250  0.9034  0.0160
 5437SOL    HW227771   3.995   0.287  12.226  1.1744 -0.4184 -0.7237
 5438SOL     OW27772   0.144   3.708   0.021 -0.3307  0.0113 -0.0877
 5438SOL    HW127773   0.184   3.624   0.044  3.1245  2.0286  1.2782
 5438SOL    HW227774   0.050   3.699   0.032 -0.5690 -0.4312 -2.3990
 5439SOL     OW27775   1.338   4.198   4.667  0.2381  0.4381  0.6809
 5439SOL    HW127776   1.407   4.132   4.664 -1.1267 -0.9332 -0.3908
 5439SOL    HW227777   1.288   4.169   4.591  2.4943  0.7073 -0.8820
 5440SOL     OW27778   0.336   3.856   3.284  0.3001 -0.2302 -0.4379
 5440SOL    HW127779   0.272   3.902   3.338  0.6291 -2.7445  2.1082
 5440SOL    HW227780   0.342   3.779   3.342 -2.2734  0.5687  0.9092
 5441SOL     OW27781   2.124   3.614  11.290 -0.2121  0.6216 -0.1838
 5441SOL    HW127782   2.068   3.592  11.365 -1.4996  2.9087 -0.4774
 5441SOL    HW227783   2.077   3.569  11.220 -3.5732 -1.2640  3.2729
 5442SOL     OW27784   1.302   2.302   0.941  0.8883  0.2610 -0.4156
 5442SOL    HW127785   1.329   2.334   0.855  0.5938 -1.6199 -1.2141
 5442SOL    HW227786   1.240   2.368   0.972  2.3762  1.2525  0.4360
 5443SOL     OW27787   1.169   3.915   7.451 -0.1986  0.3107  0.0327
 5443SOL    HW127788   1.187   3.860   7.527 -2.8641  0.7759  0.9966
 5443SOL    HW227789   1.136   3.843   7.397 -1.1892  0.1587  0.8459
 5444SOL     OW27790   0.324   3.226   4.392 -0.0242 -0.2759 -0.4196
 5444SOL    HW127791   0.395   3.290   4.394 -0.2869 -0.0742  2.1339
 5444SOL    HW227792   0.334   3.177   4.310 -1.8098 -2.9678  0.9755
 5445SOL     OW27793   1.575   0.238   4.411 -0.3975 -0.1230  0.8994
 5445SOL    HW127794   1.522   0.209   4.486  0.5790  1.5131  2.2186
 5445SOL    HW227795   1.645   0.173   4.415  1.4321  1.9193  1.6172
 5446SOL     OW27796   3.842   1.780   4.056 -0.3535 -0.2284  0.2157
 5446SOL    HW127797   3.780   1.852   4.048  0.5367  0.7550  2.2485
 5446SOL    HW227798   3.910   1.808   3.995  1.0140  0.3951  2.0584
 5447SOL     OW27799   4.200   2.730   2.991 -0.0343  0.3432 -0.0551
 5447SOL    HW127800   4.282   2.724   3.041 -0.5268  1.4190  0.8829
 5447SOL    HW227801   4.193   2.825   2.979 -0.7248  0.0196 -2.0916
 5448SOL     OW27802   3.640   4.147   2.319 -0.0732  0.6606 -0.6532
 5448SOL    HW127803   3.643   4.073   2.258  0.2236 -0.9678  1.3466
 5448SOL    HW227804   3.656   4.215   2.254  0.4441 -0.1705 -1.4054
 5449SOL     OW27805   4.091   0.601   8.883  0.4192  0.1214  0.1040
 5449SOL    HW127806   4.110   0.523   8.830  1.0909  0.2077  0.2189
 5449SOL    HW227807   4.107   0.558   8.967  0.2118 -0.4688 -0.1543
 5450SOL     OW27808   4.194   3.768   8.232 -0.7356  0.0313  0.3320
 5450SOL    HW127809   4.123   3.704   8.238  0.1470 -1.0518 -0.8408
 5450SOL    HW227810   4.264   3.707   8.211 -0.0498  0.5815  1.0094
 5451SOL     OW27811   3.582   3.667   2.169  0.5511 -0.4407  0.1800
 5451SOL    HW127812   3.487   3.678   2.166  0.5008 -1.2137 -1.4007
 5451SOL    HW227813   3.601   3.602   2.101  2.9903 -0.9689  1.3779
 5452SOL     OW27814   0.721   4.315  16.964  0.2640  0.2575  0.2925
 5452SOL    HW127815   0.699   4.400  17.003 -1.3466  0.3999 -0.9263
 5452SOL    HW227816   0.702   4.254  17.036 -2.2277 -0.7201 -1.2001
 5453SOL     OW27817   0.472   1.172  13.423  0.4345 -0.1028 -0.2087
 5453SOL    HW127818   0.470   1.078  13.407  0.7507 -0.0871 -0.3370
 5453SOL    HW227819   0.428   1.214  13.349 -0.8977 -0.0747  0.5944
 5454SOL     OW27820   0.842   4.444   1.815 -0.1015  0.1168  0.6554
 5454SOL    HW127821   0.881   4.467   1.730  0.8470 -0.6771  0.8724
 5454SOL    HW227822   0.797   4.363   1.791  0.4222 -0.4867  1.7193
 5455SOL     OW27823   3.684   1.459   1.266  0.3236  0.3816 -0.4998
 5455SOL    HW127824   3.736   1.538   1.249  1.8389 -0.8437 -1.5938
 5455SOL    HW227825   3.595   1.489   1.248  0.7881  0.4284 -2.7517
 5456SOL     OW27826   1.464   1.098  13.354  0.1333  0.1558  0.4794
 5456SOL    HW127827   1.550   1.132  13.380  1.0738 -0.7809 -1.4677
 5456SOL    HW227828   1.501   1.011  13.341  0.0832  0.1670  0.2662
 5457SOL     OW27829   1.874   0.071   0.903 -0.5857 -0.2665  0.5736
 5457SOL    HW127830   1.938   0.021   0.852 -1.1472 -0.3000 -0.0987
 5457SOL    HW227831   1.815   0.004   0.940 -1.9873  1.3698  1.2989
 5458SOL     OW27832   4.047   2.088   2.871  0.3727 -0.2787  0.5925
 5458SOL    HW127833   3.957   2.112   2.846  0.5810 -1.6337 -1.4071
 5458SOL    HW227834   4.045   1.994   2.892  0.7638 -0.7775 -1.6504
 5459SOL     OW27835   1.312   1.333   3.284 -0.0530 -0.1182  0.2937
 5459SOL    HW127836   1.396   1.317   3.242 -0.1477 -2.4439  1.0301
 5459SOL    HW227837   1.256   1.277   3.231 -1.8058  0.7191  1.2573
 5460SOL     OW27838   1.816   1.470   8.298 -0.2162  0.8473 -0.1400
 5460SOL    HW127839   1.735   1.515   8.321 -0.6215  0.5077 -0.8867
 5460SOL    HW227840   1.846   1.432   8.381 -1.7141 -0.7874 -0.3205
 5461SOL     OW27841   3.935   2.502  11.949 -0.0267  0.4845 -1.1531
 5461SOL    HW127842   4.015   2.553  11.956  1.4907 -1.7990 -2.0632
 5461SOL    HW227843   3.934   2.479  11.856  0.7670 -3.1844 -0.2257
 5462SOL     OW27844   3.048   0.077  13.483  0.5027  0.6553  0.0739
 5462SOL    HW127845   3.066   4.709  13.452 -0.3668  0.5081 -0.0025
 5462SOL    HW227846   3.067   0.120  13.399 -0.6409 -0.3292 -0.6812
 5463SOL     OW27847   0.286   4.244   8.445 -0.1455  0.0556 -0.2750
 5463SOL    HW127848   0.281   4.156   8.405 -0.1307  1.2949 -3.0241
 5463SOL    HW227849   0.242   4.230   8.529  1.6138 -0.8263  0.5038
 5464SOL     OW27850   3.011   3.515  10.885  0.4458 -0.1553  0.0101
 5464SOL    HW127851   2.965   3.465  10.818 -1.6881  0.5107  1.0077
 5464SOL    HW227852   3.104   3.499  10.867  1.1777  0.0682  3.6363
 5465SOL     OW27853   3.528   1.521   7.733 -0.4803  0.3516 -0.0330
 5465SOL    HW127854   3.602   1.556   7.783 -0.2202  0.1465 -0.2752
 5465SOL    HW227855   3.526   1.426   7.742  1.1883  0.4746  1.4985
 5466SOL     OW27856   3.720   0.981  13.483 -0.2528  0.1027 -0.8798
 5466SOL    HW127857   3.802   0.946  13.450 -0.0984 -0.6466  0.2818
 5466SOL    HW227858   3.652   0.914  13.470 -1.0219  0.6489  0.2768
 5467SOL     OW27859   1.459   2.122   6.970 -0.0177 -0.1216  0.2626
 5467SOL    HW127860   1.423   2.040   6.936  0.8673 -0.4321  0.0639
 5467SOL    HW227861   1.486   2.162   6.888  0.7085  0.2297  0.6767
 5468SOL     OW27862   4.304   3.641   4.447  0.2167 -0.0628  0.1655
 5468SOL    HW127863   4.379   3.637   4.506 -1.3462 -2.3743  1.9956
 5468SOL    HW227864   4.314   3.563   4.393  0.3861  0.2351 -0.2329
 5469SOL     OW27865   2.798   2.748   2.731  0.0776 -0.5155  0.5956
 5469SOL    HW127866   2.762   2.675   2.681  0.3330 -0.2002 -0.0452
 5469SOL    HW227867   2.860   2.789   2.670 -1.2172 -0.2518 -0.5524
 5470SOL     OW27868   3.126   4.407   7.730 -0.3162 -0.1503 -0.3327
 5470SOL    HW127869   3.102   4.497   7.752 -1.2115 -0.1592 -1.2849
 5470SOL    HW227870   3.204   4.383   7.781 -0.3048  0.8334  0.1124
 5471SOL     OW27871   4.286   2.374   9.584 -0.0885  0.4993  0.1805
 5471SOL    HW127872   4.333   2.398   9.664 -2.4101  0.8145  1.4604
 5471SOL    HW227873   4.333   2.297   9.551  1.0077  1.9128 -1.5034
 5472SOL     OW27874   1.360   4.131   7.792  0.0640 -0.5103 -0.3542
 5472SOL    HW127875   1.404   4.046   7.799 -0.1482 -0.5106  1.0077
 5472SOL    HW227876   1.420   4.193   7.833 -0.0636 -0.6641  0.0628
 5473SOL     OW27877   2.434   2.160   3.320 -0.7613  0.2428 -0.6248
 5473SOL    HW127878   2.428   2.241   3.370  0.6942  0.5747 -0.9755
 5473SOL    HW227879   2.526   2.133   3.326 -0.0112  3.1742  1.1242
 5474SOL     OW27880   4.062   3.869   1.955  0.2656 -0.1751 -0.4599
 5474SOL    HW127881   4.143   3.916   1.973  0.9035 -1.5579  0.3219
 5474SOL    HW227882   4.025   3.913   1.879 -0.8960 -0.5988 -0.1470
 5475SOL     OW27883   3.872   4.423   7.565  0.2867 -0.2439 -0.3308
 5475SOL    HW127884   3.869   4.456   7.476 -0.7300 -0.7011 -0.4628
 5475SOL    HW227885   3.823   4.342   7.554  0.2115 -0.0470 -1.4258
 5476SOL     OW27886   4.339   3.053  16.511 -0.3819  0.7473  0.5413
 5476SOL    HW127887   4.356   3.010  16.427  1.9412 -1.0527  1.9183
 5476SOL    HW227888   4.260   3.099  16.485 -0.4600 -0.4046 -1.2776
 5477SOL     OW27889   1.327   0.597   5.617  0.3542 -0.5631 -0.3569
 5477SOL    HW127890   1.387   0.640   5.677  0.5132 -0.5686 -0.5127
 5477SOL    HW227891   1.355   0.508   5.597 -0.5790 -0.8296 -0.4957
 5478SOL     OW27892   1.354   3.423  17.465 -0.0867  0.2092 -0.2102
 5478SOL    HW127893   1.274   3.376  17.489  0.0371  1.6450  3.1077
 5478SOL    HW227894   1.382   3.443  17.555 -0.2023  1.3946 -0.4309
 5479SOL     OW27895   4.354   3.922   4.636  0.0251 -0.0379  0.0292
 5479SOL    HW127896   4.415   3.859   4.598  0.0080 -0.1714  0.2230
 5479SOL    HW227897   4.268   3.880   4.641 -0.8354  1.9153  1.4952
 5480SOL     OW27898   2.684   4.303   2.847 -0.0248  0.2547 -0.2694
 5480SOL    HW127899   2.638   4.386   2.838 -2.6776 -1.3115 -0.9340
 5480SOL    HW227900   2.717   4.289   2.758  0.7759 -2.6612  0.4590
 5481SOL     OW27901   2.251   2.831   4.825  0.0624  0.0162 -0.4987
 5481SOL    HW127902   2.211   2.863   4.743 -0.1344 -0.3965 -0.5616
 5481SOL    HW227903   2.186   2.768   4.854  0.6067  0.1391  0.9447
 5482SOL     OW27904   3.133   1.754   1.920 -0.4935  0.0832  0.3647
 5482SOL    HW127905   3.114   1.742   2.013  0.9948  0.1101  0.6655
 5482SOL    HW227906   3.162   1.845   1.914 -1.4206  0.3067 -0.7187
 5483SOL     OW27907   3.645   3.849  10.962 -0.2224  0.5155 -0.0311
 5483SOL    HW127908   3.649   3.849  10.867 -1.2310  0.7151 -0.0630
 5483SOL    HW227909   3.720   3.908  10.971  0.2044 -0.0797  0.4051
 5484SOL     OW27910   1.297   3.288  15.526  0.1588  0.3335  0.4051
 5484SOL    HW127911   1.333   3.362  15.477  1.0322  0.3608  1.1004
 5484SOL    HW227912   1.268   3.235  15.451  1.3145 -0.3485  0.4400
 5485SOL     OW27913   0.404   1.974   8.309 -0.2351 -0.0650  0.1984
 5485SOL    HW127914   0.344   1.974   8.383 -2.0025  0.4499 -1.2392
 5485SOL    HW227915   0.488   1.998   8.347  0.5823 -1.5970 -0.6298
 5486SOL     OW27916   3.120   0.999   2.686 -0.1017  0.8115 -0.7425
 5486SOL    HW127917   3.215   0.992   2.677  0.0924  2.5657  0.0268
 5486SOL    HW227918   3.095   0.906   2.689  2.1759  0.2158 -0.1780
 5487SOL     OW27919   1.070   2.566  14.164  0.1197 -0.5196 -0.2795
 5487SOL    HW127920   1.132   2.499  14.192 -1.0541 -1.6273 -0.3450
 5487SOL    HW227921   0.992   2.520  14.134 -0.8290  0.9738 -0.1345
 5488SOL     OW27922   3.487   2.216  10.292 -0.6858  0.3777  0.0496
 5488SOL    HW127923   3.449   2.229  10.379 -0.4117  3.3413 -0.2879
 5488SOL    HW227924   3.577   2.241  10.314  0.0909 -0.1602 -2.5665
 5489SOL     OW27925   0.210   1.001   8.017  0.3556 -0.1182 -0.2720
 5489SOL    HW127926   0.186   1.037   7.932  0.5951 -0.0038 -0.2923
 5489SOL    HW227927   0.300   0.972   8.000 -0.3884 -2.1820 -0.6871
 5490SOL     OW27928   3.396   2.701  16.982  0.3613 -0.0714 -1.1128
 5490SOL    HW127929   3.382   2.607  16.972  0.2965 -0.0425 -1.2915
 5490SOL    HW227930   3.328   2.725  17.045  2.2503  0.4314  0.7200
 5491SOL     OW27931   1.067   0.782   4.314 -0.1011 -0.6920 -0.8000
 5491SOL    HW127932   1.111   0.738   4.241  0.5315 -0.5621 -0.4952
 5491SOL    HW227933   1.108   0.745   4.392  0.8383  1.3014 -0.3559
 5492SOL     OW27934   0.106   3.093   4.042  0.1291 -0.2012 -0.0690
 5492SOL    HW127935   0.191   3.078   4.085 -0.6499 -1.6798  0.9430
 5492SOL    HW227936   0.069   3.167   4.090 -1.3732 -0.9713 -0.0456
 5493SOL     OW27937   2.375   1.849   3.388  0.5034  0.2055 -0.1150
 5493SOL    HW127938   2.412   1.769   3.350  0.1295  0.3553 -0.8029
 5493SOL    HW227939   2.448   1.904   3.414 -0.1318  1.3557 -0.7712
 5494SOL     OW27940   0.679   4.257   7.237 -0.0751  0.0355  0.0882
 5494SOL    HW127941   0.668   4.172   7.196 -3.9325  1.0010 -0.7917
 5494SOL    HW227942   0.616   4.308   7.187  1.4807 -0.9572 -2.8752
 5495SOL     OW27943   3.631   0.414  17.000  0.0571 -0.6071 -0.0565
 5495SOL    HW127944   3.595   0.460  17.075  0.1501  0.6135 -0.7536
 5495SOL    HW227945   3.642   0.325  17.030 -0.7802 -0.1305  1.6530
 5496SOL     OW27946   2.654   1.865   3.130 -0.3411 -0.0518 -0.3589
 5496SOL    HW127947   2.659   1.881   3.225 -1.7769 -1.1505 -0.0838
 5496SOL    HW227948   2.687   1.776   3.133  1.3058  0.6291  1.7283
 5497SOL     OW27949   2.662   2.908   0.547 -0.6380 -0.6024  0.1971
 5497SOL    HW127950   2.745   2.935   0.509 -1.3009  0.7608 -0.2951
 5497SOL    HW227951   2.679   2.931   0.639  1.0616 -1.0405 -0.0114
 5498SOL     OW27952   1.956   4.088   3.168 -0.2355 -0.4141  0.0943
 5498SOL    HW127953   1.904   4.024   3.216  0.1880  0.0712  1.2084
 5498SOL    HW227954   2.043   4.052   3.188  0.3418  0.8681 -0.1316
 5499SOL     OW27955   2.728   1.781   7.032 -0.6171  0.3667  0.3009
 5499SOL    HW127956   2.784   1.710   7.062 -1.0511  0.4474  1.3117
 5499SOL    HW227957   2.659   1.737   6.981 -1.5536 -1.0844  2.7977
 5500SOL     OW27958   4.633   1.700   2.563  0.0891 -0.2574  0.0194
 5500SOL    HW127959   4.601   1.758   2.632  2.2825 -1.5631  2.1368
 5500SOL    HW227960   4.605   1.744   2.483  0.2966 -1.1286 -0.5267
 5501SOL     OW27961   0.853   3.596  10.350  0.6517  0.4858  0.3408
 5501SOL    HW127962   0.926   3.563  10.298  0.3896  0.9978 -0.3470
 5501SOL    HW227963   0.822   3.516  10.392 -3.0758  1.0912 -1.2914
 5502SOL     OW27964   4.197   3.013   5.573 -0.2856  0.0847  0.1474
 5502SOL    HW127965   4.131   2.999   5.505  1.1152 -1.7544 -0.8316
 5502SOL    HW227966   4.207   3.108   5.575  0.2108  0.0528 -0.7332
 5503SOL     OW27967   0.585   2.593   6.247 -0.2847  0.3761  0.3538
 5503SOL    HW127968   0.493   2.618   6.240 -0.2935  0.5788  1.1601
 5503SOL    HW227969   0.583   2.500   6.224 -1.2561  0.5617 -0.3279
 5504SOL     OW27970   2.432   2.631   8.846 -0.5042 -0.2192 -0.5284
 5504SOL    HW127971   2.497   2.570   8.812 -1.2509 -1.2619 -0.0893
 5504SOL    HW227972   2.408   2.672   8.763 -1.3497  2.2682  0.9246
 5505SOL     OW27973   0.718   3.937   0.850 -0.1644  0.2657  0.0457
 5505SOL    HW127974   0.797   3.922   0.797 -0.5794 -1.0468 -0.2080
 5505SOL    HW227975   0.752   3.939   0.939 -1.1315 -3.0883  0.4735
 5506SOL     OW27976   4.335   2.316   5.617  0.3071 -0.1944 -0.1833
 5506SOL    HW127977   4.321   2.392   5.561 -4.2574 -0.4120  0.6495
 5506SOL    HW227978   4.400   2.268   5.566  3.0823  0.9285  2.3059
 5507SOL     OW27979   3.005   3.926   7.484 -0.3649 -0.1121  0.2309
 5507SOL    HW127980   2.952   3.845   7.483 -2.3407  1.1682  0.2325
 5507SOL    HW227981   3.084   3.887   7.448 -0.2305 -2.0667  2.5867
 5508SOL     OW27982   0.617   1.902   6.817 -0.6859  0.0846  0.3576
 5508SOL    HW127983   0.589   1.844   6.746  0.9572  3.0982 -2.7140
 5508SOL    HW227984   0.703   1.862   6.832 -0.9431 -0.9648 -0.9093
 5509SOL     OW27985   2.783   3.565   4.091  0.9482  0.3951  0.3297
 5509SOL    HW127986   2.826   3.499   4.037  1.1957 -0.2441  1.3125
 5509SOL    HW227987   2.818   3.544   4.178 -1.9700 -1.3573  1.0913
 5510SOL     OW27988   1.098   2.736   6.933 -0.7204  0.5434 -0.1356
 5510SOL    HW127989   1.172   2.726   6.992  0.4225 -0.1708 -1.6938
 5510SOL    HW227990   1.055   2.811   6.974 -1.4273 -1.5482  2.9182
 5511SOL     OW27991   0.459   4.033   4.633  0.0129  0.0037  0.1610
 5511SOL    HW127992   0.408   4.041   4.713 -1.2540  1.2278 -0.7717
 5511SOL    HW227993   0.548   4.028   4.668  1.0322  1.2183 -2.2467
 5512SOL     OW27994   1.379   4.452  15.003 -0.3897 -0.7182  0.3673
 5512SOL    HW127995   1.372   4.519  15.071 -2.3670 -1.2908  0.7070
 5512SOL    HW227996   1.286   4.449  14.980 -0.1909 -1.7121 -0.3293
 5513SOL     OW27997   1.496   2.788  13.227 -0.2956  0.0729 -0.1349
 5513SOL    HW127998   1.578   2.836  13.242 -0.2785 -0.1417  0.4551
 5513SOL    HW227999   1.506   2.726  13.299 -3.6503 -0.3961 -0.0881
 5514SOL     OW28000   3.419   2.993  17.079 -0.0009 -0.0290 -0.0882
 5514SOL    HW128001   3.439   2.940  17.156 -0.0127  0.4462  0.2405
 5514SOL    HW228002   3.429   2.921  17.017  0.0534  0.0750 -0.1986
 5515SOL     OW28003   4.485   4.718   9.272 -0.0113  0.4460  0.0560
 5515SOL    HW128004   4.484   0.067   9.205  0.8546  2.0267  1.6691
 5515SOL    HW228005   4.429   4.655   9.227 -1.4477  0.5983  1.6437
 5516SOL     OW28006   4.075   2.490   5.215 -0.0579 -0.3844 -0.0772
 5516SOL    HW128007   4.010   2.514   5.149  0.1047 -3.8892 -1.5362
 5516SOL    HW228008   4.154   2.526   5.175 -0.3084  0.5691  0.2987
 5517SOL     OW28009   3.778   0.612   9.602 -0.1672  0.5424  0.1640
 5517SOL    HW128010   3.752   0.559   9.677 -0.2756  0.2116 -0.1092
 5517SOL    HW228011   3.874   0.611   9.603 -0.1315 -1.1388 -4.0639
 5518SOL     OW28012   0.638   4.132   7.485  0.1341 -0.2567  0.1261
 5518SOL    HW128013   0.653   4.195   7.555  0.0615  1.3108 -1.2668
 5518SOL    HW228014   0.667   4.173   7.403 -0.5416  2.4416  1.2683
 5519SOL     OW28015   2.363   3.922   3.550  0.3531  0.1510 -0.9755
 5519SOL    HW128016   2.412   3.920   3.632 -0.4916 -1.3497 -0.5151
 5519SOL    HW228017   2.281   3.964   3.575 -0.4633 -1.0965 -1.5795
 5520SOL     OW28018   1.564   3.291  10.346 -0.3644 -0.0212 -0.1905
 5520SOL    HW128019   1.515   3.221  10.303  1.5014 -1.8729  0.6911
 5520SOL    HW228020   1.525   3.281  10.433  2.2551 -1.0211  0.8588
 5521SOL     OW28021   4.694   2.128  11.101  0.7920 -0.0906  0.4678
 5521SOL    HW128022   4.713   2.220  11.081 -1.5108  0.7034  1.8895
 5521SOL    HW228023   4.623   2.135  11.165  1.8595 -3.7525  2.0110
 5522SOL     OW28024   4.190   2.090   3.977 -0.0948 -0.3180  0.3334
 5522SOL    HW128025   4.248   2.128   3.912 -0.5950 -1.9514 -1.0871
 5522SOL    HW228026   4.248   2.033   4.027  0.4185 -1.0270 -1.0475
 5523SOL     OW28027   4.042   2.583   8.437  0.7098  1.3753 -0.1410
 5523SOL    HW128028   4.024   2.559   8.346 -1.6510  1.2690  0.3535
 5523SOL    HW228029   3.992   2.512   8.476  1.6829  1.0488  0.4984
 5524SOL     OW28030   0.608   0.224   5.878 -0.3733  0.4460  0.5034
 5524SOL    HW128031   0.688   0.176   5.857 -1.0490 -1.3003  1.9165
 5524SOL    HW228032   0.620   0.318   5.865  0.9297  0.0008 -1.4450
 5525SOL     OW28033   4.106   3.504   4.056 -0.2283  0.0941 -0.2399
 5525SOL    HW128034   4.038   3.556   4.100 -1.9295 -1.3220 -1.2202
 5525SOL    HW228035   4.168   3.489   4.128 -1.0247  0.2168  0.4731
 5526SOL     OW28036   0.985   1.841  11.577 -0.0272  0.1600 -0.0533
 5526SOL    HW128037   0.907   1.786  11.585  0.8862 -1.1042  0.2017
 5526SOL    HW228038   0.939   1.923  11.563  0.8855  0.5789 -0.5694
 5527SOL     OW28039   2.398   4.075   2.270  0.5180 -0.5172  0.1581
 5527SOL    HW128040   2.389   4.133   2.346  0.4077 -2.2901  1.4881
 5527SOL    HW228041   2.419   3.991   2.310  0.2902 -1.1272 -1.0037
 5528SOL     OW28042   3.053   3.132   5.678 -0.4258  0.3005 -0.5062
 5528SOL    HW128043   3.130   3.079   5.661 -1.2496 -1.0628  0.0099
 5528SOL    HW228044   3.006   3.098   5.754  0.1369 -0.2711 -0.4184
 5529SOL     OW28045   1.435   2.566   3.234 -0.0614 -0.2420 -0.0567
 5529SOL    HW128046   1.527   2.588   3.221  0.0739 -1.4091 -1.0824
 5529SOL    HW228047   1.430   2.470   3.240  1.5541 -0.2660  0.9626
 5530SOL     OW28048   2.187   3.246  13.429 -0.4081  0.2979  0.0168
 5530SOL    HW128049   2.176   3.221  13.521  2.4883  0.3761  0.3959
 5530SOL    HW228050   2.195   3.341  13.438 -0.4424  0.2274  0.8590
 5531SOL     OW28051   1.194   0.935   3.237 -0.3809 -0.0055  0.2583
 5531SOL    HW128052   1.167   0.863   3.180 -1.0813 -0.5765  1.3078
 5531SOL    HW228053   1.132   0.921   3.308  0.5700 -0.4370  0.9967
 5532SOL     OW28054   0.554   2.324   2.059 -0.1217 -0.0652  0.0310
 5532SOL    HW128055   0.639   2.279   2.056  0.7611  1.5289  0.9473
 5532SOL    HW228056   0.548   2.359   1.970  1.7452 -2.1726 -0.9296
 5533SOL     OW28057   3.378   2.866   1.665 -0.1746  0.7020  0.0153
 5533SOL    HW128058   3.419   2.814   1.734 -2.7806  1.3446  2.0150
 5533SOL    HW228059   3.338   2.799   1.610 -0.2872  2.3090 -1.8624
 5534SOL     OW28060   0.341   4.345  17.182 -0.1590 -0.5022  0.4068
 5534SOL    HW128061   0.276   4.280  17.157 -0.4958  0.7699 -1.9554
 5534SOL    HW228062   0.332   4.410  17.113 -1.4002 -2.1039 -0.9490
 5535SOL     OW28063   4.142   3.248   7.614 -0.2293  0.7552 -0.3323
 5535SOL    HW128064   4.058   3.259   7.569 -1.2112  2.1961  1.8086
 5535SOL    HW228065   4.186   3.326   7.581 -0.5615  0.4973 -1.3820
 5536SOL     OW28066   0.704   4.122   3.108 -0.4835  0.0031  0.4149
 5536SOL    HW128067   0.766   4.174   3.057  1.5197 -1.0223  1.7898
 5536SOL    HW228068   0.628   4.180   3.115 -0.9194 -0.2951 -1.8229
 5537SOL     OW28069   1.412   3.589   2.591  0.1928 -0.8519  0.2041
 5537SOL    HW128070   1.407   3.516   2.653  2.0571  0.4011  1.8389
 5537SOL    HW228071   1.368   3.561   2.511 -0.9613 -0.9090  0.8653
 5538SOL     OW28072   0.900   1.564   2.175 -0.3610  0.0314  0.3205
 5538SOL    HW128073   0.897   1.652   2.213  2.9911  0.8797 -1.3590
 5538SOL    HW228074   0.938   1.512   2.246 -1.7946 -2.6227 -0.8570
 5539SOL     OW28075   3.438   2.474   8.232  0.2400  0.3862  0.2147
 5539SOL    HW128076   3.363   2.437   8.186 -0.9958  1.4513  1.4050
 5539SOL    HW228077   3.498   2.399   8.225 -1.1108 -0.8449  1.8081
 5540SOL     OW28078   0.456   0.996   7.107  0.2056  0.3033 -0.0557
 5540SOL    HW128079   0.468   0.984   7.012  0.7176 -0.1363  0.0665
 5540SOL    HW228080   0.545   0.974   7.134  0.2262  0.6110  0.1251
 5541SOL     OW28081   3.303   1.814   2.904  0.2814  0.3995  0.1199
 5541SOL    HW128082   3.342   1.870   2.836  1.7677 -0.0073  0.6352
 5541SOL    HW228083   3.382   1.761   2.914 -0.2344 -0.2702  0.6707
 5542SOL     OW28084   0.598   2.771  16.276  0.3379  0.2291 -0.2631
 5542SOL    HW128085   0.640   2.808  16.198  3.8093 -1.6082  0.6985
 5542SOL    HW228086   0.648   2.816  16.344  0.0234  0.1677  0.0101
 5543SOL     OW28087   0.601   3.814  10.994 -0.0668  0.5867 -0.3744
 5543SOL    HW128088   0.654   3.739  10.965 -0.6222 -0.2529  0.7547
 5543SOL    HW228089   0.645   3.837  11.077 -0.3066  2.5196 -0.7953
 5544SOL     OW28090   0.383   4.677   7.973  0.0159 -0.3190 -0.5853
 5544SOL    HW128091   0.291   4.657   7.957 -0.4344  0.7690  0.6255
 5544SOL    HW228092   0.430   4.615   7.918 -1.0529 -2.8569  1.3778
 5545SOL     OW28093   2.865   0.848   1.777 -0.6934 -0.3702 -0.4104
 5545SOL    HW128094   2.812   0.769   1.789  1.5088 -1.8098 -0.1160
 5545SOL    HW228095   2.811   0.925   1.792  0.3260  0.4839 -1.1172
 5546SOL     OW28096   0.187   3.893   6.792  0.6209  0.4499 -0.1368
 5546SOL    HW128097   0.209   3.888   6.699 -2.0162  2.1840 -0.8325
 5546SOL    HW228098   0.193   3.805   6.829 -0.7381 -0.0209 -1.0588
 5547SOL     OW28099   2.221   3.115  12.860  0.3121  0.6065  0.4688
 5547SOL    HW128100   2.302   3.063  12.854 -1.3470 -1.9579  0.4327
 5547SOL    HW228101   2.193   3.096  12.949 -1.5712 -0.3163 -0.3236
 5548SOL     OW28102   0.742   4.314   5.555  0.1686 -0.0443 -0.2822
 5548SOL    HW128103   0.813   4.304   5.491  1.4343  0.4044  1.0742
 5548SOL    HW228104   0.671   4.304   5.492  1.9974 -0.5004 -2.2801
 5549SOL     OW28105   0.462   2.614   2.203  0.2613  0.1387  0.6353
 5549SOL    HW128106   0.426   2.540   2.154 -0.3357 -0.2398  1.6278
 5549SOL    HW228107   0.553   2.608   2.174  0.3072  0.7626  0.6699
 5550SOL     OW28108   2.695   3.017  11.844 -0.0439 -0.6019 -0.5746
 5550SOL    HW128109   2.777   3.014  11.795  0.0855  1.5733 -0.4866
 5550SOL    HW228110   2.725   2.985  11.930 -2.7144  0.2880  0.6782
 5551SOL     OW28111   4.692   0.188   2.012  0.2789 -0.5031  0.0258
 5551SOL    HW128112   0.017   0.123   1.958 -1.2401 -3.1323  1.9016
 5551SOL    HW228113   4.672   0.131   2.086  0.2617 -0.7868 -0.1988
 5552SOL     OW28114   3.278   0.461   7.253 -0.4769 -0.3028 -0.3139
 5552SOL    HW128115   3.258   0.553   7.232  1.6779  0.4084  0.7692
 5552SOL    HW228116   3.190   0.449   7.288 -0.5392  1.6350  0.2283
 5553SOL     OW28117   1.906   4.106   6.430 -0.1049 -0.2433 -0.1482
 5553SOL    HW128118   1.917   4.161   6.507  1.1042 -1.3966  0.5176
 5553SOL    HW228119   1.994   4.107   6.392  0.8715 -0.6543  2.0819
 5554SOL     OW28120   0.950   1.584  11.297 -0.0820  0.0373  0.3689
 5554SOL    HW128121   0.929   1.539  11.215 -0.0457 -1.5331  1.2134
 5554SOL    HW228122   0.907   1.521  11.356 -0.3335 -0.4370 -0.3247
 5555SOL     OW28123   1.888   2.122   5.113 -0.1956  0.0857  0.5232
 5555SOL    HW128124   1.859   2.106   5.203 -2.8613  1.9606  0.0192
 5555SOL    HW228125   1.877   2.042   5.063 -1.3495  0.4984  0.1118
 5556SOL     OW28126   4.707   2.948   3.494 -0.3285  0.1262 -0.0901
 5556SOL    HW128127   4.684   3.018   3.433 -0.8082 -0.3383 -0.4558
 5556SOL    HW228128   0.081   2.944   3.510 -0.4437  0.4767  0.6291
 5557SOL     OW28129   1.257   1.320   5.826  0.3274 -0.4683  0.4742
 5557SOL    HW128130   1.332   1.297   5.881 -0.4942  0.0325  1.8185
 5557SOL    HW228131   1.185   1.294   5.884  0.3896  0.0822  0.8090
 5558SOL     OW28132   0.014   1.091   0.729 -1.1673 -0.4666 -0.1430
 5558SOL    HW128133   4.717   1.052   0.814  0.9901 -0.4128  0.3263
 5558SOL    HW228134   4.659   1.053   0.684  0.0615 -1.9545 -0.9688
 5559SOL     OW28135   1.147   4.031  15.596 -0.5861 -0.0996  0.4605
 5559SOL    HW128136   1.149   3.951  15.543  0.0337  0.7413 -0.7892
 5559SOL    HW228137   1.163   4.100  15.531 -0.8291  0.4995  1.0423
 5560SOL     OW28138   1.938   3.839   2.638  0.2605 -0.1652  0.3902
 5560SOL    HW128139   1.901   3.750   2.638  1.0129 -0.4792  0.3566
 5560SOL    HW228140   2.007   3.831   2.572 -0.0817 -0.8952  0.1226
 5561SOL     OW28141   3.623   0.995   5.578  0.2434 -0.0243 -0.1324
 5561SOL    HW128142   3.557   0.945   5.531 -0.6938  2.9397 -2.0129
 5561SOL    HW228143   3.636   1.066   5.515  0.0279  1.1600  1.1410
 5562SOL     OW28144   2.749   3.573  11.118  0.2859  0.3354  0.2799
 5562SOL    HW128145   2.666   3.568  11.071  0.8305  1.6637 -0.8198
 5562SOL    HW228146   2.805   3.510  11.073  2.0822  2.2599 -0.2130
 5563SOL     OW28147   4.338   3.356  15.745 -0.9898  0.3828 -0.3666
 5563SOL    HW128148   4.322   3.449  15.759  2.0873  0.3504  3.2517
 5563SOL    HW228149   4.286   3.316  15.814 -1.7426  2.8656  0.5088
 5564SOL     OW28150   0.167   3.753   4.092 -0.7151  0.0984 -0.0232
 5564SOL    HW128151   0.211   3.762   4.177  0.8622 -0.2076 -0.8171
 5564SOL    HW228152   0.084   3.731   4.135 -1.0973  1.7678  0.0904
 5565SOL     OW28153   1.830   0.423   2.788  0.1031 -0.3128  0.0728
 5565SOL    HW128154   1.748   0.472   2.784 -0.2732 -0.8568  1.6200
 5565SOL    HW228155   1.875   0.466   2.714 -0.0359 -1.2826 -0.5663
 5566SOL     OW28156   3.557   0.174   0.266 -0.2842  0.2680  0.4062
 5566SOL    HW128157   3.504   0.233   0.319 -0.4477 -1.8763  2.5879
 5566SOL    HW228158   3.649   0.186   0.291 -0.1348 -2.3609  1.1004
 5567SOL     OW28159   2.996   0.053   7.276  0.2244 -0.0899  0.2893
 5567SOL    HW128160   3.001   0.041   7.371  0.4861  0.9248  0.4002
 5567SOL    HW228161   3.011   0.147   7.284 -0.7484 -0.0288  1.3884
 5568SOL     OW28162   4.370   0.299   7.194 -0.2328 -0.3455 -0.1343
 5568SOL    HW128163   4.323   0.282   7.276 -0.7902 -1.4772 -0.6887
 5568SOL    HW228164   4.297   0.287   7.133  0.4875 -2.0340 -0.6287
 5569SOL     OW28165   4.714   1.304   7.048  0.3449 -0.3911  0.4205
 5569SOL    HW128166   0.020   1.329   6.959 -1.5365 -0.5478 -0.1761
 5569SOL    HW228167   0.063   1.242   7.071  0.0331 -0.1932  1.8847
 5570SOL     OW28168   0.678   3.017   2.835  0.0291  0.2167 -0.4969
 5570SOL    HW128169   0.647   3.074   2.764  0.6167 -0.1647 -1.0573
 5570SOL    HW228170   0.771   3.010   2.814 -0.4782 -1.1346 -2.2251
 5571SOL     OW28171   3.224   2.940   2.490  0.1944  0.0843 -0.3303
 5571SOL    HW128172   3.134   2.910   2.501  0.2687  0.2493  0.7851
 5571SOL    HW228173   3.261   2.925   2.577 -0.2547 -0.0407 -0.1610
 5572SOL     OW28174   1.825   0.350   7.776  0.0863 -0.0692  0.3756
 5572SOL    HW128175   1.737   0.325   7.804  0.2179  0.3180  1.1145
 5572SOL    HW228176   1.863   0.263   7.781  3.8706  1.6889  2.2128
 5573SOL     OW28177   0.419   4.196   7.714 -0.3826 -0.2037 -0.2041
 5573SOL    HW128178   0.382   4.109   7.727  0.0869 -0.3470  0.1984
 5573SOL    HW228179   0.366   4.218   7.638  0.9398  1.2889 -0.6917
 5574SOL     OW28180   0.189   0.765  11.253  1.1467 -0.3996  0.0496
 5574SOL    HW128181   0.261   0.777  11.191  1.1430 -0.2791  0.0689
 5574SOL    HW228182   0.237   0.727  11.327  0.5975 -1.3228 -0.0658
 5575SOL     OW28183   2.985   1.442  14.985  0.5393 -0.5659  0.1596
 5575SOL    HW128184   3.029   1.358  14.989 -0.3642 -0.9353  2.3471
 5575SOL    HW228185   3.063   1.497  14.985  0.0833  0.0749 -1.2433
 5576SOL     OW28186   1.851   1.003  15.810 -0.6650 -0.6053 -0.3554
 5576SOL    HW128187   1.811   0.950  15.879 -2.4106 -2.5177 -2.8487
 5576SOL    HW228188   1.894   1.067  15.867  0.3159 -1.0357 -0.6004
 5577SOL     OW28189   2.878   3.912  12.436  0.0164 -0.2522  0.3671
 5577SOL    HW128190   2.857   3.831  12.482 -0.9404 -1.3710 -2.0198
 5577SOL    HW228191   2.956   3.937  12.485 -0.6469  3.1159 -0.2990
 5578SOL     OW28192   0.780   1.980   3.410  0.2347 -0.2334  0.2401
 5578SOL    HW128193   0.790   2.022   3.495  0.5307  0.2355 -0.0242
 5578SOL    HW228194   0.720   1.912   3.441  0.9310 -1.1357 -0.4422
 5579SOL     OW28195   0.302   2.301   9.003 -0.1650 -0.6309  0.6275
 5579SOL    HW128196   0.299   2.283   9.097 -0.4814  0.2291  0.7850
 5579SOL    HW228197   0.336   2.217   8.971  1.1739  0.5885 -1.1724
 5580SOL     OW28198   0.099   3.640  17.417  0.3009  0.3630  0.1341
 5580SOL    HW128199   0.160   3.566  17.419  3.2103  2.7370 -0.6340
 5580SOL    HW228200   0.133   3.692  17.489  0.0602  1.9202 -0.8501
 5581SOL     OW28201   1.285   2.871  14.632  0.9554  0.3882 -0.0460
 5581SOL    HW128202   1.207   2.903  14.678  0.3292  0.0905 -0.9146
 5581SOL    HW228203   1.343   2.924  14.687  3.7787 -0.5581 -2.1594
 5582SOL     OW28204   2.873   1.199  15.423 -0.1702 -0.2475  0.0723
 5582SOL    HW128205   2.902   1.288  15.442  0.2788 -0.4390  0.2687
 5582SOL    HW228206   2.916   1.182  15.339  0.6755  2.7054 -0.0880
 5583SOL     OW28207   2.227   2.499   9.016  0.0427 -0.2477  0.5300
 5583SOL    HW128208   2.282   2.544   8.952 -2.1776  1.6053 -0.1029
 5583SOL    HW228209   2.240   2.407   8.992  1.0546 -0.3255  1.3933
 5584SOL     OW28210   2.861   1.569   8.285  0.3196  0.3796 -0.5619
 5584SOL    HW128211   2.911   1.539   8.209 -0.1467 -0.6761 -0.4567
 5584SOL    HW228212   2.812   1.644   8.253 -0.9107  0.4580  1.4921
 5585SOL     OW28213   3.904   1.935  14.031  0.2314  0.2008  0.1897
 5585SOL    HW128214   3.902   1.849  14.074  1.3550  0.3482  0.5454
 5585SOL    HW228215   3.815   1.948  13.998 -0.8397 -2.1128  2.1154
 5586SOL     OW28216   1.326   1.309  11.359 -0.1994 -0.4049 -0.0499
 5586SOL    HW128217   1.295   1.219  11.366  0.0726 -0.4773  0.2313
 5586SOL    HW228218   1.344   1.335  11.449 -3.5924 -0.6240  0.6908
 5587SOL     OW28219   0.452   1.891  10.406 -0.3837  0.3055  0.4911
 5587SOL    HW128220   0.395   1.962  10.379 -2.0801 -0.7865  1.1442
 5587SOL    HW228221   0.520   1.941  10.451 -0.2424  2.1198 -1.7694
 5588SOL     OW28222   2.227   3.394   3.124 -0.3521 -0.5131 -0.6617
 5588SOL    HW128223   2.308   3.442   3.142 -1.9044  1.1992  1.9021
 5588SOL    HW228224   2.222   3.330   3.195 -1.6561 -0.3452 -0.5918
 5589SOL     OW28225   4.663   0.480  10.260 -0.1828 -0.3288  0.3198
 5589SOL    HW128226   4.642   0.427  10.183 -2.5358  2.9675 -1.3353
 5589SOL    HW228227   4.578   0.521  10.274  0.6436  1.7280 -0.5966
 5590SOL     OW28228   0.652   3.785   9.364 -0.6150  0.1741  0.4537
 5590SOL    HW128229   0.680   3.716   9.304  0.5539  0.0703  1.1122
 5590SOL    HW228230   0.728   3.844   9.355 -0.4935 -0.1429 -0.5844
 5591SOL     OW28231   3.033   0.404   6.275  0.3119 -0.2238  0.1920
 5591SOL    HW128232   3.050   0.485   6.323  2.2176 -0.2849 -0.3853
 5591SOL    HW228233   3.117   0.391   6.231 -0.1801  2.4581 -1.5662
 5592SOL     OW28234   3.174   4.294  17.368 -0.0161 -0.4545 -0.0774
 5592SOL    HW128235   3.264   4.321  17.388 -0.1945  0.6379 -0.7482
 5592SOL    HW228236   3.118   4.343  17.428  0.1206  0.9409 -1.0916
 5593SOL     OW28237   0.833   3.783  13.626  0.5963 -0.1874  0.0984
 5593SOL    HW128238   0.807   3.838  13.552 -1.6854 -0.4182  0.7451
 5593SOL    HW228239   0.774   3.708  13.623  0.0101  0.2939 -0.3695
 5594SOL     OW28240   4.279   1.225  15.334  0.4557 -0.1689  0.5661
 5594SOL    HW128241   4.353   1.203  15.391  0.0026 -0.6462  0.9750
 5594SOL    HW228242   4.277   1.144  15.282  3.1854  0.8515 -1.0828
 5595SOL     OW28243   0.969   1.134   3.825  0.1264  0.0712  0.1108
 5595SOL    HW128244   1.053   1.163   3.790 -0.4525  0.9917 -0.5089
 5595SOL    HW228245   0.967   1.200   3.894  0.6540 -0.8221  0.9801
 5596SOL     OW28246   3.924   2.890   0.335 -0.0871 -0.6087 -0.3048
 5596SOL    HW128247   3.897   2.834   0.263 -2.3884  0.1797 -0.0356
 5596SOL    HW228248   3.927   2.831   0.411  1.0270  0.5404  0.5394
 5597SOL     OW28249   4.116   4.211  11.075  0.4801  0.1976  0.7249
 5597SOL    HW128250   4.195   4.241  11.120 -0.4252  1.2291  1.6544
 5597SOL    HW228251   4.148   4.128  11.040  0.4939 -0.3460  2.0130
 5598SOL     OW28252   4.462   4.702   4.439 -0.2012 -0.2145 -0.1805
 5598SOL    HW128253   4.367   4.697   4.427 -0.0686  0.6125 -1.6806
 5598SOL    HW228254   4.472   0.059   4.495 -0.2569 -0.3347 -0.0068
 5599SOL     OW28255   2.646   4.490   5.380  0.5623  0.1233 -0.8922
 5599SOL    HW128256   2.716   4.554   5.372  0.8207 -0.1754 -1.0265
 5599SOL    HW228257   2.684   4.418   5.330  0.2307 -0.4809 -0.2818
 5600SOL     OW28258   2.562   3.894   7.111 -0.1171  0.1357  0.8800
 5600SOL    HW128259   2.615   3.822   7.144  2.8529  1.9692  0.0504
 5600SOL    HW228260   2.539   3.868   7.022 -0.0475  1.0100  0.6118
 5601SOL     OW28261   0.950   4.280   1.224  0.2772  0.2684  0.0392
 5601SOL    HW128262   1.007   4.356   1.237  1.0186 -0.6411  2.1968
 5601SOL    HW228263   0.913   4.263   1.311  2.4582  0.0622  0.9321
 5602SOL     OW28264   1.605   4.216   1.611 -0.4676 -0.2890  0.8231
 5602SOL    HW128265   1.596   4.293   1.556  2.0057  0.8228  1.9582
 5602SOL    HW228266   1.701   4.213   1.607 -0.5889  2.5513 -3.5829
 5603SOL     OW28267   3.414   3.706   7.202  0.3980  0.1352 -0.0482
 5603SOL    HW128268   3.412   3.719   7.107  4.8838  0.3205 -0.1262
 5603SOL    HW228269   3.377   3.619   7.216 -0.8264  0.6043 -0.3925
 5604SOL     OW28270   0.570   2.800   3.569  0.0492  0.0543 -0.2709
 5604SOL    HW128271   0.481   2.803   3.535  0.1517 -1.2629 -0.6521
 5604SOL    HW228272   0.615   2.740   3.510 -1.5444 -1.1470 -0.2544
 5605SOL     OW28273   3.984   1.091   3.698  0.1292  0.0855  0.4189
 5605SOL    HW128274   3.907   1.036   3.683 -0.0973  0.3238  0.6981
 5605SOL    HW228275   4.007   1.114   3.608  0.6286 -2.1515 -0.0124
 5606SOL     OW28276   3.997   0.059   6.416  0.0060 -0.0029  0.3002
 5606SOL    HW128277   4.007   4.693   6.377  1.0658 -0.0857  0.7440
 5606SOL    HW228278   3.952   0.107   6.347 -0.6537  1.2373  1.5795
 5607SOL     OW28279   1.625   2.123  12.391 -0.7804  0.3987 -0.5217
 5607SOL    HW128280   1.713   2.155  12.372 -0.4222 -1.5234 -2.0578
 5607SOL    HW228281   1.589   2.203  12.429 -0.6299 -0.3119  1.1068
 5608SOL     OW28282   0.528   2.037  11.174 -0.3214  0.0380 -0.0460
 5608SOL    HW128283   0.471   2.085  11.114  1.0993 -1.2777 -2.4605
 5608SOL    HW228284   0.467   1.965  11.188 -1.9578  1.4960  0.2589
 5609SOL     OW28285   2.617   2.802   6.210  0.1135  0.2964  0.8198
 5609SOL    HW128286   2.671   2.741   6.159 -1.2225  0.0655 -0.3230
 5609SOL    HW228287   2.601   2.757   6.293 -1.3857 -1.1411 -0.2403
 5610SOL     OW28288   0.810   1.264   5.611 -0.0122 -0.0421 -0.1676
 5610SOL    HW128289   0.869   1.320   5.560  1.2419 -1.2499 -0.0434
 5610SOL    HW228290   0.773   1.324   5.676  0.0408  0.8711 -0.9750
 5611SOL     OW28291   4.717   2.514   5.517  0.5171 -0.5415 -0.1504
 5611SOL    HW128292   0.067   2.553   5.463  0.8407 -0.2099  0.5136
 5611SOL    HW228293   4.645   2.569   5.486  1.3298  0.9257  0.5249
 5612SOL     OW28294   4.118   1.423   9.461  0.8676 -0.0238 -0.2193
 5612SOL    HW128295   4.184   1.480   9.421  2.9562 -1.5064  1.1721
 5612SOL    HW228296   4.141   1.434   9.553  1.2765 -2.5136 -0.0468
 5613SOL     OW28297   2.751   0.614   1.635  1.0038  0.7505 -0.2431
 5613SOL    HW128298   2.777   0.666   1.559 -2.2404  1.9816 -0.4797
 5613SOL    HW228299   2.668   0.577   1.605  0.0634  0.8649  2.2564
 5614SOL     OW28300   1.826   2.922  16.066  0.0773  0.2138 -0.9365
 5614SOL    HW128301   1.738   2.954  16.086  0.2691  0.0918  0.1283
 5614SOL    HW228302   1.839   2.958  15.978  1.9791  1.2625 -0.2344
 5615SOL     OW28303   2.110   3.646   5.546  0.3964 -0.1159 -0.2425
 5615SOL    HW128304   2.172   3.633   5.618  0.7307 -2.7463 -1.0213
 5615SOL    HW228305   2.098   3.741   5.544 -1.4586 -0.3546  0.1243
 5616SOL     OW28306   1.981   4.671   4.067 -0.3316  0.2443  0.5804
 5616SOL    HW128307   2.055   4.620   4.034  1.1120  1.8022  1.3866
 5616SOL    HW228308   1.919   4.603   4.042  0.5583 -0.8774  1.4340
 5617SOL     OW28309   0.826   3.754   6.055 -0.1951 -0.6522 -0.0941
 5617SOL    HW128310   0.918   3.733   6.064  0.3838  1.8078 -0.3176
 5617SOL    HW228311   0.785   3.682   6.103 -2.4915  1.2991  0.8919
 5618SOL     OW28312   0.792   3.959  11.505 -0.3273 -0.0703 -0.0804
 5618SOL    HW128313   0.827   3.879  11.544 -1.8157 -0.5024  0.3591
 5618SOL    HW228314   0.711   3.980  11.553 -0.9430 -4.1761  0.6412
 5619SOL     OW28315   0.933   2.567   5.028  0.3888 -0.2843 -0.4614
 5619SOL    HW128316   0.924   2.581   5.122  3.3477  0.4059 -0.2749
 5619SOL    HW228317   0.885   2.638   4.985 -1.2596  1.2189  3.8665
 5620SOL     OW28318   3.091   2.276  11.101 -0.3665  0.0934  0.4285
 5620SOL    HW128319   3.172   2.326  11.088 -0.4887  0.2058  0.0990
 5620SOL    HW228320   3.106   2.224  11.180  0.3188  0.8581  0.8121
 5621SOL     OW28321   0.175   2.481  11.867  0.2013 -0.2823 -0.2910
 5621SOL    HW128322   0.148   2.427  11.941  2.9828  1.1652  1.7699
 5621SOL    HW228323   0.219   2.555  11.909 -0.3221 -1.2540  1.9509
 5622SOL     OW28324   4.007   3.808   6.993 -0.7436  0.8478 -0.0098
 5622SOL    HW128325   3.935   3.816   7.057 -0.1984 -1.0272  0.8195
 5622SOL    HW228326   4.060   3.881   7.027  0.5437  0.7290 -1.7931
 5623SOL     OW28327   2.990   1.508  11.593  0.5296 -0.5039 -0.5436
 5623SOL    HW128328   2.992   1.417  11.561 -2.0240 -1.1507  1.1176
 5623SOL    HW228329   2.914   1.513  11.652  2.7065 -2.0777  2.3785
 5624SOL     OW28330   2.793   0.321   4.247  0.1448  0.3355  0.3419
 5624SOL    HW128331   2.876   0.345   4.288  0.2866 -1.3636  1.0466
 5624SOL    HW228332   2.818   0.242   4.199  1.8486  0.8983  0.3253
 5625SOL     OW28333   2.626   2.786   3.479  0.4609  0.1134  0.4745
 5625SOL    HW128334   2.659   2.850   3.416 -0.9258 -0.6265 -0.9834
 5625SOL    HW228335   2.618   2.848   3.552  0.1368  0.2393  0.3329
 5626SOL     OW28336   3.434   1.173  17.633 -0.3256 -0.3014  0.0410
 5626SOL    HW128337   3.490   1.105  17.670 -1.2826 -0.7697  0.6276
 5626SOL    HW228338   3.352   1.148  17.675 -0.4864 -0.6377 -0.4883
 5627SOL     OW28339   1.895   3.046   7.138 -0.7093 -0.4026  0.2143
 5627SOL    HW128340   1.872   3.079   7.224 -2.9314 -1.8488  0.1984
 5627SOL    HW228341   1.845   3.113   7.091  0.7416  1.7801  1.8257
 5628SOL     OW28342   4.220   3.621  13.484  0.5564  0.2579  0.1942
 5628SOL    HW128343   4.285   3.670  13.535  0.1874  0.3958  0.5275
 5628SOL    HW228344   4.161   3.695  13.472 -1.2349 -1.3982 -1.3009
 5629SOL     OW28345   2.316   0.506  16.059  0.0969 -0.4866 -0.4290
 5629SOL    HW128346   2.399   0.478  16.021  0.4421  3.1241 -2.3551
 5629SOL    HW228347   2.318   0.600  16.041 -0.9363  0.0314  2.0623
 5630SOL     OW28348   1.459   0.615   8.718 -0.6954  0.2648  0.3253
 5630SOL    HW128349   1.443   0.701   8.755 -1.4298 -0.0772  0.8075
 5630SOL    HW228350   1.397   0.562   8.768 -1.2224 -1.4372 -2.0832
 5631SOL     OW28351   1.796   3.258   6.675  0.0557  0.0209  0.3629
 5631SOL    HW128352   1.829   3.188   6.619  0.2440  0.4029 -0.0045
 5631SOL    HW228353   1.722   3.291   6.625  0.6518  1.5963  0.5222
 5632SOL     OW28354   0.038   4.266   7.641  0.4882  0.0624  0.3726
 5632SOL    HW128355   0.104   4.314   7.692  0.0736  0.6049  0.3940
 5632SOL    HW228356   0.029   4.328   7.568 -0.5927 -0.7605 -0.1812
 5633SOL     OW28357   3.732   0.781   4.982 -0.5518 -0.0746  0.0102
 5633SOL    HW128358   3.767   0.786   4.893  1.1335  0.4273  0.7056
 5633SOL    HW228359   3.641   0.809   4.973  0.1101  1.5787 -1.4604
 5634SOL     OW28360   3.225   2.383   3.184  0.0851  0.6407  0.2608
 5634SOL    HW128361   3.153   2.446   3.179 -0.3500  0.2537  1.6432
 5634SOL    HW228362   3.279   2.414   3.111  1.1092 -0.4013  0.5875
 5635SOL     OW28363   2.197   1.606   0.108  0.6802 -0.3709  0.4015
 5635SOL    HW128364   2.195   1.694   0.069 -2.1407  0.0107  1.3727
 5635SOL    HW228365   2.259   1.552   0.059  0.9239  1.5266 -1.3973
 5636SOL     OW28366   3.523   0.080  11.030 -0.2016  0.0520 -0.2321
 5636SOL    HW128367   3.512   0.087  10.935  3.0271  1.1382 -0.5210
 5636SOL    HW228368   3.435   0.059  11.061  0.0314  0.7317  0.9086
 5637SOL     OW28369   3.848   2.624   8.771  0.1023 -0.1264  0.2180
 5637SOL    HW128370   3.943   2.614   8.770  0.1094 -0.0676  0.9287
 5637SOL    HW228371   3.832   2.706   8.724  0.2461 -0.7103 -0.8536
 5638SOL     OW28372   0.745   1.015   3.753 -0.4500  0.0859  0.1207
 5638SOL    HW128373   0.778   0.926   3.767 -0.0786 -0.0094 -1.4599
 5638SOL    HW228374   0.829   1.061   3.749 -0.0052 -0.6288  1.2343
 5639SOL     OW28375   0.577   1.237   6.751  0.1546  0.3868  0.7217
 5639SOL    HW128376   0.496   1.190   6.731  1.3981 -1.2470 -0.4548
 5639SOL    HW228377   0.559   1.266   6.841  1.7019  2.1420  0.4427
 5640SOL     OW28378   0.233   3.170  12.300  0.1319 -0.2678  0.5029
 5640SOL    HW128379   0.202   3.124  12.378 -1.7311  1.9335  1.0562
 5640SOL    HW228380   0.245   3.096  12.240  0.1691 -0.5147  0.8193
 5641SOL     OW28381   3.838   3.250  10.907  0.3983 -0.5858  0.3304
 5641SOL    HW128382   3.836   3.169  10.856  1.6935  0.3767 -1.2482
 5641SOL    HW228383   3.921   3.229  10.951  0.3489 -1.6539 -0.0837
 5642SOL     OW28384   1.720   1.711  17.074 -0.0043  0.5285 -0.1522
 5642SOL    HW128385   1.666   1.684  17.148  0.4107  0.3698  0.0944
 5642SOL    HW228386   1.665   1.757  17.011 -1.7237 -1.4421 -0.0692
 5643SOL     OW28387   2.832   4.175   3.154 -0.3245  0.1878 -0.3509
 5643SOL    HW128388   2.907   4.210   3.106 -0.5180 -0.0851 -0.8437
 5643SOL    HW228389   2.784   4.253   3.184 -0.4870  0.4033 -1.1683
 5644SOL     OW28390   1.647   1.677  14.223 -0.2761  0.4949  0.2112
 5644SOL    HW128391   1.684   1.593  14.195  1.4747  0.5099  2.3959
 5644SOL    HW228392   1.720   1.714  14.274 -0.2643  0.0546  0.5154
 5645SOL     OW28393   2.337   3.884   2.851  0.1280 -0.3099 -0.2318
 5645SOL    HW128394   2.321   3.789   2.851  0.4248 -0.3468  1.3126
 5645SOL    HW228395   2.427   3.894   2.821 -0.2527 -0.4907 -1.4410
 5646SOL     OW28396   2.959   2.936  10.943  0.0232 -0.7568 -0.4095
 5646SOL    HW128397   2.878   2.980  10.915 -1.0459 -2.7461 -0.4071
 5646SOL    HW228398   2.986   2.910  10.855 -1.8058 -0.5848 -1.0209
 5647SOL     OW28399   4.171   3.652   6.102 -0.2791 -0.3725 -0.0278
 5647SOL    HW128400   4.247   3.706   6.081  0.7925 -1.5472  0.8541
 5647SOL    HW228401   4.208   3.604   6.176 -1.0305 -2.1614 -0.8200
 5648SOL     OW28402   1.796   0.287   1.073 -0.1526  0.0278  0.0735
 5648SOL    HW128403   1.840   0.223   1.017 -0.1268 -0.7049  0.9316
 5648SOL    HW228404   1.808   0.370   1.027  1.1858 -0.5157 -0.5469
 5649SOL     OW28405   0.416   0.395   6.471 -0.2793  0.6307  0.2926
 5649SOL    HW128406   0.439   0.380   6.563  2.8129 -0.7163 -0.7012
 5649SOL    HW228407   0.341   0.450   6.495 -1.8207 -0.4826 -1.9390
 5650SOL     OW28408   0.294   1.349   3.731  0.0107  0.6998  0.4360
 5650SOL    HW128409   0.236   1.348   3.655  1.3229  2.9093 -0.5894
 5650SOL    HW228410   0.328   1.437   3.713  0.2898  0.3259 -0.8474
 5651SOL     OW28411   0.702   1.572   9.768 -0.3356 -0.1401 -0.2722
 5651SOL    HW128412   0.744   1.617   9.841  1.9984 -1.9697 -0.4836
 5651SOL    HW228413   0.630   1.630   9.745  0.9641  1.2250 -0.9008
 5652SOL     OW28414   1.988   2.558   7.956  0.4188  0.3383  0.1613
 5652SOL    HW128415   2.004   2.467   7.933 -0.9995 -0.0958  0.9485
 5652SOL    HW228416   1.905   2.552   8.003 -0.0892  1.7509 -0.5397
 5653SOL     OW28417   2.778   0.434  13.558 -0.1127  0.0942  0.0055
 5653SOL    HW128418   2.756   0.406  13.647 -0.3998  0.4306  0.0407
 5653SOL    HW228419   2.737   0.521  13.549 -0.4343  0.1336  1.8712
 5654SOL     OW28420   0.579   2.217   7.809 -0.3334 -0.1760 -0.7010
 5654SOL    HW128421   0.658   2.234   7.759  1.5008 -2.9242  1.2639
 5654SOL    HW228422   0.555   2.136   7.763  1.0240 -0.8842 -0.1795
 5655SOL     OW28423   2.609   0.898   6.319  0.0290  0.1142 -0.0649
 5655SOL    HW128424   2.636   0.818   6.365 -0.6363 -1.8556 -3.0896
 5655SOL    HW228425   2.656   0.890   6.236 -2.7316  0.4491 -1.6770
 5656SOL     OW28426   0.953   0.395  13.276  0.1031 -0.0638  0.0826
 5656SOL    HW128427   1.018   0.403  13.206  0.6820 -0.1708  0.6047
 5656SOL    HW228428   0.960   0.484  13.311  1.8827 -0.1503 -0.0254
 5657SOL     OW28429   1.273   4.085   9.974 -0.3024  0.3344  0.6847
 5657SOL    HW128430   1.245   4.127   9.892  0.8802 -0.5377 -0.1622
 5657SOL    HW228431   1.260   3.992   9.955  0.2239  0.5500 -0.7168
 5658SOL     OW28432   1.164   2.529  10.427 -0.2776 -0.0728  0.9826
 5658SOL    HW128433   1.183   2.543  10.334  0.9881 -0.4192  1.1902
 5658SOL    HW228434   1.214   2.448  10.433 -0.6540 -0.3313  0.6502
 5659SOL     OW28435   1.902   1.658  17.449 -0.5613  0.1121 -0.6961
 5659SOL    HW128436   1.821   1.653  17.399 -0.8260  2.1864 -0.4720
 5659SOL    HW228437   1.924   1.751  17.450  1.7677 -0.4741  1.9083
 5660SOL     OW28438   4.552   2.107  10.654  0.1794 -0.2282 -0.6488
 5660SOL    HW128439   4.489   2.038  10.632 -0.0960  0.3105 -1.5326
 5660SOL    HW228440   4.492   2.176  10.679  2.0390  0.3127  2.2269
 5661SOL     OW28441   2.969   3.086  10.014 -0.2969  0.2838  0.4045
 5661SOL    HW128442   2.963   3.018   9.947  1.8871  0.7605 -0.2845
 5661SOL    HW228443   3.058   3.065  10.043 -0.2604 -0.5103 -0.3040
 5662SOL     OW28444   0.475   0.257   7.354 -0.3134 -0.2701 -0.4557
 5662SOL    HW128445   0.566   0.234   7.371 -0.2474 -0.8670 -1.6489
 5662SOL    HW228446   0.481   0.230   7.262 -2.0385  0.8985 -0.9317
 5663SOL     OW28447   3.449   0.122   7.574 -0.2244 -0.2162 -0.2878
 5663SOL    HW128448   3.418   0.037   7.606  1.1034 -0.0636  1.4069
 5663SOL    HW228449   3.523   0.099   7.518  0.9247 -0.6371  1.4025
 5664SOL     OW28450   2.989   0.081  11.750  0.0566 -0.0308 -0.0778
 5664SOL    HW128451   2.906   0.116  11.718  0.7649  1.2618 -0.5325
 5664SOL    HW228452   3.046   0.123  11.684 -0.7542 -0.7892 -1.2593
 5665SOL     OW28453   4.704   4.026   5.211  0.4630  0.3746  0.2495
 5665SOL    HW128454   4.658   3.944   5.189 -0.2101  0.1796  2.3808
 5665SOL    HW228455   0.038   3.998   5.285  0.4149  0.6515  0.3876
 5666SOL     OW28456   0.686   2.206   1.692 -0.1089  0.0004  0.0026
 5666SOL    HW128457   0.703   2.116   1.662 -1.2322 -0.7155  1.4994
 5666SOL    HW228458   0.592   2.211   1.675 -0.5294 -1.5564  1.7290
 5667SOL     OW28459   4.284   3.225   3.743  0.2511 -0.0129 -0.4789
 5667SOL    HW128460   4.226   3.302   3.749  1.0834  0.6504 -0.9449
 5667SOL    HW228461   4.357   3.266   3.696 -1.0057  1.0584 -1.5105
 5668SOL     OW28462   0.107   3.594   8.484  0.5519 -0.0675 -0.1099
 5668SOL    HW128463   0.129   3.544   8.562  0.1369  0.6832  0.4911
 5668SOL    HW228464   0.050   3.661   8.521  0.1130  0.6655 -2.0826
 5669SOL     OW28465   1.191   2.978   9.234  0.8171 -0.2252  0.0896
 5669SOL    HW128466   1.202   3.072   9.219 -1.9628 -0.0827 -1.0846
 5669SOL    HW228467   1.266   2.954   9.287  0.3206  3.7401  2.5363
 5670SOL     OW28468   2.321   4.470  17.209 -0.5595 -0.3197 -0.6308
 5670SOL    HW128469   2.234   4.506  17.190 -0.3633  1.8499  2.5178
 5670SOL    HW228470   2.322   4.474  17.305  2.1981  1.6135 -0.7365
 5671SOL     OW28471   4.307   0.974   4.778 -0.9178 -0.2853  0.0479
 5671SOL    HW128472   4.292   0.974   4.684  0.9151  0.0095 -0.2480
 5671SOL    HW228473   4.250   0.902   4.804 -1.6493  1.0784  2.1884
 5672SOL     OW28474   4.140   3.374   2.937  0.4067 -0.2687 -0.0947
 5672SOL    HW128475   4.223   3.415   2.961  0.1866  0.0911  0.0501
 5672SOL    HW228476   4.153   3.298   2.995 -0.3520  1.5337  2.4433
 5673SOL     OW28477   3.605   1.216  11.888  0.4155 -0.4314 -0.5763
 5673SOL    HW128478   3.670   1.154  11.857  0.5010 -0.4124 -0.4365
 5673SOL    HW228479   3.659   1.264  11.950 -0.4725 -0.1987  0.0266
 5674SOL     OW28480   0.554   3.300  12.560  1.0808 -0.5628  0.2360
 5674SOL    HW128481   0.551   3.204  12.554  4.1570 -0.5908 -0.8086
 5674SOL    HW228482   0.535   3.330  12.471 -0.1437  2.5269  1.5411
 5675SOL     OW28483   0.810   4.306   3.406  0.5978 -0.3701 -0.0835
 5675SOL    HW128484   0.792   4.362   3.331 -0.2325  1.0380  1.1639
 5675SOL    HW228485   0.750   4.345   3.469  0.3945 -2.8247  1.2373
 5676SOL     OW28486   3.623   1.531   6.019  0.1135 -0.3482  0.3293
 5676SOL    HW128487   3.699   1.482   6.049  0.6259 -0.3450 -0.9633
 5676SOL    HW228488   3.640   1.543   5.926 -0.6988 -0.1857  0.1957
 5677SOL     OW28489   2.597   3.010   8.041 -0.0877 -0.2630 -0.2799
 5677SOL    HW128490   2.581   2.970   7.956  0.2348  0.4910 -0.6958
 5677SOL    HW228491   2.658   3.082   8.025 -1.0005  0.2577 -1.3820
 5678SOL     OW28492   0.430   3.620   5.499 -0.3026  0.3603 -0.2052
 5678SOL    HW128493   0.520   3.631   5.469  0.1084 -0.0140  0.9084
 5678SOL    HW228494   0.441   3.653   5.588  1.8019 -0.5691 -0.1289
 5679SOL     OW28495   1.394   1.476   4.547  0.4919 -0.1750  0.3591
 5679SOL    HW128496   1.382   1.414   4.475 -1.1478  0.2082  0.3096
 5679SOL    HW228497   1.383   1.558   4.499 -0.8247 -0.1347  0.7241
 5680SOL     OW28498   1.546   3.201  14.243  0.3264 -0.7953 -0.3120
 5680SOL    HW128499   1.565   3.145  14.167  2.1839  0.3778 -0.6959
 5680SOL    HW228500   1.628   3.251  14.243  0.6889 -1.4029  0.2208
 5681SOL     OW28501   4.234   4.188   3.896  0.2677  0.7697  0.1336
 5681SOL    HW128502   4.250   4.267   3.948  1.2291  1.1282 -0.7176
 5681SOL    HW228503   4.194   4.237   3.824 -0.6296 -0.3412 -0.1238
 5682SOL     OW28504   2.510   4.404   1.894 -0.3554  0.6728 -0.1697
 5682SOL    HW128505   2.605   4.409   1.904 -0.1966  3.2918 -2.9422
 5682SOL    HW228506   2.503   4.309   1.881  3.4207  0.6582 -2.1226
 5683SOL     OW28507   1.431   1.099   1.244  0.6077  0.7226 -0.5435
 5683SOL    HW128508   1.416   1.186   1.280 -0.2793  0.6207 -0.6741
 5683SOL    HW228509   1.346   1.058   1.258  0.4802  1.3791  0.5643
 5684SOL     OW28510   1.898   1.879   3.846 -0.1753 -0.1347  0.4727
 5684SOL    HW128511   1.950   1.934   3.786 -0.2281 -2.5265 -1.7391
 5684SOL    HW228512   1.959   1.876   3.920 -3.1780 -3.1405  2.7637
 5685SOL     OW28513   4.412   0.106   8.548 -0.3396 -0.4554  0.3088
 5685SOL    HW128514   4.503   0.103   8.518 -0.1032  0.1264  0.9693
 5685SOL    HW228515   4.376   0.019   8.531  0.5301 -0.5124 -1.2099
 5686SOL     OW28516   1.797   0.453   5.315  0.0715  0.1582 -0.1977
 5686SOL    HW128517   1.837   0.530   5.275 -1.8422  0.4650 -1.5533
 5686SOL    HW228518   1.727   0.428   5.255 -1.2489 -0.3611  1.5442
 5687SOL     OW28519   0.960   2.535   5.523 -0.1541  0.5739 -0.0631
 5687SOL    HW128520   1.039   2.489   5.494  0.2895  0.4848  1.2938
 5687SOL    HW228521   1.002   2.608   5.570 -0.2029 -1.3170  2.9212
 5688SOL     OW28522   2.829   2.010   5.516  0.2125  0.6142  0.0935
 5688SOL    HW128523   2.870   1.977   5.436 -0.0626 -2.4990  1.2300
 5688SOL    HW228524   2.817   2.100   5.486  1.7072  0.0718 -2.1557
 5689SOL     OW28525   1.023   0.506  15.746 -0.3625 -0.0511 -0.0655
 5689SOL    HW128526   1.053   0.416  15.729  2.1274  0.6073  0.8717
 5689SOL    HW228527   0.950   0.519  15.686 -0.8389  0.6907  0.6713
 5690SOL     OW28528   3.137   2.431   5.188  0.1794 -0.3121 -0.6503
 5690SOL    HW128529   3.134   2.348   5.141  1.3271 -0.7406  0.0468
 5690SOL    HW228530   3.052   2.467   5.163  0.4434 -0.0380 -1.1691
 5691SOL     OW28531   4.241   2.567   5.516  0.2781 -0.0627 -0.0556
 5691SOL    HW128532   4.243   2.645   5.572 -1.2925 -1.1063  1.4548
 5691SOL    HW228533   4.156   2.527   5.533 -0.4699  1.2110 -0.8071
 5692SOL     OW28534   2.993   0.414   3.485 -0.0852  0.6892  0.1606
 5692SOL    HW128535   3.035   0.357   3.421  0.3761 -0.5796  1.6052
 5692SOL    HW228536   2.949   0.481   3.432 -0.5062  0.4979  0.2734
 5693SOL     OW28537   3.672   2.863  12.371 -0.3738  0.1532  0.1843
 5693SOL    HW128538   3.746   2.805  12.354 -0.9246 -0.7334  0.8044
 5693SOL    HW228539   3.605   2.812  12.327 -0.2884  0.0698  0.1516
 5694SOL     OW28540   0.468   4.524   8.214 -0.0987  0.0593  0.5633
 5694SOL    HW128541   0.466   4.578   8.135  0.4292 -0.1114  0.4345
 5694SOL    HW228542   0.433   4.442   8.177  3.1877 -1.2630  0.3942
 5695SOL     OW28543   2.309   0.252  16.970  0.9430 -0.3113  0.0465
 5695SOL    HW128544   2.318   0.328  17.028  2.2052  1.3219 -2.3398
 5695SOL    HW228545   2.367   0.274  16.897  1.1196  0.5434  0.4418
 5696SOL     OW28546   3.103   4.647  17.377  0.2781 -0.8029 -0.0614
 5696SOL    HW128547   3.180   4.615  17.424  0.2598 -1.1255 -0.2515
 5696SOL    HW228548   3.052   4.703  17.436  3.7086 -0.7077  2.8253
 5697SOL     OW28549   0.730   2.296  14.418  0.4556  1.0925 -0.0457
 5697SOL    HW128550   0.679   2.326  14.343 -0.0025 -2.0533 -0.9899
 5697SOL    HW228551   0.703   2.206  14.436 -2.4514  2.1596  0.7966
 5698SOL     OW28552   2.655   4.582   7.779 -0.2317  0.1327 -0.4228
 5698SOL    HW128553   2.730   4.565   7.723  0.1171 -0.2409  0.1568
 5698SOL    HW228554   2.675   4.517   7.847 -0.4549  0.4170 -0.0838
 5699SOL     OW28555   1.239   2.174   9.388  0.6231 -0.3108  0.3336
 5699SOL    HW128556   1.322   2.159   9.342  0.8563  0.6858  0.4150
 5699SOL    HW228557   1.222   2.083   9.409 -2.0530  0.7850  2.8155
 5700SOL     OW28558   4.085   4.426   1.029 -0.4639  0.3484 -0.3331
 5700SOL    HW128559   4.062   4.485   0.956 -2.5306  0.3352  0.2857
 5700SOL    HW228560   4.026   4.462   1.095 -0.8917  1.0781 -1.1003
 5701SOL     OW28561   4.065   2.334   2.448 -0.1658 -0.3082  0.1829
 5701SOL    HW128562   4.084   2.372   2.534  1.3789 -1.5058  0.3738
 5701SOL    HW228563   4.154   2.344   2.413  0.5613 -1.0543  1.7784
 5702SOL     OW28564   2.591   0.649   0.635  0.0303 -0.0257 -0.0200
 5702SOL    HW128565   2.537   0.724   0.656 -1.0160 -0.8915  0.3566
 5702SOL    HW228566   2.646   0.680   0.563  0.9477 -0.0577  0.6621
 5703SOL     OW28567   3.357   3.887  17.053 -0.2529 -0.4892  0.1848
 5703SOL    HW128568   3.310   3.826  16.997 -1.1371  1.6468 -1.4118
 5703SOL    HW228569   3.304   3.967  17.044  0.2438 -0.1147  0.6026
 5704SOL     OW28570   2.805   2.060   5.906 -0.1950 -0.2591 -0.6766
 5704SOL    HW128571   2.840   1.985   5.857  1.0760 -0.2923  0.2889
 5704SOL    HW228572   2.882   2.103   5.941 -0.0657 -0.9131 -0.1567
 5705SOL     OW28573   3.405   0.710   6.837  0.6983  0.3832  0.0918
 5705SOL    HW128574   3.344   0.750   6.899  0.0872 -1.2524  0.5580
 5705SOL    HW228575   3.390   0.623   6.874 -0.4194  0.2428 -0.7240
 5706SOL     OW28576   1.352   3.491   9.521 -0.1380 -0.0037  0.2681
 5706SOL    HW128577   1.360   3.399   9.545 -0.4794  0.4682  2.1942
 5706SOL    HW228578   1.443   3.516   9.510  0.0642 -1.5182 -1.5446
 5707SOL     OW28579   3.306   2.717   8.898 -0.1136 -0.1131  0.4227
 5707SOL    HW128580   3.318   2.742   8.990  0.1596 -0.4001  0.4666
 5707SOL    HW228581   3.244   2.780   8.863 -0.0254 -0.0654  0.3530
 5708SOL     OW28582   0.382   2.777   8.222 -0.1094 -0.2700  0.0300
 5708SOL    HW128583   0.477   2.771   8.212 -0.0965  0.5178 -0.3294
 5708SOL    HW228584   0.361   2.686   8.205 -0.6720  0.0320 -0.9156
 5709SOL     OW28585   1.424   2.517   7.397 -0.2840 -0.3415  0.0187
 5709SOL    HW128586   1.415   2.431   7.356  2.5087  0.3405 -2.0140
 5709SOL    HW228587   1.517   2.527   7.417 -0.5610 -0.9945  1.6553
 5710SOL     OW28588   1.269   4.435  15.825  0.3922 -0.2906  0.0275
 5710SOL    HW128589   1.193   4.395  15.782 -0.1781  1.9252 -1.0464
 5710SOL    HW228590   1.335   4.368  15.808  0.0193 -0.5565 -0.3784
 5711SOL     OW28591   1.322   1.510   8.308 -0.0959 -0.1763 -0.2150
 5711SOL    HW128592   1.310   1.453   8.232  0.2721 -2.3266  1.3334
 5711SOL    HW228593   1.312   1.599   8.274 -2.4886 -0.2209  0.3642
 5712SOL     OW28594   0.235   4.014  12.989 -0.5522  0.0623  0.2926
 5712SOL    HW128595   0.287   4.036  12.912 -0.2016 -0.7395  0.3020
 5712SOL    HW228596   0.163   3.965  12.949 -0.4612  1.3660 -1.4634
 5713SOL     OW28597   3.392   4.341  15.118  0.0097  0.4025  0.3453
 5713SOL    HW128598   3.351   4.388  15.045  1.6639 -1.7961 -1.9800
 5713SOL    HW228599   3.325   4.341  15.186 -0.9937  1.3861 -0.6377
 5714SOL     OW28600   3.516   1.063  16.300 -0.0449  0.2695 -0.0748
 5714SOL    HW128601   3.468   1.140  16.330 -3.5857 -1.8060 -0.3852
 5714SOL    HW228602   3.544   1.043  16.389  1.1526  1.4640 -0.1953
 5715SOL     OW28603   1.160   1.732  15.968  0.1187  0.2144  0.1216
 5715SOL    HW128604   1.182   1.791  15.896 -2.0363  3.0577  1.8190
 5715SOL    HW228605   1.078   1.771  15.998 -0.9606 -0.0051 -2.5608
 5716SOL     OW28606   4.095   2.817  10.407 -0.0981  0.1889 -0.6118
 5716SOL    HW128607   4.167   2.785  10.353  0.7387  3.0054 -1.1581
 5716SOL    HW228608   4.114   2.911  10.416 -1.8113  0.6193 -1.6809
 5717SOL     OW28609   2.197   2.455   4.855 -0.1340  0.4278  0.2485
 5717SOL    HW128610   2.177   2.399   4.930 -0.2396 -0.9385 -0.7928
 5717SOL    HW228611   2.122   2.511   4.836  0.0587  1.2087  1.8445
 5718SOL     OW28612   0.804   0.792  11.408 -0.4599 -0.1376  0.4581
 5718SOL    HW128613   0.809   0.735  11.332  2.4081  2.3424 -1.2190
 5718SOL    HW228614   0.723   0.834  11.380  0.2380  0.4139 -0.7182
 5719SOL     OW28615   2.980   4.062  15.955  0.2132  0.4153  0.2474
 5719SOL    HW128616   2.903   4.112  15.926  1.4998  1.8945 -0.6313
 5719SOL    HW228617   3.050   4.124  15.936  1.7476 -0.6742  2.4009
 5720SOL     OW28618   0.187   3.946   3.524  0.4250 -0.0212 -0.5352
 5720SOL    HW128619   0.114   4.006   3.540  0.3406 -0.2068 -0.2116
 5720SOL    HW228620   0.245   3.958   3.600 -0.9235  3.9426 -0.1185
 5721SOL     OW28621   1.748   0.631   5.507  0.3247 -0.3915 -0.5068
 5721SOL    HW128622   1.839   0.652   5.529  0.1726 -0.1796 -0.0630
 5721SOL    HW228623   1.762   0.553   5.454 -0.1392 -0.0611 -1.1082
 5722SOL     OW28624   4.406   3.459   5.163 -0.2026  0.0718  0.3279
 5722SOL    HW128625   4.353   3.441   5.085 -1.0606 -1.1867  1.2135
 5722SOL    HW228626   4.444   3.373   5.184  1.8401  0.5573 -1.3291
 5723SOL     OW28627   3.266   3.789   7.428 -0.5849  0.0308 -0.2269
 5723SOL    HW128628   3.312   3.790   7.345 -0.1033  1.0034  0.0442
 5723SOL    HW228629   3.249   3.695   7.435 -0.2765 -0.1091 -1.4860
 5724SOL     OW28630   0.713   1.325   3.945 -0.2194 -0.2195  0.1656
 5724SOL    HW128631   0.670   1.296   3.865  0.2805  0.0251 -0.1937
 5724SOL    HW228632   0.656   1.279   4.006  0.6217  0.8924  1.8027
 5725SOL     OW28633   4.165   3.798   5.148  0.5277  0.6645 -0.4830
 5725SOL    HW128634   4.117   3.872   5.112  0.1020  1.7436  2.2554
 5725SOL    HW228635   4.090   3.738   5.142  0.2852  0.6677  2.5342
 5726SOL     OW28636   1.821   3.284  14.188  0.4288 -0.8067 -0.7414
 5726SOL    HW128637   1.857   3.279  14.100 -1.5941 -0.3282 -1.5840
 5726SOL    HW228638   1.872   3.210  14.221 -0.4800 -1.1385 -0.0569
 5727SOL     OW28639   0.904   1.946   6.046  0.6203 -0.2615  0.2335
 5727SOL    HW128640   0.897   1.962   5.951  0.8487 -1.4663  0.0121
 5727SOL    HW228641   0.818   1.982   6.065  0.6678 -0.6518  1.1725
 5728SOL     OW28642   0.499   4.655   0.006  0.0347  0.0991  0.0499
 5728SOL    HW128643   0.560   4.659  17.616 -0.2341 -0.2285 -0.1944
 5728SOL    HW228644   0.501   4.564   0.036  1.1765  0.1091 -0.0032
 5729SOL     OW28645   1.616   1.254   7.096 -0.4642  0.1985 -0.0894
 5729SOL    HW128646   1.687   1.305   7.057  1.6201 -1.7540  1.1449
 5729SOL    HW228647   1.654   1.223   7.178 -0.6259 -0.2981 -0.2052
 5730SOL     OW28648   3.043   3.956  11.508  0.1183 -0.2449  0.9442
 5730SOL    HW128649   3.096   3.878  11.521 -0.1156 -0.6732 -0.6806
 5730SOL    HW228650   3.108   4.023  11.530  0.2792 -0.0133 -0.2646
 5731SOL     OW28651   0.986   0.885   5.238 -0.3224 -0.2765  0.2003
 5731SOL    HW128652   0.998   0.955   5.173 -1.2455 -0.1060  0.2184
 5731SOL    HW228653   1.010   0.931   5.319  0.0760 -0.0670 -0.0356
 5732SOL     OW28654   2.946   3.211   0.598  0.0348  0.3356 -0.2967
 5732SOL    HW128655   3.004   3.162   0.656  2.4533  3.5471 -0.0262
 5732SOL    HW228656   3.015   3.221   0.532 -0.1736 -0.1070 -0.5849
 5733SOL     OW28657   0.907   0.745  17.507  0.1555  0.2539 -0.2678
 5733SOL    HW128658   0.829   0.692  17.521 -0.5758  1.7443  1.3180
 5733SOL    HW228659   0.938   0.755  17.598  1.8854  3.1327 -1.1584
 5734SOL     OW28660   4.495   3.189   4.927 -0.6111 -0.3475 -0.3630
 5734SOL    HW128661   4.515   3.241   4.849  2.5192  0.2186  0.8458
 5734SOL    HW228662   4.412   3.145   4.907 -0.4911  0.2313 -2.1143
 5735SOL     OW28663   4.178   4.392  13.195  0.0604  0.0041 -0.3115
 5735SOL    HW128664   4.209   4.362  13.109  1.7387 -1.1516  0.7114
 5735SOL    HW228665   4.156   4.312  13.243 -3.1646 -0.4034 -2.4210
 5736SOL     OW28666   1.821   4.182   4.839  0.0719 -0.9012  0.2354
 5736SOL    HW128667   1.835   4.250   4.773  0.5534  0.8407  2.1658
 5736SOL    HW228668   1.897   4.205   4.891 -0.5729 -1.0873  1.2553
 5737SOL     OW28669   1.609   4.282   7.396  0.2335 -0.1430  0.5179
 5737SOL    HW128670   1.655   4.218   7.451 -2.9230 -2.3277  0.6216
 5737SOL    HW228671   1.537   4.308   7.454  0.9412  1.8529  0.5106
 5738SOL     OW28672   3.266   3.931   5.493 -0.0779 -0.0885 -0.1234
 5738SOL    HW128673   3.286   4.000   5.556 -0.0301  0.0761 -0.3241
 5738SOL    HW228674   3.357   3.917   5.468 -0.0196  1.9946 -1.0062
 5739SOL     OW28675   0.571   4.369   6.264  0.2798 -0.4045 -0.3365
 5739SOL    HW128676   0.518   4.323   6.329 -0.3250  0.7026 -0.0419
 5739SOL    HW228677   0.602   4.432   6.330 -2.2682 -1.9211  2.3568
 5740SOL     OW28678   3.320   1.361   3.622 -0.1267  0.0726 -0.3539
 5740SOL    HW128679   3.399   1.310   3.606 -0.2202 -0.1433 -0.1371
 5740SOL    HW228680   3.252   1.326   3.565  1.7345 -1.7367 -1.4729
 5741SOL     OW28681   0.647   1.821  13.677  0.2893  0.1053 -0.4191
 5741SOL    HW128682   0.632   1.732  13.710 -0.1915  1.2951  2.5419
 5741SOL    HW228683   0.743   1.823  13.678  0.2875  0.8822 -1.6551
 5742SOL     OW28684   1.024   0.028   4.489  0.4014  0.0643  0.1718
 5742SOL    HW128685   1.115   0.018   4.518  0.6930  2.3606  0.0182
 5742SOL    HW228686   1.004   0.119   4.510 -0.0810  0.3570 -1.5535
 5743SOL     OW28687   1.092   0.108  13.199 -0.3666 -0.3860  0.3613
 5743SOL    HW128688   1.035   0.159  13.258  1.0692  2.5223 -0.7672
 5743SOL    HW228689   1.083   0.160  13.119  1.4361  0.3381  0.6322
 5744SOL     OW28690   0.183   3.738   0.709 -0.0649  0.1507 -0.1763
 5744SOL    HW128691   0.253   3.765   0.769 -0.5365 -0.5439  0.6955
 5744SOL    HW228692   0.233   3.693   0.641 -0.6309 -1.4871  0.5004
 5745SOL     OW28693   3.045   2.128  13.181  0.4432 -0.2306 -0.4861
 5745SOL    HW128694   3.078   2.174  13.104  1.5783  0.4621  0.4060
 5745SOL    HW228695   2.951   2.133  13.162  0.3915 -1.1240 -0.4609
 5746SOL     OW28696   2.727   1.683   3.854  0.0862 -0.3596  0.3621
 5746SOL    HW128697   2.755   1.765   3.813 -1.6007  0.6041  1.0924
 5746SOL    HW228698   2.802   1.631   3.826  0.9309  1.5155 -0.8882
 5747SOL     OW28699   0.687   0.493   9.725  0.1444 -0.0850  0.4026
 5747SOL    HW128700   0.633   0.573   9.724 -2.3281 -1.7528  2.3019
 5747SOL    HW228701   0.644   0.433   9.665  1.3538  0.5066 -1.0875
 5748SOL     OW28702   2.756   3.459   5.678 -0.1882 -0.2873  0.2184
 5748SOL    HW128703   2.795   3.544   5.656 -1.4678  0.3756  0.4394
 5748SOL    HW228704   2.725   3.481   5.766  1.0185  0.0549  0.5623
 5749SOL     OW28705   1.108   1.775   8.929  0.1993 -0.1644  0.2805
 5749SOL    HW128706   1.053   1.844   8.891  1.4446 -0.1223 -1.4301
 5749SOL    HW228707   1.072   1.774   9.018  0.9162  1.4191  0.5922
 5750SOL     OW28708   1.854   0.184   6.855  0.1143  0.3794  0.3989
 5750SOL    HW128709   1.863   0.104   6.906 -0.6137  0.7100  1.0523
 5750SOL    HW228710   1.824   0.249   6.918  0.3639 -0.4014  1.3129
 5751SOL     OW28711   0.453   0.644   1.720 -0.2280 -0.0205 -0.0295
 5751SOL    HW128712   0.381   0.602   1.673 -0.5742 -1.2316  1.6084
 5751SOL    HW228713   0.532   0.599   1.688 -0.1091  1.4766 -1.8851
 5752SOL     OW28714   2.008   3.076  13.957 -0.6879 -0.5085 -0.1364
 5752SOL    HW128715   1.986   3.163  13.923  1.8729  0.9314  1.8311
 5752SOL    HW228716   1.929   3.032  13.926 -0.0554 -3.1959  2.0329
 5753SOL     OW28717   1.578   4.563   7.524 -0.3734 -0.2851 -0.1705
 5753SOL    HW128718   1.557   4.627   7.593  0.3937  0.0578 -0.2526
 5753SOL    HW228719   1.524   4.487   7.546  1.1448 -0.5596  2.5385
 5754SOL     OW28720   2.343   4.273  10.838  0.3265 -0.0530  0.5671
 5754SOL    HW128721   2.360   4.365  10.859  0.6911  0.2009 -0.8062
 5754SOL    HW228722   2.428   4.236  10.861  0.8891  1.6596  1.2629
 5755SOL     OW28723   3.993   3.499   8.997  0.8359 -0.5432  0.2339
 5755SOL    HW128724   4.029   3.588   8.994 -1.3799  0.3547  0.4134
 5755SOL    HW228725   4.038   3.467   8.918  1.0988  0.9595 -0.2315
 5756SOL     OW28726   4.131   1.021   0.601 -0.4908 -0.9340 -0.1845
 5756SOL    HW128727   4.168   1.109   0.592 -0.9348 -0.9413 -2.1122
 5756SOL    HW228728   4.135   0.987   0.512  1.6841  0.9394 -0.8030
 5757SOL     OW28729   4.669   2.883   4.001  0.2579 -0.2780 -0.2046
 5757SOL    HW128730   0.006   2.959   4.001  0.8025 -0.6831 -0.2482
 5757SOL    HW228731   4.598   2.908   4.061  0.2956  1.3359 -0.8408
 5758SOL     OW28732   2.298   3.720  16.708 -0.1261 -0.5674  0.0243
 5758SOL    HW128733   2.373   3.682  16.662  0.8187  2.2347 -0.8066
 5758SOL    HW228734   2.315   3.814  16.699  2.0883 -0.9917 -0.3520
 5759SOL     OW28735   1.561   1.583  16.510  0.0183  0.1758  0.0438
 5759SOL    HW128736   1.496   1.602  16.443  0.9191  0.0851 -0.8622
 5759SOL    HW228737   1.622   1.523  16.468  1.2073  0.6492  1.0791
 5760SOL     OW28738   3.634   2.287  17.502 -0.1402  0.1878 -0.2543
 5760SOL    HW128739   3.555   2.262  17.454  2.2278 -1.2746 -3.3775
 5760SOL    HW228740   3.599   2.359  17.554 -0.1052 -0.2983  0.4563
 5761SOL     OW28741   1.655   4.459   9.121  0.0736 -0.3546 -0.1822
 5761SOL    HW128742   1.561   4.479   9.122  0.1003 -0.2235 -2.8763
 5761SOL    HW228743   1.654   4.377   9.171 -0.3161 -0.5806 -0.5711
 5762SOL     OW28744   2.043   2.469  10.954 -0.2860 -0.0269  0.3143
 5762SOL    HW128745   2.046   2.508  11.042  2.6154  0.1895  0.1154
 5762SOL    HW228746   2.110   2.519  10.907 -0.6078  0.2232  0.1207
 5763SOL     OW28747   2.791   4.575   4.023 -0.0621 -0.5955  0.2704
 5763SOL    HW128748   2.725   4.580   3.953  0.7071 -2.3741 -0.5729
 5763SOL    HW228749   2.846   4.501   3.999  0.6013 -0.6218  1.9384
 5764SOL     OW28750   0.253   2.040  15.384  0.2979 -0.6164 -0.2145
 5764SOL    HW128751   0.260   2.054  15.290 -0.5923 -0.6420 -0.2765
 5764SOL    HW228752   0.293   2.123  15.411  0.8708 -0.9932  0.0947
 5765SOL     OW28753   0.535   0.306   4.634 -0.2367  0.1388  0.3771
 5765SOL    HW128754   0.574   0.315   4.547 -4.4710 -2.7195 -1.8016
 5765SOL    HW228755   0.544   0.213   4.658  0.9460  0.1811  0.0788
 5766SOL     OW28756   3.023   0.976   4.109  0.2674  0.2984 -0.1494
 5766SOL    HW128757   3.090   0.946   4.048  0.8285  1.1352  0.0584
 5766SOL    HW228758   2.990   1.050   4.059  3.1149 -0.0714 -2.5180
 5767SOL     OW28759   3.629   3.807   9.746  0.1503 -0.1194  0.3348
 5767SOL    HW128760   3.567   3.786   9.677  0.6050 -2.2079  0.5452
 5767SOL    HW228761   3.649   3.898   9.728 -5.0884  1.4400  2.4295
 5768SOL     OW28762   1.907   1.556  10.767  0.0624  0.2842  0.0705
 5768SOL    HW128763   1.850   1.630  10.785 -1.7685 -1.3666  1.0613
 5768SOL    HW228764   1.885   1.498  10.839 -3.9393  1.7409 -0.0035
 5769SOL     OW28765   0.633   4.338   1.355 -0.6140  0.1340 -0.4322
 5769SOL    HW128766   0.554   4.288   1.376 -1.7050  2.1449  0.2813
 5769SOL    HW228767   0.694   4.300   1.418 -3.2985 -0.3306  1.9134
 5770SOL     OW28768   0.645   1.324   7.593  0.3679  0.5196 -0.1174
 5770SOL    HW128769   0.709   1.389   7.563 -1.2787  0.6112 -3.5367
 5770SOL    HW228770   0.693   1.279   7.662 -2.9607 -0.5498  1.4661
 5771SOL     OW28771   1.738   3.684   2.430 -0.4176  0.1186 -0.5253
 5771SOL    HW128772   1.757   3.660   2.339 -0.2402 -1.6846 -0.0075
 5771SOL    HW228773   1.809   3.649   2.484 -0.5256 -1.4902 -1.4431
 5772SOL     OW28774   3.089   0.119   1.133 -0.2726  0.4263 -0.3949
 5772SOL    HW128775   3.003   0.090   1.102 -0.4039 -1.0724  1.3407
 5772SOL    HW228776   3.132   0.139   1.050 -0.6491  1.3281 -0.3729
 5773SOL     OW28777   1.411   0.275   2.308 -0.5021  0.4588  0.7371
 5773SOL    HW128778   1.343   0.208   2.299 -0.8993  0.8968  0.4941
 5773SOL    HW228779   1.485   0.251   2.251 -2.3836 -0.2740 -1.3701
 5774SOL     OW28780   2.084   2.761   8.115  0.2297  0.1188  0.1126
 5774SOL    HW128781   1.997   2.787   8.146  0.9203  1.6707  0.7526
 5774SOL    HW228782   2.058   2.677   8.078  1.7104 -0.4615  0.3771
 5775SOL     OW28783   1.455   2.460  13.309  0.2558  0.2360 -0.3718
 5775SOL    HW128784   1.543   2.442  13.276 -0.5195 -0.5594 -2.0539
 5775SOL    HW228785   1.482   2.525  13.373  1.5988 -0.2969 -0.3801
 5776SOL     OW28786   1.178   2.165   0.556  0.0488 -0.2653  0.3265
 5776SOL    HW128787   1.110   2.108   0.593 -0.5913 -0.5369 -1.2364
 5776SOL    HW228788   1.251   2.172   0.617 -0.0865 -1.0623  0.5706
 5777SOL     OW28789   1.513   1.158   5.910 -0.2681  0.5470 -0.3498
 5777SOL    HW128790   1.500   1.207   5.992 -0.8306  0.4448 -0.3809
 5777SOL    HW228791   1.478   1.077   5.945  0.4197 -0.0342 -1.0144
 5778SOL     OW28792   4.539   2.140   0.392 -0.4095  0.1762 -0.5362
 5778SOL    HW128793   4.504   2.202   0.328  0.2932  1.5491  0.3834
 5778SOL    HW228794   4.491   2.060   0.376 -0.6568  0.4695 -1.2477
 5779SOL     OW28795   0.935   0.133   6.903 -0.0553 -0.2515 -0.2154
 5779SOL    HW128796   0.859   0.183   6.935 -0.4768  0.0315 -1.6806
 5779SOL    HW228797   0.912   0.135   6.810  3.2887  1.5267 -1.0246
 5780SOL     OW28798   0.814   0.962  14.331  0.0634 -0.1176 -0.7133
 5780SOL    HW128799   0.777   0.952  14.419  1.6121  0.8818  0.0462
 5780SOL    HW228800   0.782   0.880  14.293  1.4134  0.0593 -2.1999
 5781SOL     OW28801   2.025   4.232  15.309 -0.1805 -0.1870 -0.5127
 5781SOL    HW128802   2.008   4.252  15.217  0.5283 -1.6433 -0.9552
 5781SOL    HW228803   2.116   4.203  15.306  0.1176  0.7182 -0.2064
 5782SOL     OW28804   2.918   0.306  14.442  0.8983  0.0077  0.7232
 5782SOL    HW128805   2.952   0.240  14.382  0.9020 -0.2753  1.0348
 5782SOL    HW228806   2.884   0.365  14.375  1.5678 -0.8482 -0.3675
 5783SOL     OW28807   4.126   2.848   1.615 -0.2308 -0.3885  0.0705
 5783SOL    HW128808   4.144   2.875   1.705 -0.1549 -0.0978 -0.0295
 5783SOL    HW228809   4.171   2.919   1.568 -0.5447 -1.7254 -2.2653
 5784SOL     OW28810   3.747   0.627   7.797 -0.3492  0.9251 -0.2519
 5784SOL    HW128811   3.699   0.600   7.718 -2.6319 -1.2490  1.8749
 5784SOL    HW228812   3.812   0.558   7.799 -2.4551 -1.0981 -1.2838
 5785SOL     OW28813   2.903   4.158  11.355 -0.2552  0.3221  0.1475
 5785SOL    HW128814   2.870   4.208  11.430  0.1904 -0.7420  1.0440
 5785SOL    HW228815   2.997   4.177  11.348 -0.5114  1.5787  0.1511
 5786SOL     OW28816   2.267   0.361   0.851 -0.1654 -0.2129  0.1308
 5786SOL    HW128817   2.240   0.387   0.939  1.5390  1.7072  0.0969
 5786SOL    HW228818   2.273   0.268   0.869 -0.4890 -0.6765 -2.1906
 5787SOL     OW28819   2.554   4.288   8.349 -0.3702 -1.0307  0.4583
 5787SOL    HW128820   2.649   4.292   8.359 -0.3377  1.7482 -0.9952
 5787SOL    HW228821   2.534   4.376   8.318 -0.5300 -1.6850 -1.3186
 5788SOL     OW28822   1.745   1.192  15.364 -0.0533 -0.3568 -0.6792
 5788SOL    HW128823   1.720   1.219  15.275  2.6057  0.6862 -1.1042
 5788SOL    HW228824   1.763   1.098  15.351  0.1907 -0.0004 -2.9790
 5789SOL     OW28825   4.263   3.883   0.931 -0.6300 -0.6048 -0.0329
 5789SOL    HW128826   4.327   3.953   0.940  0.0717 -1.2830  0.2998
 5789SOL    HW228827   4.194   3.923   0.983  1.0762  2.7993 -0.3971
 5790SOL     OW28828   2.603   2.687   8.135 -1.1010 -0.6501 -0.6726
 5790SOL    HW128829   2.584   2.602   8.094 -0.0399 -1.0028 -0.4233
 5790SOL    HW228830   2.519   2.733   8.142 -2.0645 -2.3125 -1.1318
 5791SOL     OW28831   2.012   1.505   9.399 -0.0769  0.6622  0.4197
 5791SOL    HW128832   2.039   1.414   9.410 -0.1960  0.1459 -3.4573
 5791SOL    HW228833   1.928   1.496   9.443 -0.3300 -1.2696 -0.4353
 5792SOL     OW28834   1.963   4.377  15.530  0.5920 -0.1246 -0.3261
 5792SOL    HW128835   1.962   4.460  15.482 -3.3588  0.8032  1.3729
 5792SOL    HW228836   1.995   4.319  15.460  0.9390  1.1866 -1.2551
 5793SOL     OW28837   1.348   3.624  11.509 -0.8689 -0.1370  0.4365
 5793SOL    HW128838   1.405   3.700  11.503 -1.1354  0.1413  1.5041
 5793SOL    HW228839   1.380   3.584  11.590 -0.8689  2.1915  1.5866
 5794SOL     OW28840   3.805   2.298   4.834  0.2772 -0.4446  0.3746
 5794SOL    HW128841   3.812   2.279   4.928  3.1530  0.3859  0.3350
 5794SOL    HW228842   3.883   2.254   4.800  1.3466  2.4858 -0.9372
 5795SOL     OW28843   1.132   2.605   3.134  0.5276  0.9147 -0.3442
 5795SOL    HW128844   1.160   2.612   3.225 -1.5030 -1.5170  0.4727
 5795SOL    HW228845   1.195   2.543   3.097  0.6874 -0.0249  1.4961
 5796SOL     OW28846   0.159   0.868   6.071  0.7127 -0.4765  0.3588
 5796SOL    HW128847   0.125   0.779   6.065  0.2183 -0.2168 -0.6514
 5796SOL    HW228848   0.128   0.894   6.158 -1.0950  1.2300 -0.7991
 5797SOL     OW28849   3.471   1.046   5.907  0.0733  0.4995 -0.3960
 5797SOL    HW128850   3.453   1.138   5.926  1.2531  0.3148  1.6801
 5797SOL    HW228851   3.542   1.060   5.845  1.1158  1.5077  1.0107
 5798SOL     OW28852   2.040   0.495  15.978  0.6173 -0.2552 -0.5712
 5798SOL    HW128853   2.130   0.486  16.006  0.1869  3.1132  1.9006
 5798SOL    HW228854   2.009   0.572  16.025 -0.3147 -0.7478 -0.3685
 5799SOL     OW28855   1.184   0.449   8.627  0.0849  0.0186 -0.2198
 5799SOL    HW128856   1.172   0.484   8.538  1.1315  2.5669  0.6448
 5799SOL    HW228857   1.103   0.465   8.674  0.7885  1.3035  0.5406
 5800SOL     OW28858   1.718   4.083   3.760  0.2698  0.2382 -0.2579
 5800SOL    HW128859   1.744   4.056   3.672 -1.7006 -1.9875 -0.1637
 5800SOL    HW228860   1.729   3.998   3.803  2.0369  0.6477  0.1075
 5801SOL     OW28861   1.243   1.578  11.251  0.6996 -0.3339  0.3544
 5801SOL    HW128862   1.257   1.650  11.312  1.2145 -0.4792  0.4051
 5801SOL    HW228863   1.155   1.554  11.280  0.0034  3.4860  1.4069
 5802SOL     OW28864   0.386   0.247   2.995  0.4500 -0.8414 -0.2595
 5802SOL    HW128865   0.385   0.323   3.054  0.9324 -0.5477 -0.6351
 5802SOL    HW228866   0.387   0.172   3.055 -0.0995 -2.0939 -1.8266
 5803SOL     OW28867   2.480   1.125  10.747  0.1188  0.5741 -0.2175
 5803SOL    HW128868   2.444   1.061  10.686  0.3128  0.9859 -0.7630
 5803SOL    HW228869   2.406   1.147  10.803  0.8792 -1.0269  1.3962
 5804SOL     OW28870   0.441   3.631   3.707 -0.4355  0.1218 -0.1132
 5804SOL    HW128871   0.488   3.549   3.692 -1.3230 -0.0762 -1.7916
 5804SOL    HW228872   0.483   3.660   3.788  2.7927  0.2120 -1.7962
 5805SOL     OW28873   0.293   3.139   7.138 -0.4347 -0.3159  0.1004
 5805SOL    HW128874   0.308   3.085   7.215 -1.3424 -1.9850 -0.9073
 5805SOL    HW228875   0.231   3.208   7.160  0.3642 -0.1848  1.9361
 5806SOL     OW28876   1.462   2.600   3.768  0.0217  0.9208  0.1595
 5806SOL    HW128877   1.453   2.655   3.845 -1.3665 -0.8404  1.2452
 5806SOL    HW228878   1.527   2.533   3.789 -1.4164 -0.7095 -0.5666
 5807SOL     OW28879   1.125   3.422   3.985  0.0060 -0.4242  0.3583
 5807SOL    HW128880   1.166   3.383   3.908  1.6307  1.3527  0.2969
 5807SOL    HW228881   1.074   3.493   3.945  0.3019 -0.7982 -0.6912
 5808SOL     OW28882   4.436   4.422  14.908 -0.4644  0.2508  0.8177
 5808SOL    HW128883   4.462   4.355  14.847 -0.4763  0.4347  0.6107
 5808SOL    HW228884   4.428   4.374  14.991  3.9035 -0.8680  0.5632
 5809SOL     OW28885   2.999   2.263   2.231  0.6077 -0.4672  0.3991
 5809SOL    HW128886   2.955   2.221   2.305 -1.4854 -0.3857 -0.7686
 5809SOL    HW228887   3.078   2.211   2.215  0.1271 -1.3475  0.9042
 5810SOL     OW28888   1.398   4.639   5.031 -0.7228 -0.3672  0.1275
 5810SOL    HW128889   1.454   4.584   5.086 -0.6777  0.3295  0.7725
 5810SOL    HW228890   1.324   4.579   5.022 -1.0380  0.1731 -0.8020
 5811SOL     OW28891   4.007   4.203  17.240  0.2410  0.0716  0.1176
 5811SOL    HW128892   3.985   4.148  17.165  0.7618  0.6975 -0.5008
 5811SOL    HW228893   3.923   4.219  17.282  0.4271 -0.0436  0.5276
 5812SOL     OW28894   3.722   2.656  11.723  0.4420  0.0772 -0.1716
 5812SOL    HW128895   3.817   2.645  11.729  0.7750  2.5308 -0.6694
 5812SOL    HW228896   3.718   2.741  11.768 -1.4878  0.7490 -1.6414
 5813SOL     OW28897   3.307   2.050   3.789  0.3710 -0.3094  0.1360
 5813SOL    HW128898   3.390   2.012   3.760 -0.0334 -0.1624 -1.2116
 5813SOL    HW228899   3.271   1.976   3.838 -0.7275  0.0881 -0.0877
 5814SOL     OW28900   1.567   1.058   3.710 -0.1446  0.0695  0.4257
 5814SOL    HW128901   1.622   1.037   3.635  0.2626  0.5649  0.5864
 5814SOL    HW228902   1.537   1.146   3.686 -1.3417 -0.2563  0.7249
 5815SOL     OW28903   2.530   3.980   6.101  0.7498 -0.5466  0.0371
 5815SOL    HW128904   2.588   4.054   6.088  1.1178 -1.2983 -2.6127
 5815SOL    HW228905   2.566   3.910   6.046 -2.4357 -0.6814 -1.8956
 5816SOL     OW28906   3.335   4.383   0.036 -0.0700  0.0237  0.3623
 5816SOL    HW128907   3.355   4.314   0.099  1.3488 -1.9174 -2.2375
 5816SOL    HW228908   3.403   4.370  17.653  0.0799 -2.4085  0.9876
 5817SOL     OW28909   1.456   0.336   4.869 -0.1141  0.1927  0.5817
 5817SOL    HW128910   1.519   0.286   4.817  1.4850  1.8645  0.9230
 5817SOL    HW228911   1.454   0.419   4.822 -0.4090 -1.2676 -1.9468
 5818SOL     OW28912   2.710   0.332  15.646  0.3820  0.1681 -0.2196
 5818SOL    HW128913   2.700   0.292  15.733  0.9844  0.4877 -0.0088
 5818SOL    HW228914   2.641   0.399  15.651 -0.3492 -0.6161  0.3110
 5819SOL     OW28915   3.778   0.902   6.520  0.1222 -0.4497 -0.1936
 5819SOL    HW128916   3.717   0.897   6.594 -0.7466 -0.4645 -0.8970
 5819SOL    HW228917   3.808   0.813   6.501 -0.2521 -0.9651  1.5932
 5820SOL     OW28918   1.365   1.845   4.065  0.6680 -0.1931  0.5382
 5820SOL    HW128919   1.452   1.835   4.027  0.5984  0.1637  0.2810
 5820SOL    HW228920   1.374   1.811   4.154 -0.8943 -2.1700 -0.0552
 5821SOL     OW28921   1.751   2.994  12.399 -0.3583  0.2944 -0.0120
 5821SOL    HW128922   1.748   2.910  12.353  0.9404  0.4768 -0.4379
 5821SOL    HW228923   1.696   2.970  12.473 -0.0170 -0.6997 -0.0747
 5822SOL     OW28924   2.284   1.093   7.155  0.2620 -0.2026 -0.0403
 5822SOL    HW128925   2.284   1.116   7.062  0.6735 -0.2299 -0.0469
 5822SOL    HW228926   2.227   1.161   7.191 -1.3356 -2.5402  1.9332
 5823SOL     OW28927   1.322   2.341   2.568 -0.4839  0.4494  0.0977
 5823SOL    HW128928   1.346   2.262   2.520 -1.1576  0.7414 -0.7239
 5823SOL    HW228929   1.235   2.353   2.529 -1.5646  0.0236  2.3957
 5824SOL     OW28930   0.208   1.424   5.935  0.0322 -0.1439 -0.4934
 5824SOL    HW128931   0.286   1.476   5.951  0.2573 -0.6492  0.0590
 5824SOL    HW228932   0.235   1.345   5.981 -1.5198  0.5648  1.6136
 5825SOL     OW28933   3.389   4.526   0.808 -0.0273  0.1979  0.0156
 5825SOL    HW128934   3.372   4.435   0.833 -0.9049  0.2446 -0.4173
 5825SOL    HW228935   3.306   4.571   0.820  0.5649  1.4650 -0.6216
 5826SOL     OW28936   3.840   3.037   5.771 -0.0338 -0.3207  0.2965
 5826SOL    HW128937   3.801   3.028   5.857  1.8625 -2.3061  0.9284
 5826SOL    HW228938   3.820   2.947   5.746 -0.4940 -0.9647  3.0959
 5827SOL     OW28939   2.858   2.969  15.438  0.4538 -0.0890 -0.2097
 5827SOL    HW128940   2.815   2.893  15.397  1.1320  1.2940 -3.4387
 5827SOL    HW228941   2.949   2.939  15.441  1.1805  2.4020  2.0361
 5828SOL     OW28942   1.025   1.859   7.513  0.3885  0.0744 -0.6255
 5828SOL    HW128943   1.060   1.880   7.599  2.2712 -2.9206 -0.6490
 5828SOL    HW228944   1.091   1.798   7.480  1.7076  1.4535 -0.5207
 5829SOL     OW28945   3.337   0.974   4.085  0.4088 -0.4199 -0.1051
 5829SOL    HW128946   3.345   1.056   4.134  1.3083 -0.5897  0.0323
 5829SOL    HW228947   3.313   1.007   3.998 -2.0628 -1.1580  0.2924
 5830SOL     OW28948   3.394   0.865   5.430  0.2035 -0.3149 -0.3497
 5830SOL    HW128949   3.320   0.866   5.490 -0.5323 -2.5521 -1.2075
 5830SOL    HW228950   3.359   0.911   5.353  2.0682  0.0427 -1.0032
 5831SOL     OW28951   2.720   4.456   4.987  0.3344 -0.0093  0.4497
 5831SOL    HW128952   2.736   4.537   4.938 -0.1895  0.0816  0.4263
 5831SOL    HW228953   2.626   4.446   4.973  0.1224 -0.1593  1.9825
 5832SOL     OW28954   3.642   4.234  12.792  0.4422  0.2202 -0.3562
 5832SOL    HW128955   3.736   4.218  12.803  0.1250 -0.5573  1.2219
 5832SOL    HW228956   3.640   4.308  12.732 -0.3713  0.2127 -0.3444
 5833SOL     OW28957   1.501   2.961   8.507  0.1803  0.2584 -0.6092
 5833SOL    HW128958   1.480   2.874   8.541  0.0518  0.3434 -0.4691
 5833SOL    HW228959   1.408   2.982   8.495 -0.3759 -0.8849  1.5082
 5834SOL     OW28960   1.665   2.053   0.439  0.8842 -0.2674 -0.3943
 5834SOL    HW128961   1.754   2.084   0.423  0.1858 -0.2161 -4.3160
 5834SOL    HW228962   1.683   1.960   0.457 -0.9226 -0.4730  0.3506
 5835SOL     OW28963   4.025   3.544   9.415 -0.2620 -0.6045 -0.2174
 5835SOL    HW128964   4.118   3.555   9.433 -0.2871 -0.2922 -0.2772
 5835SOL    HW228965   3.995   3.630   9.445  1.7183  0.4136 -1.1696
 5836SOL     OW28966   3.926   3.727   6.734 -0.2179  0.4043  0.3830
 5836SOL    HW128967   3.972   3.749   6.815 -0.3910 -0.3680  0.6846
 5836SOL    HW228968   3.904   3.814   6.698  2.7327  0.8892 -0.2474
 5837SOL     OW28969   1.469   4.213   0.778 -0.4802 -0.7283  0.3827
 5837SOL    HW128970   1.470   4.136   0.835  0.5915 -0.1486  1.1322
 5837SOL    HW228971   1.379   4.213   0.745 -0.3429 -2.1722 -0.0129
 5838SOL     OW28972   4.673   3.137  14.812 -0.6085  0.0197 -0.0335
 5838SOL    HW128973   4.595   3.136  14.757  0.4796  1.8724 -1.6145
 5838SOL    HW228974   4.669   3.225  14.851  1.3688  0.2706 -0.3611
 5839SOL     OW28975   1.413   2.291   3.253  0.1449  0.8622 -0.1224
 5839SOL    HW128976   1.332   2.264   3.297  0.6823 -0.5532  0.0171
 5839SOL    HW228977   1.443   2.213   3.206  1.9228  0.7518  1.2297
 5840SOL     OW28978   3.334   3.080  11.450 -0.4573  0.6233 -0.2198
 5840SOL    HW128979   3.394   3.049  11.517 -0.7247  1.1758  0.2759
 5840SOL    HW228980   3.355   3.026  11.373 -2.2335 -1.4659  0.7455
 5841SOL     OW28981   3.347   3.576   5.733  0.0513 -0.0981 -0.4627
 5841SOL    HW128982   3.302   3.550   5.653 -0.6947  2.9906 -1.0460
 5841SOL    HW228983   3.346   3.489   5.773  1.5078 -0.0509 -0.3008
 5842SOL     OW28984   3.693   3.845   3.052 -0.3862 -0.3013  0.0377
 5842SOL    HW128985   3.656   3.767   3.010  0.5766 -0.6688 -0.1217
 5842SOL    HW228986   3.636   3.845   3.128 -0.3427 -0.1570  0.0703
 5843SOL     OW28987   4.310   1.726   6.312  0.4429 -0.2893  0.2345
 5843SOL    HW128988   4.343   1.716   6.223 -0.8866 -2.0831 -0.0698
 5843SOL    HW228989   4.234   1.669   6.305 -0.3510  0.6985  0.8048
 5844SOL     OW28990   2.786   1.457   4.458 -0.3516  0.5015  0.0919
 5844SOL    HW128991   2.828   1.411   4.530 -0.4152 -0.6940 -0.6386
 5844SOL    HW228992   2.705   1.485   4.502 -0.4965  0.6029 -0.2407
 5845SOL     OW28993   1.198   3.705   2.154  0.3487  0.2588  0.1223
 5845SOL    HW128994   1.124   3.752   2.114  0.3189  0.7320  0.7229
 5845SOL    HW228995   1.248   3.786   2.163 -2.0927  1.7573  0.3375
 5846SOL     OW28996   1.025   3.691   3.856 -0.4751  0.6211  0.0728
 5846SOL    HW128997   0.950   3.750   3.848  0.2548  1.3210 -1.5526
 5846SOL    HW228998   1.072   3.747   3.918  1.9138 -1.2684 -0.0782
 5847SOL     OW28999   1.405   3.243   4.225 -0.0298  0.4404 -0.3346
 5847SOL    HW129000   1.445   3.241   4.138  1.3499 -0.2942  0.2994
 5847SOL    HW229001   1.472   3.293   4.272  1.3689 -1.7259 -0.0378
 5848SOL     OW29002   4.587   4.449   8.689  0.4579  0.2202  0.3042
 5848SOL    HW129003   4.582   4.385   8.617  3.5418 -0.6681  0.9033
 5848SOL    HW229004   4.503   4.494   8.678 -0.3552 -1.6882 -1.3518
 5849SOL     OW29005   1.449   2.680  14.883  0.7874  0.2961 -0.3186
 5849SOL    HW129006   1.365   2.682  14.836  0.2124 -1.3250  0.6581
 5849SOL    HW229007   1.509   2.634  14.824 -1.1295  1.0428 -2.8463
 5850SOL     OW29008   3.501   0.361   5.597 -0.5457 -0.1877  0.0024
 5850SOL    HW129009   3.586   0.361   5.642  0.7192  0.4683 -2.3702
 5850SOL    HW229010   3.534   0.374   5.508  1.1656 -2.2399  0.3393
 5851SOL     OW29011   0.967   2.180  11.784 -0.5089  0.0495  0.0654
 5851SOL    HW129012   1.038   2.136  11.830  0.1077  1.2954  0.3109
 5851SOL    HW229013   0.991   2.145  11.698 -1.2927  1.5687 -0.7759
 5852SOL     OW29014   0.616   2.261   3.686 -0.6834 -0.4632 -0.5287
 5852SOL    HW129015   0.695   2.221   3.649  0.5395  1.3585  0.1079
 5852SOL    HW229016   0.588   2.320   3.616 -0.4628  0.8415  0.4646
 5853SOL     OW29017   1.352   3.311  16.887 -0.0327  0.3059 -0.2088
 5853SOL    HW129018   1.446   3.319  16.866 -0.9230  1.4931 -3.7126
 5853SOL    HW229019   1.350   3.342  16.977 -0.6902  3.4769 -1.3120
 5854SOL     OW29020   0.099   4.413   2.679 -0.4508 -0.1700  0.1443
 5854SOL    HW129021   0.111   4.359   2.601  1.8433 -0.9415  1.0400
 5854SOL    HW229022   0.004   4.412   2.688 -0.4192 -1.3558  0.2922
 5855SOL     OW29023   0.705   2.700   7.066 -0.3014  0.2375 -0.5806
 5855SOL    HW129024   0.727   2.746   7.147 -0.3459 -0.4728 -0.1640
 5855SOL    HW229025   0.743   2.620   7.102  0.5770  1.0294  0.2442
 5856SOL     OW29026   2.164   1.251   6.890  0.0500 -0.1246 -0.4595
 5856SOL    HW129027   2.172   1.182   6.825  0.6148  0.8124 -1.3952
 5856SOL    HW229028   2.212   1.322   6.846 -1.6965  0.5639 -1.2334
 5857SOL     OW29029   0.371   2.499   8.265  0.5528  0.4214  0.2562
 5857SOL    HW129030   0.462   2.500   8.295  0.2457 -0.9153  1.2346
 5857SOL    HW229031   0.349   2.410   8.235 -1.1844  0.7969  0.4245
 5858SOL     OW29032   3.276   0.499  12.574 -0.2151 -0.2540  0.0230
 5858SOL    HW129033   3.243   0.559  12.507 -0.2726 -2.7900 -2.1949
 5858SOL    HW229034   3.235   0.415  12.554 -0.7266 -0.4115  1.7577
 5859SOL     OW29035   2.202   2.904   7.916  0.2286  0.1822  0.0734
 5859SOL    HW129036   2.230   2.925   8.005  0.3456  0.5116 -0.0434
 5859SOL    HW229037   2.139   2.833   7.927 -0.5861  1.3496  2.9051
 5860SOL     OW29038   2.333   0.161   1.929  0.4289  0.1761  0.5581
 5860SOL    HW129039   2.318   0.206   1.845 -4.8214  0.4495  1.6152
 5860SOL    HW229040   2.351   0.074   1.894 -0.5829 -0.6237  2.0373
 5861SOL     OW29041   1.506   0.011  17.090 -0.0356 -0.0686  0.8773
 5861SOL    HW129042   1.434   4.674  17.063  0.1978  0.1202 -0.1412
 5861SOL    HW229043   1.468   0.099  17.095  1.0727  0.5717 -1.9871
 5862SOL     OW29044   4.065   4.206   8.776 -0.5169  0.0686  0.1708
 5862SOL    HW129045   4.117   4.145   8.724 -1.7682 -1.2367  0.4539
 5862SOL    HW229046   4.023   4.157   8.847  0.4870 -2.1574 -0.7625
 5863SOL     OW29047   4.475   1.902   6.797 -0.4957 -0.0245 -0.4344
 5863SOL    HW129048   4.506   1.986   6.762 -0.5396  0.5724  0.9239
 5863SOL    HW229049   4.403   1.880   6.738 -1.6906 -0.5469  1.2031
 5864SOL     OW29050   4.300   4.599   3.247 -0.0018 -0.5337  0.5381
 5864SOL    HW129051   4.368   4.585   3.181 -0.8183  0.7068 -0.5673
 5864SOL    HW229052   4.227   4.554   3.205  1.1396 -1.1715 -0.7447
 5865SOL     OW29053   3.466   1.404   0.852  0.2731 -0.0982 -0.1199
 5865SOL    HW129054   3.552   1.426   0.817 -0.2442  0.4297 -1.0431
 5865SOL    HW229055   3.413   1.477   0.820  1.7358  0.6485 -0.8121
 5866SOL     OW29056   0.662   1.690   5.313  0.2769  0.4878 -0.5824
 5866SOL    HW129057   0.587   1.750   5.310  1.3080  1.8945  1.9979
 5866SOL    HW229058   0.630   1.628   5.378 -1.7311  0.9616 -1.1030
 5867SOL     OW29059   4.469   0.163  13.565 -0.1203 -0.6131 -0.1489
 5867SOL    HW129060   4.468   0.075  13.527  0.5519 -0.2306 -1.0436
 5867SOL    HW229061   4.374   0.174  13.562  0.0154  0.6371  0.2941
 5868SOL     OW29062   3.522   3.961   8.847  0.1457  0.2800  0.1204
 5868SOL    HW129063   3.539   3.942   8.940  0.2492 -0.3435 -0.0264
 5868SOL    HW229064   3.428   3.954   8.832  0.3593 -0.6430 -0.7724
 5869SOL     OW29065   0.460   4.250   5.839  0.4927 -0.1552  0.4452
 5869SOL    HW129066   0.494   4.339   5.850 -0.1337  0.2847 -1.1215
 5869SOL    HW229067   0.520   4.201   5.894 -0.0022  1.5785  2.5135
 5870SOL     OW29068   3.842   3.207   0.344  0.2807 -0.2735  0.1226
 5870SOL    HW129069   3.831   3.116   0.372  0.5112 -0.5627 -0.7268
 5870SOL    HW229070   3.902   3.189   0.271  0.0246  3.2193 -0.9473
 5871SOL     OW29071   0.480   3.633   7.484 -0.0418 -0.1235  0.4018
 5871SOL    HW129072   0.479   3.625   7.389  1.5006  0.4000  0.3394
 5871SOL    HW229073   0.500   3.726   7.491  1.2138 -0.4637  1.2891
 5872SOL     OW29074   3.973   1.885   3.638  0.0693  0.1634  0.0988
 5872SOL    HW129075   3.982   1.980   3.648 -0.6728  0.1494  0.9333
 5872SOL    HW229076   4.022   1.866   3.559  1.7405  0.0899  1.1532
 5873SOL     OW29077   0.191   1.447  14.773 -0.5735 -0.2725 -0.1060
 5873SOL    HW129078   0.146   1.375  14.727 -1.4059 -0.8947  1.6523
 5873SOL    HW229079   0.125   1.480  14.834  0.0244  0.6092  0.0527
 5874SOL     OW29080   2.973   2.681   6.599 -0.2320 -0.4861 -0.1887
 5874SOL    HW129081   2.939   2.644   6.681 -0.4338  1.0520  0.4284
 5874SOL    HW229082   2.905   2.636   6.549 -0.2935  2.6163 -2.8942
 5875SOL     OW29083   4.254   4.127  17.308  0.4887 -0.2138 -0.7580
 5875SOL    HW129084   4.249   4.081  17.391  1.4128 -0.4045 -0.8037
 5875SOL    HW229085   4.162   4.147  17.289 -0.1313 -0.9699  1.4645
 5876SOL     OW29086   4.623   1.407   0.036 -0.8522 -0.2737  0.1529
 5876SOL    HW129087   4.592   1.471  17.656 -2.9877  1.0971  2.5837
 5876SOL    HW229088   4.545   1.401   0.091 -0.0504  2.2412  1.5814
 5877SOL     OW29089   2.628   1.634   4.751 -0.0203  0.0968  0.3925
 5877SOL    HW129090   2.659   1.595   4.832 -1.0776  0.2461  0.8659
 5877SOL    HW229091   2.564   1.572   4.714 -0.3271 -0.4143  1.7972
 5878SOL     OW29092   3.241   1.062   5.789  0.3015  0.1579  0.1762
 5878SOL    HW129093   3.323   1.065   5.838 -1.2480 -0.3471  2.8001
 5878SOL    HW229094   3.219   1.155   5.782  0.6495  0.2847  0.8314
 5879SOL     OW29095   0.411   1.363  13.625  0.4071  0.3770  0.2494
 5879SOL    HW129096   0.434   1.331  13.538  1.7335 -0.8573  1.0417
 5879SOL    HW229097   0.386   1.283  13.672 -2.5310 -1.2663 -4.1001
 5880SOL     OW29098   1.823   0.816   1.954 -0.4814  0.5237 -0.0992
 5880SOL    HW129099   1.769   0.761   1.897 -1.2039  1.6002 -0.4517
 5880SOL    HW229100   1.901   0.782   1.911  0.7188  0.1838  2.3349
 5881SOL     OW29101   1.093   0.962  14.283  0.0111 -0.4467 -0.5846
 5881SOL    HW129102   1.100   0.922  14.196  0.0832  0.6582 -1.0883
 5881SOL    HW229103   1.003   0.996  14.282  0.5806  1.1106  0.3029
 5882SOL     OW29104   0.567   3.328   8.253  0.1071  0.8190  0.6261
 5882SOL    HW129105   0.483   3.371   8.238 -0.6297 -0.6258  0.6021
 5882SOL    HW229106   0.617   3.399   8.293 -0.4833  0.3633  2.1487
 5883SOL     OW29107   0.312   1.729   0.465  0.1862  0.1570  0.1668
 5883SOL    HW129108   0.355   1.782   0.398 -2.5021  2.3900  0.1939
 5883SOL    HW229109   0.323   1.638   0.438  0.9741  0.4477 -0.4880
 5884SOL     OW29110   0.521   2.903   2.171 -0.4302 -0.0606  0.1686
 5884SOL    HW129111   0.431   2.934   2.160 -0.5913  0.7249  3.6118
 5884SOL    HW229112   0.523   2.824   2.117  0.6962  0.2058 -0.1799
 5885SOL     OW29113   4.259   0.220   4.488 -0.9468  1.0374  0.2823
 5885SOL    HW129114   4.289   0.296   4.538 -0.2919  2.5047 -2.3357
 5885SOL    HW229115   4.263   0.149   4.553 -1.4827  1.1562  0.4422
 5886SOL     OW29116   1.045   0.900   3.479  0.2792 -0.2353 -0.0007
 5886SOL    HW129117   1.030   0.807   3.490  1.2764 -0.2109  1.5386
 5886SOL    HW229118   0.954   0.927   3.464  0.7747  1.1024 -0.6733
 5887SOL     OW29119   0.454   2.200   2.817 -0.3468  0.0399  0.1310
 5887SOL    HW129120   0.500   2.122   2.786  0.3960  0.5724 -0.1165
 5887SOL    HW229121   0.428   2.243   2.736  0.8975 -0.7236 -0.6621
 5888SOL     OW29122   1.383   3.143  10.814  0.3078  0.1394  0.3642
 5888SOL    HW129123   1.319   3.072  10.807 -1.1137  1.5096 -0.6003
 5888SOL    HW229124   1.320   3.212  10.838 -0.1113 -0.5723  1.2869
 5889SOL     OW29125   2.850   0.315   7.468  0.6733 -0.2568  0.3316
 5889SOL    HW129126   2.803   0.375   7.526  0.5447  0.3387 -0.3880
 5889SOL    HW229127   2.805   0.244   7.515 -0.0318  1.0907  1.7147
 5890SOL     OW29128   2.467   4.449  16.961 -0.3245 -0.1935 -0.5695
 5890SOL    HW129129   2.392   4.480  17.012 -0.0005 -0.7937  0.2747
 5890SOL    HW229130   2.507   4.535  16.950  1.5585 -0.8361  1.3370
 5891SOL     OW29131   1.299   3.751   7.078  0.7713 -0.0475  0.3214
 5891SOL    HW129132   1.322   3.823   7.019  0.7573  0.3909  0.8497
 5891SOL    HW229133   1.359   3.765   7.150  0.1107 -2.5183  1.3400
 5892SOL     OW29134   4.512   0.997   2.028  0.3988 -0.1081 -0.1774
 5892SOL    HW129135   4.575   0.926   2.042  0.9397  0.4271  0.0505
 5892SOL    HW229136   4.472   0.966   1.946  2.5546 -3.0061 -0.1346
 5893SOL     OW29137   2.921   1.085  14.674  0.2240 -0.2321 -0.0750
 5893SOL    HW129138   2.987   1.096  14.606 -1.3005 -2.7508 -1.9869
 5893SOL    HW229139   2.931   0.998  14.713 -2.0903 -0.0476  0.9701
 5894SOL     OW29140   0.918   4.712   2.940  0.2519  0.1411  0.8015
 5894SOL    HW129141   0.890   0.016   3.028 -1.4008 -1.2817  0.6729
 5894SOL    HW229142   0.912   0.069   2.884  2.2779 -0.7986 -0.7283
 5895SOL     OW29143   0.521   4.272  15.614  0.8827 -0.0124 -0.1089
 5895SOL    HW129144   0.578   4.239  15.683 -0.0556 -1.1763  0.1087
 5895SOL    HW229145   0.451   4.207  15.616  1.4918 -0.6609 -0.2999
 5896SOL     OW29146   0.460   3.903   6.638 -0.2212 -0.6782  0.5691
 5896SOL    HW129147   0.529   3.919   6.703  0.6621 -1.9705 -0.0470
 5896SOL    HW229148   0.499   3.942   6.559  0.5455 -1.5669  0.5102
 5897SOL     OW29149   1.247   4.375   2.820 -0.0718  0.3064 -0.1421
 5897SOL    HW129150   1.253   4.443   2.888 -0.9224  0.6486 -0.4059
 5897SOL    HW229151   1.334   4.386   2.782 -0.5540 -1.2216 -1.6879
 5898SOL     OW29152   2.206   1.058   9.376  0.3791  0.6264  0.4371
 5898SOL    HW129153   2.277   1.119   9.356  0.5487 -0.1197 -1.2505
 5898SOL    HW229154   2.253   1.001   9.436 -0.9150  0.0398  0.8916
 5899SOL     OW29155   3.878   2.667  13.178  0.2201  0.6697 -0.0590
 5899SOL    HW129156   3.961   2.625  13.153 -0.5218 -1.7420  1.6598
 5899SOL    HW229157   3.893   2.762  13.168 -2.9559  1.1939  0.2890
 5900SOL     OW29158   3.542   3.931   5.563  0.6339  0.2725  0.0560
 5900SOL    HW129159   3.538   3.835   5.567 -0.8587  0.4393  2.8592
 5900SOL    HW229160   3.578   3.958   5.648  0.3975  0.3988  0.1159
 5901SOL     OW29161   1.015   0.395   0.438 -0.5661 -1.1315 -0.2386
 5901SOL    HW129162   1.105   0.370   0.455  0.6551  2.5790 -1.0969
 5901SOL    HW229163   0.968   0.348   0.507  0.4030 -0.9963  0.5165
 5902SOL     OW29164   1.248   2.658  15.393  0.0439 -0.0994 -0.0629
 5902SOL    HW129165   1.164   2.685  15.355 -0.8420 -0.3312  1.7377
 5902SOL    HW229166   1.291   2.607  15.324 -0.5677  1.2828 -1.4622
 5903SOL     OW29167   1.700   1.540  15.097  0.2013 -0.1653  0.8063
 5903SOL    HW129168   1.659   1.468  15.145  0.6120 -0.6370  0.4463
 5903SOL    HW229169   1.786   1.506  15.076  0.7545  2.2916 -0.9340
 5904SOL     OW29170   1.173   0.814   9.807 -0.0414  0.3345  0.0918
 5904SOL    HW129171   1.136   0.735   9.844 -0.1560  0.7556  0.8635
 5904SOL    HW229172   1.126   0.818   9.724  1.2886  0.5611 -0.6662
 5905SOL     OW29173   3.902   0.895   4.225 -0.0844 -0.2509  0.1853
 5905SOL    HW129174   3.851   0.943   4.160 -0.2790  0.6110  0.9641
 5905SOL    HW229175   3.837   0.899   4.295  1.7245  0.6195  1.8199
 5906SOL     OW29176   3.350   4.056   4.119  0.1011  0.3338  0.4009
 5906SOL    HW129177   3.270   4.084   4.162 -0.4071 -0.9554  0.3088
 5906SOL    HW229178   3.402   4.135   4.108 -2.5698  2.0959  0.5388
 5907SOL     OW29179   3.468   0.166   7.035 -0.2190 -0.0389 -0.2999
 5907SOL    HW129180   3.387   0.129   7.069  0.3142 -0.5574  0.4053
 5907SOL    HW229181   3.514   0.088   7.002  0.9559  0.4088  0.2753
 5908SOL     OW29182   3.420   0.749   2.451  0.2284 -0.0271  0.1332
 5908SOL    HW129183   3.393   0.817   2.390  2.9037  1.4514  0.6180
 5908SOL    HW229184   3.510   0.746   2.420  0.1425  0.1894 -0.1320
 5909SOL     OW29185   2.559   0.017   7.369 -0.1086 -0.0401  0.5248
 5909SOL    HW129186   2.604   4.664   7.325 -0.0392  0.0753  0.4030
 5909SOL    HW229187   2.497   0.025   7.296  0.6006  0.0691 -0.0680
 5910SOL     OW29188   0.932   4.284   5.879 -0.3870  0.0558 -0.2605
 5910SOL    HW129189   1.006   4.319   5.830  0.3539 -1.0559  0.0650
 5910SOL    HW229190   0.980   4.231   5.942  1.4619  0.3901 -1.3876
 5911SOL     OW29191   1.617   1.861   1.353  0.3998  0.3068 -0.8096
 5911SOL    HW129192   1.615   1.878   1.259 -0.8082 -0.0308 -0.8433
 5911SOL    HW229193   1.710   1.845   1.368  0.1456 -1.4389 -1.0449
 5912SOL     OW29194   4.336   3.200   7.301 -0.0089  0.5799  0.0380
 5912SOL    HW129195   4.324   3.271   7.238  1.0637  0.4395 -0.3137
 5912SOL    HW229196   4.428   3.211   7.324  0.2522  0.6356 -1.0319
 5913SOL     OW29197   2.758   2.178   6.643  0.6416  0.1205  0.3771
 5913SOL    HW129198   2.825   2.247   6.644 -0.0914  0.8089  1.5200
 5913SOL    HW229199   2.772   2.145   6.555 -0.3000  1.3492 -0.2293
 5914SOL     OW29200   2.041   2.732   5.604  0.0052  0.1522  0.0175
 5914SOL    HW129201   2.061   2.803   5.665 -1.0176 -1.7947  2.6217
 5914SOL    HW229202   2.004   2.670   5.667  0.2020  0.9104  0.8729
 5915SOL     OW29203   3.217   0.755   3.377 -0.3647 -0.7021 -0.3960
 5915SOL    HW129204   3.222   0.790   3.287  2.6915  2.3183  0.9033
 5915SOL    HW229205   3.128   0.776   3.404  0.2609  1.4811  0.0034
 5916SOL     OW29206   3.443   3.575   1.744  0.4452 -0.5117 -0.0131
 5916SOL    HW129207   3.494   3.595   1.666  1.7138 -0.0113  0.9438
 5916SOL    HW229208   3.354   3.578   1.708  0.8050  2.4304 -0.6170
 5917SOL     OW29209   3.028   0.125   6.157  0.3737 -0.1255  0.6840
 5917SOL    HW129210   2.989   0.085   6.235  2.9225 -0.3695  1.7984
 5917SOL    HW229211   2.990   0.213   6.158  0.5949 -0.0477  1.6969
 5918SOL     OW29212   1.190   2.770   6.643 -0.1356  0.1170  0.5492
 5918SOL    HW129213   1.110   2.821   6.634 -0.2112 -0.1522 -0.3348
 5918SOL    HW229214   1.244   2.810   6.711 -1.0954  1.1143  0.7076
 5919SOL     OW29215   0.059   4.445  12.614 -0.4698  0.0298  0.1920
 5919SOL    HW129216   0.031   4.397  12.536  0.5198 -0.5412  0.1873
 5919SOL    HW229217   0.046   4.387  12.689 -0.5211 -1.0438 -0.6585
 5920SOL     OW29218   4.215   1.856   2.501 -0.0890  0.4990  0.2203
 5920SOL    HW129219   4.258   1.934   2.536  0.0569 -0.5913  2.5080
 5920SOL    HW229220   4.220   1.800   2.578 -0.7452 -2.1671 -1.6686
 5921SOL     OW29221   0.375   1.443   7.536 -0.3766  0.2924  0.7001
 5921SOL    HW129222   0.308   1.399   7.484 -2.1169  1.0065  2.3211
 5921SOL    HW229223   0.435   1.376   7.570 -0.7130 -1.5114 -2.2967
 5922SOL     OW29224   3.276   4.197  16.751 -0.4109  1.0021 -0.3365
 5922SOL    HW129225   3.230   4.114  16.767  0.7885  0.0722 -1.7262
 5922SOL    HW229226   3.304   4.186  16.661  0.1136  0.6258 -0.1281
 5923SOL     OW29227   4.429   4.065   3.701  0.1500 -0.4996 -0.1913
 5923SOL    HW129228   4.341   4.087   3.731  0.0238  0.4975 -1.2902
 5923SOL    HW229229   4.475   4.148   3.714 -0.5854 -0.2386  0.7947
 5924SOL     OW29230   3.303   3.288   3.727  0.3810  0.2026 -0.2061
 5924SOL    HW129231   3.244   3.318   3.657 -1.7787 -1.4224  0.9172
 5924SOL    HW229232   3.383   3.266   3.679  1.2456  0.9077  0.9227
 5925SOL     OW29233   3.487   1.433   5.509  0.0347 -0.0162 -0.1295
 5925SOL    HW129234   3.479   1.485   5.429  2.2368 -0.5671 -0.7118
 5925SOL    HW229235   3.535   1.361   5.467  1.4769  0.1842  1.1895
 5926SOL     OW29236   0.575   1.879  14.617  0.8777 -0.8808  0.0237
 5926SOL    HW129237   0.651   1.885  14.675  0.5392 -4.8412  0.8377
 5926SOL    HW229238   0.572   1.965  14.575  2.4105 -0.4320  0.8157
 5927SOL     OW29239   2.361   2.040  13.099 -0.1245 -0.3152 -0.6592
 5927SOL    HW129240   2.408   2.119  13.073  1.5348 -1.3105 -0.7182
 5927SOL    HW229241   2.420   2.016  13.170 -2.3146  1.0791  1.6261
 5928SOL     OW29242   0.668   1.842  13.304  0.1291 -0.0274  0.0604
 5928SOL    HW129243   0.666   1.785  13.227 -1.0322 -0.2170  0.2360
 5928SOL    HW229244   0.596   1.801  13.351  0.7279 -2.5245 -1.2149
 5929SOL     OW29245   2.619   0.344   7.831  0.3669  0.0338  0.5491
 5929SOL    HW129246   2.618   0.373   7.922  1.9522  2.7318 -0.2841
 5929SOL    HW229247   2.599   0.252   7.848 -0.0170 -0.0660 -0.4103
 5930SOL     OW29248   3.518   2.474   3.621  0.2708  0.0980  0.0100
 5930SOL    HW129249   3.483   2.385   3.620 -2.0466  0.9881  1.5598
 5930SOL    HW229250   3.458   2.519   3.562  0.8124  0.8060 -0.0011
 5931SOL     OW29251   3.139   0.296   6.858  0.0495 -0.8771  0.2964
 5931SOL    HW129252   3.093   0.375   6.886 -1.5805 -1.4131 -0.8527
 5931SOL    HW229253   3.170   0.248   6.935  1.4951  1.0513  0.9034
 5932SOL     OW29254   0.025   1.326   3.107 -0.0022  0.7801  0.6548
 5932SOL    HW129255   0.015   1.234   3.131  1.6268  0.1642 -0.9998
 5932SOL    HW229256   0.096   1.318   3.044 -0.9915  0.0990 -0.3609
 5933SOL     OW29257   3.091   2.231  16.355 -0.1242  0.5100  0.1967
 5933SOL    HW129258   3.024   2.197  16.295  0.6788 -0.8278  0.0494
 5933SOL    HW229259   3.028   2.270  16.415  0.8923 -0.4936  1.8831
 5934SOL     OW29260   0.352   3.528   5.102  0.0316 -0.0271 -0.3889
 5934SOL    HW129261   0.422   3.592   5.116  0.5441 -1.1930  2.4628
 5934SOL    HW229262   0.406   3.452   5.079  0.6580  0.4873 -0.6145
 5935SOL     OW29263   2.710   4.078   1.042 -0.1126  0.7368 -0.1196
 5935SOL    HW129264   2.641   4.144   1.054  0.1217  1.0381 -0.4266
 5935SOL    HW229265   2.716   4.079   0.946  0.0723  0.7432 -0.1076
 5936SOL     OW29266   4.306   1.271   7.902  0.4063  0.3458 -0.0707
 5936SOL    HW129267   4.243   1.251   7.971 -0.4504 -0.6264 -1.1454
 5936SOL    HW229268   4.310   1.364   7.924  1.0022  0.9013 -2.5975
 5937SOL     OW29269   1.166   2.168   3.736  0.2471 -0.3046 -0.1734
 5937SOL    HW129270   1.082   2.195   3.772  0.5248  1.4123 -0.7980
 5937SOL    HW229271   1.196   2.118   3.812  0.7698 -0.1990 -0.3051
 5938SOL     OW29272   0.174   2.064   1.140  0.5581 -0.5434  0.3307
 5938SOL    HW129273   0.192   2.157   1.129 -1.5838 -0.1580  0.0490
 5938SOL    HW229274   0.089   2.048   1.099  0.1490  0.5272  0.7540
 5939SOL     OW29275   0.980   0.572   8.730  0.2662  0.0962  0.7718
 5939SOL    HW129276   0.977   0.660   8.768  0.0267  0.6613 -0.5906
 5939SOL    HW229277   0.987   0.598   8.638  0.4198  0.2179  0.8163
 5940SOL     OW29278   2.186   4.086  12.038 -0.3005  0.7258  0.1446
 5940SOL    HW129279   2.193   4.148  11.964  1.0912 -0.7564 -0.9713
 5940SOL    HW229280   2.277   4.055  12.043 -0.4341  0.2676 -0.2670
 5941SOL     OW29281   3.652   1.778  16.729 -0.1999  0.6246 -0.3837
 5941SOL    HW129282   3.629   1.870  16.712 -1.8587 -0.1155 -2.0880
 5941SOL    HW229283   3.568   1.736  16.713  0.3234 -0.1977 -1.0021
 5942SOL     OW29284   4.169   1.371  17.164 -0.0246  0.2085 -0.2722
 5942SOL    HW129285   4.259   1.402  17.149 -0.1191  0.3756 -0.4867
 5942SOL    HW229286   4.127   1.395  17.082  1.8595 -2.5552 -2.0327
 5943SOL     OW29287   2.766   2.316   8.616  0.3832 -0.3776 -0.0386
 5943SOL    HW129288   2.848   2.365   8.613 -0.1806  0.7300  2.9511
 5943SOL    HW229289   2.790   2.224   8.605  0.9252 -0.2785  0.3077
 5944SOL     OW29290   0.996   1.621  11.961 -0.1006  0.4204 -0.1510
 5944SOL    HW129291   1.002   1.697  12.019 -0.6360  0.8824 -0.6970
 5944SOL    HW229292   0.908   1.630  11.925 -1.1777 -3.7335  1.4653
 5945SOL     OW29293   0.635   0.467   1.915 -0.6618  0.2070  0.2261
 5945SOL    HW129294   0.730   0.481   1.910 -0.5620 -1.4090 -2.5133
 5945SOL    HW229295   0.632   0.371   1.922 -0.2161  0.1543 -0.3318
 5946SOL     OW29296   0.607   1.103  14.768  0.2730  0.3793  0.0620
 5946SOL    HW129297   0.619   1.198  14.773 -0.9923  0.6265 -1.5183
 5946SOL    HW229298   0.609   1.079  14.675 -0.4027  1.4763 -0.2292
 5947SOL     OW29299   3.201   2.189   6.250 -0.1389  0.2292 -0.1366
 5947SOL    HW129300   3.124   2.235   6.217 -0.6964 -1.2115 -0.8391
 5947SOL    HW229301   3.256   2.168   6.175 -0.8907  0.3760 -0.7243
 5948SOL     OW29302   2.247   0.662   6.094 -0.0523 -0.1939  0.1473
 5948SOL    HW129303   2.214   0.574   6.075 -0.5769 -0.2400  1.3047
 5948SOL    HW229304   2.234   0.665   6.188  0.7290 -1.6487  0.3025
 5949SOL     OW29305   1.316   0.820  17.484  0.6240  0.4989  0.0804
 5949SOL    HW129306   1.332   0.877  17.409 -0.3420  0.2609 -0.3061
 5949SOL    HW229307   1.403   0.782  17.501  0.8438  0.5756 -0.8758
 5950SOL     OW29308   0.760   4.346   4.918  0.6023 -0.5249 -0.3950
 5950SOL    HW129309   0.807   4.281   4.971  1.5183  2.0241  1.9440
 5950SOL    HW229310   0.672   4.310   4.927 -0.7385  2.4805 -1.4719
 5951SOL     OW29311   4.386   2.666  10.492 -0.0681 -0.2015  0.4424
 5951SOL    HW129312   4.381   2.705  10.405  0.6168  2.4051  1.5791
 5951SOL    HW229313   4.339   2.584  10.475  0.0190  0.2101 -1.7357
 5952SOL     OW29314   1.072   3.107  13.592 -0.5118 -0.4513  0.0076
 5952SOL    HW129315   1.014   3.156  13.651  1.8334  1.1942  0.9491
 5952SOL    HW229316   1.162   3.124  13.620 -0.0624  0.3577 -1.9093
 5953SOL     OW29317   2.139   3.838   2.455 -0.1347 -0.0786 -0.4012
 5953SOL    HW129318   2.226   3.846   2.495 -0.2292 -0.2398 -0.1639
 5953SOL    HW229319   2.173   3.768   2.399  0.2157  0.1444 -0.4729
 5954SOL     OW29320   0.868   3.246   6.398 -0.2170 -0.9549 -0.0557
 5954SOL    HW129321   0.916   3.270   6.477 -1.7167  1.5823  0.0860
 5954SOL    HW229322   0.788   3.202   6.427  0.2649 -2.1371 -0.5289
 5955SOL     OW29323   2.302   4.708   6.712  0.1602  0.6903  0.0977
 5955SOL    HW129324   2.228   4.647   6.702  0.2249  0.4761  0.8651
 5955SOL    HW229325   2.382   4.661   6.736  2.4402  3.5083 -2.0985
 5956SOL     OW29326   3.839   2.775   5.637  0.1807  0.0544  0.3123
 5956SOL    HW129327   3.892   2.761   5.559 -0.2472  1.1672 -0.1834
 5956SOL    HW229328   3.887   2.717   5.697 -0.1946 -2.7480 -2.1222
 5957SOL     OW29329   3.302   1.254  14.774  0.0356 -0.0972 -0.0882
 5957SOL    HW129330   3.220   1.223  14.812  0.0309 -2.5267 -2.0940
 5957SOL    HW229331   3.340   1.293  14.853  0.7604 -2.5353  0.7610
 5958SOL     OW29332   2.554   1.914   4.021  0.1347  0.1469  0.4831
 5958SOL    HW129333   2.537   1.998   4.064 -2.1627  0.0275 -0.1686
 5958SOL    HW229334   2.604   1.937   3.943  0.4842  0.7489  0.8900
 5959SOL     OW29335   3.320   4.374   5.370  0.1008  0.5981  0.0753
 5959SOL    HW129336   3.261   4.313   5.413 -0.3889  0.8447 -0.2536
 5959SOL    HW229337   3.355   4.421   5.445 -0.8280  0.3354  0.6750
 5960SOL     OW29338   2.722   4.557   4.291 -0.1647  0.3189  0.0581
 5960SOL    HW129339   2.712   4.566   4.196 -0.6411 -1.2869 -0.0529
 5960SOL    HW229340   2.685   4.638   4.326 -0.6528  1.2127 -2.5512
 5961SOL     OW29341   3.498   3.074  11.874  0.5172  0.1109  0.7626
 5961SOL    HW129342   3.551   3.090  11.952 -1.3087  1.8287  1.6792
 5961SOL    HW229343   3.530   3.142  11.815 -0.6944  0.6386  0.7102
 5962SOL     OW29344   0.748   2.695  14.011  0.5492  0.0326 -0.2510
 5962SOL    HW129345   0.781   2.605  14.015 -1.0224 -0.4430  2.7269
 5962SOL    HW229346   0.717   2.702  13.921  0.4878  2.1022 -0.0635
 5963SOL     OW29347   3.744   2.421   6.939  0.3942 -0.0966  0.3696
 5963SOL    HW129348   3.732   2.473   6.860  1.3199  0.0220  0.3021
 5963SOL    HW229349   3.740   2.493   7.002 -1.4763  0.6003 -0.5508
 5964SOL     OW29350   0.860   2.177  14.076  0.1696 -0.0718 -0.0020
 5964SOL    HW129351   0.836   2.100  14.024 -0.5490 -0.7341  1.2947
 5964SOL    HW229352   0.880   2.136  14.160 -0.8301 -0.4548  0.0535
 5965SOL     OW29353   4.423   2.590  14.263  0.1159  0.2661  0.2202
 5965SOL    HW129354   4.332   2.559  14.266 -0.4028  1.5294 -3.5396
 5965SOL    HW229355   4.464   2.536  14.331 -0.0402  0.0209  0.1167
 5966SOL     OW29356   4.142   3.450   8.739  0.2512  0.2237  0.2326
 5966SOL    HW129357   4.166   3.374   8.686  0.0313  0.8903 -0.8197
 5966SOL    HW229358   4.069   3.485   8.687  0.5956 -3.6125 -2.8531
 5967SOL     OW29359   0.785   0.569  10.202  0.4091 -0.0117 -0.2496
 5967SOL    HW129360   0.823   0.632  10.263  0.2441 -0.3256  0.1718
 5967SOL    HW229361   0.691   0.586  10.215  0.2548 -0.8650 -0.2510
 5968SOL     OW29362   4.691   3.005   8.088 -0.3058 -0.2560  0.0892
 5968SOL    HW129363   4.711   3.091   8.052 -0.2585  0.2869  1.3845
 5968SOL    HW229364   0.039   3.012   8.155  0.3317  0.7623 -0.6718
 5969SOL     OW29365   2.779   4.375   9.994  0.1568 -0.2386 -0.2709
 5969SOL    HW129366   2.827   4.438  10.046  0.3327 -1.3236  0.8676
 5969SOL    HW229367   2.775   4.299  10.052 -1.6397  1.6301  2.0296
 5970SOL     OW29368   1.554   0.358   8.329 -0.3549 -0.0093 -0.2504
 5970SOL    HW129369   1.625   0.336   8.269  1.0118  1.6529  0.7515
 5970SOL    HW229370   1.478   0.325   8.282  0.0360  0.2846 -1.0941
 5971SOL     OW29371   0.163   2.232   3.946  0.7173  0.2072  0.2909
 5971SOL    HW129372   0.121   2.153   3.911  1.1605 -0.7468  1.9268
 5971SOL    HW229373   0.228   2.195   4.006 -0.0985 -1.2593  0.2777
 5972SOL     OW29374   0.621   4.607   0.345 -0.1237  0.6575 -0.2654
 5972SOL    HW129375   0.699   4.571   0.302 -1.3317 -2.3057  0.0443
 5972SOL    HW229376   0.656   4.621   0.433 -0.0769 -0.0338 -0.1757
 5973SOL     OW29377   1.062   0.976  12.371  0.5244  0.8112 -0.3086
 5973SOL    HW129378   1.153   0.949  12.383 -0.8978 -3.6969  0.3494
 5973SOL    HW229379   1.045   0.933  12.287  1.8269 -0.3016  0.0032
 5974SOL     OW29380   1.086   3.371   6.861  0.2257 -0.0732 -0.1769
 5974SOL    HW129381   1.112   3.463   6.858 -1.5213  0.4232  0.5204
 5974SOL    HW229382   1.063   3.361   6.953 -0.0186 -0.3329 -0.2673
 5975SOL     OW29383   0.387   1.614   5.166  0.3305  0.3037 -0.1616
 5975SOL    HW129384   0.306   1.648   5.127  0.2674 -0.6202 -0.8120
 5975SOL    HW229385   0.350   1.552   5.229 -1.6413  0.7581 -0.8682
 5976SOL     OW29386   1.862   3.161   7.784  0.5506  0.3245  0.1458
 5976SOL    HW129387   1.902   3.206   7.858 -0.9190  0.8593  0.6115
 5976SOL    HW229388   1.839   3.074   7.818  0.5157  0.3052  0.0739
 5977SOL     OW29389   4.178   0.267   3.991  0.1459 -0.0235 -0.2366
 5977SOL    HW129390   4.233   0.263   4.069 -1.3234 -0.1480  0.7859
 5977SOL    HW229391   4.238   0.326   3.945 -0.5629  1.4972  0.7846
 5978SOL     OW29392   3.580   3.350  12.844 -0.5292 -0.2132 -0.0382
 5978SOL    HW129393   3.642   3.395  12.903 -0.6211  2.5448 -2.0598
 5978SOL    HW229394   3.592   3.384  12.756  0.3797 -0.6064 -0.0723
 5979SOL     OW29395   0.165   4.123  11.284  0.5224  0.3290  0.0574
 5979SOL    HW129396   0.251   4.082  11.282  1.1931  1.8216 -1.0184
 5979SOL    HW229397   0.137   4.118  11.193  1.4519 -2.0431 -0.0877
 5980SOL     OW29398   0.147   0.514   4.124 -0.0649  0.3685  0.4891
 5980SOL    HW129399   0.115   0.598   4.157 -0.4165  0.9902 -1.4472
 5980SOL    HW229400   0.102   0.512   4.039  3.0828  0.3088 -1.1683
 5981SOL     OW29401   3.668   4.435  12.620  0.6235  0.0322 -0.0643
 5981SOL    HW129402   3.751   4.418  12.576 -0.0344  2.0688 -2.0888
 5981SOL    HW229403   3.606   4.452  12.549  0.9207 -0.0442 -0.3415
 5982SOL     OW29404   3.393   3.647   3.916  1.0696 -0.3917  0.4452
 5982SOL    HW129405   3.454   3.654   3.842  0.2737 -0.3227 -0.2045
 5982SOL    HW229406   3.336   3.723   3.904 -1.5923 -2.5799 -0.8951
 5983SOL     OW29407   4.097   3.847   4.758  0.2720  0.2668 -0.3518
 5983SOL    HW129408   4.031   3.835   4.690 -0.9600  0.9607  0.7165
 5983SOL    HW229409   4.051   3.913   4.810  0.2796 -0.4364  0.5488
 5984SOL     OW29410   1.180   4.221   8.450 -0.0300  0.2221 -0.1216
 5984SOL    HW129411   1.259   4.175   8.479 -0.7812 -1.4764 -0.7083
 5984SOL    HW229412   1.211   4.266   8.372 -0.9689 -2.0210 -1.7888
 5985SOL     OW29413   1.602   0.655  16.313  0.0212  0.1555  0.2643
 5985SOL    HW129414   1.568   0.619  16.395 -0.9590 -1.0299 -0.6582
 5985SOL    HW229415   1.562   0.604  16.242 -0.4346  0.8636  0.0100
 5986SOL     OW29416   0.945   0.737   3.907  0.6686 -0.6578 -0.1027
 5986SOL    HW129417   0.981   0.651   3.928  1.0642 -0.3998  0.2824
 5986SOL    HW229418   0.873   0.710   3.851  0.7855 -1.6533  0.2221
 5987SOL     OW29419   1.168   2.192   3.275  0.2832  0.3829 -0.5183
 5987SOL    HW129420   1.078   2.210   3.303  0.1498  0.2561 -0.8691
 5987SOL    HW229421   1.175   2.107   3.320  2.9856  0.9699  0.2004
 5988SOL     OW29422   1.407   1.627   3.660  0.6163 -0.1944 -0.0515
 5988SOL    HW129423   1.357   1.692   3.710 -1.2513  0.0262 -2.1971
 5988SOL    HW229424   1.333   1.593   3.610 -0.1843  1.0806  0.2647
 5989SOL     OW29425   3.300   2.861   5.981 -0.0730 -0.2846  0.2574
 5989SOL    HW129426   3.262   2.774   5.997 -1.1607 -0.1322 -1.4289
 5989SOL    HW229427   3.249   2.908   6.046 -2.9118 -0.1388 -2.0614
 5990SOL     OW29428   2.231   2.424   5.740 -0.2267 -0.0226 -0.1969
 5990SOL    HW129429   2.187   2.435   5.824  0.6275 -2.2157  0.5308
 5990SOL    HW229430   2.169   2.362   5.702  0.0640  0.2990 -1.1971
 5991SOL     OW29431   2.509   0.242  16.483 -0.3830 -0.1526  0.6349
 5991SOL    HW129432   2.446   0.312  16.465 -0.0596  0.1665  0.7362
 5991SOL    HW229433   2.541   0.222  16.395 -3.6719  0.4730 -0.7061
 5992SOL     OW29434   3.546   2.037   8.715 -0.4894  0.0179 -0.1786
 5992SOL    HW129435   3.526   1.950   8.749 -1.6959 -0.0907 -1.1710
 5992SOL    HW229436   3.634   2.052   8.751 -0.3506  0.0467 -0.5354
 5993SOL     OW29437   2.724   2.794   1.947  0.2396 -0.2022  0.6411
 5993SOL    HW129438   2.817   2.781   1.965  0.9542  1.3469 -1.9577
 5993SOL    HW229439   2.692   2.819   2.034  0.8006 -0.6200  0.9614
 5994SOL     OW29440   1.496   1.762  12.944  0.2135 -0.1036 -0.0755
 5994SOL    HW129441   1.422   1.705  12.963  0.3707 -0.0634  0.6795
 5994SOL    HW229442   1.522   1.718  12.864  0.5187  0.5324 -0.3280
 5995SOL     OW29443   3.345   2.315   7.446  0.2257 -0.0310  0.4890
 5995SOL    HW129444   3.425   2.347   7.488 -0.6232  0.3549  1.7942
 5995SOL    HW229445   3.361   2.359   7.363  0.9489  0.1770  0.7404
 5996SOL     OW29446   1.211   4.007  17.660  0.5240  0.4240  0.2423
 5996SOL    HW129447   1.301   3.972  17.660  0.1519 -0.5512 -1.5757
 5996SOL    HW229448   1.196   4.005  17.566  0.5641 -0.1698  0.2523
 5997SOL     OW29449   2.775   2.935  15.708 -0.0360  0.3386 -0.3315
 5997SOL    HW129450   2.775   2.939  15.612  0.9581 -1.4497 -0.3950
 5997SOL    HW229451   2.865   2.914  15.731 -0.1219 -1.4255 -1.6177
 5998SOL     OW29452   1.949   2.759  13.987 -0.4276 -0.3131  0.1028
 5998SOL    HW129453   1.871   2.814  13.976 -0.7030 -0.7604 -0.1622
 5998SOL    HW229454   1.917   2.699  14.054 -2.6023  0.6223 -0.0790
 5999SOL     OW29455   1.556   1.312   6.724  0.4690  0.3212  0.5823
 5999SOL    HW129456   1.487   1.262   6.680  1.1070 -1.0058  1.0603
 5999SOL    HW229457   1.577   1.374   6.655 -0.0905  0.0069  0.1354
 6000SOL     OW29458   0.043   3.557   7.114 -0.0605 -0.6850 -0.3775
 6000SOL    HW129459   0.008   3.510   7.038  2.0782 -0.1050 -1.7329
 6000SOL    HW229460   4.692   3.555   7.178  0.6049  1.2938  0.4327
 6001SOL     OW29461   3.192   3.269   0.836  0.0690 -0.3710 -0.5840
 6001SOL    HW129462   3.180   3.352   0.882  1.3105 -1.1373  1.1284
 6001SOL    HW229463   3.116   3.228   0.878  0.8347  0.8058  1.8983
 6002SOL     OW29464   2.379   4.081   8.928 -0.3765  0.1274  0.7260
 6002SOL    HW129465   2.391   4.170   8.960  0.9365  0.4582 -0.6725
 6002SOL    HW229466   2.362   4.106   8.837  3.3768 -1.7536 -0.4954
 6003SOL     OW29467   3.823   0.618   6.714  0.3373  0.2598  0.4506
 6003SOL    HW129468   3.825   0.630   6.619 -0.8757 -1.6325  0.1780
 6003SOL    HW229469   3.747   0.672   6.736 -0.2207 -0.8171  1.1789
 6004SOL     OW29470   2.890   0.084   6.389 -0.5948  0.3696  0.2581
 6004SOL    HW129471   2.905   0.146   6.460 -1.2009  0.0980  0.6190
 6004SOL    HW229472   2.911   4.719   6.428 -0.9753 -0.6519 -1.7435
 6005SOL     OW29473   3.695   4.319  13.168 -0.1781 -0.0095  0.5843
 6005SOL    HW129474   3.693   4.405  13.125  0.5827  0.0645  0.6943
 6005SOL    HW229475   3.751   4.274  13.105 -0.0740 -0.7432  1.2086
 6006SOL     OW29476   1.004   3.184   6.166  0.0958  0.1754  0.3642
 6006SOL    HW129477   1.059   3.125   6.217 -2.8489 -1.7967  1.2750
 6006SOL    HW229478   0.971   3.224   6.247  0.1029 -0.2219  0.5611
 6007SOL     OW29479   0.751   4.499   1.190  0.7120 -0.4095 -0.2776
 6007SOL    HW129480   0.687   4.457   1.247 -1.1894  2.6189 -0.1648
 6007SOL    HW229481   0.827   4.479   1.243  0.1816  0.2834  0.7327
 6008SOL     OW29482   1.075   0.796   2.907  0.2044  0.2774 -0.5459
 6008SOL    HW129483   1.065   0.886   2.938 -0.6112  0.0882 -0.2514
 6008SOL    HW229484   1.160   0.806   2.864  0.5420  0.6078  0.2092
 6009SOL     OW29485   3.215   1.445   3.901 -0.2015  1.0498  0.2012
 6009SOL    HW129486   3.255   1.456   3.815 -2.3658 -2.4604 -1.2993
 6009SOL    HW229487   3.236   1.526   3.947  0.4249  0.3455  1.1593
 6010SOL     OW29488   0.446   3.569   7.213 -1.0405 -0.3050 -0.0676
 6010SOL    HW129489   0.449   3.474   7.198 -0.2717 -0.1061 -1.1745
 6010SOL    HW229490   0.489   3.598   7.133 -1.2667  0.6799  0.1644
 6011SOL     OW29491   2.407   3.374  14.476 -0.3840  0.2711 -0.5481
 6011SOL    HW129492   2.437   3.285  14.494  2.0873  1.1033 -0.4651
 6011SOL    HW229493   2.312   3.361  14.472 -0.5051  0.9473  0.0614
 6012SOL     OW29494   3.582   4.382   6.981 -0.1647  0.1293  0.1504
 6012SOL    HW129495   3.518   4.358   6.915  1.5998 -0.7826 -1.2388
 6012SOL    HW229496   3.546   4.328   7.052  0.3882 -1.5814 -0.8669
 6013SOL     OW29497   2.173   2.920   3.474 -0.1326  0.3212 -0.3344
 6013SOL    HW129498   2.258   2.942   3.513 -0.1029 -2.4661  1.1750
 6013SOL    HW229499   2.198   2.876   3.393  1.4964  1.6347 -0.5542
 6014SOL     OW29500   1.348   1.714   4.413 -0.2121  0.0227 -0.6377
 6014SOL    HW129501   1.270   1.753   4.452 -0.8146 -0.0405 -1.7896
 6014SOL    HW229502   1.413   1.784   4.402 -1.5457  1.7421  2.4040
 6015SOL     OW29503   1.404   3.213   2.274 -0.1862 -0.1002 -0.1955
 6015SOL    HW129504   1.323   3.231   2.322  0.2111 -0.0558  0.4559
 6015SOL    HW229505   1.462   3.257   2.337 -0.3139 -0.7262  0.3534
 6016SOL     OW29506   4.315   3.257   3.428 -0.2356  0.1944 -0.0178
 6016SOL    HW129507   4.367   3.287   3.503  0.0681  0.3088 -0.2763
 6016SOL    HW229508   4.317   3.337   3.375  0.4787  1.2222  1.5634
 6017SOL     OW29509   2.992   1.830  12.068 -0.1593 -0.2613 -0.2185
 6017SOL    HW129510   2.990   1.822  11.972  2.0137 -0.7570 -0.2081
 6017SOL    HW229511   3.081   1.795  12.073 -0.1254 -0.1801 -0.2653
 6018SOL     OW29512   2.213   0.591  14.507 -0.0100 -0.1355  0.1854
 6018SOL    HW129513   2.210   0.557  14.417 -1.3009 -0.6449  0.4213
 6018SOL    HW229514   2.141   0.654  14.507 -0.9653 -1.2092 -0.7556
 6019SOL     OW29515   1.588   3.249   6.203  0.2269  0.2538  0.2082
 6019SOL    HW129516   1.537   3.170   6.218  0.5584 -0.1830 -1.0034
 6019SOL    HW229517   1.581   3.260   6.109  1.6570  0.6514  0.1437
 6020SOL     OW29518   0.543   4.473   1.633 -0.0108 -0.1726 -0.4245
 6020SOL    HW129519   0.536   4.412   1.707  2.8742 -0.7635 -0.6309
 6020SOL    HW229520   0.600   4.425   1.572 -0.0340 -1.9167  0.9245
 6021SOL     OW29521   2.844   3.197   8.619 -0.5035 -0.0503 -0.8537
 6021SOL    HW129522   2.892   3.115   8.634  1.6920  1.6060  1.0075
 6021SOL    HW229523   2.778   3.194   8.688  1.2035  1.8994  0.8623
 6022SOL     OW29524   4.068   3.190  15.893  0.4217  0.1071  0.3190
 6022SOL    HW129525   4.042   3.150  15.810  1.7791  0.7063 -0.4042
 6022SOL    HW229526   4.007   3.264  15.887  0.1041 -0.1757  0.0302
 6023SOL     OW29527   3.581   2.468   5.981  0.1095 -0.2552 -0.0457
 6023SOL    HW129528   3.664   2.433   6.012 -0.5585 -0.6633  1.2509
 6023SOL    HW229529   3.602   2.562   5.977 -0.3092 -0.1576 -0.0203
 6024SOL     OW29530   1.776   0.565   6.617  0.2145  0.1482 -0.2915
 6024SOL    HW129531   1.700   0.601   6.570 -0.8971 -1.2618  0.3993
 6024SOL    HW229532   1.756   0.587   6.708 -1.0893  0.9998 -0.7782
 6025SOL     OW29533   3.326   2.468  11.100 -0.1966  0.1853  0.3681
 6025SOL    HW129534   3.374   2.540  11.141 -0.2081  1.0040 -1.0843
 6025SOL    HW229535   3.289   2.514  11.025  0.0895  2.4898  1.6463
 6026SOL     OW29536   0.535   4.561   3.999  0.2533 -0.3628  0.2910
 6026SOL    HW129537   0.529   4.468   4.022 -1.8867  0.1471  1.8236
 6026SOL    HW229538   0.451   4.591   4.035 -0.7933 -1.0154 -1.5584
 6027SOL     OW29539   2.878   4.628   7.081  0.1796 -0.0156 -0.4643
 6027SOL    HW129540   2.912   4.653   7.166 -0.2182  0.7551 -0.5274
 6027SOL    HW229541   2.872   4.717   7.046 -2.4613 -0.5039 -1.3268
 6028SOL     OW29542   2.694   3.198   7.155  0.7481 -0.2633  0.4075
 6028SOL    HW129543   2.658   3.117   7.118 -1.1144  0.2831  0.9914
 6028SOL    HW229544   2.638   3.263   7.113  0.3890 -0.1947  0.9785
 6029SOL     OW29545   4.087   1.892   1.722 -0.5486  0.4016 -0.3138
 6029SOL    HW129546   4.132   1.907   1.806 -0.1234 -0.8649 -0.3222
 6029SOL    HW229547   4.042   1.974   1.699  0.4201  0.7902 -0.8320
 6030SOL     OW29548   2.400   0.125   0.881 -0.6503 -0.0192 -0.1507
 6030SOL    HW129549   2.408   0.120   0.977 -2.6554  1.5259  0.1120
 6030SOL    HW229550   2.464   0.188   0.851 -1.9158  1.2031 -0.2915
 6031SOL     OW29551   1.788   3.438   4.686 -0.2053  0.0345 -0.4328
 6031SOL    HW129552   1.722   3.375   4.715  2.3030 -1.5013  1.9395
 6031SOL    HW229553   1.859   3.427   4.749 -0.1376  0.1460 -0.4893
 6032SOL     OW29554   1.438   3.079   5.245  0.0942  0.4623 -0.3667
 6032SOL    HW129555   1.396   3.094   5.160 -0.5056  4.6315  0.6579
 6032SOL    HW229556   1.524   3.113   5.219  0.4364 -0.6914 -0.7471
 6033SOL     OW29557   0.437   0.107  12.639  0.5264 -0.2619 -0.0033
 6033SOL    HW129558   0.367   0.159  12.599  1.9485 -0.0720 -2.2528
 6033SOL    HW229559   0.511   0.149  12.597  1.1534  0.5658  1.9333
 6034SOL     OW29560   3.470   1.018   3.295 -0.4234  0.6482  0.4784
 6034SOL    HW129561   3.540   0.972   3.342 -0.8782 -1.2283 -0.6848
 6034SOL    HW229562   3.496   1.006   3.203  0.6827  2.8286  0.4931
 6035SOL     OW29563   0.032   4.369   8.905  0.3942 -0.4243  0.1705
 6035SOL    HW129564   4.695   4.394   8.832  0.5886  0.0746  0.1886
 6035SOL    HW229565   4.685   4.331   8.961  0.7720 -1.2190  0.0846
 6036SOL     OW29566   3.958   1.619   8.084  0.7840 -0.0437 -0.1721
 6036SOL    HW129567   3.952   1.623   8.179  1.8248 -0.3370 -0.0936
 6036SOL    HW229568   4.023   1.553   8.060 -0.6005 -1.3393 -0.3474
 6037SOL     OW29569   1.231   0.005   7.593 -0.6199 -0.2802  0.1955
 6037SOL    HW129570   1.203   4.634   7.585 -0.3227 -0.1665 -2.1201
 6037SOL    HW229571   1.229   0.040   7.504  1.0333 -1.7997 -0.4333
 6038SOL     OW29572   4.117   3.125  15.584  0.1402  0.6088  0.0786
 6038SOL    HW129573   4.065   3.050  15.555 -0.9621  1.9971 -1.5773
 6038SOL    HW229574   4.061   3.202  15.572  3.0237  2.5689 -0.5747
 6039SOL     OW29575   2.913   4.386  11.159 -0.1823 -0.2337 -0.2050
 6039SOL    HW129576   2.865   4.374  11.240 -0.2555  1.6592  0.0315
 6039SOL    HW229577   2.985   4.324  11.175  0.9398  0.6065 -1.9216
 6040SOL     OW29578   1.671   3.543  12.906  0.7929  0.0449 -0.0234
 6040SOL    HW129579   1.696   3.455  12.876 -2.9996 -0.4188 -1.8710
 6040SOL    HW229580   1.754   3.589  12.899  1.3605 -1.0853 -0.6899
 6041SOL     OW29581   4.694   2.483   6.510  0.2210 -0.2461 -0.8108
 6041SOL    HW129582   4.685   2.510   6.601 -0.5328  0.7273 -1.1672
 6041SOL    HW229583   0.002   2.568   6.477  0.6150 -0.6700 -1.5671
 6042SOL     OW29584   2.353   1.599   7.553 -0.3400 -0.1784 -0.8787
 6042SOL    HW129585   2.432   1.572   7.600 -1.6358 -1.2073  0.6881
 6042SOL    HW229586   2.335   1.518   7.505  1.6675 -0.4531 -1.1879
 6043SOL     OW29587   0.253   0.757   7.787 -0.2745 -0.0781  0.2641
 6043SOL    HW129588   0.174   0.736   7.837 -0.4728  0.7925  0.3263
 6043SOL    HW229589   0.322   0.709   7.832 -0.7270 -1.0136 -0.0508
 6044SOL     OW29590   1.814   4.581   8.285 -0.1259  0.0933 -0.0276
 6044SOL    HW129591   1.807   4.530   8.366  0.2620  0.4364  0.2199
 6044SOL    HW229592   1.722   4.603   8.268  0.6000  2.9846 -0.1492
 6045SOL     OW29593   0.748   1.450   9.166 -0.4991  0.0623  0.2323
 6045SOL    HW129594   0.729   1.487   9.253  0.1836 -0.2708  0.5271
 6045SOL    HW229595   0.842   1.469   9.165 -0.4900 -0.0274 -0.4140
 6046SOL     OW29596   0.187   0.203   6.415  0.4765  0.1940 -0.4968
 6046SOL    HW129597   0.272   0.243   6.430 -0.0308  0.9397  0.3713
 6046SOL    HW229598   0.220   0.122   6.375  3.3070  1.6508 -1.0623
 6047SOL     OW29599   2.258   0.029  10.331 -0.6403  0.0305 -0.2258
 6047SOL    HW129600   2.270   0.080  10.412 -1.3508  2.3537 -1.5841
 6047SOL    HW229601   2.220   4.679  10.384  0.4372 -0.5827 -0.2538
 6048SOL     OW29602   1.209   0.825   8.701 -0.0774 -0.5471  0.1567
 6048SOL    HW129603   1.261   0.844   8.778  2.9899 -2.5697 -1.3859
 6048SOL    HW229604   1.119   0.832   8.731 -0.0890 -2.0194  0.4549
 6049SOL     OW29605   2.789   3.995   8.231 -0.7814 -0.4993 -0.0232
 6049SOL    HW129606   2.790   4.077   8.282 -0.8861 -0.9044  0.6265
 6049SOL    HW229607   2.744   4.023   8.151 -1.7241  1.2577  1.1209
 6050SOL     OW29608   1.491   1.067   5.180 -0.1099 -0.0994  0.1421
 6050SOL    HW129609   1.536   1.019   5.111  1.5075 -0.7020  1.5934
 6050SOL    HW229610   1.402   1.049   5.150 -0.7142  2.4517  0.3368
 6051SOL     OW29611   1.318   4.627  14.409 -0.3471 -0.4245 -0.6442
 6051SOL    HW129612   1.387   4.602  14.348  1.0592 -1.9659  1.5927
 6051SOL    HW229613   1.358   4.674  14.482 -2.3500 -2.9890  2.1001
 6052SOL     OW29614   0.416   2.390   7.918 -0.0480  0.2056  0.5505
 6052SOL    HW129615   0.420   2.355   8.007 -0.4941 -1.1962  0.0109
 6052SOL    HW229616   0.478   2.329   7.878 -3.1000 -2.7510  0.3238
 6053SOL     OW29617   3.627   3.886   5.266 -0.0840 -0.0805  0.0037
 6053SOL    HW129618   3.567   3.931   5.325  0.8803  1.4595 -0.1893
 6053SOL    HW229619   3.601   3.919   5.180 -0.3117 -2.4581 -0.8243
 6054SOL     OW29620   2.231   0.626   6.910  0.0437 -0.4297  0.0524
 6054SOL    HW129621   2.187   0.658   6.831 -0.4527 -1.3560 -0.0540
 6054SOL    HW229622   2.156   0.640   6.968  0.1991 -0.1214  0.1802
 6055SOL     OW29623   4.397   1.306   5.198 -0.4674  0.1591  0.3156
 6055SOL    HW129624   4.389   1.216   5.169 -0.7794 -0.7896  3.3155
 6055SOL    HW229625   4.391   1.352   5.114  0.0266 -1.2334 -0.4705
 6056SOL     OW29626   2.678   3.792  10.635 -0.2594 -0.2303 -0.0135
 6056SOL    HW129627   2.761   3.777  10.681  0.0526  2.9780  0.4335
 6056SOL    HW229628   2.635   3.848  10.699  0.9492 -0.0555  0.6493
 6057SOL     OW29629   3.782   0.819  12.663 -0.2297  0.0673  0.1814
 6057SOL    HW129630   3.878   0.820  12.667 -0.2872 -0.3559  1.6394
 6057SOL    HW229631   3.781   0.913  12.644 -2.4545  0.3388  1.6908
 6058SOL     OW29632   2.099   0.716   8.385  0.0620  0.2771  0.1416
 6058SOL    HW129633   2.020   0.685   8.429 -0.0391  0.4113  0.0549
 6058SOL    HW229634   2.061   0.758   8.307  0.2426 -0.7083 -0.4839
 6059SOL     OW29635   0.693   2.319   4.904 -0.0524 -0.7755  0.2748
 6059SOL    HW129636   0.678   2.231   4.937  1.1394 -0.8925  0.4742
 6059SOL    HW229637   0.654   2.364   4.979 -2.0900 -0.9761 -0.6537
 6060SOL     OW29638   2.767   1.710   3.381  0.3374  0.5840 -0.4319
 6060SOL    HW129639   2.764   1.635   3.440 -2.5689  1.5734  0.6558
 6060SOL    HW229640   2.810   1.669   3.305  0.8205  0.1758  0.0608
 6061SOL     OW29641   3.951   0.205   6.196  0.2195  0.0415  0.4003
 6061SOL    HW129642   4.009   0.271   6.233  0.2974  0.6619 -0.8601
 6061SOL    HW229643   3.892   0.251   6.136  1.5163  0.8004 -0.2917
 6062SOL     OW29644   4.458   2.950   1.226 -0.4125  0.4439  0.1437
 6062SOL    HW129645   4.510   3.011   1.278  1.1121 -0.8828  0.1763
 6062SOL    HW229646   4.387   2.928   1.286 -1.0542 -1.2163 -1.2204
 6063SOL     OW29647   0.341   3.920  10.360 -0.1616  0.0931  0.4819
 6063SOL    HW129648   0.382   3.928  10.446 -0.1626 -1.5673  0.6480
 6063SOL    HW229649   0.421   3.930  10.308 -1.5461  0.5705 -1.5564
 6064SOL     OW29650   0.143   2.067   7.034 -0.0162 -0.2622  0.0646
 6064SOL    HW129651   0.193   1.991   7.065 -0.1292  0.3692  1.7955
 6064SOL    HW229652   0.101   2.030   6.957 -0.2273  1.1159 -0.4709
 6065SOL     OW29653   0.277   0.461  15.105 -0.3253 -0.3060  0.4941
 6065SOL    HW129654   0.279   0.409  15.185 -0.5087 -0.5346  0.3509
 6065SOL    HW229655   0.316   0.393  15.050 -0.9407 -0.6558  0.4881
 6066SOL     OW29656   0.703   3.889  11.247 -0.6197 -0.2429  0.1570
 6066SOL    HW129657   0.764   3.930  11.309 -2.3602  3.3726 -0.5469
 6066SOL    HW229658   0.764   3.823  11.213  1.5304  1.8067  0.0591
 6067SOL     OW29659   3.955   3.008  11.109 -0.4087  0.2053  0.0656
 6067SOL    HW129660   4.019   3.078  11.099 -1.2151  0.3740 -3.7298
 6067SOL    HW229661   3.971   2.951  11.034 -1.5544 -0.2107  0.1426
 6068SOL     OW29662   1.069   4.187   6.532  0.1045  0.7669  0.1352
 6068SOL    HW129663   1.149   4.219   6.572  0.7334 -0.3180 -0.2595
 6068SOL    HW229664   1.002   4.209   6.597 -0.7759 -3.3016  0.5831
 6069SOL     OW29665   1.642   2.815   3.586  0.0752  0.1294 -0.5195
 6069SOL    HW129666   1.675   2.732   3.553 -0.6477  0.1440 -1.2766
 6069SOL    HW229667   1.701   2.828   3.660  1.0412 -1.2049 -1.0736
 6070SOL     OW29668   3.788   2.053   1.399 -0.1764 -0.6480  0.0970
 6070SOL    HW129669   3.714   2.007   1.438 -1.5447  1.8436  0.4561
 6070SOL    HW229670   3.787   2.127   1.459  1.1889 -0.2741 -0.3350
 6071SOL     OW29671   1.640   2.906   5.663  0.5608 -0.1799  0.0922
 6071SOL    HW129672   1.715   2.869   5.709  1.7292 -0.1337 -1.7603
 6071SOL    HW229673   1.599   2.825   5.631  1.5566 -1.0237  0.9726
 6072SOL     OW29674   4.327   1.057   7.518 -0.4076  0.4724 -0.0680
 6072SOL    HW129675   4.282   1.007   7.451 -0.0817  2.0385 -1.4697
 6072SOL    HW229676   4.296   1.011   7.596 -0.8143 -0.9469 -1.0756
 6073SOL     OW29677   0.813   4.059   6.209  0.2547 -0.3948 -0.0225
 6073SOL    HW129678   0.860   4.041   6.127 -0.1011  0.9070 -0.5185
 6073SOL    HW229679   0.868   4.135   6.229  0.5133 -0.7958  0.7697
 6074SOL     OW29680   2.609   0.358   5.441  0.6639  0.2141  0.3155
 6074SOL    HW129681   2.614   0.454   5.443  4.3839  0.0139  0.7321
 6074SOL    HW229682   2.667   0.321   5.374  0.3389 -0.8198  0.6091
 6075SOL     OW29683   0.318   0.065   6.910 -0.3377  0.6213  0.0858
 6075SOL    HW129684   0.269   0.096   6.834 -1.3490  0.3503  0.6303
 6075SOL    HW229685   0.331   4.695   6.880 -2.3257 -0.0197  1.2125
 6076SOL     OW29686   2.291   1.554   5.555 -0.2718  0.4962 -0.0149
 6076SOL    HW129687   2.278   1.492   5.482 -1.7603  2.6142 -1.5471
 6076SOL    HW229688   2.285   1.646   5.530 -0.3729  0.0923 -1.5203
 6077SOL     OW29689   3.935   0.038  14.592  0.1822 -0.5403 -0.2556
 6077SOL    HW129690   3.986   0.039  14.511 -1.1679 -0.3383 -1.1127
 6077SOL    HW229691   3.857   4.705  14.574 -0.3064 -0.0161  0.3185
 6078SOL     OW29692   2.252   0.082   3.578 -0.1542 -0.1449  0.0221
 6078SOL    HW129693   2.241   0.155   3.518  1.1332  0.6799  0.7914
 6078SOL    HW229694   2.178   0.092   3.638  0.3047 -2.4966  0.9862
 6079SOL     OW29695   1.790   3.713  11.848  0.0203  0.2928 -0.3225
 6079SOL    HW129696   1.813   3.667  11.767  1.1710 -0.2546  0.3250
 6079SOL    HW229697   1.699   3.695  11.872  0.3494 -1.0310 -0.0751
 6080SOL     OW29698   1.550   1.041   8.199 -0.0718 -0.4264 -0.7579
 6080SOL    HW129699   1.487   1.067   8.266  3.1609  1.5096  1.5643
 6080SOL    HW229700   1.626   1.022   8.254  0.4118  2.7156 -0.3479
 6081SOL     OW29701   2.919   4.453   4.532 -0.1858  0.3232 -0.4541
 6081SOL    HW129702   2.862   4.476   4.459 -0.8699 -0.0286 -0.0412
 6081SOL    HW229703   2.870   4.400   4.596 -0.3790  1.2553  0.1742
 6082SOL     OW29704   0.947   0.510   4.655 -0.1228 -0.1891 -0.5100
 6082SOL    HW129705   0.983   0.578   4.598 -0.1386 -0.2063 -0.5406
 6082SOL    HW229706   0.856   0.502   4.626 -0.3695  1.7942 -0.2695
 6083SOL     OW29707   3.716   0.216   1.940 -0.1643  0.4781 -0.0690
 6083SOL    HW129708   3.724   0.232   2.034  1.1617 -0.9969  0.0638
 6083SOL    HW229709   3.644   0.276   1.918 -0.3485 -0.1025 -1.0842
 6084SOL     OW29710   4.659   2.874  17.149 -0.2556 -0.1328  0.1836
 6084SOL    HW129711   4.715   2.879  17.071 -0.7372  0.0347 -0.1488
 6084SOL    HW229712   4.577   2.882  17.100 -0.8492  0.2833  1.2556
 6085SOL     OW29713   4.269   3.484   1.433 -0.6558  0.6400 -0.0764
 6085SOL    HW129714   4.229   3.397   1.442  0.7303 -0.0438 -0.6417
 6085SOL    HW229715   4.320   3.481   1.352 -0.0981 -1.5902  0.3380
 6086SOL     OW29716   1.883   3.357   2.810 -0.0702 -0.1903 -0.2403
 6086SOL    HW129717   1.794   3.360   2.846 -0.6251 -1.1021 -1.5475
 6086SOL    HW229718   1.924   3.413   2.877  0.3213  1.2000 -1.6430
 6087SOL     OW29719   0.555   3.312   1.646 -0.3361 -0.1192  0.0406
 6087SOL    HW129720   0.471   3.301   1.602  0.6458 -0.1683 -1.8547
 6087SOL    HW229721   0.611   3.254   1.593  0.3396 -0.2140  0.8579
 6088SOL     OW29722   4.088   2.552   3.631 -0.1593 -0.3546 -0.7121
 6088SOL    HW129723   4.000   2.535   3.596 -0.0289  2.3066 -2.3430
 6088SOL    HW229724   4.140   2.523   3.556 -0.0629 -1.1763 -0.3211
 6089SOL     OW29725   3.110   0.744   5.666  0.2199  0.0494 -0.1686
 6089SOL    HW129726   3.174   0.677   5.642 -1.1836 -1.3008 -0.1778
 6089SOL    HW229727   3.133   0.822   5.616  2.1669  0.2383  0.9976
 6090SOL     OW29728   0.915   0.922   8.530 -0.3294 -0.0662 -0.2787
 6090SOL    HW129729   0.886   0.915   8.621  2.4448  1.0462  0.7097
 6090SOL    HW229730   0.941   1.015   8.528 -1.2944  0.1918 -1.0785
 6091SOL     OW29731   2.748   1.212  16.943 -0.2608 -0.0326  0.6324
 6091SOL    HW129732   2.679   1.217  16.878  1.4050 -0.3894 -1.1544
 6091SOL    HW229733   2.754   1.306  16.963  1.2238  0.5652 -2.5384
 6092SOL     OW29734   3.901   1.493   6.108 -0.2774  0.1619 -0.2752
 6092SOL    HW129735   3.883   1.410   6.153  2.3494 -0.0871  0.3210
 6092SOL    HW229736   3.977   1.463   6.059  2.1853  0.5232  3.3461
 6093SOL     OW29737   3.782   3.332  12.479  0.4686  0.2351  0.3618
 6093SOL    HW129738   3.704   3.387  12.479  0.2468 -0.0677 -0.3549
 6093SOL    HW229739   3.743   3.248  12.501 -0.6655  0.5774 -0.3424
 6094SOL     OW29740   0.373   3.113   4.144 -0.1317 -0.0940 -1.0608
 6094SOL    HW129741   0.390   3.187   4.085  1.0651  0.6120  0.1869
 6094SOL    HW229742   0.425   3.044   4.102  2.9014  1.3982  0.1842
 6095SOL     OW29743   1.100   1.047   9.369 -0.3015 -0.4095  0.5493
 6095SOL    HW129744   1.071   1.138   9.372  0.7578 -0.1316  2.2913
 6095SOL    HW229745   1.179   1.060   9.420  0.1867  2.2396 -0.9128
 6096SOL     OW29746   4.106   2.550   8.817 -0.7185  0.1445  0.4335
 6096SOL    HW129747   4.136   2.575   8.904  0.3975 -1.8556  0.6277
 6096SOL    HW229748   4.189   2.566   8.771 -1.3199 -1.3650 -1.1718
 6097SOL     OW29749   3.713   2.024   5.159 -0.0428  0.2378  0.5634
 6097SOL    HW129750   3.799   1.986   5.178 -1.3702 -2.4481  1.1113
 6097SOL    HW229751   3.718   2.013   5.064 -2.1304 -0.0947  0.5148
 6098SOL     OW29752   0.141   3.793  14.733 -0.5078 -0.9324  0.1271
 6098SOL    HW129753   0.187   3.841  14.802 -1.1003 -0.2775  0.0697
 6098SOL    HW229754   0.098   3.720  14.777 -0.5210 -0.7932  0.3430
 6099SOL     OW29755   1.394   2.222  11.564  0.3436  0.5454  0.1217
 6099SOL    HW129756   1.464   2.281  11.534  1.1153 -0.4722 -0.0968
 6099SOL    HW229757   1.415   2.153  11.501 -0.8638 -0.0813  0.4099
 6100SOL     OW29758   0.064   0.389   5.641 -0.2782  0.5496 -0.0749
 6100SOL    HW129759   0.073   0.483   5.629  1.0829  0.2552 -1.2836
 6100SOL    HW229760   0.098   0.360   5.556 -1.3822 -2.2478  0.4307
 6101SOL     OW29761   2.643   3.576   8.592  0.8169 -0.5271  0.4614
 6101SOL    HW129762   2.567   3.597   8.646  1.5090 -0.9205  1.5965
 6101SOL    HW229763   2.662   3.487   8.622  1.2427 -0.5341  0.1689
 6102SOL     OW29764   1.978   1.064  16.513  0.1004  0.1800  0.3615
 6102SOL    HW129765   2.012   1.147  16.547 -0.3315  0.9341 -1.0705
 6102SOL    HW229766   1.918   1.036  16.583  0.4366 -2.9732 -0.5999
 6103SOL     OW29767   1.280   0.349   5.951  0.3038 -0.3467  0.2518
 6103SOL    HW129768   1.300   0.319   6.039 -0.7304  3.0543  1.6646
 6103SOL    HW229769   1.252   0.270   5.904 -2.8792  0.7787  0.2341
 6104SOL     OW29770   3.792   2.857   6.323 -0.2901  0.1580  0.1796
 6104SOL    HW129771   3.790   2.771   6.365 -2.6917 -0.6798 -1.6395
 6104SOL    HW229772   3.762   2.916   6.392  1.5857  1.3462 -0.0172
 6105SOL     OW29773   4.019   4.149   5.983  0.0644 -0.5220  0.2331
 6105SOL    HW129774   4.006   4.137   6.077  1.2736 -0.0645  0.4676
 6105SOL    HW229775   4.053   4.065   5.951  1.0967  0.4442 -1.2591
 6106SOL     OW29776   4.510   4.327   8.023  0.3130 -0.7637  0.0592
 6106SOL    HW129777   4.510   4.423   8.023  0.2415 -0.7641  2.8485
 6106SOL    HW229778   4.452   4.300   8.094  0.0605  0.2152  0.2283
 6107SOL     OW29779   0.655   0.555   1.544 -0.3484  0.0812  0.0528
 6107SOL    HW129780   0.654   0.562   1.449 -0.7515  0.3455  0.0769
 6107SOL    HW229781   0.741   0.588   1.569 -0.6568 -1.8006  3.6194
 6108SOL     OW29782   2.160   2.931   2.977 -0.2929  0.3670 -0.1733
 6108SOL    HW129783   2.123   3.018   2.963  1.9776  1.4395  0.6126
 6108SOL    HW229784   2.201   2.901   2.895  2.2015  3.0729  0.0877
 6109SOL     OW29785   4.392   4.611   7.755 -0.4026 -0.0727 -0.0483
 6109SOL    HW129786   4.418   4.600   7.846 -1.2514 -1.9747 -0.0289
 6109SOL    HW229787   4.476   4.586   7.715  1.2923  0.6539  3.0145
 6110SOL     OW29788   2.552   4.603   5.649  0.4401  0.0728  0.0484
 6110SOL    HW129789   2.566   4.548   5.573  2.7395  0.7019 -0.0050
 6110SOL    HW229790   2.644   4.601   5.678  0.4878  2.3020  0.0338
 6111SOL     OW29791   4.548   1.125   8.346 -0.0013  0.2536 -0.7358
 6111SOL    HW129792   4.594   1.057   8.296 -0.0132  0.4531 -1.0136
 6111SOL    HW229793   4.619   1.188   8.358  1.0439 -1.1808  0.6298
 6112SOL     OW29794   3.617   2.680   1.451  0.1661 -0.2072 -1.5229
 6112SOL    HW129795   3.624   2.754   1.512  0.7703 -0.4276 -1.3258
 6112SOL    HW229796   3.648   2.723   1.372 -0.5095  1.1305 -1.0511
 6113SOL     OW29797   0.397   0.058   2.366  0.7100 -0.3088 -0.0483
 6113SOL    HW129798   0.396   0.093   2.277 -0.5568 -1.4771 -0.4994
 6113SOL    HW229799   0.487   0.025   2.378  0.7474 -0.3740 -0.5333
 6114SOL     OW29800   3.709   0.732  15.404 -0.8639  0.9380  0.3625
 6114SOL    HW129801   3.643   0.671  15.370  0.1110  0.1448 -0.0866
 6114SOL    HW229802   3.710   0.706  15.496  2.5638  0.5455  0.2038
 6115SOL     OW29803   2.798   3.541   0.424  0.3750  0.0326  0.1840
 6115SOL    HW129804   2.723   3.601   0.419 -1.1173 -1.8459 -0.3640
 6115SOL    HW229805   2.782   3.485   0.347 -1.6010 -0.8260  1.2050
 6116SOL     OW29806   3.773   1.385   0.890  0.4829 -0.1287  0.3519
 6116SOL    HW129807   3.792   1.349   0.976 -0.3426  0.6151  0.8513
 6116SOL    HW229808   3.723   1.315   0.848 -0.0916 -0.6037  1.8315
 6117SOL     OW29809   3.693   2.577   3.068 -0.7325  0.3314 -0.3197
 6117SOL    HW129810   3.787   2.559   3.069 -0.4690  1.7190  0.4361
 6117SOL    HW229811   3.689   2.650   3.006  0.3754  0.5335 -0.1534
 6118SOL     OW29812   1.769   0.790   0.516 -0.1198 -0.1450 -0.2630
 6118SOL    HW129813   1.728   0.725   0.458  1.9676  0.2181 -2.1138
 6118SOL    HW229814   1.859   0.782   0.484  0.7894  0.3540  2.1984
 6119SOL     OW29815   1.916   3.314  13.880  0.6132 -0.5283  0.3649
 6119SOL    HW129816   1.975   3.389  13.866  0.2178 -0.4783 -1.0690
 6119SOL    HW229817   1.866   3.309  13.799  0.9521 -0.2581  0.1364
 6120SOL     OW29818   0.003   2.479   3.566  0.0329  0.2408 -0.2444
 6120SOL    HW129819   4.696   2.387   3.566 -0.1276  0.2877 -1.0781
 6120SOL    HW229820   0.098   2.476   3.577  0.2171 -0.5354 -2.1338
 6121SOL     OW29821   3.358   3.194   5.451  0.3097 -0.1498  0.0744
 6121SOL    HW129822   3.431   3.181   5.512  1.3809  1.7006 -0.8037
 6121SOL    HW229823   3.373   3.285   5.423 -2.3505  0.5164  0.7796
 6122SOL     OW29824   3.005   3.275   5.039  0.2173 -0.3676 -0.0242
 6122SOL    HW129825   2.989   3.189   5.078  0.6249  0.1724  1.3463
 6122SOL    HW229826   3.099   3.282   5.027  0.4978 -0.7814  1.9597
 6123SOL     OW29827   2.950   2.874   2.471  0.1004  0.6292 -0.2980
 6123SOL    HW129828   2.875   2.931   2.460  0.9890  2.0445  1.0155
 6123SOL    HW229829   2.910   2.792   2.442 -0.4445  0.3397  1.2702
 6124SOL     OW29830   4.704   1.473  14.963  0.1060  0.0844 -0.1584
 6124SOL    HW129831   4.677   1.417  15.035  1.3148 -0.4068 -0.0879
 6124SOL    HW229832   4.699   1.558  15.007  0.0289  0.5491 -1.0561
 6125SOL     OW29833   3.764   1.073   4.063 -0.1125  0.3322  0.6906
 6125SOL    HW129834   3.797   1.153   4.104  1.2841  0.3278 -0.4149
 6125SOL    HW229835   3.683   1.108   4.026  0.0151  0.8112  0.8614
 6126SOL     OW29836   3.350   1.366  17.247  0.4959 -0.2305  0.2718
 6126SOL    HW129837   3.269   1.405  17.213  0.8115  1.9974  2.1051
 6126SOL    HW229838   3.329   1.379  17.339 -2.0559 -0.1888 -0.3017
 6127SOL     OW29839   2.179   0.560   5.030  0.4658 -0.6308 -0.2345
 6127SOL    HW129840   2.130   0.630   4.986  1.2719 -1.1248 -1.9357
 6127SOL    HW229841   2.104   0.504   5.053 -0.6298  2.2418  3.1967
 6128SOL     OW29842   3.657   2.072   2.887  0.3094 -0.6513  0.4376
 6128SOL    HW129843   3.667   2.167   2.876 -1.9074 -0.4261  0.2366
 6128SOL    HW229844   3.564   2.056   2.869  0.4106 -1.6404  0.8234
 6129SOL     OW29845   2.612   4.149   2.121 -0.4927  0.0516 -0.2844
 6129SOL    HW129846   2.533   4.122   2.170 -0.9017 -1.9037 -2.0379
 6129SOL    HW229847   2.582   4.120   2.035  1.0086 -0.1435 -0.7341
 6130SOL     OW29848   1.036   1.202   2.288  0.0819 -0.2930  0.1339
 6130SOL    HW129849   0.950   1.161   2.296 -1.0495  2.0996  0.1284
 6130SOL    HW229850   1.080   1.165   2.365 -0.9461 -0.4384  0.6567
 6131SOL     OW29851   2.758   4.197   8.771 -0.4534 -0.0069 -0.0147
 6131SOL    HW129852   2.802   4.237   8.846  0.5914  0.2771 -0.7907
 6131SOL    HW229853   2.830   4.156   8.724 -1.2563 -2.3616  0.7820
 6132SOL     OW29854   4.140   1.030   8.588 -0.2131 -0.7004  0.1792
 6132SOL    HW129855   4.114   0.953   8.640 -1.0825 -0.6826 -0.2145
 6132SOL    HW229856   4.235   1.030   8.576 -0.2726 -0.0907 -0.2905
 6133SOL     OW29857   4.494   1.073  15.439 -0.3749  0.2620  0.1790
 6133SOL    HW129858   4.500   0.981  15.463 -2.3306 -0.1191 -0.8516
 6133SOL    HW229859   4.488   1.071  15.344  0.3512  1.5543  0.1058
 6134SOL     OW29860   4.346   2.938   3.966  0.1286 -0.2386  0.6145
 6134SOL    HW129861   4.353   2.868   3.902  2.8360 -1.9606  2.8100
 6134SOL    HW229862   4.323   3.012   3.910  3.2009 -0.0514 -0.4269
 6135SOL     OW29863   4.062   0.372  12.372 -0.3606  0.0389 -0.0452
 6135SOL    HW129864   4.073   0.314  12.448 -0.3704  0.9645  0.6525
 6135SOL    HW229865   4.154   0.398  12.371  0.1042 -1.5392  0.3591
 6136SOL     OW29866   4.235   1.853  15.964  0.2938  0.1774 -0.4578
 6136SOL    HW129867   4.218   1.852  16.058  2.1837 -0.4841 -0.1208
 6136SOL    HW229868   4.304   1.918  15.951 -0.0408  0.5951 -0.1564
 6137SOL     OW29869   0.762   2.821   1.806 -0.0909  0.0635 -0.2792
 6137SOL    HW129870   0.677   2.807   1.848 -0.0566  0.3598 -0.1103
 6137SOL    HW229871   0.789   2.907   1.839 -0.7671  0.4905 -0.8475
 6138SOL     OW29872   3.431   1.460  17.607 -0.6706 -0.3878  0.5482
 6138SOL    HW129873   3.432   1.474   0.018 -0.5765  0.2880  0.4459
 6138SOL    HW229874   3.439   1.364  17.603  0.2080 -0.2768 -0.4926
 6139SOL     OW29875   0.747   4.086   3.679  0.1520 -0.0511  0.7394
 6139SOL    HW129876   0.689   4.163   3.680  0.5420  0.2465  0.5629
 6139SOL    HW229877   0.832   4.118   3.651  0.2663 -0.0113  1.1270
 6140SOL     OW29878   2.511   2.080   5.743  0.1914 -0.2067 -0.4603
 6140SOL    HW129879   2.522   2.138   5.668 -0.6854  0.2586 -0.2353
 6140SOL    HW229880   2.598   2.046   5.762  0.3466 -0.8204 -2.2951
 6141SOL     OW29881   3.024   3.952   9.084  0.2876  0.2903 -0.2947
 6141SOL    HW129882   3.018   4.019   9.016 -0.4946  0.4808 -0.0333
 6141SOL    HW229883   3.027   4.007   9.163  1.0293  1.4456 -1.1229
 6142SOL     OW29884   3.526   4.055   4.752 -0.1601 -0.2511  0.1358
 6142SOL    HW129885   3.548   3.990   4.686 -2.7272  0.0793 -1.0630
 6142SOL    HW229886   3.471   4.109   4.695  0.5089 -1.2383 -1.4082
 6143SOL     OW29887   2.487   0.556   1.852  0.0638 -0.5151 -0.1861
 6143SOL    HW129888   2.527   0.643   1.858 -1.7436  0.3069  0.0190
 6143SOL    HW229889   2.528   0.506   1.923 -2.9653 -0.7147  1.4013
 6144SOL     OW29890   4.135   2.874  16.920 -0.7089  0.2675  0.1899
 6144SOL    HW129891   4.059   2.871  16.862  0.2964 -0.3736 -1.0868
 6144SOL    HW229892   4.087   2.883  17.003  1.5972  1.1491  1.4139
 6145SOL     OW29893   1.704   2.974   3.356 -0.2496  0.0683  0.4067
 6145SOL    HW129894   1.648   2.973   3.433 -0.2524  1.8540  0.4394
 6145SOL    HW229895   1.658   2.911   3.300  0.6086  0.4810 -0.7650
 6146SOL     OW29896   4.123   3.187  10.997  0.1636 -0.2301  0.0895
 6146SOL    HW129897   4.139   3.272  11.038  2.1759 -0.2532 -0.6653
 6146SOL    HW229898   4.208   3.157  10.966  0.6026  0.2947  0.8137
 6147SOL     OW29899   2.812   2.338   7.017  0.1590 -0.1169  0.5011
 6147SOL    HW129900   2.894   2.325   7.064 -0.6437 -1.9034  1.4405
 6147SOL    HW229901   2.756   2.262   7.034  1.4353 -1.0514  0.5478
 6148SOL     OW29902   3.556   1.224   3.985  0.8067 -0.1332  0.5100
 6148SOL    HW129903   3.482   1.217   3.925  0.6229 -1.6594  0.9089
 6148SOL    HW229904   3.527   1.288   4.050  0.1644 -1.1426  1.2379
 6149SOL     OW29905   4.655   1.234   1.586  0.0370 -0.0221  0.2790
 6149SOL    HW129906   4.568   1.266   1.611 -0.5709 -2.1164  0.8585
 6149SOL    HW229907   4.654   1.256   1.493  1.0146  1.3177  0.5886
 6150SOL     OW29908   2.703   1.011   7.692 -0.1434 -0.3174 -0.0934
 6150SOL    HW129909   2.631   1.021   7.631  1.6350 -1.9428 -2.4429
 6150SOL    HW229910   2.659   1.043   7.771 -0.0598 -0.6401  0.0838
 6151SOL     OW29911   0.672   1.035   2.495 -0.2314 -0.2773 -0.0147
 6151SOL    HW129912   0.580   1.028   2.520 -0.4304 -1.9883 -1.2920
 6151SOL    HW229913   0.730   1.039   2.572  0.9081 -0.6951 -0.8485
 6152SOL     OW29914   1.197   1.567   9.892  0.0929  0.0397  0.3344
 6152SOL    HW129915   1.110   1.544   9.857 -0.2280 -0.2327  1.3194
 6152SOL    HW229916   1.183   1.587   9.985  0.1000  3.0975 -0.3105
 6153SOL     OW29917   2.384   3.005   8.659 -0.1015 -0.2676  0.3254
 6153SOL    HW129918   2.395   2.967   8.746  0.5942  0.2784  0.4769
 6153SOL    HW229919   2.382   3.096   8.690 -0.9373 -0.0372 -0.3837
 6154SOL     OW29920   4.462   1.888   1.455 -0.1275 -0.2986 -0.3434
 6154SOL    HW129921   4.557   1.883   1.464  0.0232  2.0155 -0.5511
 6154SOL    HW229922   4.431   1.921   1.540 -0.6560 -0.2725 -0.5459
 6155SOL     OW29923   0.469   0.977   8.008 -0.2854  0.2588 -0.3546
 6155SOL    HW129924   0.526   0.960   7.932 -0.2704  0.3310 -0.3603
 6155SOL    HW229925   0.509   1.057   8.042 -0.1534 -0.7201  1.7930
 6156SOL     OW29926   1.795   1.628  15.792  0.0733 -0.4175 -0.1368
 6156SOL    HW129927   1.719   1.686  15.800  1.7008  1.2340  3.1361
 6156SOL    HW229928   1.860   1.699  15.789  0.2672 -0.5375  1.3708
 6157SOL     OW29929   1.845   1.045  10.905 -0.4043  0.1967  0.3537
 6157SOL    HW129930   1.808   1.041  10.993 -0.9996  1.4853  0.1591
 6157SOL    HW229931   1.917   1.108  10.910 -0.4243  0.1858  0.7834
 6158SOL     OW29932   2.370   4.578   9.440 -0.3665  0.1851 -0.8239
 6158SOL    HW129933   2.433   4.554   9.372 -1.1372 -0.9389 -1.1499
 6158SOL    HW229934   2.432   4.582   9.513 -0.4524 -4.1059 -0.5068
 6159SOL     OW29935   3.163   1.035   7.126 -0.3569 -0.6689  0.1138
 6159SOL    HW129936   3.173   0.995   7.212 -0.5624 -0.8437  0.0558
 6159SOL    HW229937   3.079   1.081   7.133 -1.7215 -3.5240  2.5903
 6160SOL     OW29938   0.169   0.438  14.706  0.0084  0.1310 -0.2811
 6160SOL    HW129939   0.228   0.509  14.680 -2.0807  1.4530 -1.4141
 6160SOL    HW229940   0.227   0.375  14.749 -0.1133  0.1971 -0.0202
 6161SOL     OW29941   3.310   2.976   3.528 -0.0235 -0.0918 -0.1258
 6161SOL    HW129942   3.351   2.974   3.614  0.4737 -1.0436 -0.3875
 6161SOL    HW229943   3.373   2.938   3.467 -1.0531  1.7904 -2.3827
 6162SOL     OW29944   3.615   1.619  15.162 -0.8837 -0.0084  0.1466
 6162SOL    HW129945   3.702   1.613  15.201 -0.1320 -1.6560 -1.7633
 6162SOL    HW229946   3.621   1.542  15.106 -1.2841  0.4199 -0.4888
 6163SOL     OW29947   3.315   4.715   9.295  0.1919  0.3124  0.5543
 6163SOL    HW129948   3.379   0.056   9.329 -0.4634  1.9180 -1.0947
 6163SOL    HW229949   3.239   0.034   9.338  1.1847  0.5861  2.0511
 6164SOL     OW29950   2.832   3.678   7.496  0.0648  0.1649 -0.2432
 6164SOL    HW129951   2.754   3.733   7.500 -1.3788 -1.9377  0.5161
 6164SOL    HW229952   2.790   3.602   7.456  1.0484 -0.5189  0.0164
 6165SOL     OW29953   3.231   4.159   7.965 -0.1419 -0.0253 -0.6176
 6165SOL    HW129954   3.233   4.155   8.061 -0.0428  3.2370 -0.4889
 6165SOL    HW229955   3.310   4.109   7.946 -0.9529 -0.7653 -1.9866
 6166SOL     OW29956   2.715   1.961  16.098  0.5689  0.1132 -0.6002
 6166SOL    HW129957   2.668   2.028  16.048 -1.7359 -0.0802  1.2997
 6166SOL    HW229958   2.655   1.888  16.085  0.3848  0.4570 -1.6592
 6167SOL     OW29959   2.445   4.374   6.065 -0.0716 -0.6232 -0.3506
 6167SOL    HW129960   2.524   4.334   6.029 -0.4582  0.0994 -1.9780
 6167SOL    HW229961   2.434   4.453   6.012 -0.0345 -0.6442 -0.3895
 6168SOL     OW29962   1.284   0.933   3.593 -0.1651  0.3054 -0.4078
 6168SOL    HW129963   1.321   0.845   3.585  1.0249  0.8998 -1.4551
 6168SOL    HW229964   1.193   0.926   3.566  0.3982  0.2942 -2.2890
 6169SOL     OW29965   0.266   1.206  16.756 -0.0982  0.1797  0.6195
 6169SOL    HW129966   0.187   1.156  16.738  0.0578  0.3106 -0.4306
 6169SOL    HW229967   0.300   1.241  16.673 -0.2394 -0.1835  0.4098
 6170SOL     OW29968   0.385   4.212   5.164 -0.0457 -0.0008 -0.2398
 6170SOL    HW129969   0.392   4.119   5.186  2.4450  0.6050  1.5710
 6170SOL    HW229970   0.352   4.251   5.245 -1.4252 -0.3571 -0.6278
 6171SOL     OW29971   4.056   1.212   3.431  0.1070  0.2691 -0.2290
 6171SOL    HW129972   3.977   1.208   3.378  0.8216 -2.6100 -1.0502
 6171SOL    HW229973   4.071   1.305   3.447  2.5576  0.0488 -1.2371
 6172SOL     OW29974   1.658   1.732   7.577 -0.2749  0.1424  0.5301
 6172SOL    HW129975   1.698   1.738   7.490 -0.7929  0.5141  0.3166
 6172SOL    HW229976   1.579   1.784   7.563 -1.5139 -1.3000  2.1865
 6173SOL     OW29977   1.470   0.566   5.221  0.4198 -0.1462  0.0742
 6173SOL    HW129978   1.458   0.657   5.247 -1.3296 -0.1155 -0.8402
 6173SOL    HW229979   1.377   0.547   5.210 -0.2932  3.5862 -0.3836
 6174SOL     OW29980   4.172   2.958   2.451  0.6459  0.1617  0.3877
 6174SOL    HW129981   4.140   3.028   2.394 -3.2922 -0.8517  1.3010
 6174SOL    HW229982   4.140   2.985   2.538 -3.3754 -0.6558 -0.8356
 6175SOL     OW29983   3.161   2.766   8.288 -0.4257  0.1476  0.2574
 6175SOL    HW129984   3.195   2.782   8.200  1.7107 -1.1428  0.8725
 6175SOL    HW229985   3.081   2.717   8.270 -0.6955  0.7331 -0.1601
 6176SOL     OW29986   3.562   3.539  10.544  0.1544  0.5518  0.5894
 6176SOL    HW129987   3.596   3.475  10.606 -1.9713 -1.5420 -0.4060
 6176SOL    HW229988   3.469   3.530  10.566  0.1444  0.1223  0.3612
 6177SOL     OW29989   1.966   3.295   0.281 -0.4967 -0.5495 -0.2780
 6177SOL    HW129990   1.994   3.286   0.372  0.9983 -1.8575 -0.8694
 6177SOL    HW229991   1.988   3.210   0.242 -2.5919 -0.0457 -2.5628
 6178SOL     OW29992   1.603   0.783  17.507 -0.4922 -0.1716 -0.0642
 6178SOL    HW129993   1.643   0.824  17.584  0.3904 -0.8226 -0.1788
 6178SOL    HW229994   1.678   0.794  17.449  0.2319 -0.2849  0.8351
 6179SOL     OW29995   2.669   4.044   7.978  0.2359  0.5888 -0.2177
 6179SOL    HW129996   2.640   4.128   7.944 -0.1047  0.9169  0.8883
 6179SOL    HW229997   2.740   4.021   7.918 -1.0147 -0.3068 -1.3385
 6180SOL     OW29998   2.107   1.148   7.615 -0.1799 -0.3020 -0.4335
 6180SOL    HW129999   2.145   1.201   7.685 -0.0295  1.6378 -1.9848
 6180SOL    HW230000   2.134   1.058   7.631 -0.5003 -0.2320  0.4621
 6181SOL     OW30001   2.019   1.490   5.754 -0.0643 -0.0502 -0.0960
 6181SOL    HW130002   2.049   1.493   5.845 -1.6498 -1.4850  0.4705
 6181SOL    HW230003   2.106   1.465   5.725 -0.8258 -1.0879 -1.4494
 6182SOL     OW30004   0.411   0.990  16.518  0.3736 -0.4000 -0.3870
 6182SOL    HW130005   0.379   0.924  16.579 -3.1965  1.4561 -0.2386
 6182SOL    HW230006   0.429   0.937  16.440 -0.1205  0.0691 -0.8260
 6183SOL     OW30007   0.516   3.056   1.082  0.2342 -0.5965 -0.0786
 6183SOL    HW130008   0.513   3.045   1.177 -0.9972  2.3318  0.1968
 6183SOL    HW230009   0.476   2.973   1.057 -0.8936  0.1587 -0.7718
 6184SOL     OW30010   0.658   3.182   9.040  0.0744 -0.3971 -0.1933
 6184SOL    HW130011   0.712   3.243   8.990 -0.4881 -1.5195 -2.1885
 6184SOL    HW230012   0.692   3.102   8.999  0.3348 -0.9866  1.1684
 6185SOL     OW30013   0.107   0.451   2.365  0.4258  0.0462 -0.1876
 6185SOL    HW130014   0.103   0.391   2.291  1.3699  1.4331 -1.3621
 6185SOL    HW230015   0.163   0.400   2.423  0.7270  1.5111  0.8156
 6186SOL     OW30016   0.201   1.389   6.566 -0.0506 -0.3761  0.2388
 6186SOL    HW130017   0.295   1.384   6.548 -0.0231 -0.3629  0.3830
 6186SOL    HW230018   0.164   1.471   6.533 -0.0479 -0.3226  0.3721
 6187SOL     OW30019   0.597   2.497  14.281  0.7443  0.6385 -0.0828
 6187SOL    HW130020   0.528   2.537  14.227 -1.2795 -2.0974  0.5158
 6187SOL    HW230021   0.603   2.563  14.350  2.1096  0.7560 -0.3166
 6188SOL     OW30022   0.735   1.157  11.922 -0.3021  0.1613  0.2912
 6188SOL    HW130023   0.796   1.085  11.901  0.7477  1.0249  0.3860
 6188SOL    HW230024   0.791   1.216  11.972  0.5745  0.9816 -1.6647
 6189SOL     OW30025   1.624   2.923   2.581 -0.1850 -0.0104  0.4358
 6189SOL    HW130026   1.672   2.979   2.643  0.1676 -1.4551  1.4608
 6189SOL    HW230027   1.557   2.989   2.563 -0.2915 -0.3862 -0.5254
 6190SOL     OW30028   4.477   4.137  12.000 -0.0375  0.1533 -0.1070
 6190SOL    HW130029   4.551   4.185  11.962  1.1628 -2.5026 -1.1296
 6190SOL    HW230030   4.483   4.152  12.094 -0.4295  0.1963 -0.0908
 6191SOL     OW30031   4.545   2.379   8.289  0.3849 -0.0123 -0.6460
 6191SOL    HW130032   4.593   2.375   8.206 -0.8489 -0.8820 -1.3131
 6191SOL    HW230033   4.524   2.472   8.290 -1.3591 -0.4026 -1.3902
 6192SOL     OW30034   0.738   3.165   8.119 -0.2228 -0.1866  0.0592
 6192SOL    HW130035   0.665   3.207   8.165  1.3920  0.3433  2.1344
 6192SOL    HW230036   0.804   3.233   8.129 -0.3501  0.0711 -0.8615
 6193SOL     OW30037   0.495   1.537   4.330 -0.2167 -0.4748 -0.1165
 6193SOL    HW130038   0.532   1.574   4.410  0.6207  3.1828 -2.2272
 6193SOL    HW230039   0.560   1.573   4.269 -0.2353  1.0212  0.7532
 6194SOL     OW30040   0.601   2.716   3.862  0.1533  0.3502 -0.3502
 6194SOL    HW130041   0.616   2.753   3.775  1.5653  0.2559 -0.1607
 6194SOL    HW230042   0.534   2.653   3.839  1.3008 -1.1502  0.3753
 6195SOL     OW30043   0.394   0.373   5.307  0.1890 -0.1203 -0.0831
 6195SOL    HW130044   0.426   0.459   5.280  1.4922 -0.8513 -0.8319
 6195SOL    HW230045   0.350   0.331   5.233 -1.7037  0.1798  0.8600
 6196SOL     OW30046   2.392   3.353   3.537  0.1783 -0.1416  0.7546
 6196SOL    HW130047   2.364   3.440   3.509 -1.0815 -1.0621 -0.8071
 6196SOL    HW230048   2.383   3.369   3.631  1.2792  0.9183  0.6744
 6197SOL     OW30049   2.853   3.722  13.760 -0.8609  0.2104  0.4666
 6197SOL    HW130050   2.899   3.737  13.677 -0.0805 -0.7716  0.7084
 6197SOL    HW230051   2.835   3.813  13.781  0.6257  0.5882  0.1382
 6198SOL     OW30052   4.065   2.955   6.323 -0.1209  0.4038 -0.1127
 6198SOL    HW130053   3.978   2.934   6.290 -0.2901 -1.6353  1.6508
 6198SOL    HW230054   4.050   2.971   6.416  0.3115  0.3440 -0.0325
 6199SOL     OW30055   1.696   2.493  12.926 -0.4259 -0.7156  0.0377
 6199SOL    HW130056   1.742   2.524  12.848  0.1035  1.7789  1.3390
 6199SOL    HW230057   1.646   2.417  12.896 -1.1991 -0.4310  0.6241
 6200SOL     OW30058   3.534   1.161   6.188  0.0439 -0.0932  0.0700
 6200SOL    HW130059   3.483   1.207   6.121  1.6201  0.8785 -0.4880
 6200SOL    HW230060   3.461   1.144   6.247  0.0015 -0.0631  0.0268
 6201SOL     OW30061   3.525   2.831  10.909  0.1232  0.6070 -0.3732
 6201SOL    HW130062   3.530   2.924  10.931  1.3785  0.2115  1.0004
 6201SOL    HW230063   3.609   2.794  10.937 -0.3586 -0.4032 -0.2925
 6202SOL     OW30064   1.503   1.479   4.797  0.0673 -0.2844 -0.2535
 6202SOL    HW130065   1.460   1.487   4.711  1.7455 -0.4319 -1.1073
 6202SOL    HW230066   1.459   1.401   4.830  0.6897 -1.0529 -1.2227
 6203SOL     OW30067   3.727   3.672  10.144 -0.1079  0.0582  0.0239
 6203SOL    HW130068   3.805   3.624  10.115 -0.2716 -0.3982  0.3473
 6203SOL    HW230069   3.657   3.632  10.092  0.1215 -1.3949  0.8570
 6204SOL     OW30070   4.470   3.435  14.523  0.1775  0.2163  0.1311
 6204SOL    HW130071   4.404   3.383  14.477  0.4289 -0.0099  0.0218
 6204SOL    HW230072   4.556   3.413  14.487  1.6905  1.1807  3.2007
 6205SOL     OW30073   3.095   1.213   1.727  0.6775  0.4340 -1.0701
 6205SOL    HW130074   3.007   1.184   1.752  1.3960 -0.8760 -0.0771
 6205SOL    HW230075   3.069   1.295   1.685  0.2296  1.1145  0.5347
 6206SOL     OW30076   0.170   1.588   1.735  0.3410  0.0659  0.0026
 6206SOL    HW130077   0.095   1.637   1.767  0.4439  0.5849 -0.5545
 6206SOL    HW230078   0.133   1.511   1.778 -2.0879 -0.0029 -2.1828
 6207SOL     OW30079   3.452   2.954   7.045  0.2788 -0.0228 -0.4132
 6207SOL    HW130080   3.438   2.875   6.993  0.8769  0.7200 -1.7112
 6207SOL    HW230081   3.540   2.945   7.080 -0.6880 -1.9566  1.4641
 6208SOL     OW30082   0.413   2.478  10.228 -0.2336 -0.5493  0.3360
 6208SOL    HW130083   0.367   2.552  10.189 -1.0139 -1.9490 -1.4012
 6208SOL    HW230084   0.460   2.434  10.157 -0.1905  1.6784 -1.0300
 6209SOL     OW30085   2.795   1.180   3.335 -0.9134 -0.2124  0.7566
 6209SOL    HW130086   2.861   1.171   3.404 -0.6454 -0.2588  0.4939
 6209SOL    HW230087   2.840   1.153   3.255 -1.9165  0.7056 -0.1080
 6210SOL     OW30088   1.036   3.736   9.415  0.2022  0.0277 -0.3051
 6210SOL    HW130089   1.110   3.762   9.359  1.6583  1.9717  2.5290
 6210SOL    HW230090   0.971   3.793   9.374 -0.2775 -0.5411 -0.3442
 6211SOL     OW30091   2.938   1.527   6.937 -0.2341 -0.0244 -0.1585
 6211SOL    HW130092   2.956   1.612   6.897 -0.0430 -0.0525 -0.1334
 6211SOL    HW230093   2.953   1.539   7.031  1.0957 -1.8897 -0.1389
 6212SOL     OW30094   0.561   0.380   2.268  0.5376  0.0003 -0.0289
 6212SOL    HW130095   0.648   0.340   2.266 -0.2219 -1.7402  1.5010
 6212SOL    HW230096   0.528   0.335   2.190 -1.4604 -0.0669  0.8380
 6213SOL     OW30097   3.778   0.192   7.120 -0.4037 -0.1868 -0.1578
 6213SOL    HW130098   3.719   0.245   7.067 -0.4735 -3.0852 -2.9872
 6213SOL    HW230099   3.815   0.130   7.057  2.5829  0.8620  0.5227
 6214SOL     OW30100   3.834   4.593   5.748 -0.1345 -0.0965 -0.5924
 6214SOL    HW130101   3.915   4.627   5.708 -0.0811  0.1259 -0.2927
 6214SOL    HW230102   3.856   4.592   5.841 -0.5388 -2.0744 -0.5271
 6215SOL     OW30103   1.002   2.075  16.902 -0.3944 -0.4165  0.2645
 6215SOL    HW130104   1.088   2.110  16.925 -0.0531 -0.3536 -1.1239
 6215SOL    HW230105   0.951   2.081  16.983  0.0937  0.8766  0.4795
 6216SOL     OW30106   1.549   3.846   7.577 -0.1064 -0.5179 -0.3294
 6216SOL    HW130107   1.566   3.934   7.543 -1.1872 -0.0148  0.4466
 6216SOL    HW230108   1.630   3.811   7.612  0.4092  0.0701 -0.9417
 6217SOL     OW30109   2.600   0.027   2.163  0.1971 -0.7867 -0.5578
 6217SOL    HW130110   2.582   0.051   2.254  1.4573  1.3323 -0.8688
 6217SOL    HW230111   2.580   4.653   2.162  1.0234 -0.9706  0.1763
 6218SOL     OW30112   0.593   2.280  12.669  0.3634  0.5528  0.1725
 6218SOL    HW130113   0.621   2.250  12.755  2.5871  0.2682 -0.6708
 6218SOL    HW230114   0.676   2.257  12.629 -0.6274 -1.0567 -0.9646
 6219SOL     OW30115   4.719   3.199   5.746 -0.4967  0.0620  0.8736
 6219SOL    HW130116   4.711   3.118   5.695 -0.4454 -0.6539  2.0117
 6219SOL    HW230117   0.087   3.193   5.783 -1.6942  0.7695  3.7906
 6220SOL     OW30118   1.692   2.403   3.312 -0.4486 -0.1857 -0.1812
 6220SOL    HW130119   1.746   2.395   3.391  0.3261 -2.5102 -0.9326
 6220SOL    HW230120   1.613   2.353   3.331 -1.2539  1.5463  1.0706
 6221SOL     OW30121   4.494   1.649   2.204  0.1305 -0.0415 -0.1592
 6221SOL    HW130122   4.464   1.562   2.229 -1.6898  0.2877 -1.1225
 6221SOL    HW230123   4.589   1.637   2.207  0.2339  0.5687 -0.9676
 6222SOL     OW30124   0.266   3.589  11.798 -0.2071  0.0268 -0.0979
 6222SOL    HW130125   0.230   3.606  11.885 -0.3028 -0.4788 -0.0395
 6222SOL    HW230126   0.226   3.650  11.735  1.6253  2.1767  0.8545
 6223SOL     OW30127   0.630   4.587   2.991  0.1130  0.1904  0.2144
 6223SOL    HW130128   0.686   4.517   3.025 -1.2905 -0.5251  1.0865
 6223SOL    HW230129   0.628   4.651   3.062 -2.5333 -0.0846  0.3999
 6224SOL     OW30130   2.754   2.317  13.034  0.2824  0.0368 -0.4672
 6224SOL    HW130131   2.752   2.240  13.090 -0.2755  1.4169  1.4038
 6224SOL    HW230132   2.666   2.353  13.047 -0.6673 -2.7897  0.7373
 6225SOL     OW30133   2.008   0.482   2.998 -0.4855 -0.1938  0.0557
 6225SOL    HW130134   1.922   0.486   2.958 -0.3279 -2.5098 -0.5520
 6225SOL    HW230135   2.058   0.533   2.935 -1.7173 -0.2324 -0.9383
 6226SOL     OW30136   3.795   0.665   6.139 -0.5500 -0.4065 -0.2646
 6226SOL    HW130137   3.775   0.586   6.089  0.7183 -0.0375 -1.4032
 6226SOL    HW230138   3.827   0.717   6.064  1.9815 -1.5376  0.0191
 6227SOL     OW30139   1.922   2.228   1.994 -0.9460  0.6013  0.1978
 6227SOL    HW130140   2.012   2.256   2.014 -0.0645 -1.5984 -0.7764
 6227SOL    HW230141   1.936   2.143   1.953 -1.7717  0.4214  0.2913
 6228SOL     OW30142   3.989   0.142   5.114 -0.0396 -0.0205 -0.3052
 6228SOL    HW130143   3.976   0.227   5.157 -1.0818 -1.2204  1.7413
 6228SOL    HW230144   4.081   0.132   5.140  0.1115 -0.8280 -1.1503
 6229SOL     OW30145   2.307   4.647   1.154 -0.3244  0.0639 -0.2083
 6229SOL    HW130146   2.214   4.658   1.177 -0.4246 -2.6356  0.6461
 6229SOL    HW230147   2.303   4.610   1.066 -2.9692 -1.2224  0.4426
 6230SOL     OW30148   1.369   3.254  13.958  0.6915 -0.7365 -0.5129
 6230SOL    HW130149   1.344   3.291  14.043  2.8648 -1.3505  0.3957
 6230SOL    HW230150   1.463   3.274  13.963  0.4623  0.8606 -2.3124
 6231SOL     OW30151   0.136   1.252  10.680  0.4059 -0.2034  0.1296
 6231SOL    HW130152   0.051   1.232  10.642  0.1097 -0.6570  1.0199
 6231SOL    HW230153   0.111   1.267  10.772 -1.5325  1.1760 -0.6344
 6232SOL     OW30154   1.776   1.848  12.011 -0.3845  0.4400 -0.2820
 6232SOL    HW130155   1.734   1.934  12.008 -0.4315  0.4369  0.4228
 6232SOL    HW230156   1.716   1.806  12.072  0.8528 -0.4134  0.3512
 6233SOL     OW30157   0.739   4.689   1.435  0.0268  0.1312 -0.8282
 6233SOL    HW130158   0.774   4.608   1.473 -2.6901 -0.3925  0.5601
 6233SOL    HW230159   0.810   0.032   1.424  0.2568  0.4842  2.5710
 6234SOL     OW30160   3.862   4.221   7.987 -0.7189 -0.1044  0.9294
 6234SOL    HW130161   3.859   4.141   8.040  3.0063 -1.8760 -1.5370
 6234SOL    HW230162   3.957   4.231   7.994 -0.4425 -0.7260 -1.7760
 6235SOL     OW30163   0.093   0.982  16.427  0.3228 -0.1552 -0.0302
 6235SOL    HW130164   0.063   1.016  16.512 -0.0117  0.7518 -0.5172
 6235SOL    HW230165   0.029   0.911  16.413 -0.8106  0.9766 -0.6261
 6236SOL     OW30166   2.396   0.328   2.136 -0.1773 -0.1197  0.6000
 6236SOL    HW130167   2.371   0.255   2.079  0.8410  1.3166 -1.6462
 6236SOL    HW230168   2.490   0.311   2.137  0.1451  1.8131  2.9502
 6237SOL     OW30169   0.742   2.358   3.205  0.2917 -0.1606 -0.4683
 6237SOL    HW130170   0.732   2.449   3.176 -2.7209  0.5784  2.7976
 6237SOL    HW230171   0.733   2.313   3.122 -0.6521 -1.0462  0.1228
 6238SOL     OW30172   3.181   3.134  15.036  0.9236  0.6497 -0.9537
 6238SOL    HW130173   3.109   3.093  14.988  0.3836  1.0547 -0.5017
 6238SOL    HW230174   3.242   3.164  14.969 -0.7523 -1.4335 -3.4106
 6239SOL     OW30175   0.405   4.637   5.442 -0.0807  0.5773  0.9573
 6239SOL    HW130176   0.497   4.643   5.417 -0.0683 -1.0816  0.5704
 6239SOL    HW230177   0.373   0.006   5.431  0.6046  0.5342 -1.2321
 6240SOL     OW30178   0.418   0.064   6.313  0.1803 -1.0396  0.0706
 6240SOL    HW130179   0.511   0.059   6.290  0.0159  0.5173 -0.8881
 6240SOL    HW230180   0.377   0.094   6.232 -2.2401 -2.3069  0.8137
 6241SOL     OW30181   4.519   4.715  11.206 -0.2372  0.0827  0.1781
 6241SOL    HW130182   4.435   4.671  11.193  0.8669 -2.3779  1.4240
 6241SOL    HW230183   4.541   4.719  11.113 -0.9175  1.0616  0.0602
 6242SOL     OW30184   1.986   3.491  11.496 -0.0591 -1.4281  0.2458
 6242SOL    HW130185   1.985   3.396  11.504 -0.6132 -1.3926  0.5817
 6242SOL    HW230186   1.909   3.520  11.545  0.3683 -0.0648  0.1161
 6243SOL     OW30187   3.664   2.437   5.465 -0.1835  0.1674  0.3733
 6243SOL    HW130188   3.729   2.368   5.455  1.7308  1.6418  2.8767
 6243SOL    HW230189   3.668   2.460   5.558  3.5815  1.6045 -0.1551
 6244SOL     OW30190   4.530   3.709   3.173 -0.2299 -0.7262 -0.3120
 6244SOL    HW130191   4.582   3.727   3.095 -1.1838  0.0089 -0.7781
 6244SOL    HW230192   4.560   3.620   3.191 -1.5486 -0.7194  1.9542
 6245SOL     OW30193   4.042   3.686   7.925 -0.2707 -0.1847  0.1853
 6245SOL    HW130194   3.984   3.659   7.854 -1.7965  2.3430  0.4839
 6245SOL    HW230195   4.097   3.608   7.934  0.4228 -0.1160 -3.2029
 6246SOL     OW30196   2.762   3.818   8.661 -0.8783  0.1905  0.0631
 6246SOL    HW130197   2.738   3.728   8.638  0.7264  0.1098 -1.2620
 6246SOL    HW230198   2.690   3.845   8.719 -1.7042  1.8183 -1.6976
 6247SOL     OW30199   0.496   2.820   7.439 -0.6413  0.1110  0.2211
 6247SOL    HW130200   0.578   2.777   7.416 -0.3151  1.7772 -1.7466
 6247SOL    HW230201   0.446   2.738   7.445 -0.2550 -0.0415  1.2511
 6248SOL     OW30202   3.419   4.284  13.201 -0.3442  0.1201  0.2380
 6248SOL    HW130203   3.508   4.316  13.185  0.5601 -2.4177  0.1110
 6248SOL    HW230204   3.392   4.351  13.264  2.1608 -0.9222  2.4418
 6249SOL     OW30205   0.731   3.809   8.135  0.3412 -0.2310  0.0604
 6249SOL    HW130206   0.762   3.854   8.213 -2.2222 -0.3163  1.1172
 6249SOL    HW230207   0.662   3.752   8.169  0.1937  0.1540  0.4003
 6250SOL     OW30208   2.156   0.120  13.863  0.0741 -0.1206  0.0397
 6250SOL    HW130209   2.204   0.037  13.860  1.6656  0.7666  0.9155
 6250SOL    HW230210   2.077   0.080  13.827 -0.0588 -0.3136  0.5597
 6251SOL     OW30211   1.206   0.005   6.531 -0.1421  0.4174  0.2230
 6251SOL    HW130212   1.208   0.006   6.627  2.1586  0.8851  0.1566
 6251SOL    HW230213   1.289   0.052   6.522  1.0479 -1.7790 -0.1039
 6252SOL     OW30214   3.048   0.135  16.829  0.6118 -0.0341  0.5988
 6252SOL    HW130215   2.994   0.097  16.898 -0.7629 -0.2467 -0.6031
 6252SOL    HW230216   3.080   0.222  16.855 -4.2862  1.5336  1.3996
 6253SOL     OW30217   2.476   2.292   5.910  0.4214  0.3818 -0.2928
 6253SOL    HW130218   2.472   2.210   5.862  0.8107  0.6423 -0.7767
 6253SOL    HW230219   2.411   2.350   5.869 -1.6672 -1.4124  0.4856
 6254SOL     OW30220   0.611   0.610   9.455 -0.7143 -0.0352 -0.0451
 6254SOL    HW130221   0.534   0.556   9.435 -1.3679  0.7891  0.2370
 6254SOL    HW230222   0.594   0.654   9.538  0.3154  0.3154 -0.0221
 6255SOL     OW30223   2.889   4.037   2.684 -0.0528 -0.7608 -0.1089
 6255SOL    HW130224   2.983   4.033   2.666 -0.1555  0.1212 -0.8850
 6255SOL    HW230225   2.886   4.021   2.778 -2.1486  1.2174  0.1688
 6256SOL     OW30226   4.433   2.855  15.792  0.0459 -0.1205  0.5457
 6256SOL    HW130227   4.518   2.826  15.758  0.9169  2.3821  0.6113
 6256SOL    HW230228   4.407   2.921  15.729 -1.0285 -1.8539 -0.8272
 6257SOL     OW30229   1.252   0.216   4.295 -0.2765 -0.3041 -0.1973
 6257SOL    HW130230   1.314   0.274   4.250 -1.4779 -0.7355 -2.3821
 6257SOL    HW230231   1.275   0.211   4.388 -2.2272  1.6511  0.3828
 6258SOL     OW30232   4.076   0.105   3.719  0.3994 -0.3907 -0.2228
 6258SOL    HW130233   4.061   0.199   3.731  1.3159 -0.3063  0.2970
 6258SOL    HW230234   4.052   0.090   3.628  0.2634 -0.1670 -0.2237
 6259SOL     OW30235   4.416   2.325   2.891 -0.8558 -0.0471  0.5411
 6259SOL    HW130236   4.404   2.381   2.815  0.3168  2.2992  2.0854
 6259SOL    HW230237   4.340   2.266   2.886  0.7471 -2.2319  1.9689
 6260SOL     OW30238   3.915   1.826   6.935 -0.0378 -0.1632 -0.1410
 6260SOL    HW130239   3.890   1.734   6.927 -2.3586  0.4829 -0.3686
 6260SOL    HW230240   3.912   1.853   6.843  1.1626  0.8580  0.1107
 6261SOL     OW30241   4.250   1.527   6.688 -0.4353 -0.0429  0.4958
 6261SOL    HW130242   4.202   1.541   6.770  0.1634  1.7721  0.5399
 6261SOL    HW230243   4.325   1.481   6.725 -1.0883 -0.0577  1.8038
 6262SOL     OW30244   0.811   4.222  11.872  0.7697 -0.0630  0.2643
 6262SOL    HW130245   0.886   4.240  11.814  1.8038  0.9950  1.9121
 6262SOL    HW230246   0.775   4.144  11.831  0.7041  1.5455 -2.7555
 6263SOL     OW30247   0.290   4.029   8.282  0.6214 -0.1978 -0.0160
 6263SOL    HW130248   0.338   4.050   8.202  2.1620  0.4250  1.0574
 6263SOL    HW230249   0.322   3.941   8.302 -0.2790 -0.6319 -0.5162
 6264SOL     OW30250   3.174   0.989   5.552  0.3180 -0.0978 -0.3708
 6264SOL    HW130251   3.138   1.066   5.508 -0.3734  0.4411  1.1347
 6264SOL    HW230252   3.186   1.014   5.644  1.1939  0.6244 -0.6790
 6265SOL     OW30253   2.085   1.211   2.546  0.2151 -0.6363  0.2396
 6265SOL    HW130254   2.124   1.294   2.519 -1.1829 -0.4880 -1.3519
 6265SOL    HW230255   2.166   1.166   2.568  0.0345 -1.3211 -0.4957
 6266SOL     OW30256   2.685   3.830  12.251  0.7543 -0.5318  0.5210
 6266SOL    HW130257   2.742   3.862  12.182 -0.1556  2.6588  1.2599
 6266SOL    HW230258   2.732   3.873  12.322 -0.0994  2.1301 -0.5134
 6267SOL     OW30259   2.967   4.431   1.194  0.1359 -0.3935 -0.0622
 6267SOL    HW130260   2.930   4.481   1.267  1.0365  0.2843 -0.0696
 6267SOL    HW230261   2.888   4.427   1.140 -1.1700 -2.0471  1.9819
 6268SOL     OW30262   1.154   1.341  11.612  0.0813  0.2903 -0.3343
 6268SOL    HW130263   1.209   1.419  11.621 -0.0781  0.3521  0.1151
 6268SOL    HW230264   1.077   1.381  11.572  0.3915 -0.2956 -1.5363
 6269SOL     OW30265   0.326   3.026   4.578 -0.4788 -0.1790  0.5852
 6269SOL    HW130266   0.414   3.025   4.616 -0.0291  1.4202 -0.4016
 6269SOL    HW230267   0.329   3.098   4.514 -0.7912 -0.0763  0.6860
 6270SOL     OW30268   2.780   2.317   6.207  0.2692  0.0350  0.0754
 6270SOL    HW130269   2.812   2.299   6.295  1.8923 -1.9464 -0.9240
 6270SOL    HW230270   2.714   2.250   6.187  0.6080 -0.9195  2.1260
 6271SOL     OW30271   0.579   2.216   0.394 -0.1945  0.1533  0.3116
 6271SOL    HW130272   0.555   2.147   0.457  3.2670 -0.0480  1.3851
 6271SOL    HW230273   0.511   2.280   0.418  0.9015  1.2943  0.3397
 6272SOL     OW30274   1.411   1.907  16.082  0.9920 -0.3061  0.1578
 6272SOL    HW130275   1.330   1.923  16.033 -0.4839  0.4393  2.7765
 6272SOL    HW230276   1.467   1.981  16.063 -1.2953  1.3997  0.0789
 6273SOL     OW30277   2.847   3.625  10.334  0.4306  0.2886 -0.4260
 6273SOL    HW130278   2.775   3.605  10.393  1.5270  0.9539  1.1490
 6273SOL    HW230279   2.802   3.604  10.252 -1.0975  2.0575 -0.0453
 6274SOL     OW30280   3.063   1.136  15.204 -0.0079  0.3254  0.5524
 6274SOL    HW130281   3.041   1.051  15.242 -1.1006  1.1542  1.7800
 6274SOL    HW230282   3.132   1.177  15.257  0.0510  1.7179 -0.5896
 6275SOL     OW30283   3.053   4.531   5.579  0.4772 -0.1388  0.0624
 6275SOL    HW130284   3.090   4.616   5.600 -1.6487  1.1069 -1.2906
 6275SOL    HW230285   3.085   4.507   5.491  1.5696  0.6707  0.2451
 6276SOL     OW30286   3.470   3.578   1.210  0.0149 -0.1854  0.0763
 6276SOL    HW130287   3.489   3.526   1.132 -1.7975 -0.3890 -0.2315
 6276SOL    HW230288   3.398   3.528   1.249  0.3152 -0.5503  0.1683
 6277SOL     OW30289   0.612   0.337   4.388 -0.4119  0.2806 -0.1220
 6277SOL    HW130290   0.665   0.338   4.308  2.3303 -1.5723  1.7004
 6277SOL    HW230291   0.560   0.415   4.367 -1.3456 -0.8620 -2.0841
 6278SOL     OW30292   2.233   4.407   7.325 -0.0046  0.3289  0.0589
 6278SOL    HW130293   2.166   4.399   7.256  0.4243  1.6037 -0.5093
 6278SOL    HW230294   2.304   4.454   7.279 -0.5193 -0.2521 -1.3407
 6279SOL     OW30295   2.761   3.057   0.300  0.1608 -0.3737 -0.7244
 6279SOL    HW130296   2.739   3.036   0.209  1.3384  0.0123 -1.1047
 6279SOL    HW230297   2.822   3.129   0.287 -1.1837  0.9910  0.4960
 6280SOL     OW30298   0.695   1.131  12.874  0.3675 -0.3045  0.4161
 6280SOL    HW130299   0.772   1.134  12.817 -0.1044  0.0897 -0.1936
 6280SOL    HW230300   0.633   1.081  12.821  0.2796  0.3844 -0.1357
 6281SOL     OW30301   3.992   3.742   0.939 -0.5228  0.1161 -0.5545
 6281SOL    HW130302   4.019   3.798   0.867 -2.6444  0.6664 -0.9099
 6281SOL    HW230303   4.073   3.695   0.958 -0.6373 -0.4112 -1.3983
 6282SOL     OW30304   4.027   0.386   6.590 -0.2160  0.2650  0.2577
 6282SOL    HW130305   4.078   0.462   6.617  1.0101 -0.7386  0.7839
 6282SOL    HW230306   4.013   0.402   6.496  2.9568  1.9852  0.0776
 6283SOL     OW30307   3.986   1.279   6.655 -0.7704  0.5840 -0.1401
 6283SOL    HW130308   4.050   1.283   6.727  1.1507 -2.6825 -1.6961
 6283SOL    HW230309   3.908   1.240   6.694 -0.1978 -1.7033 -1.3025
 6284SOL     OW30310   2.733   4.281   5.232  0.6347  0.3536  0.9238
 6284SOL    HW130311   2.802   4.218   5.212 -0.0790  0.0997 -0.7332
 6284SOL    HW230312   2.736   4.322   5.146  0.8530 -0.2551  0.6391
 6285SOL     OW30313   2.016   1.972   8.884 -0.6460  0.0205  0.4392
 6285SOL    HW130314   2.087   1.937   8.938 -0.7640 -1.3890 -0.3203
 6285SOL    HW230315   1.962   1.898   8.855  1.2731 -1.7372  1.3628
 6286SOL     OW30316   2.429   3.453   3.803  0.4488 -0.1183  0.0717
 6286SOL    HW130317   2.524   3.456   3.796  0.4594  0.1271  0.3224
 6286SOL    HW230318   2.432   3.454   3.899 -0.7716 -0.6437  0.1091
 6287SOL     OW30319   0.864   2.015   5.775  0.0682  0.1559 -0.0389
 6287SOL    HW130320   0.818   1.969   5.705 -0.9817  0.7781  0.2422
 6287SOL    HW230321   0.934   2.056   5.725  2.0267 -1.2245  1.6129
 6288SOL     OW30322   0.521   4.613  11.262 -0.3723  0.0455  0.0013
 6288SOL    HW130323   0.427   4.595  11.268 -0.7915  2.6476  0.9633
 6288SOL    HW230324   0.534   4.570  11.177 -1.3086  0.4896 -0.3721
 6289SOL     OW30325   3.891   0.341  12.927 -0.6218 -0.4324 -0.0639
 6289SOL    HW130326   3.930   0.374  13.008 -1.0688 -0.4801  0.1710
 6289SOL    HW230327   3.891   0.420  12.874 -2.2004  1.7631  3.2060
 6290SOL     OW30328   3.607   2.207   4.176 -0.5244  0.1569  0.3020
 6290SOL    HW130329   3.653   2.282   4.214  0.3250 -0.6958  0.9478
 6290SOL    HW230330   3.526   2.242   4.139 -0.3986 -0.8606 -0.9635
 6291SOL     OW30331   2.393   4.001   7.639 -0.0832 -0.2338  0.2887
 6291SOL    HW130332   2.370   3.922   7.591 -0.5773  0.5826 -0.8234
 6291SOL    HW230333   2.371   4.077   7.584 -0.2280 -0.1239  0.4976
 6292SOL     OW30334   4.648   0.840   5.503  0.6718 -0.5190  0.0422
 6292SOL    HW130335   4.614   0.864   5.590 -0.0238  0.2636 -0.4445
 6292SOL    HW230336   4.687   0.924   5.476  0.8505  0.2121  2.5646
 6293SOL     OW30337   2.189   4.494  13.349 -0.1046 -0.2824  0.4746
 6293SOL    HW130338   2.146   4.538  13.276 -0.4663  0.7674  1.3024
 6293SOL    HW230339   2.145   4.532  13.426 -1.3981 -2.1689  0.6660
 6294SOL     OW30340   1.508   1.388  11.694  0.9974  0.0750  0.3255
 6294SOL    HW130341   1.505   1.459  11.758 -3.2534  0.9015 -0.7827
 6294SOL    HW230342   1.538   1.317  11.750 -0.1426 -1.3917 -0.8990
 6295SOL     OW30343   0.065   4.013   7.550 -0.3494  0.2408  0.3186
 6295SOL    HW130344   0.041   4.103   7.575 -2.1205 -0.0674 -0.3161
 6295SOL    HW230345   0.149   4.039   7.511 -0.2357 -0.0698  0.3570
 6296SOL     OW30346   3.240   2.513   4.924 -0.3919 -0.2953 -0.0995
 6296SOL    HW130347   3.203   2.478   5.005 -1.6622  3.0416  0.7503
 6296SOL    HW230348   3.168   2.498   4.861 -1.6835  1.3097  1.0029
 6297SOL     OW30349   4.695   2.320   7.995  0.3718  0.4935  0.4865
 6297SOL    HW130350   4.720   2.230   8.012  0.2616  0.6292  1.3299
 6297SOL    HW230351   4.626   2.312   7.928  1.5018  1.5543 -0.8088
 6298SOL     OW30352   2.663   4.720  13.665  0.1118  0.8311 -0.0238
 6298SOL    HW130353   2.634   0.057  13.594  0.8720  2.3301  0.8794
 6298SOL    HW230354   2.727   4.665  13.619  0.9639  1.1669  0.7592
 6299SOL     OW30355   2.336   2.337   6.425 -0.2372 -0.7589  0.5140
 6299SOL    HW130356   2.367   2.299   6.342  2.5275 -1.9141  2.0718
 6299SOL    HW230357   2.286   2.262   6.456 -1.2914  0.7351  2.4555
 6300SOL     OW30358   4.452   3.172   5.231  0.3329 -0.4074  0.0077
 6300SOL    HW130359   4.528   3.138   5.183 -0.6736  0.2529 -2.0476
 6300SOL    HW230360   4.405   3.093   5.255 -0.9989  0.4267  0.1439
 6301SOL     OW30361   4.350   2.952   3.443  0.5455 -0.1592  0.1460
 6301SOL    HW130362   4.346   3.046   3.421 -1.5519 -0.1573  0.5538
 6301SOL    HW230363   4.438   2.920   3.427  0.8236  1.0759 -0.7849
 6302SOL     OW30364   3.763   0.805  17.586  0.1983  0.1300 -0.2287
 6302SOL    HW130365   3.713   0.763  17.516 -1.1426 -0.3920  1.0489
 6302SOL    HW230366   3.820   0.733  17.614  0.8077 -0.5520 -3.2398
 6303SOL     OW30367   2.547   0.395   3.123 -0.1575  0.2139  0.6473
 6303SOL    HW130368   2.594   0.335   3.066  3.2986  0.7301  2.9195
 6303SOL    HW230369   2.462   0.412   3.083  0.6739 -0.6378 -1.4507
 6304SOL     OW30370   3.100   0.447   2.686  0.2467 -0.4314 -0.0002
 6304SOL    HW130371   3.114   0.354   2.702  0.7857 -0.1571  1.0546
 6304SOL    HW230372   3.164   0.472   2.619 -0.5476  1.0581 -0.2027
 6305SOL     OW30373   2.929   3.829  10.989  0.4271 -0.0968 -0.7413
 6305SOL    HW130374   2.860   3.765  10.970 -0.5719  0.5406  0.7148
 6305SOL    HW230375   2.998   3.775  11.028  0.1174  0.4558  0.5686
 6306SOL     OW30376   1.242   1.709   7.425  0.0812  0.0966 -0.2653
 6306SOL    HW130377   1.318   1.762   7.451  0.3256 -1.2753  1.7537
 6306SOL    HW230378   1.222   1.658   7.503 -0.9898 -0.0944 -0.6632
 6307SOL     OW30379   1.478   2.019   5.437 -0.2689 -0.3679  0.0179
 6307SOL    HW130380   1.516   1.932   5.450 -1.9541 -0.9671  0.9207
 6307SOL    HW230381   1.395   1.994   5.395 -1.4791  1.0723  1.5516
 6308SOL     OW30382   3.814   0.927   1.821  0.1005  0.5146 -0.2377
 6308SOL    HW130383   3.748   0.988   1.789  0.2084  0.6441 -0.2116
 6308SOL    HW230384   3.775   0.846   1.788  0.4934 -0.1145  0.8357
 6309SOL     OW30385   0.380   2.032   1.762 -0.0615  0.3936 -0.6801
 6309SOL    HW130386   0.392   2.112   1.712  2.3626  1.3574  1.4565
 6309SOL    HW230387   0.409   1.964   1.701  3.3541  0.1877  1.1891
 6310SOL     OW30388   0.853   0.620   0.335 -0.4242  0.3067 -0.5462
 6310SOL    HW130389   0.918   0.558   0.367 -0.8156 -0.9464 -2.1409
 6310SOL    HW230390   0.876   0.625   0.242 -1.2537 -0.2801 -0.7761
 6311SOL     OW30391   0.134   1.043   1.999  0.2965  0.1374 -0.2391
 6311SOL    HW130392   0.046   1.079   1.995 -0.7182 -2.1093  2.2290
 6311SOL    HW230393   0.133   0.975   1.932  0.4441  0.9348 -1.0650
 6312SOL     OW30394   0.088   1.306   6.808 -0.0700 -0.0809 -0.5892
 6312SOL    HW130395   0.025   1.245   6.771  0.7868 -0.1401 -1.9767
 6312SOL    HW230396   0.121   1.344   6.726 -0.6730  3.1545  0.6564
 6313SOL     OW30397   1.348   4.130  15.891 -0.2282 -0.3670 -0.0881
 6313SOL    HW130398   1.252   4.131  15.900  0.0162 -0.2567  2.4813
 6313SOL    HW230399   1.375   4.122  15.982 -2.5667 -0.6291  0.5862
 6314SOL     OW30400   4.447   1.683   1.261  0.0506 -0.0019  0.0385
 6314SOL    HW130401   4.516   1.745   1.284  1.8777 -1.2473 -2.0372
 6314SOL    HW230402   4.498   1.603   1.247  0.9504  0.2932  1.7407
 6315SOL     OW30403   0.945   0.786  10.338  0.0162 -0.1547  0.2174
 6315SOL    HW130404   1.026   0.836  10.333 -0.0828 -0.0907 -0.6812
 6315SOL    HW230405   0.924   0.784  10.432 -1.3110  1.5650 -0.0671
 6316SOL     OW30406   2.346   0.681   5.809  0.3338 -0.0995 -0.1261
 6316SOL    HW130407   2.431   0.647   5.836  0.4770  1.0534  0.8873
 6316SOL    HW230408   2.353   0.635   5.725  0.0578  1.1692 -0.8325
 6317SOL     OW30409   1.853   2.268   5.522 -0.0250 -0.4271 -0.4270
 6317SOL    HW130410   1.943   2.254   5.550 -0.3565  0.7864  1.2338
 6317SOL    HW230411   1.853   2.353   5.477  0.2371 -0.7179 -0.9840
 6318SOL     OW30412   1.646   2.111  15.436  0.0361 -0.1795 -0.3963
 6318SOL    HW130413   1.639   2.045  15.505 -2.4311  0.1046 -0.3640
 6318SOL    HW230414   1.740   2.125  15.441  0.1142 -0.6486 -0.5758
 6319SOL     OW30415   2.926   4.404   3.841 -0.1969 -0.0058 -0.2855
 6319SOL    HW130416   2.853   4.436   3.788  1.1986  2.4730 -0.7361
 6319SOL    HW230417   2.964   4.344   3.776  0.4050 -0.5773  0.5999
 6320SOL     OW30418   3.064   1.207  11.168 -0.0135 -0.3585  0.4802
 6320SOL    HW130419   3.025   1.286  11.204  0.5101 -0.1075  0.4889
 6320SOL    HW230420   3.157   1.227  11.175 -0.6028  1.6560  2.3435
 6321SOL     OW30421   2.627   4.011   4.039 -0.0424 -0.5507 -0.2616
 6321SOL    HW130422   2.572   3.935   4.060  0.9659 -1.7669 -1.9554
 6321SOL    HW230423   2.696   4.013   4.105 -1.6565 -0.1720  1.3914
 6322SOL     OW30424   1.874   4.715   0.521 -0.1448  0.3854 -0.5607
 6322SOL    HW130425   1.929   4.637   0.521 -0.1159  0.4098 -1.1745
 6322SOL    HW230426   1.924   0.055   0.576 -1.2001  1.0627 -0.3217
 6323SOL     OW30427   3.102   2.225   8.805  0.0728 -0.3650  0.5408
 6323SOL    HW130428   3.152   2.204   8.726 -2.9025 -2.3168 -0.8231
 6323SOL    HW230429   3.093   2.319   8.787  2.7742 -0.3073 -0.5392
 6324SOL     OW30430   1.373   3.305   1.993  0.0870  0.2467 -0.5343
 6324SOL    HW130431   1.396   3.249   2.067 -2.3018 -1.6939 -1.2755
 6324SOL    HW230432   1.409   3.386   2.030 -1.7356 -0.1753  2.1762
 6325SOL     OW30433   1.338   4.059   8.187  0.9298 -0.4485 -0.0009
 6325SOL    HW130434   1.348   3.998   8.260  1.1611 -1.5565 -0.9604
 6325SOL    HW230435   1.285   4.018   8.119 -0.1357  0.0078  0.5552
 6326SOL     OW30436   2.190   2.839   2.707  0.3567  0.4846  1.0100
 6326SOL    HW130437   2.210   2.762   2.653 -1.9787  0.9487 -0.5056
 6326SOL    HW230438   2.095   2.839   2.713  0.1757  1.6482 -1.6084
 6327SOL     OW30439   1.948   0.507   3.543  0.1485 -0.0582  0.1806
 6327SOL    HW130440   1.917   0.421   3.571 -1.6498 -0.3333 -2.6463
 6327SOL    HW230441   1.975   0.475   3.457  0.8933  1.1296 -0.0309
 6328SOL     OW30442   0.595   4.120   2.470 -0.0431 -0.4329 -0.2207
 6328SOL    HW130443   0.666   4.181   2.489 -0.9594  0.5072  0.1846
 6328SOL    HW230444   0.645   4.042   2.444 -0.7619 -1.5774  1.8360
 6329SOL     OW30445   2.991   1.515  14.462  0.1035  0.1328  0.3959
 6329SOL    HW130446   3.033   1.486  14.543 -1.7399  0.1729  1.3577
 6329SOL    HW230447   2.965   1.602  14.491 -0.2681  0.3072 -0.4839
 6330SOL     OW30448   3.256   3.673   4.793 -0.3680 -0.3077  0.4057
 6330SOL    HW130449   3.211   3.622   4.726  0.4058  1.2830 -1.3506
 6330SOL    HW230450   3.186   3.682   4.858 -1.6239 -2.0454 -0.7221
 6331SOL     OW30451   3.997   1.223  14.479 -1.1599  0.0616  0.9138
 6331SOL    HW130452   3.951   1.140  14.482 -0.3110 -0.5469 -2.6017
 6331SOL    HW230453   3.972   1.267  14.397  1.6412 -2.2544 -1.2029
 6332SOL     OW30454   3.139   0.572  14.910 -0.9336  0.0621  0.8210
 6332SOL    HW130455   3.193   0.637  14.865 -2.3951  0.2561 -0.6558
 6332SOL    HW230456   3.121   0.617  14.993  2.8814  1.7610  0.7151
 6333SOL     OW30457   3.766   1.607  12.378  0.7611 -0.9236 -0.2450
 6333SOL    HW130458   3.781   1.610  12.473 -1.0540  0.7785 -0.0020
 6333SOL    HW230459   3.851   1.634  12.345 -0.0251  0.4142 -1.1848
 6334SOL     OW30460   4.003   2.829   9.185 -0.2445 -0.2643 -0.1518
 6334SOL    HW130461   3.918   2.801   9.219  0.6849 -2.0739  0.7088
 6334SOL    HW230462   4.036   2.739   9.178 -1.0778 -0.5828  0.0089
 6335SOL     OW30463   2.384   4.134   4.480 -0.3099 -0.4745 -0.2976
 6335SOL    HW130464   2.320   4.119   4.411 -0.9369  0.2738  0.1284
 6335SOL    HW230465   2.391   4.229   4.472 -2.7765 -0.2717 -0.2680
 6336SOL     OW30466   0.053   0.837   2.337  0.1958  0.0866  0.2420
 6336SOL    HW130467   0.050   0.745   2.361 -1.2803  0.3385  1.0420
 6336SOL    HW230468   0.018   0.836   2.248 -0.8628 -0.4676  0.6646
 6337SOL     OW30469   1.993   1.069  10.242  0.2474 -0.0597 -0.0379
 6337SOL    HW130470   2.035   1.108  10.165  1.2118 -1.8116 -0.4187
 6337SOL    HW230471   1.933   1.139  10.267  0.5354  1.2321 -2.9182
 6338SOL     OW30472   0.802   2.445  14.630 -0.2754  0.0018  0.4719
 6338SOL    HW130473   0.889   2.405  14.630 -0.0402  0.5129 -0.3708
 6338SOL    HW230474   0.756   2.406  14.556 -0.0626  0.1088  0.2843
 6339SOL     OW30475   2.266   4.449   3.461  0.0043  0.0643  0.6539
 6339SOL    HW130476   2.264   4.386   3.388  3.5484  0.7924 -0.0429
 6339SOL    HW230477   2.352   4.427   3.497 -0.0551  1.2862  1.5376
 6340SOL     OW30478   1.843   1.623   9.081 -0.2112 -0.6571  0.4148
 6340SOL    HW130479   1.758   1.579   9.080 -0.8090  0.5075 -0.5394
 6340SOL    HW230480   1.902   1.548   9.082  0.4432 -0.1290  1.7226
 6341SOL     OW30481   4.520   3.992   8.673 -0.5867 -0.4164 -0.0034
 6341SOL    HW130482   4.488   3.982   8.583  3.4702  0.6659 -1.5694
 6341SOL    HW230483   4.591   3.929   8.663 -1.1996 -1.5172  2.7679
 6342SOL     OW30484   3.140   1.014   7.793  0.2104 -0.4256  0.2113
 6342SOL    HW130485   3.158   1.089   7.849  2.5226  1.5762 -3.2133
 6342SOL    HW230486   3.094   1.059   7.723  0.4302 -1.7567 -0.7936
 6343SOL     OW30487   0.624   0.297  16.193  0.5641 -0.2069  0.1472
 6343SOL    HW130488   0.640   0.248  16.113  0.8256 -0.7280  0.5182
 6343SOL    HW230489   0.613   0.220  16.249  1.9239  0.2020  0.9902
 6344SOL     OW30490   3.812   1.081   2.573 -0.1654 -0.2596  0.6489
 6344SOL    HW130491   3.734   1.135   2.567  0.3513  0.2616 -1.2511
 6344SOL    HW230492   3.780   0.996   2.603  1.3877 -1.2950 -0.5564
 6345SOL     OW30493   1.993   0.544   0.678  0.0372 -0.1953 -0.8092
 6345SOL    HW130494   1.946   0.575   0.601 -1.5243 -2.3555 -0.7203
 6345SOL    HW230495   2.025   0.461   0.644 -3.0218 -2.4148  1.7766
 6346SOL     OW30496   4.657   4.050   6.319  0.9020  0.2877 -0.1897
 6346SOL    HW130497   4.681   4.141   6.305  1.4817  0.3994  1.4715
 6346SOL    HW230498   4.574   4.048   6.367  0.5491 -0.4805 -0.8232
 6347SOL     OW30499   3.897   3.750  12.983 -0.1901 -0.2277 -0.0476
 6347SOL    HW130500   3.829   3.808  13.019 -0.1465  0.0180 -0.3580
 6347SOL    HW230501   3.917   3.697  13.060 -0.4073 -0.1383  0.0708
 6348SOL     OW30502   1.270   2.460   2.915  1.3450  0.0990  0.4508
 6348SOL    HW130503   1.238   2.546   2.887 -1.6341 -0.8379  1.0029
 6348SOL    HW230504   1.304   2.421   2.835 -1.3525  0.6072 -0.9356
 6349SOL     OW30505   0.860   4.081   2.252  0.0765 -0.4704 -0.2571
 6349SOL    HW130506   0.929   4.076   2.186  1.5468  2.0351  1.0652
 6349SOL    HW230507   0.880   4.169   2.284  2.8590 -1.1400 -0.1585
 6350SOL     OW30508   0.906   1.187  10.425 -0.2769 -0.2831  0.4152
 6350SOL    HW130509   0.823   1.233  10.435 -1.5192 -2.5302  0.5834
 6350SOL    HW230510   0.882   1.094  10.432  1.5889 -0.9166 -1.5315
 6351SOL     OW30511   1.631   0.112   7.397 -0.5599  0.2795  0.7657
 6351SOL    HW130512   1.591   0.036   7.438  0.7526  0.0649  1.6470
 6351SOL    HW230513   1.555   0.170   7.394 -0.7649 -0.0091  0.5339
 6352SOL     OW30514   1.196   0.918  15.990  0.0821  0.1040 -0.6749
 6352SOL    HW130515   1.289   0.918  15.965 -0.0721  0.4127 -1.2470
 6352SOL    HW230516   1.146   0.872  15.923  0.5324 -1.0649 -0.2133
 6353SOL     OW30517   2.416   1.504   4.239 -0.2174 -0.0408  0.0112
 6353SOL    HW130518   2.487   1.486   4.178 -0.7503 -2.1589  0.0223
 6353SOL    HW230519   2.349   1.436   4.229 -0.6587  0.2594  0.8166
 6354SOL     OW30520   0.627   2.053  10.536  0.6237 -0.7117 -0.0516
 6354SOL    HW130521   0.683   2.081  10.464  1.6180  1.4312  1.5702
 6354SOL    HW230522   0.694   2.008  10.588  0.6612  0.4183  0.8687
 6355SOL     OW30523   0.385   3.042  11.274  0.1091  0.0830  0.5437
 6355SOL    HW130524   0.297   3.078  11.262 -0.0739 -0.5768 -0.1215
 6355SOL    HW230525   0.394   2.997  11.190  2.5064 -1.9112  1.8588
 6356SOL     OW30526   2.816   1.263  16.178  0.0927 -0.0079 -0.1255
 6356SOL    HW130527   2.832   1.342  16.126 -0.5462  1.0679  1.2936
 6356SOL    HW230528   2.880   1.210  16.132 -0.9914 -2.2607  0.9604
 6357SOL     OW30529   4.655   3.081   2.614  0.1322 -0.4544 -0.2534
 6357SOL    HW130530   4.616   3.113   2.695 -0.3781  0.8031 -0.9921
 6357SOL    HW230531   4.573   3.080   2.564 -0.1740 -0.5174  0.2597
 6358SOL     OW30532   4.589   4.543  11.653 -0.0183 -0.3531 -0.4887
 6358SOL    HW130533   4.567   4.626  11.610 -1.8479 -0.6172 -0.0735
 6358SOL    HW230534   4.681   4.563  11.668  0.8014 -2.0487 -3.2580
 6359SOL     OW30535   4.274   3.031   8.641  0.3534 -0.1895 -0.6673
 6359SOL    HW130536   4.250   2.963   8.578  3.4380  0.1335 -2.1944
 6359SOL    HW230537   4.367   3.033   8.620  0.5198  0.6527  0.1512
 6360SOL     OW30538   0.301   3.793   8.401 -0.2938  0.2793  0.5078
 6360SOL    HW130539   0.265   3.710   8.432  0.4469  0.0315  0.7212
 6360SOL    HW230540   0.317   3.841   8.482 -2.0669  2.6330 -0.5569
 6361SOL     OW30541   3.325   2.849   5.057 -0.2564 -0.2228  0.4458
 6361SOL    HW130542   3.343   2.778   4.994 -1.8071 -0.8904  0.7616
 6361SOL    HW230543   3.299   2.807   5.139 -0.3985 -2.8311 -0.9314
 6362SOL     OW30544   3.855   3.473   4.516 -0.3925 -0.3847  0.1142
 6362SOL    HW130545   3.759   3.476   4.513 -0.3463  0.7639 -0.0772
 6362SOL    HW230546   3.874   3.517   4.433 -2.4670  0.8571  0.2794
 6363SOL     OW30547   0.825   2.902   6.198 -0.0524  0.2913  0.5068
 6363SOL    HW130548   0.771   2.908   6.277  2.0655  0.5911  1.9433
 6363SOL    HW230549   0.820   2.985   6.150  2.6400 -0.2897 -0.7541
 6364SOL     OW30550   2.537   0.584   2.755 -0.0320  0.5571 -0.1473
 6364SOL    HW130551   2.630   0.567   2.771 -0.4652 -0.5121  1.2248
 6364SOL    HW230552   2.510   0.595   2.846 -0.7264  0.0803 -0.2980
 6365SOL     OW30553   3.444   3.698   9.547  0.7090 -0.4883 -0.0190
 6365SOL    HW130554   3.503   3.623   9.542  1.2317 -0.0756  0.0011
 6365SOL    HW230555   3.365   3.645   9.562 -1.0453  1.4306 -2.4865
 6366SOL     OW30556   2.237   4.546   2.203  0.0660  0.4694 -0.2216
 6366SOL    HW130557   2.248   4.460   2.242 -1.7381  0.4933  0.3568
 6366SOL    HW230558   2.314   4.535   2.147 -0.0533 -1.4630 -0.0072
 6367SOL     OW30559   3.793   3.289   3.522  0.3440  0.2476 -0.2149
 6367SOL    HW130560   3.847   3.342   3.581  1.0865 -2.8238  1.8423
 6367SOL    HW230561   3.829   3.203   3.542  1.4848  0.3863 -1.6361
 6368SOL     OW30562   4.275   1.511   8.308  0.1140 -0.1844 -0.2941
 6368SOL    HW130563   4.188   1.548   8.325 -0.2306 -1.3465  0.5320
 6368SOL    HW230564   4.264   1.432   8.362  1.9848 -0.4276 -0.2612
 6369SOL     OW30565   2.484   2.036   7.023 -0.4417 -0.1899  0.1690
 6369SOL    HW130566   2.428   2.102   6.982  0.3584  1.3356  1.5112
 6369SOL    HW230567   2.564   2.041   6.971  0.8137  0.8940  2.2124
 6370SOL     OW30568   4.008   0.519   7.475 -0.5267 -0.0565  0.0080
 6370SOL    HW130569   3.923   0.479   7.454 -0.7072  0.4711 -0.2665
 6370SOL    HW230570   3.984   0.597   7.524 -1.6117 -0.3310 -0.0827
 6371SOL     OW30571   2.088   4.279  11.250  0.6843 -0.5472 -0.5161
 6371SOL    HW130572   2.107   4.186  11.242 -1.8746 -1.1959  0.8018
 6371SOL    HW230573   2.170   4.321  11.224  0.2926 -0.4970 -1.6755
 6372SOL     OW30574   0.251   3.329   5.826 -0.1051 -0.5239  0.1286
 6372SOL    HW130575   0.256   3.368   5.739 -3.6471 -0.8062 -0.1946
 6372SOL    HW230576   0.309   3.253   5.823  1.2473  0.5301 -0.2312
 6373SOL     OW30577   3.514   1.321  16.431  0.7319  0.3523 -0.5845
 6373SOL    HW130578   3.514   1.415  16.411  1.0798  0.4121 -0.3118
 6373SOL    HW230579   3.567   1.324  16.511  0.6331 -0.5743 -0.4893
 6374SOL     OW30580   2.601   0.326  13.007  0.1982 -0.4031 -0.5868
 6374SOL    HW130581   2.555   0.261  13.060 -0.0374  0.2280 -0.0177
 6374SOL    HW230582   2.692   0.301  12.995  0.4386  0.0594  0.2281
 6375SOL     OW30583   0.958   0.166   7.223 -0.2634  0.2398  0.0030
 6375SOL    HW130584   0.924   0.248   7.185 -0.5432 -0.7469 -1.8766
 6375SOL    HW230585   0.904   0.105   7.173  1.0012 -0.9655  0.1269
 6376SOL     OW30586   2.886   3.118   6.527  0.4562  0.1699 -0.1453
 6376SOL    HW130587   2.881   3.024   6.509  2.6254 -0.3108  1.7539
 6376SOL    HW230588   2.858   3.111   6.618 -2.0889 -0.5917 -0.9975
 6377SOL     OW30589   0.500   2.020   0.613  0.1003 -0.0386 -0.2090
 6377SOL    HW130590   0.521   1.927   0.615  0.1557  0.0144  1.7875
 6377SOL    HW230591   0.510   2.039   0.706  2.8561 -2.5327 -0.0036
 6378SOL     OW30592   1.883   4.338  14.823  0.0103 -0.0943  0.5681
 6378SOL    HW130593   1.913   4.365  14.736  1.8004 -0.9363  0.9222
 6378SOL    HW230594   1.801   4.387  14.829  0.5477  0.7883  0.7411
 6379SOL     OW30595   1.043   3.440  15.440  1.1408  0.2550 -0.5322
 6379SOL    HW130596   1.043   3.412  15.348  0.3439  1.9241 -1.0477
 6379SOL    HW230597   1.116   3.388  15.473 -0.0771 -0.2171  1.4108
 6380SOL     OW30598   3.644   4.477   2.661 -0.0092  0.2378 -0.0041
 6380SOL    HW130599   3.666   4.469   2.568  0.0802  2.2296 -0.1532
 6380SOL    HW230600   3.713   4.416   2.686  0.5595  0.4540 -1.0709
 6381SOL     OW30601   2.052   4.625  13.142  0.6800 -0.0536 -0.3269
 6381SOL    HW130602   2.052   4.718  13.164 -0.3232 -0.0747 -0.2455
 6381SOL    HW230603   1.963   4.596  13.163  0.0545  1.4997 -0.8154
 6382SOL     OW30604   3.560   3.700  16.137 -0.1215  0.1366 -0.0356
 6382SOL    HW130605   3.548   3.731  16.227  0.3312 -1.2059  0.4917
 6382SOL    HW230606   3.486   3.747  16.098  1.5056  0.4389 -2.7157
 6383SOL     OW30607   1.748   3.914   6.775  0.1795  0.0883  0.1047
 6383SOL    HW130608   1.743   3.890   6.682 -0.7062  0.6275  0.0165
 6383SOL    HW230609   1.797   3.839   6.807  0.9512  1.1271  1.3467
 6384SOL     OW30610   1.670   0.130   6.662  0.2765 -0.0705  0.2593
 6384SOL    HW130611   1.744   0.154   6.719 -1.2470  0.7885  1.8628
 6384SOL    HW230612   1.633   0.069   6.725 -0.1385 -0.4752 -0.3813
 6385SOL     OW30613   0.759   4.009   4.923  0.4073 -0.7378  0.1247
 6385SOL    HW130614   0.837   4.061   4.942 -0.8830  0.9655  0.7853
 6385SOL    HW230615   0.746   4.012   4.828  2.6265 -1.7293 -0.1973
 6386SOL     OW30616   3.596   0.229   6.172  0.2247  0.2588  0.4587
 6386SOL    HW130617   3.614   0.136   6.184 -3.5884 -0.9058 -2.9969
 6386SOL    HW230618   3.501   0.223   6.181 -0.1388  3.9049 -1.0330
 6387SOL     OW30619   2.618   2.384   5.191 -0.6633  0.4196  0.3755
 6387SOL    HW130620   2.564   2.334   5.252 -1.3373  2.7322  1.6951
 6387SOL    HW230621   2.557   2.388   5.118  0.3992 -1.8499 -0.6240
 6388SOL     OW30622   0.780   2.398  16.771 -0.0723  1.1422  1.2876
 6388SOL    HW130623   0.697   2.378  16.813  0.7498 -0.7426  2.0498
 6388SOL    HW230624   0.753   2.446  16.693  0.1553 -0.1093  0.4338
 6389SOL     OW30625   0.381   0.763   7.313  0.5955 -0.4812  0.5214
 6389SOL    HW130626   0.445   0.799   7.251 -0.1838 -0.6051 -0.3547
 6389SOL    HW230627   0.388   0.822   7.388  1.6316 -1.3096  1.0895
 6390SOL     OW30628   1.395   1.485  15.769 -0.0756  0.1776 -0.4251
 6390SOL    HW130629   1.322   1.467  15.828 -0.0076  0.5242 -0.2357
 6390SOL    HW230630   1.467   1.439  15.811 -1.8945 -1.5435  0.8052
 6391SOL     OW30631   4.499   3.515   1.252 -0.0405  0.4929  0.1255
 6391SOL    HW130632   4.582   3.483   1.288  0.0220  0.1955 -0.2914
 6391SOL    HW230633   4.511   3.608   1.270  1.6401 -0.2915  3.0953
 6392SOL     OW30634   2.318   1.843   0.499 -0.1757 -0.4887  0.7805
 6392SOL    HW130635   2.265   1.856   0.577  1.7182 -0.5300  2.0764
 6392SOL    HW230636   2.256   1.860   0.428  0.2445  1.1387  0.7933
 6393SOL     OW30637   1.245   0.610   9.033 -0.2466  0.3759  0.6856
 6393SOL    HW130638   1.192   0.686   9.010 -2.3815 -1.4936 -0.5051
 6393SOL    HW230639   1.316   0.646   9.087 -1.1566  1.2350  1.3070
 6394SOL     OW30640   0.954   0.942   1.798  0.1989  0.1518 -0.0224
 6394SOL    HW130641   0.868   0.967   1.766 -0.0032 -0.8550 -0.2837
 6394SOL    HW230642   0.995   1.023   1.826 -0.1678  0.5800 -0.7157
 6395SOL     OW30643   3.001   1.625   6.320 -0.4245  1.2716  0.3276
 6395SOL    HW130644   3.042   1.649   6.237  0.4586 -2.8220 -0.4019
 6395SOL    HW230645   3.043   1.543   6.343 -0.3186  1.5804  1.2315
 6396SOL     OW30646   1.873   2.944   4.131  0.5483 -0.0045  0.2767
 6396SOL    HW130647   1.807   2.876   4.145  0.3579 -0.1831 -1.5562
 6396SOL    HW230648   1.823   3.017   4.095  1.2551 -0.2100 -1.1249
 6397SOL     OW30649   2.560   1.762   9.937  0.2222  1.0582  1.0982
 6397SOL    HW130650   2.524   1.682   9.899 -1.3204  2.6249 -0.7525
 6397SOL    HW230651   2.639   1.793   9.893 -1.8997  1.3524 -2.4942
 6398SOL     OW30652   0.702   3.931  11.766  0.2775 -0.2755  0.4197
 6398SOL    HW130653   0.741   3.882  11.839 -0.9053 -1.5559  0.1954
 6398SOL    HW230654   0.618   3.959  11.802 -0.6773  0.6421 -2.4957
 6399SOL     OW30655   2.724   2.444  13.911  0.1081 -0.0564 -0.2976
 6399SOL    HW130656   2.700   2.410  13.998 -0.9809 -1.7231 -1.2575
 6399SOL    HW230657   2.797   2.385  13.893 -1.5127 -2.6509  1.6376
 6400SOL     OW30658   1.330   3.546   4.490  0.6081 -0.1002  0.1124
 6400SOL    HW130659   1.384   3.504   4.556  0.5724 -2.1097 -1.1570
 6400SOL    HW230660   1.382   3.569   4.413 -0.0735  0.3956 -0.2106
 6401SOL     OW30661   2.128   1.318  14.186 -0.1754  0.2315  0.0250
 6401SOL    HW130662   2.103   1.234  14.148  4.0875 -0.8531 -0.3301
 6401SOL    HW230663   2.215   1.318  14.148 -0.3765 -0.7064 -0.4429
 6402SOL     OW30664   0.904   3.870   7.210  0.6761 -0.6240 -0.6369
 6402SOL    HW130665   0.910   3.882   7.305 -0.1868  0.1840 -0.6810
 6402SOL    HW230666   0.828   3.928   7.202  1.5115  0.8424  1.8646
 6403SOL     OW30667   3.469   4.336   4.975 -0.1344  0.1748 -0.1235
 6403SOL    HW130668   3.375   4.323   4.963 -0.1487 -1.6275  1.8517
 6403SOL    HW230669   3.467   4.345   5.071  1.6213 -0.2612 -0.0487
 6404SOL     OW30670   3.858   0.676   6.419  0.6401  0.8931  0.2319
 6404SOL    HW130671   3.815   0.696   6.336  1.7189  1.5657 -0.1497
 6404SOL    HW230672   3.924   0.611   6.394 -0.2295 -0.6283  1.8823
 6405SOL     OW30673   0.192   1.881   2.410  0.4666  0.1578 -0.0393
 6405SOL    HW130674   0.201   1.908   2.318 -3.4436 -1.9115 -1.0317
 6405SOL    HW230675   0.192   1.965   2.455  1.0836 -0.0834  0.4097
 6406SOL     OW30676   2.093   2.291   2.767 -0.0383  0.1185  0.1642
 6406SOL    HW130677   2.175   2.246   2.790 -0.5756 -1.2797 -0.6426
 6406SOL    HW230678   2.127   2.358   2.708 -1.7057  1.1649  0.4178
 6407SOL     OW30679   0.240   4.105   6.338  0.0126 -0.3222  0.3528
 6407SOL    HW130680   0.208   4.026   6.381  2.1016 -2.2711 -1.6589
 6407SOL    HW230681   0.245   4.076   6.247  0.1885  0.9646 -0.0424
 6408SOL     OW30682   3.678   0.410   6.011  0.8048  0.2239  0.7243
 6408SOL    HW130683   3.641   0.352   6.077 -0.2956  0.2382  0.1185
 6408SOL    HW230684   3.598   0.456   5.986  0.8375  1.1862  2.3652
 6409SOL     OW30685   1.323   3.060   7.292 -0.6769 -0.4253 -0.2710
 6409SOL    HW130686   1.264   3.120   7.338  0.8818  0.3565  0.7373
 6409SOL    HW230687   1.335   2.994   7.361 -1.9148 -1.9517 -1.5304
 6410SOL     OW30688   4.553   3.965   9.284  1.1564  0.2995 -0.0270
 6410SOL    HW130689   4.565   3.989   9.192 -0.3625 -3.0349 -1.0944
 6410SOL    HW230690   4.458   3.959   9.289  1.2613 -1.6523 -0.3012
 6411SOL     OW30691   1.344   0.922   4.537 -0.3318 -0.1131  0.5759
 6411SOL    HW130692   1.429   0.967   4.537 -0.0533 -0.5904 -3.2638
 6411SOL    HW230693   1.300   0.934   4.453  1.8767 -1.8671 -0.8679
 6412SOL     OW30694   4.195   2.739   5.713  0.5237  0.1274  0.5160
 6412SOL    HW130695   4.153   2.737   5.799  0.1070 -0.3518  0.3005
 6412SOL    HW230696   4.186   2.831   5.689 -0.9401  0.0479  0.8034
 6413SOL     OW30697   1.896   2.910   2.980 -0.0767  0.4910  0.3844
 6413SOL    HW130698   1.885   2.837   3.041  0.2463 -0.0724 -0.2252
 6413SOL    HW230699   1.992   2.907   2.970 -0.0369  3.2992  0.0249
 6414SOL     OW30700   4.203   0.163   2.907  0.5182 -0.0698 -0.1872
 6414SOL    HW130701   4.244   0.218   2.974 -1.0408 -0.2222  0.8924
 6414SOL    HW230702   4.158   0.228   2.854 -0.8388  0.8278  2.0802
 6415SOL     OW30703   3.042   4.676   8.245 -0.1940  0.4184 -0.6178
 6415SOL    HW130704   3.124   4.685   8.197  0.7191  1.2098  1.0597
 6415SOL    HW230705   3.029   4.582   8.232  2.5834 -0.0929  0.2409
 6416SOL     OW30706   0.023   0.035   7.470 -0.2593  0.3430 -0.4451
 6416SOL    HW130707   0.051   0.126   7.472 -0.0946  0.2225  2.6690
 6416SOL    HW230708   0.057   0.013   7.384  1.6635 -2.0361  0.8934
 6417SOL     OW30709   2.793   2.416  14.687 -0.5574 -0.4317 -0.4433
 6417SOL    HW130710   2.761   2.499  14.653 -2.1965 -0.8243  0.1290
 6417SOL    HW230711   2.732   2.358  14.641 -1.1453 -0.3874  0.2750
 6418SOL     OW30712   0.621   0.133   9.357 -0.1664  0.2796 -0.2545
 6418SOL    HW130713   0.569   0.059   9.388 -1.1417  1.8937  1.9201
 6418SOL    HW230714   0.553   0.191   9.323 -0.0978  0.0171 -0.8559
 6419SOL     OW30715   2.938   3.450   5.269  0.0617  0.2588  0.1412
 6419SOL    HW130716   2.932   3.419   5.359  2.1121 -1.1463 -0.2089
 6419SOL    HW230717   2.997   3.387   5.227 -0.1037  0.4188 -0.3349
 6420SOL     OW30718   1.903   3.514   8.730  0.4486  0.3878 -0.5348
 6420SOL    HW130719   1.990   3.554   8.730  0.4038  0.4607  1.6717
 6420SOL    HW230720   1.898   3.498   8.824  1.0695 -2.0399 -0.9056
 6421SOL     OW30721   2.676   0.458  12.431  0.4532 -0.9169  0.0544
 6421SOL    HW130722   2.651   0.533  12.485 -1.1946 -1.1149 -0.4411
 6421SOL    HW230723   2.601   0.399  12.438  0.2432 -0.5280  1.1772
 6422SOL     OW30724   0.686   0.799   6.716  0.2587 -0.2725  0.0948
 6422SOL    HW130725   0.715   0.712   6.743  1.4426 -0.0103 -0.3205
 6422SOL    HW230726   0.649   0.778   6.630  2.2493  0.3421 -0.9047
 6423SOL     OW30727   2.101   0.240   7.082  0.0180 -0.4776  0.1421
 6423SOL    HW130728   2.065   0.205   7.001  0.0753  1.4943 -0.7324
 6423SOL    HW230729   2.182   0.282   7.051 -0.6298  1.0287  0.4789
 6424SOL     OW30730   2.969   4.072   0.985 -0.2090 -0.1418  0.2491
 6424SOL    HW130731   3.004   4.158   0.964 -1.1567  0.6339  1.8222
 6424SOL    HW230732   2.885   4.081   1.031  0.7427  3.1066  1.3553
 6425SOL     OW30733   1.696   2.775   0.102 -0.1780 -0.2139  0.4500
 6425SOL    HW130734   1.700   2.788   0.196  0.2583 -3.5525  0.8997
 6425SOL    HW230735   1.704   2.679   0.102 -0.7829 -0.2622  1.1453
 6426SOL     OW30736   3.593   1.029   8.667  0.2594  0.5915 -0.0501
 6426SOL    HW130737   3.687   1.037   8.682  0.2874  1.0120 -0.4512
 6426SOL    HW230738   3.588   1.047   8.573  1.1737  0.8650 -0.0435
 6427SOL     OW30739   0.201   1.403   4.869  0.5274  0.9632 -0.1926
 6427SOL    HW130740   0.274   1.349   4.839 -1.8874 -1.5893 -1.4507
 6427SOL    HW230741   0.127   1.382   4.813  1.4581  0.8443 -1.3789
 6428SOL     OW30742   4.159   4.200   5.747  0.6842  0.7732  0.0949
 6428SOL    HW130743   4.245   4.228   5.778  2.0794 -1.4240 -1.8630
 6428SOL    HW230744   4.107   4.218   5.826 -0.4183  0.3056 -0.5150
 6429SOL     OW30745   4.186   2.558   6.692 -0.2986  0.4107  0.5568
 6429SOL    HW130746   4.161   2.583   6.782  1.7087 -0.0977  1.2472
 6429SOL    HW230747   4.266   2.508   6.709  0.1306  0.9371  0.0521
 6430SOL     OW30748   2.970   0.228  10.977 -0.3360  0.0335  0.2324
 6430SOL    HW130749   3.002   0.247  11.065  1.3292  2.0272 -0.7976
 6430SOL    HW230750   2.984   0.313  10.935  2.4356 -0.8735 -0.7221
 6431SOL     OW30751   2.608   2.893   2.169  0.1441 -0.1401 -0.6686
 6431SOL    HW130752   2.588   2.961   2.105 -1.9608  0.9052  1.1090
 6431SOL    HW230753   2.642   2.947   2.240 -0.6430  0.1271 -0.4992
 6432SOL     OW30754   4.674   2.931   5.675  0.4996  0.0265  0.3488
 6432SOL    HW130755   4.659   2.865   5.742  1.1097  0.0095  0.4659
 6432SOL    HW230756   0.037   2.903   5.637 -0.2521 -1.3651 -0.2650
 6433SOL     OW30757   2.141   2.210   0.389 -0.3052 -0.1859  0.1636
 6433SOL    HW130758   2.109   2.147   0.453  1.7473  1.0948  2.4602
 6433SOL    HW230759   2.096   2.169   0.315  0.2902  0.3570 -0.5060
 6434SOL     OW30760   3.425   0.542   6.053  0.0665  0.2396 -0.3162
 6434SOL    HW130761   3.440   0.619   5.997 -0.8824  0.8400  0.2717
 6434SOL    HW230762   3.348   0.507   6.009 -0.2879  1.9995 -1.0773
 6435SOL     OW30763   3.251   2.494   7.099  0.0014 -0.2558 -0.3634
 6435SOL    HW130764   3.325   2.442   7.130 -1.0590 -0.8651  1.1669
 6435SOL    HW230765   3.288   2.541   7.025  2.2372 -0.0393  0.8771
 6436SOL     OW30766   1.027   4.374   3.885  0.0891  0.6757  0.3952
 6436SOL    HW130767   1.068   4.413   3.807 -1.6363  2.6939  0.4748
 6436SOL    HW230768   0.986   4.454   3.919 -0.4511  0.9585 -0.9301
 6437SOL     OW30769   4.252   0.761   8.159 -0.5344 -0.1922 -0.8082
 6437SOL    HW130770   4.260   0.680   8.208  0.1973 -0.1975 -0.9360
 6437SOL    HW230771   4.167   0.794   8.189  0.3734  1.2611  0.2007
 6438SOL     OW30772   2.704   2.253   1.188 -0.5378 -0.3492 -0.3046
 6438SOL    HW130773   2.698   2.326   1.250  1.9842 -0.7669  0.4432
 6438SOL    HW230774   2.798   2.235   1.178 -1.0165 -2.5429 -0.7254
 6439SOL     OW30775   1.851   0.507   1.997  0.1559  0.1447 -0.3150
 6439SOL    HW130776   1.927   0.525   1.942  0.5232 -0.3434  0.0264
 6439SOL    HW230777   1.884   0.552   2.076 -1.2584 -0.1099  0.4157
 6440SOL     OW30778   3.379   1.338   7.487 -1.1347 -0.1772  0.1130
 6440SOL    HW130779   3.441   1.266   7.475 -1.8332 -0.8013  0.2636
 6440SOL    HW230780   3.442   1.404   7.459  0.9730 -1.2380  2.3293
 6441SOL     OW30781   1.914   1.310   5.410  0.0864 -0.3704 -0.0039
 6441SOL    HW130782   1.835   1.256   5.405  0.3876 -0.7819 -0.2757
 6441SOL    HW230783   1.914   1.322   5.505  0.3946  0.8793 -0.1681
 6442SOL     OW30784   1.539   1.092  16.041 -0.1891  0.5333  0.1866
 6442SOL    HW130785   1.549   1.029  16.113 -1.6105  1.6112  1.3020
 6442SOL    HW230786   1.511   1.037  15.968 -0.0129  0.3433  0.2597
 6443SOL     OW30787   0.598   2.225   9.674  0.2134 -0.1276  0.0032
 6443SOL    HW130788   0.619   2.306   9.628 -0.7035  0.6624  0.9808
 6443SOL    HW230789   0.638   2.241   9.759 -1.4829  1.1891  0.5368
 6444SOL     OW30790   4.088   1.517   4.972  0.5748  0.0460 -0.2539
 6444SOL    HW130791   4.108   1.435   5.017  0.7910  0.9756  1.3504
 6444SOL    HW230792   4.025   1.551   5.036  1.7606 -1.7555  1.8860
 6445SOL     OW30793   0.000   1.352   4.695 -0.1724 -0.5790 -0.1627
 6445SOL    HW130794   0.025   1.398   4.615 -1.0175  0.2396  0.0414
 6445SOL    HW230795   0.007   1.260   4.669  3.4832 -0.2482 -0.3871
 6446SOL     OW30796   4.392   1.128  17.652  0.6153  0.3344 -0.3068
 6446SOL    HW130797   4.460   1.115  17.587 -0.1095 -2.0752 -0.6095
 6446SOL    HW230798   4.328   1.173  17.596 -1.9902 -1.0530  1.5101
 6447SOL     OW30799   0.992   3.131   5.828  0.1297 -0.4216 -0.0254
 6447SOL    HW130800   1.068   3.185   5.806  0.6911 -0.1974  2.4593
 6447SOL    HW230801   1.016   3.066   5.894  0.8891 -1.5595 -1.3909
 6448SOL     OW30802   3.629   3.238   0.921 -0.6905 -0.2170  0.1083
 6448SOL    HW130803   3.715   3.281   0.924  0.1054 -1.8607  1.2033
 6448SOL    HW230804   3.580   3.316   0.946  2.3723  2.3565 -1.8609
 6449SOL     OW30805   0.955   2.573   6.754 -0.8727  0.0995 -0.2317
 6449SOL    HW130806   0.941   2.495   6.808 -0.7076  0.1005 -0.1869
 6449SOL    HW230807   1.028   2.610   6.804 -2.5274  2.4529  0.4051
 6450SOL     OW30808   0.659   4.717  13.737  0.2490  0.4956 -0.2184
 6450SOL    HW130809   0.713   4.645  13.771  1.6403  2.2079  1.2168
 6450SOL    HW230810   0.709   0.008  13.656  0.1371  1.4981 -0.1392
 6451SOL     OW30811   4.073   3.094  16.405 -0.7783  0.2489  0.3521
 6451SOL    HW130812   4.091   3.097  16.311 -2.6727  1.5508  0.0213
 6451SOL    HW230813   4.046   3.184  16.425 -0.3468  0.5352 -0.3868
 6452SOL     OW30814   3.905   2.857   4.975  0.0937  0.1080  0.7011
 6452SOL    HW130815   3.976   2.795   4.959  0.2861 -0.2311  2.8819
 6452SOL    HW230816   3.958   2.922   5.021  0.1538 -0.1760  1.0365
 6453SOL     OW30817   3.933   2.421   4.139 -0.0255  0.6075  0.2572
 6453SOL    HW130818   4.013   2.461   4.104  1.1998  0.6706  3.1729
 6453SOL    HW230819   3.958   2.330   4.124 -0.4868  0.4209  0.6463
 6454SOL     OW30820   3.128   1.175   3.477 -0.6418 -0.0065  0.5034
 6454SOL    HW130821   3.177   1.092   3.481  2.1844  1.5824 -1.4428
 6454SOL    HW230822   3.161   1.203   3.392 -2.8384 -0.0210 -0.3568
 6455SOL     OW30823   4.254   3.483   8.440 -0.5575 -0.3773  0.6168
 6455SOL    HW130824   4.296   3.564   8.470  0.1663 -0.1571 -0.9601
 6455SOL    HW230825   4.172   3.521   8.408  0.3660  1.4514  0.4085
 6456SOL     OW30826   1.173   3.096  16.244 -0.0763  0.0870 -0.4779
 6456SOL    HW130827   1.266   3.075  16.257 -0.5367 -1.8060 -0.2559
 6456SOL    HW230828   1.116   3.021  16.262 -2.8392  2.2868 -0.1712
 6457SOL     OW30829   0.259   3.408   5.574 -0.2863  0.7128  0.0897
 6457SOL    HW130830   0.321   3.469   5.534 -1.3231  0.2930 -2.1092
 6457SOL    HW230831   0.195   3.389   5.506  0.4864  0.6980 -0.6218
 6458SOL     OW30832   2.872   2.651   6.856  0.8210 -0.0298  0.3488
 6458SOL    HW130833   2.787   2.610   6.838  1.2699  0.3301 -2.5326
 6458SOL    HW230834   2.874   2.672   6.949  2.3466 -2.5509  0.8885
 6459SOL     OW30835   1.633   4.183   6.403 -0.3793 -0.4330  0.0322
 6459SOL    HW130836   1.647   4.152   6.313  1.2493  1.0752 -0.2560
 6459SOL    HW230837   1.721   4.212   6.428  0.4127 -2.4116 -0.4706
 6460SOL     OW30838   4.551   1.643   4.136 -0.2302  0.0564 -0.2144
 6460SOL    HW130839   4.546   1.711   4.203  1.1018  0.0914 -0.1647
 6460SOL    HW230840   4.571   1.567   4.191  1.3678 -0.8760 -2.0847
 6461SOL     OW30841   0.225   1.251  12.247 -0.5831  0.4966  0.6534
 6461SOL    HW130842   0.256   1.279  12.333 -0.8117  0.7897  0.6432
 6461SOL    HW230843   0.149   1.307  12.231 -1.9090 -1.8250 -1.1344
 6462SOL     OW30844   2.638   3.804   1.043  0.4023  0.3972  0.4006
 6462SOL    HW130845   2.679   3.890   1.043  2.7325 -0.6947 -1.6900
 6462SOL    HW230846   2.712   3.750   1.014  0.8115  1.1278  0.0936
 6463SOL     OW30847   4.593   3.170  13.051 -0.2247 -0.0286 -0.3383
 6463SOL    HW130848   4.533   3.096  13.049  0.7676 -0.8563  0.9994
 6463SOL    HW230849   4.641   3.151  13.132 -0.7347 -0.9197 -0.2447
 6464SOL     OW30850   0.015   4.698  15.780  0.1226  0.0230  0.0711
 6464SOL    HW130851   0.008   4.609  15.815 -1.1962  0.5773  1.2338
 6464SOL    HW230852   0.110   4.706  15.774  0.2040 -0.8838  0.1491
 6465SOL     OW30853   4.316   0.488  12.435 -0.1280 -0.0537 -0.2322
 6465SOL    HW130854   4.288   0.579  12.440  0.3210  0.0047  1.3621
 6465SOL    HW230855   4.347   0.479  12.525  0.8124  1.5214 -0.3918
 6466SOL     OW30856   0.756   0.667   4.402  0.7234  0.0067 -0.4085
 6466SOL    HW130857   0.741   0.637   4.491 -1.4106  1.4765 -0.2814
 6466SOL    HW230858   0.780   0.588   4.353  2.6585 -0.4495  1.2951
 6467SOL     OW30859   3.912   2.794   3.093 -0.1579 -1.2620  0.0028
 6467SOL    HW130860   3.885   2.733   3.162 -1.5489  1.1048  1.5430
 6467SOL    HW230861   4.006   2.776   3.079  0.4385 -0.3008  2.7630
 6468SOL     OW30862   0.023   2.031   5.145  0.3349 -0.4011  0.4620
 6468SOL    HW130863   0.034   2.046   5.051  1.9099 -0.1618  0.6791
 6468SOL    HW230864   0.076   2.108   5.167 -0.1750  0.1649 -0.3203
 6469SOL     OW30865   3.858   2.103  13.775 -0.3333  0.3714 -0.0272
 6469SOL    HW130866   3.841   2.056  13.856  2.7615  1.0541  1.0163
 6469SOL    HW230867   3.852   2.190  13.814  0.6778  0.3225  0.2302
 6470SOL     OW30868   0.356   1.245   9.167  0.3155  0.1569  0.2485
 6470SOL    HW130869   0.352   1.159   9.208 -1.2440  1.0744  2.0129
 6470SOL    HW230870   0.305   1.300   9.226 -0.9040  0.3855 -1.0190
 6471SOL     OW30871   1.874   3.241   8.505  0.6135 -0.0739  0.2155
 6471SOL    HW130872   1.924   3.278   8.433 -2.5567 -0.6978 -2.2869
 6471SOL    HW230873   1.841   3.158   8.471 -1.9819  0.5742  1.1266
 6472SOL     OW30874   4.481   4.376   4.636 -0.2408  0.3182 -0.4262
 6472SOL    HW130875   4.414   4.416   4.693  1.2833 -0.1005  1.6568
 6472SOL    HW230876   4.556   4.384   4.695  0.8510 -0.0638 -1.7533
 6473SOL     OW30877   1.808   2.106  13.188 -0.0260  0.5889 -0.6822
 6473SOL    HW130878   1.868   2.037  13.156 -0.8609 -1.7361  2.7682
 6473SOL    HW230879   1.849   2.134  13.269 -3.2195 -0.7795  1.3813
 6474SOL     OW30880   0.493   4.178  15.198  0.1001 -0.1537  0.2395
 6474SOL    HW130881   0.554   4.202  15.268  1.7350 -1.6229 -0.7084
 6474SOL    HW230882   0.548   4.173  15.120  1.5220  1.2936  1.1538
 6475SOL     OW30883   1.209   1.550  16.292  0.1020  0.4112 -0.1264
 6475SOL    HW130884   1.146   1.484  16.320 -0.2398  1.3295  1.2486
 6475SOL    HW230885   1.146   1.606  16.247  1.1827  1.5686 -0.2071
 6476SOL     OW30886   3.132   0.460   5.794 -0.0596  0.1710  0.1439
 6476SOL    HW130887   3.215   0.443   5.838  0.3040  0.3134 -0.4823
 6476SOL    HW230888   3.159   0.471   5.702 -0.4319 -0.6449 -0.0544
 6477SOL     OW30889   1.425   4.553   3.509 -0.1960 -0.5862  0.2118
 6477SOL    HW130890   1.477   4.474   3.518  1.1915  0.3438  0.2835
 6477SOL    HW230891   1.483   4.626   3.529 -1.1692  0.1419  0.4264
 6478SOL     OW30892   1.155   2.655   5.877 -0.1961 -0.1271 -0.1017
 6478SOL    HW130893   1.237   2.702   5.869 -0.3261  0.4031  1.6136
 6478SOL    HW230894   1.179   2.567   5.849  1.3129  0.1801  0.2424
 6479SOL     OW30895   2.666   3.444   9.161  0.2539  0.1250 -0.3646
 6479SOL    HW130896   2.723   3.476   9.231 -1.4005 -1.0734  1.5205
 6479SOL    HW230897   2.663   3.521   9.104 -1.7814  1.3166  1.3593
 6480SOL     OW30898   4.624   2.696   5.850  0.0080  0.2003  0.0719
 6480SOL    HW130899   4.667   2.622   5.807  1.0955 -0.0075  1.5355
 6480SOL    HW230900   4.534   2.665   5.860  0.1574  0.3453  1.9222
 6481SOL     OW30901   2.181   4.156   4.292 -0.5914  1.3062  0.4390
 6481SOL    HW130902   2.176   4.086   4.227  0.4842 -0.0936  1.8972
 6481SOL    HW230903   2.143   4.230   4.244 -1.2087  1.3407  0.9774
 6482SOL     OW30904   0.231   2.650  15.756  0.3190 -0.0562  0.8145
 6482SOL    HW130905   0.298   2.618  15.816  0.0725 -1.1007  0.5235
 6482SOL    HW230906   0.294   2.654  15.684 -0.4993 -1.2408  0.0313
 6483SOL     OW30907   4.347   2.526   3.355  0.2868 -0.2015  0.9264
 6483SOL    HW130908   4.395   2.605   3.379 -1.7291  1.1623  0.4239
 6483SOL    HW230909   4.388   2.509   3.271 -1.3992 -0.8797  0.2491
 6484SOL     OW30910   0.625   3.652  15.967 -0.6545 -0.1673  0.0803
 6484SOL    HW130911   0.573   3.729  15.944  1.1178  1.1114  0.3087
 6484SOL    HW230912   0.669   3.638  15.883 -0.2321 -1.7728  0.5667
 6485SOL     OW30913   2.491   2.587   6.352 -0.3037 -0.3334 -0.0240
 6485SOL    HW130914   2.403   2.604   6.385  0.3645  0.8030  1.1783
 6485SOL    HW230915   2.480   2.509   6.298 -0.9523 -0.5444  0.4174
 6486SOL     OW30916   1.926   1.618   2.726 -0.4289 -0.4163  0.2855
 6486SOL    HW130917   2.009   1.654   2.696 -0.8345 -1.4865 -2.1258
 6486SOL    HW230918   1.888   1.587   2.644  0.5225 -2.5556  0.6622
 6487SOL     OW30919   0.845   0.433   9.965 -0.0357  0.4191 -0.3435
 6487SOL    HW130920   0.797   0.476   9.894 -0.3893 -0.5054 -0.6733
 6487SOL    HW230921   0.853   0.490  10.041  1.5073 -0.1674 -0.0655
 6488SOL     OW30922   3.549   1.137   2.630 -0.2344 -0.2053  0.1316
 6488SOL    HW130923   3.471   1.188   2.653  1.7251  1.6548  2.7199
 6488SOL    HW230924   3.517   1.052   2.660 -1.4784  1.1430  2.6170
 6489SOL     OW30925   3.673   2.900   4.481 -0.4751  0.0574  0.4048
 6489SOL    HW130926   3.622   2.953   4.542  0.4296 -0.1013  1.3027
 6489SOL    HW230927   3.743   2.871   4.539  1.0919 -0.4498 -1.7473
 6490SOL     OW30928   2.267   1.556   8.516  0.0571 -0.2323  0.2840
 6490SOL    HW130929   2.203   1.590   8.455  1.3745 -0.2992 -1.1274
 6490SOL    HW230930   2.257   1.606   8.597 -0.5858  0.7253 -0.3942
 6491SOL     OW30931   2.358   4.558   0.437 -0.1513  0.5909  0.3007
 6491SOL    HW130932   2.293   4.529   0.500 -1.2203 -0.0343 -1.0719
 6491SOL    HW230933   2.397   4.629   0.487 -1.2490  0.9386  0.6683
 6492SOL     OW30934   0.976   1.981   6.928  0.4377 -0.1585 -0.6426
 6492SOL    HW130935   0.927   1.904   6.957  0.9777 -0.8674 -1.5871
 6492SOL    HW230936   1.011   1.944   6.847  0.2555 -2.5742  0.3799
 6493SOL     OW30937   1.715   2.981   7.936 -0.2615  0.1949 -0.1577
 6493SOL    HW130938   1.794   2.973   7.989  1.0468  1.0367 -2.0024
 6493SOL    HW230939   1.666   3.039   7.996 -1.1517 -0.4171 -0.2986
 6494SOL     OW30940   3.404   2.412  11.421  0.1079  0.1639 -0.0111
 6494SOL    HW130941   3.406   2.334  11.365 -0.5588  0.2483 -0.1575
 6494SOL    HW230942   3.319   2.449  11.396 -0.2014 -1.1105 -0.8212
 6495SOL     OW30943   1.712   2.034   7.242  0.2987 -0.6022 -0.3874
 6495SOL    HW130944   1.623   2.009   7.267  0.1855 -0.1673 -0.3557
 6495SOL    HW230945   1.727   2.118   7.286 -2.3633 -0.0776 -0.4362
 6496SOL     OW30946   2.943   3.250  10.817  0.1324  0.4896 -0.7340
 6496SOL    HW130947   2.857   3.207  10.819  1.8490 -3.0882 -3.3125
 6496SOL    HW230948   2.930   3.294  10.901  0.9341 -2.2993  0.8578
 6497SOL     OW30949   0.516   3.901  17.174  0.1975 -0.3860 -0.4020
 6497SOL    HW130950   0.600   3.902  17.220  0.8298  0.0001 -1.5682
 6497SOL    HW230951   0.463   3.841  17.225 -0.6678 -0.3590 -1.2809
 6498SOL     OW30952   2.753   4.472   1.006  0.1495 -0.0918 -0.4256
 6498SOL    HW130953   2.723   4.492   0.918 -0.2761  3.7272  0.5798
 6498SOL    HW230954   2.701   4.394   1.025  0.2163  0.2692  1.2525
 6499SOL     OW30955   3.965   3.030   2.944  0.0870 -0.5384 -0.0967
 6499SOL    HW130956   3.885   3.076   2.919  0.1025 -1.0888 -1.1392
 6499SOL    HW230957   3.937   2.977   3.018  1.0418 -1.7059 -0.5729
 6500SOL     OW30958   2.178   2.985   6.657 -0.1508 -0.6489  0.0358
 6500SOL    HW130959   2.202   2.906   6.706  1.9761  0.5187  0.9075
 6500SOL    HW230960   2.257   2.994   6.603  0.1038 -1.8258  0.2109
 6501SOL     OW30961   4.530   3.724   4.593 -0.0241  0.4743 -0.3979
 6501SOL    HW130962   4.543   3.703   4.686  1.8862 -0.6824 -0.9279
 6501SOL    HW230963   4.618   3.692   4.571  0.3671  2.4288 -1.6274
 6502SOL     OW30964   3.723   4.567  13.020  0.8269  0.2105  0.0165
 6502SOL    HW130965   3.652   4.550  12.958 -0.0041  1.1927  0.6910
 6502SOL    HW230966   3.794   4.579  12.956  1.2281 -3.6638 -0.2285
 6503SOL     OW30967   4.206   1.945   6.980  0.3104  0.4257  0.0468
 6503SOL    HW130968   4.212   1.987   7.066  2.2300 -1.4038  0.8273
 6503SOL    HW230969   4.277   1.880   6.981  1.0366  1.1858 -2.1101
 6504SOL     OW30970   2.432   0.242   1.588  0.2949 -0.0203 -0.4204
 6504SOL    HW130971   2.455   0.184   1.516 -0.5012  0.1336 -0.7954
 6504SOL    HW230972   2.342   0.215   1.606  0.6801 -0.2417  1.2538
 6505SOL     OW30973   1.437   3.898  11.828 -0.6652  0.3055  0.1559
 6505SOL    HW130974   1.437   3.810  11.791  0.5145  0.7806 -0.9806
 6505SOL    HW230975   1.440   3.877  11.922  0.0663  2.6115  0.6527
 6506SOL     OW30976   1.158   1.609   7.672  0.1416  0.5580 -0.0168
 6506SOL    HW130977   1.106   1.665   7.730  0.4701  2.1959 -1.3101
 6506SOL    HW230978   1.214   1.559   7.732  1.0898  1.0187 -0.5332
 6507SOL     OW30979   4.069   2.111   4.391 -0.2174  0.4673  0.4032
 6507SOL    HW130980   4.030   2.112   4.304 -0.2238 -1.6456  0.3708
 6507SOL    HW230981   4.109   2.024   4.396  0.8278  1.0134  1.8181
 6508SOL     OW30982   3.582   3.045   1.853  0.2798 -0.2848 -0.1459
 6508SOL    HW130983   3.602   3.017   1.764  3.4549 -2.6836  1.3065
 6508SOL    HW230984   3.665   3.014   1.889  0.3931 -2.4140 -2.1972
 6509SOL     OW30985   1.834   0.872   6.032 -0.0686 -0.1777  0.3005
 6509SOL    HW130986   1.901   0.804   6.038  0.7213  0.6439  0.7180
 6509SOL    HW230987   1.759   0.818   6.057 -1.0713  1.5397  0.9940
 6510SOL     OW30988   2.537   4.457   2.195  0.4288 -0.3869  0.4149
 6510SOL    HW130989   2.570   4.397   2.129  0.5575  0.0240  0.1037
 6510SOL    HW230990   2.568   4.426   2.279 -0.7142 -1.2937  0.5091
 6511SOL     OW30991   2.526   0.464   7.208 -0.2588  0.3000 -0.9428
 6511SOL    HW130992   2.453   0.462   7.271 -0.0478 -3.3339 -0.8331
 6511SOL    HW230993   2.585   0.536   7.231 -1.2566  0.9679 -0.4598
 6512SOL     OW30994   0.853   2.645   4.046  0.7322  0.0109 -0.4385
 6512SOL    HW130995   0.794   2.635   3.971  0.2601  1.2348 -0.2304
 6512SOL    HW230996   0.799   2.602   4.113  1.5282  0.2876  0.3861
 6513SOL     OW30997   2.937   1.648   5.912 -0.6295 -0.1969  0.0698
 6513SOL    HW130998   2.949   1.566   5.864 -0.8916  0.0568 -0.4302
 6513SOL    HW230999   2.965   1.711   5.845  0.3465  0.4222  1.0406
 6514SOL     OW31000   4.458   2.324  16.943  0.2030  0.1628  0.1341
 6514SOL    HW131001   4.376   2.275  16.947  0.8362 -0.6859  2.6131
 6514SOL    HW231002   4.423   2.397  16.993 -0.7154 -1.1587  1.4315
 6515SOL     OW31003   0.939   0.469   9.633 -0.1467  0.1598 -0.2215
 6515SOL    HW131004   0.854   0.459   9.676  0.7934  2.4431  2.1374
 6515SOL    HW231005   0.920   0.508   9.548 -2.0365  0.3027  0.2616
 6516SOL     OW31006   2.438   2.631  13.956  0.2299 -0.6067 -0.0534
 6516SOL    HW131007   2.390   2.568  14.011 -1.3315  0.1641 -0.5666
 6516SOL    HW231008   2.465   2.576  13.882 -1.2374 -2.6022  0.8965
 6517SOL     OW31009   2.959   0.488   6.945 -0.1915  0.0294  0.4540
 6517SOL    HW131010   2.886   0.500   6.884 -0.2932 -0.6493  0.4466
 6517SOL    HW231011   2.963   0.573   6.989 -0.8933  0.5896 -0.5573
 6518SOL     OW31012   3.082   3.877   3.109  0.3567  0.0331 -0.1881
 6518SOL    HW131013   3.158   3.831   3.073  1.8788  2.5711 -0.1742
 6518SOL    HW231014   3.019   3.805   3.100  0.6873 -0.1311 -1.2118
 6519SOL     OW31015   2.354   4.465   6.307  0.4724 -0.0360  0.3166
 6519SOL    HW131016   2.434   4.513   6.328  1.2267 -1.7566  1.4168
 6519SOL    HW231017   2.377   4.437   6.219 -0.4408  4.2665 -1.2938
 6520SOL     OW31018   4.627   0.559  14.726  0.3773  0.7704  0.0582
 6520SOL    HW131019   4.714   0.520  14.716 -1.1022 -2.1755 -1.3149
 6520SOL    HW231020   4.611   0.604  14.643 -0.6651 -1.9324 -1.2064
 6521SOL     OW31021   0.148   2.380   9.770  0.0480  0.3799 -0.3325
 6521SOL    HW131022   0.060   2.381   9.733 -0.0979 -1.3006 -0.0068
 6521SOL    HW231023   0.181   2.468   9.752 -2.3974  1.2592 -0.4265
 6522SOL     OW31024   3.145   1.287   5.409  0.0910 -0.0503  0.5869
 6522SOL    HW131025   3.141   1.373   5.453 -1.7790  0.7994 -1.2423
 6522SOL    HW231026   3.220   1.298   5.351  0.4434 -0.7701  0.9101
 6523SOL     OW31027   3.711   2.760   0.046  0.3434  0.3489 -0.3219
 6523SOL    HW131028   3.623   2.762   0.007  0.1400 -0.0181  0.1142
 6523SOL    HW231029   3.719   2.671   0.081  0.8646  1.0731  1.3694
 6524SOL     OW31030   0.148   4.264   4.680  0.2884 -0.2702  0.5217
 6524SOL    HW131031   0.241   4.284   4.686  0.2565  0.2159 -0.5124
 6524SOL    HW231032   0.129   4.313   4.600  3.4842 -2.5522 -1.5897
 6525SOL     OW31033   3.005   4.167   7.787 -0.2155 -0.2757  0.0144
 6525SOL    HW131034   3.019   4.257   7.760 -2.3516 -0.3832 -1.4360
 6525SOL    HW231035   3.056   4.166   7.868  0.2010 -4.0538 -0.2959
 6526SOL     OW31036   3.025   4.176   8.633  0.0611  0.4433  0.8370
 6526SOL    HW131037   3.056   4.087   8.650 -2.4882 -0.4083  1.0144
 6526SOL    HW231038   3.000   4.167   8.541 -0.4908 -0.1254  1.0378
 6527SOL     OW31039   0.993   4.492   7.028  0.1304  0.5131 -0.6694
 6527SOL    HW131040   0.993   4.459   6.938  0.3912  0.1707 -0.5440
 6527SOL    HW231041   0.991   4.414   7.082  2.0508  1.0561  0.2169
 6528SOL     OW31042   0.467   0.044   3.694 -0.1803  0.6757 -0.0427
 6528SOL    HW131043   0.465   0.104   3.769  0.6915  0.4651  0.1502
 6528SOL    HW231044   0.376   0.021   3.674 -0.5942  1.1732  1.2818
 6529SOL     OW31045   1.668   2.127   4.060 -0.6634 -0.6592  0.2997
 6529SOL    HW131046   1.721   2.079   4.124  0.1998  0.7983  0.6749
 6529SOL    HW231047   1.704   2.070   3.992  0.7184  1.5421 -0.8039
 6530SOL     OW31048   3.201   4.501   7.104 -0.1730 -0.2413  0.1704
 6530SOL    HW131049   3.153   4.438   7.158 -0.6768  1.5538  1.7836
 6530SOL    HW231050   3.268   4.437   7.079 -1.3614 -1.2232 -0.4919
 6531SOL     OW31051   0.258   0.340   1.622  0.0860 -0.2361 -0.7177
 6531SOL    HW131052   0.211   0.333   1.540  1.9105 -0.4772 -1.7433
 6531SOL    HW231053   0.343   0.304   1.597  1.9974  2.2714  2.0682
 6532SOL     OW31054   0.123   0.433   0.669 -0.9592 -0.0953  0.0500
 6532SOL    HW131055   0.092   0.371   0.604  1.7571 -0.9221 -0.4513
 6532SOL    HW231056   0.157   0.490   0.600 -0.1814  1.3689  1.6555
 6533SOL     OW31057   4.103   4.509   2.829 -0.1688  0.1034  0.3066
 6533SOL    HW131058   4.197   4.526   2.824  0.0086 -1.3638 -1.6862
 6533SOL    HW231059   4.094   4.415   2.811 -1.4197  0.6142 -1.7463
 6534SOL     OW31060   3.376   2.975   8.048  0.3140  0.1924 -0.1877
 6534SOL    HW131061   3.451   2.942   8.098 -0.0001  0.1656  0.2601
 6534SOL    HW231062   3.365   2.916   7.974  0.3400 -1.3672  1.0501
 6535SOL     OW31063   3.294   2.243   8.149  0.1670  0.2289  0.4474
 6535SOL    HW131064   3.343   2.214   8.226 -0.7684  0.7245  1.2390
 6535SOL    HW231065   3.342   2.203   8.077 -1.3544 -0.5686 -0.1231
 6536SOL     OW31066   2.002   0.839   3.941  0.1010 -0.3708 -0.5214
 6536SOL    HW131067   1.918   0.861   3.902 -0.6862 -0.6863  0.9716
 6536SOL    HW231068   2.028   0.767   3.884  0.0598 -0.9991  0.2447
 6537SOL     OW31069   3.044   2.163   5.908 -0.1109 -0.2074 -0.7848
 6537SOL    HW131070   3.102   2.089   5.926 -2.0419 -1.4474  0.2980
 6537SOL    HW231071   3.076   2.175   5.818 -0.3770 -2.1938 -1.1572
 6538SOL     OW31072   4.053   1.510   4.118  0.4057  0.1110 -0.3171
 6538SOL    HW131073   4.037   1.499   4.212 -0.9462 -2.3636 -0.8442
 6538SOL    HW231074   4.013   1.435   4.075 -0.7344  1.3136 -1.3841
 6539SOL     OW31075   2.715   3.430   3.136 -0.0979 -0.3751  0.0208
 6539SOL    HW131076   2.774   3.356   3.151  1.6647  1.3300  1.3720
 6539SOL    HW231077   2.672   3.429   3.221  0.1714  2.9512  0.1922
 6540SOL     OW31078   1.159   3.896   3.972  0.0611 -0.1246  0.8108
 6540SOL    HW131079   1.171   3.973   3.916 -1.8633 -0.4814 -0.0952
 6540SOL    HW231080   1.249   3.864   3.974 -0.3189 -1.1846  0.9819
 6541SOL     OW31081   1.414   3.999   6.064 -0.4431 -1.1514 -0.2453
 6541SOL    HW131082   1.342   3.954   6.019  0.6573 -2.1908 -0.9781
 6541SOL    HW231083   1.361   4.052   6.123  2.9963  1.5932  0.3776
 6542SOL     OW31084   0.780   3.822   6.467  0.5825  0.5193 -0.5214
 6542SOL    HW131085   0.715   3.892   6.460 -0.5704 -0.4516  0.6372
 6542SOL    HW231086   0.725   3.757   6.424 -1.8973  1.2330  1.5795
 6543SOL     OW31087   4.070   1.233   5.049  0.0774  0.3664  0.2221
 6543SOL    HW131088   4.026   1.149   5.038  1.4553 -0.1358 -1.4409
 6543SOL    HW231089   4.113   1.242   4.964 -0.9814 -2.9250 -0.6676
 6544SOL     OW31090   2.125   4.545   3.743  0.0109  0.7417 -0.1738
 6544SOL    HW131091   2.088   4.459   3.723  1.1471  0.3474 -0.5888
 6544SOL    HW231092   2.148   4.561   3.651  3.4536 -1.2204  0.3741
 6545SOL     OW31093   1.604   1.683   8.697 -0.4962 -0.5589 -0.6109
 6545SOL    HW131094   1.692   1.696   8.734 -0.7868 -0.3543  0.0090
 6545SOL    HW231095   1.609   1.747   8.627  1.8135 -0.4149 -0.3348
 6546SOL     OW31096   4.165   2.051   7.607 -0.1728 -0.3294 -0.2067
 6546SOL    HW131097   4.248   2.022   7.645  1.1091  1.6935 -1.4978
 6546SOL    HW231098   4.106   2.008   7.669 -0.3579 -0.8763 -0.7664
 6547SOL     OW31099   3.728   1.754   8.639  0.2919  0.5410 -0.6161
 6547SOL    HW131100   3.725   1.675   8.585  0.5736  0.3407 -0.3375
 6547SOL    HW231101   3.758   1.717   8.722 -0.7929 -1.2188 -1.0158
 6548SOL     OW31102   2.204   1.784  12.280  0.6590  0.2354  0.1674
 6548SOL    HW131103   2.211   1.832  12.362 -0.6072  0.3576  0.2128
 6548SOL    HW231104   2.239   1.849  12.219  2.7524 -1.5773 -0.5629
 6549SOL     OW31105   1.815   3.925   2.956 -0.2585  0.1248  0.0184
 6549SOL    HW131106   1.841   3.839   2.922 -2.5450 -1.9688  3.5499
 6549SOL    HW231107   1.724   3.915   2.983  0.2518 -1.3160  1.2240
 6550SOL     OW31108   1.880   4.246   5.445 -0.3003  0.3386  0.0381
 6550SOL    HW131109   1.838   4.251   5.530 -1.4210  0.5528 -0.5265
 6550SOL    HW231110   1.908   4.155   5.448 -0.7886  0.1563 -0.7936
 6551SOL     OW31111   1.453   4.013   4.332 -0.6916 -0.0660 -0.0723
 6551SOL    HW131112   1.369   4.046   4.300  1.3016  2.0061 -3.2133
 6551SOL    HW231113   1.501   3.995   4.251  0.1479 -0.3083  0.4749
 6552SOL     OW31114   1.209   4.160   0.688 -0.2035  0.7673 -0.4917
 6552SOL    HW131115   1.134   4.147   0.631 -1.0106  1.1861  0.4667
 6552SOL    HW231116   1.155   4.155   0.767  2.4678  2.0314  1.4333
 6553SOL     OW31117   0.114   0.637   4.899 -0.0440 -0.1102 -0.2215
 6553SOL    HW131118   0.102   0.622   4.805 -0.4837 -4.2764  0.5072
 6553SOL    HW231119   0.118   0.543   4.919 -0.9237 -0.3479 -1.1604
 6554SOL     OW31120   0.000   0.629   3.499  0.0695  0.3030 -0.2585
 6554SOL    HW131121   0.024   0.537   3.489  0.5246  0.3175  0.7115
 6554SOL    HW231122   4.678   0.652   3.416  0.4636 -1.2185 -0.8888
 6555SOL     OW31123   2.023   3.048   5.979  0.7003  0.7512  0.2906
 6555SOL    HW131124   1.946   3.056   6.035  0.5342  1.1635 -0.0023
 6555SOL    HW231125   2.044   2.955   5.990  0.3597  0.6104 -0.2997
 6556SOL     OW31126   2.169   3.060   5.036  0.5143 -0.1326 -0.3322
 6556SOL    HW131127   2.124   3.062   4.952 -3.4316  1.5956  1.8051
 6556SOL    HW231128   2.118   2.983   5.062  0.8404 -0.2914 -0.1667
 6557SOL     OW31129   0.472   2.339   4.635 -0.3616  0.1652  0.3849
 6557SOL    HW131130   0.539   2.407   4.641  0.7334 -0.8230 -0.6154
 6557SOL    HW231131   0.425   2.375   4.559 -0.8899  1.8572  1.5195
 6558SOL     OW31132   4.548   2.448   2.479 -0.1038 -0.6061  0.3953
 6558SOL    HW131133   4.473   2.415   2.430 -0.9332  0.1172  1.2039
 6558SOL    HW231134   4.610   2.458   2.406 -0.4828 -0.4074  0.0993
 6559SOL     OW31135   1.062   0.931   2.574  0.6414  0.3622 -0.3832
 6559SOL    HW131136   1.012   0.977   2.641  0.9432 -0.8726  0.6861
 6559SOL    HW231137   1.087   0.852   2.622  0.6432 -0.4101 -1.6484
 6560SOL     OW31138   3.922   2.506   0.978 -0.4811  0.4052  0.2123
 6560SOL    HW131139   3.881   2.555   1.050  0.7716  1.5202  0.1792
 6560SOL    HW231140   3.998   2.463   1.018 -0.2799  0.2753 -0.3174
 6561SOL     OW31141   2.866   4.239   8.306 -0.1609  0.5221 -0.5554
 6561SOL    HW131142   2.841   4.297   8.378 -1.5823  0.8611 -1.3218
 6561SOL    HW231143   2.923   4.300   8.259  0.4036 -1.0647 -1.9152
 6562SOL     OW31144   2.170   3.192   7.088 -0.5312  0.0026 -0.3993
 6562SOL    HW131145   2.164   3.277   7.044 -1.2509  0.1594 -0.0123
 6562SOL    HW231146   2.080   3.166   7.109 -0.5974  0.9557  0.5157
 6563SOL     OW31147   1.473   1.011   1.834 -0.0815  0.0409 -0.3066
 6563SOL    HW131148   1.548   1.069   1.838  0.1447 -0.2930  0.2884
 6563SOL    HW231149   1.434   1.024   1.920 -0.1786  3.1930 -0.8375
 6564SOL     OW31150   3.430   1.765   5.483 -0.4401  0.3270 -0.1492
 6564SOL    HW131151   3.493   1.699   5.453 -0.8733 -1.4104  2.7375
 6564SOL    HW231152   3.362   1.756   5.417 -1.0687 -1.0188  0.6945
 6565SOL     OW31153   3.774   3.022   2.691  0.0558  0.0758 -0.1230
 6565SOL    HW131154   3.784   3.112   2.659 -3.8599  0.3873 -0.5395
 6565SOL    HW231155   3.783   2.974   2.609  1.7507 -0.0173  0.1274
 6566SOL     OW31156   3.998   3.019   8.936  0.7589 -0.5497  0.3389
 6566SOL    HW131157   3.994   2.965   9.014 -0.1017 -2.1148 -0.7772
 6566SOL    HW231158   4.092   3.035   8.923  0.8826 -2.4968 -1.2403
 6567SOL     OW31159   1.468   1.621   8.038  0.4524 -0.8923  0.3723
 6567SOL    HW131160   1.432   1.542   7.997  0.8423 -1.1526  0.5402
 6567SOL    HW231161   1.560   1.596   8.042  0.3621 -1.1887  0.5781
 6568SOL     OW31162   0.484   3.851   8.895 -0.8767  0.2824  0.3140
 6568SOL    HW131163   0.457   3.915   8.961 -0.0541 -1.2099  2.1229
 6568SOL    HW231164   0.476   3.774   8.951  1.0857  0.2159  0.5127
 6569SOL     OW31165   2.302   1.773   7.838 -0.3034 -0.2512 -0.0529
 6569SOL    HW131166   2.356   1.695   7.852 -0.5463 -0.2849  0.7192
 6569SOL    HW231167   2.233   1.748   7.900  0.1554 -1.2470  0.0652
 6570SOL     OW31168   2.692   0.193  13.436  0.1235  0.6193  0.0927
 6570SOL    HW131169   2.782   0.193  13.404  0.3014  0.8232  0.6017
 6570SOL    HW231170   2.679   0.279  13.474  0.3244  0.2221  1.0522
 6571SOL     OW31171   0.465   4.619   9.400 -0.0417 -0.4835 -0.1051
 6571SOL    HW131172   0.462   4.589   9.309  0.0158  1.2191 -0.6788
 6571SOL    HW231173   0.413   4.553   9.445  0.0702  0.1154  0.8995
 6572SOL     OW31174   4.538   4.213   9.883  0.6257  0.0657  0.3325
 6572SOL    HW131175   4.517   4.154   9.811 -0.8070 -0.0431  0.8322
 6572SOL    HW231176   4.599   4.270   9.837 -0.8454  1.2542 -0.1451
 6573SOL     OW31177   0.133   3.792   7.880 -0.1869  0.3707  0.2295
 6573SOL    HW131178   0.105   3.728   7.946  1.8450 -2.4524 -1.5961
 6573SOL    HW231179   0.081   3.759   7.807  0.9088 -1.2950  0.1813
 6574SOL     OW31180   0.205   2.591  14.734  0.1069 -0.1669  0.5968
 6574SOL    HW131181   0.196   2.508  14.781  0.0217  0.1843  1.1960
 6574SOL    HW231182   0.226   2.558  14.647 -1.3752 -0.5216  0.3793
 6575SOL     OW31183   4.611   3.283   6.218  0.8761 -0.1755  0.3937
 6575SOL    HW131184   4.644   3.309   6.304  1.7241 -0.4811  0.1629
 6575SOL    HW231185   4.696   3.259   6.181  1.0345 -3.5801  3.0006
 6576SOL     OW31186   2.000   3.889   2.217 -0.2271  0.4025  0.2142
 6576SOL    HW131187   2.041   3.868   2.301  0.9806  0.4279 -0.3697
 6576SOL    HW231188   2.066   3.862   2.153 -0.9207  1.7474 -1.0765
 6577SOL     OW31189   3.451   3.222  14.945  0.2121 -0.6080 -0.2266
 6577SOL    HW131190   3.525   3.200  14.889  1.2033  2.1634 -0.0115
 6577SOL    HW231191   3.481   3.298  14.995  0.1174 -0.3397 -0.5738
 6578SOL     OW31192   3.941   3.859   0.681 -0.2293  0.9363  0.6577
 6578SOL    HW131193   3.985   3.943   0.688  0.6867  0.5531 -0.4890
 6578SOL    HW231194   3.983   3.822   0.603 -2.5158  0.6946 -0.4677
 6579SOL     OW31195   3.652   3.922   2.145  0.0783  0.3888  0.0892
 6579SOL    HW131196   3.744   3.918   2.172  0.5614  0.3575 -1.5737
 6579SOL    HW231197   3.626   3.832   2.161 -0.4948  0.0315 -2.8402
 6580SOL     OW31198   2.590   4.301   7.948  0.3354  0.6206 -0.0239
 6580SOL    HW131199   2.518   4.334   7.894  2.0020  3.3299 -0.5687
 6580SOL    HW231200   2.543   4.312   8.032  1.3930  1.7818  0.4113
 6581SOL     OW31201   0.474   0.473   7.533  0.6099 -0.3050 -0.5127
 6581SOL    HW131202   0.518   0.544   7.485 -0.4639 -0.0962 -1.1941
 6581SOL    HW231203   0.438   0.418   7.463  1.7525 -0.2159 -1.1853
 6582SOL     OW31204   1.481   4.405  16.962 -0.0445  0.2908 -0.0675
 6582SOL    HW131205   1.576   4.394  16.957  0.0403  1.0316 -0.1595
 6582SOL    HW231206   1.458   4.429  17.052  2.2928 -0.1856  0.6374
 6583SOL     OW31207   0.067   3.421   1.270 -0.1770  0.2870 -0.5366
 6583SOL    HW131208   0.051   3.422   1.364 -2.2297 -0.7882 -0.8567
 6583SOL    HW231209   0.144   3.365   1.260 -0.5678 -0.5270  1.0488
 6584SOL     OW31210   0.025   2.457   9.313  0.3545  0.5850  0.1996
 6584SOL    HW131211   0.007   2.425   9.401  1.2947  0.3881  0.3195
 6584SOL    HW231212   0.120   2.452   9.301  0.3211 -0.2371  0.3438
 6585SOL     OW31213   0.228   0.936   8.449 -0.1640  0.7554 -0.0103
 6585SOL    HW131214   0.196   1.019   8.484  0.5781  0.6768  0.8463
 6585SOL    HW231215   0.288   0.968   8.382 -0.0182  1.5521  0.5066
 6586SOL     OW31216   0.325   0.721   1.362  0.5435 -0.0541 -0.1885
 6586SOL    HW131217   0.346   0.793   1.301  1.0574  0.1508  0.2310
 6586SOL    HW231218   0.365   0.645   1.319  1.8023  0.7885 -0.5154
 6587SOL     OW31219   2.058   0.204  12.856  0.3591  0.2958  0.2955
 6587SOL    HW131220   2.079   0.113  12.836 -0.1889 -0.0246  1.2033
 6587SOL    HW231221   2.142   0.224  12.898 -0.5461 -0.0638  2.2430
 6588SOL     OW31222   2.134   0.676  11.898  0.5933 -0.3469 -0.6786
 6588SOL    HW131223   2.181   0.758  11.913 -1.1848  0.5024  0.1774
 6588SOL    HW231224   2.136   0.632  11.984 -2.3016  0.2104 -0.3282
 6589SOL     OW31225   2.483   0.059  12.426 -0.0312  0.1377  0.0549
 6589SOL    HW131226   2.470   4.714  12.357 -0.4989 -0.2697  0.5243
 6589SOL    HW231227   2.391   0.071  12.447 -0.3186 -0.6557 -0.7543
 6590SOL     OW31228   1.719   2.190   6.842 -0.0332  0.0846 -0.7078
 6590SOL    HW131229   1.706   2.285   6.831  0.8322 -0.1667 -3.7890
 6590SOL    HW231230   1.811   2.200   6.868  0.4992 -3.5510 -1.3181
 6591SOL     OW31231   4.018   2.686   4.552  0.2916  0.1302 -0.3869
 6591SOL    HW131232   4.014   2.765   4.607  1.9155  1.7535 -2.5987
 6591SOL    HW231233   4.034   2.616   4.615 -2.8451 -1.4870 -1.3806
 6592SOL     OW31234   1.261   1.150   9.813 -0.4092 -0.4287  0.0513
 6592SOL    HW131235   1.205   1.148   9.891  0.1508 -0.4439  0.4513
 6592SOL    HW231236   1.310   1.068   9.823  0.5701  0.1018 -0.3949
 6593SOL     OW31237   3.208   4.428   8.966 -0.1605  0.1455 -0.1512
 6593SOL    HW131238   3.252   4.419   9.051 -0.9235  0.2435  0.2566
 6593SOL    HW231239   3.229   4.349   8.916 -0.3976 -0.9952  1.5470
 6594SOL     OW31240   0.418   1.893   7.428 -0.0671 -0.3896  0.6657
 6594SOL    HW131241   0.422   1.826   7.496 -0.7135 -2.6002 -1.4639
 6594SOL    HW231242   0.459   1.966   7.473 -2.5551  0.0709  2.1894
 6595SOL     OW31243   1.570   0.456   3.645 -0.6669 -0.1763 -0.5282
 6595SOL    HW131244   1.511   0.392   3.605  0.7139 -2.1804  0.6721
 6595SOL    HW231245   1.618   0.401   3.706 -1.1130 -0.8389 -0.7706
 6596SOL     OW31246   3.021   1.168   7.459 -0.0112 -0.2814  0.0043
 6596SOL    HW131247   2.952   1.113   7.422 -0.9483 -0.0429  1.4061
 6596SOL    HW231248   2.977   1.193   7.540  1.1500  2.4642 -0.2279
 6597SOL     OW31249   3.439   3.146  10.497  1.1891 -0.2451 -0.0322
 6597SOL    HW131250   3.515   3.092  10.518  0.9812 -1.1223 -1.4972
 6597SOL    HW231251   3.407   3.110  10.414  0.1218  2.7179 -0.9053
 6598SOL     OW31252   3.894   2.257   5.489  0.5020 -0.0993  0.3411
 6598SOL    HW131253   3.835   2.188   5.460  1.9533 -0.7901 -0.9240
 6598SOL    HW231254   3.969   2.250   5.431  2.0939  1.6816  2.2004
 6599SOL     OW31255   0.485   2.709   1.877 -0.4455 -0.5822 -0.1906
 6599SOL    HW131256   0.519   2.620   1.878  1.8782  0.2720 -1.7686
 6599SOL    HW231257   0.390   2.695   1.879 -0.4160 -0.5443  2.0305
 6600SOL     OW31258   3.550   3.045   7.340  0.1331  0.6687 -0.1077
 6600SOL    HW131259   3.620   3.046   7.274 -0.0711  0.4571 -0.3298
 6600SOL    HW231260   3.493   2.974   7.312 -1.8923  2.7821 -1.3387
 6601SOL     OW31261   1.341   1.379  14.530  0.3895  0.0514  0.0107
 6601SOL    HW131262   1.271   1.340  14.477  0.5956  0.1157 -0.3135
 6601SOL    HW231263   1.385   1.407  14.450 -2.1273  1.2572 -0.9568
 6602SOL     OW31264   2.837   2.849   8.507 -1.1968  0.0310 -0.7362
 6602SOL    HW131265   2.810   2.760   8.486 -0.9437 -0.2619  0.1894
 6602SOL    HW231266   2.863   2.880   8.420  2.1677  2.0921  0.9814
 6603SOL     OW31267   1.110   2.353   4.723 -0.0432 -0.4863  0.0097
 6603SOL    HW131268   1.098   2.346   4.817  1.4801 -3.0338  0.0052
 6603SOL    HW231269   1.203   2.348   4.701  0.0742 -0.3665  0.4808
 6604SOL     OW31270   3.279   0.714   7.207 -0.5005 -0.0695 -0.1758
 6604SOL    HW131271   3.369   0.745   7.196 -0.0321 -1.2277  0.4329
 6604SOL    HW231272   3.247   0.725   7.117  1.2956  0.0030 -0.8234
 6605SOL     OW31273   4.493   3.938   2.327  0.2108 -1.0321  0.3207
 6605SOL    HW131274   4.442   4.016   2.350  0.1481 -0.9294 -0.1681
 6605SOL    HW231275   4.427   3.873   2.352 -0.7925 -0.6580 -1.3231
 6606SOL     OW31276   3.925   2.082  14.791  0.1751  0.6886  0.0082
 6606SOL    HW131277   4.014   2.045  14.787 -0.2006 -0.3299  1.0541
 6606SOL    HW231278   3.919   2.079  14.886 -0.9831  0.1630 -0.0883
 6607SOL     OW31279   1.194   1.819  16.807  0.0082  0.3149  0.2449
 6607SOL    HW131280   1.249   1.884  16.850  0.3318  0.0442  0.2347
 6607SOL    HW231281   1.150   1.865  16.735 -0.0580 -2.8006 -1.7339
 6608SOL     OW31282   2.741   1.539   4.988  0.1836 -0.1772 -0.4183
 6608SOL    HW131283   2.681   1.566   5.058  0.4320 -1.6206  0.3361
 6608SOL    HW231284   2.807   1.607   5.000  0.2383 -0.5174  1.1750
 6609SOL     OW31285   4.515   4.593   2.850 -0.1758  0.4261 -0.0340
 6609SOL    HW131286   4.441   4.608   2.792  0.8515 -1.2735 -1.7806
 6609SOL    HW231287   4.542   4.507   2.817  1.8427  0.1041  2.4162
 6610SOL     OW31288   0.522   3.957  11.948 -0.3143  0.0233  0.1713
 6610SOL    HW131289   0.474   4.011  12.009  1.2271  0.2259  1.2068
 6610SOL    HW231290   0.545   3.875  11.993 -2.6189 -0.4626  0.4246
 6611SOL     OW31291   1.638   0.779  10.978 -0.0346 -0.2910  0.1826
 6611SOL    HW131292   1.663   0.851  11.035 -0.5760  1.6594 -2.0570
 6611SOL    HW231293   1.699   0.789  10.905  0.6244  1.8982  1.0455
 6612SOL     OW31294   3.367   2.108   6.041  0.4604  0.2392 -0.5316
 6612SOL    HW131295   3.444   2.161   6.063  0.2537 -0.1980  1.2840
 6612SOL    HW231296   3.381   2.090   5.949  0.9080 -0.5105 -0.3095
 6613SOL     OW31297   2.383   4.569   5.869  0.2463 -0.0240  0.2079
 6613SOL    HW131298   2.434   4.583   5.789 -1.0069 -2.2845 -0.9852
 6613SOL    HW231299   2.303   4.532   5.832 -0.3585 -1.4479  2.9773
 6614SOL     OW31300   1.756   1.899   4.167 -0.7889 -0.2280  0.0786
 6614SOL    HW131301   1.714   1.871   4.248 -2.8658  0.8829 -0.6196
 6614SOL    HW231302   1.849   1.878   4.164 -0.8574 -0.8089  1.9210
 6615SOL     OW31303   2.747   0.594   9.837  0.0589  0.0239 -0.1774
 6615SOL    HW131304   2.665   0.639   9.817  0.3163  0.6862  0.2633
 6615SOL    HW231305   2.806   0.645   9.781 -0.3497 -0.5963 -1.1710
 6616SOL     OW31306   1.183   4.487   2.243  0.0684 -0.0730 -0.6176
 6616SOL    HW131307   1.140   4.437   2.174  0.7224  1.1184 -1.8959
 6616SOL    HW231308   1.147   4.575   2.231 -1.5881 -0.5709  0.7085
 6617SOL     OW31309   2.153   3.956   8.188  0.3614 -0.4688  0.3970
 6617SOL    HW131310   2.221   4.020   8.209  0.8310 -1.3121  1.4495
 6617SOL    HW231311   2.160   3.894   8.261 -1.0017  2.1596  2.7825
 6618SOL     OW31312   2.869   0.433   5.926 -0.0700  0.3741 -0.3912
 6618SOL    HW131313   2.958   0.426   5.893 -0.1291 -1.2849 -0.2323
 6618SOL    HW231314   2.822   0.391   5.854 -1.4570  1.4968 -0.1454
 6619SOL     OW31315   1.863   1.585   5.473  0.2953  0.3129 -0.0198
 6619SOL    HW131316   1.800   1.598   5.402 -0.2597  2.7324  0.8977
 6619SOL    HW231317   1.881   1.491   5.462  1.0298  0.7429 -2.4754
 6620SOL     OW31318   0.352   3.746   0.962  0.4082 -0.0800 -0.6873
 6620SOL    HW131319   0.328   3.838   0.976 -1.2627 -0.9051  1.8279
 6620SOL    HW231320   0.336   3.707   1.048 -2.1077  0.7934 -0.7600
 6621SOL     OW31321   1.495   0.972   7.287 -0.4144  0.2727  0.1674
 6621SOL    HW131322   1.473   1.065   7.291  1.1298  0.6639 -0.3590
 6621SOL    HW231323   1.534   0.944   7.370  0.6739 -0.4426 -0.5759
 6622SOL     OW31324   0.112   0.726  10.680 -0.0282 -0.3428  0.3373
 6622SOL    HW131325   0.091   0.638  10.648 -0.2300 -0.9441  2.1285
 6622SOL    HW231326   0.068   0.787  10.620  0.1455 -1.0420 -0.4992
 6623SOL     OW31327   4.234   1.714   4.074 -0.0328  0.1008 -0.3288
 6623SOL    HW131328   4.175   1.646   4.108  1.1011 -0.7236 -0.0163
 6623SOL    HW231329   4.167   1.773   4.040 -0.1181  0.8007  1.0754
 6624SOL     OW31330   4.078   3.120   1.372  0.1239  0.1444 -0.5938
 6624SOL    HW131331   4.134   3.053   1.332 -1.6339 -1.3730 -0.5195
 6624SOL    HW231332   4.068   3.180   1.298  0.2641  1.0207  0.0991
 6625SOL     OW31333   2.382   1.329  14.043  0.0731 -0.6437  0.5130
 6625SOL    HW131334   2.412   1.288  13.961 -0.3697 -1.4797  0.7596
 6625SOL    HW231335   2.456   1.387  14.061 -0.8704 -0.2144  2.8938
 6626SOL     OW31336   0.718   3.039  14.872  0.1686  0.5405  0.7772
 6626SOL    HW131337   0.804   2.997  14.868  0.5901  1.3199  1.5767
 6626SOL    HW231338   0.697   3.069  14.783  3.0884 -0.7874 -0.3532
 6627SOL     OW31339   2.674   2.462   2.257  0.0470 -0.2895 -0.0064
 6627SOL    HW131340   2.674   2.393   2.190 -1.4915 -0.6694  0.3941
 6627SOL    HW231341   2.616   2.528   2.219 -0.4760 -0.5771  0.3096
 6628SOL     OW31342   0.579   4.292   4.088 -0.0440  0.4156  0.0060
 6628SOL    HW131343   0.672   4.290   4.111  0.0485 -0.5055 -0.4256
 6628SOL    HW231344   0.542   4.235   4.156 -1.1841  0.6546 -0.4166
 6629SOL     OW31345   1.447   0.367   5.573  0.4545 -0.0544  0.9366
 6629SOL    HW131346   1.484   0.299   5.517 -0.2096  0.2968  0.0640
 6629SOL    HW231347   1.534   0.399   5.596  1.1059  0.6254 -2.4498
 6630SOL     OW31348   4.056   2.870   3.886  0.0231 -0.1551  0.6121
 6630SOL    HW131349   4.075   2.787   3.929 -1.1245 -0.6086  0.2418
 6630SOL    HW231350   3.993   2.918   3.942 -0.9521 -0.2481 -0.4128
 6631SOL     OW31351   4.641   0.717   7.907 -0.2836 -0.3117  0.0354
 6631SOL    HW131352   4.588   0.792   7.932 -1.0084 -0.6277 -0.5271
 6631SOL    HW231353   4.679   0.696   7.992 -1.8511  0.2547  0.8775
 6632SOL     OW31354   1.219   1.738   1.512  0.1478  0.0155  0.0659
 6632SOL    HW131355   1.243   1.672   1.577  0.7448 -0.8344 -1.0099
 6632SOL    HW231356   1.180   1.686   1.441  0.5374  0.3359 -0.3838
 6633SOL     OW31357   4.607   3.752  15.514  0.0017 -0.0405 -0.2819
 6633SOL    HW131358   4.535   3.807  15.487  1.5742  2.2825  0.2839
 6633SOL    HW231359   4.632   3.791  15.598  0.6422 -2.7324  0.7915
 6634SOL     OW31360   4.348   0.918   1.757  0.3252 -0.2383 -0.2318
 6634SOL    HW131361   4.259   0.950   1.776  1.7662  4.1538 -0.9815
 6634SOL    HW231362   4.349   0.833   1.802  0.9483 -0.1901 -0.1552
 6635SOL     OW31363   0.773   1.752   4.931 -0.0817 -0.4729  0.1461
 6635SOL    HW131364   0.828   1.676   4.951 -0.9839 -1.3458 -0.7592
 6635SOL    HW231365   0.838   1.822   4.919  0.8777 -1.2473  0.7833
 6636SOL     OW31366   0.930   2.822   8.977 -0.0587  0.3193  0.4904
 6636SOL    HW131367   0.864   2.828   8.907 -0.2051 -0.9138  0.5112
 6636SOL    HW231368   0.883   2.843   9.058 -0.0552 -1.9407  1.0929
 6637SOL     OW31369   2.720   1.333   8.257  0.6456 -0.4930 -0.3737
 6637SOL    HW131370   2.631   1.361   8.281 -0.0302 -2.4643 -0.5839
 6637SOL    HW231371   2.774   1.404   8.292 -0.7304 -0.1922  1.1534
 6638SOL     OW31372   1.396   3.455  15.352  0.4536  0.4425 -0.5313
 6638SOL    HW131373   1.476   3.484  15.306  0.5885  0.1946 -0.4515
 6638SOL    HW231374   1.333   3.463  15.280 -1.5598 -0.5563  1.1498
 6639SOL     OW31375   2.726   3.076   8.851 -0.1104 -0.4600 -0.3242
 6639SOL    HW131376   2.793   3.028   8.900 -0.7031 -0.3233  0.6253
 6639SOL    HW231377   2.675   3.003   8.817 -0.9903  0.1316 -0.2801
 6640SOL     OW31378   2.100   3.557  17.194 -0.1459 -0.4303  0.1131
 6640SOL    HW131379   2.026   3.566  17.254 -0.5154 -0.5223 -0.3291
 6640SOL    HW231380   2.132   3.470  17.219  0.6353  0.0337  0.7419
 6641SOL     OW31381   3.444   3.123  14.132  0.0343  0.2873 -0.2702
 6641SOL    HW131382   3.482   3.090  14.050  0.3249 -0.2697  0.0905
 6641SOL    HW231383   3.470   3.215  14.127 -1.0256  0.5617 -0.7153
 6642SOL     OW31384   0.448   2.010   1.117 -0.3935  0.2323 -0.2837
 6642SOL    HW131385   0.444   1.948   1.190  0.4226 -0.7762 -1.0995
 6642SOL    HW231386   0.354   2.017   1.099 -0.2098  3.4650  0.0176
 6643SOL     OW31387   1.363   2.948   4.127  0.0729  0.0678 -0.0483
 6643SOL    HW131388   1.351   3.034   4.167  0.3483 -0.4502  1.1585
 6643SOL    HW231389   1.333   2.963   4.037 -0.0448  0.4516  0.0568
 6644SOL     OW31390   0.539   4.531   5.839  0.4909  0.7516 -0.4630
 6644SOL    HW131391   0.605   4.576   5.786  0.7598  0.5003 -0.3396
 6644SOL    HW231392   0.467   4.587   5.810 -1.1072 -0.6624  0.7661
 6645SOL     OW31393   2.362   2.279   7.427  0.2049  0.0949 -0.0382
 6645SOL    HW131394   2.320   2.347   7.479  0.9088  0.5281 -0.0395
 6645SOL    HW231395   2.399   2.331   7.356 -1.0276  0.6607 -0.2716
 6646SOL     OW31396   4.509   0.895  13.445  0.5141 -0.4552 -0.0945
 6646SOL    HW131397   4.547   0.963  13.501  0.1927 -0.8426  0.5922
 6646SOL    HW231398   4.558   0.819  13.475  2.0161  0.3781 -0.4291
 6647SOL     OW31399   0.771   4.481   5.987  0.1671 -0.1210  0.1019
 6647SOL    HW131400   0.819   4.419   5.931 -2.0407 -1.6029 -0.1332
 6647SOL    HW231401   0.693   4.489   5.932  0.9130 -0.0942 -0.9599
 6648SOL     OW31402   3.992   1.351   8.337 -0.1275  0.1505  0.0816
 6648SOL    HW131403   3.997   1.349   8.432  1.3013 -1.4186 -0.0321
 6648SOL    HW231404   3.930   1.423   8.323  0.0896  0.0082 -1.6846
 6649SOL     OW31405   1.794   1.161  16.718 -0.1293 -0.1626 -0.1038
 6649SOL    HW131406   1.712   1.117  16.698 -0.3649 -0.5220  1.7257
 6649SOL    HW231407   1.792   1.242  16.666  1.2564  0.1169  0.2650
 6650SOL     OW31408   3.611   0.674   5.561 -0.1966  0.1872 -0.4426
 6650SOL    HW131409   3.604   0.738   5.490  0.2384 -1.4835 -1.9897
 6650SOL    HW231410   3.702   0.659   5.588 -0.7639  0.3879  1.5470
 6651SOL     OW31411   0.473   4.386   2.504  0.4539  0.3842  0.0104
 6651SOL    HW131412   0.500   4.397   2.595 -0.9335 -2.9728  0.8042
 6651SOL    HW231413   0.495   4.294   2.494  1.2269  0.5719 -0.0404
 6652SOL     OW31414   3.870   2.751   1.608  0.5582 -0.3036 -0.3431
 6652SOL    HW131415   3.807   2.823   1.614  2.0977  1.0507 -0.4278
 6652SOL    HW231416   3.954   2.797   1.612  0.2213  0.1339  1.8717
 6653SOL     OW31417   1.791   1.200   6.783  0.2746 -0.5987 -0.2361
 6653SOL    HW131418   1.783   1.126   6.843  0.6267 -0.2611  0.2263
 6653SOL    HW231419   1.702   1.234   6.779  0.5508  0.1349 -0.1279
 6654SOL     OW31420   3.325   0.340   2.070  0.1999  0.2422 -0.2299
 6654SOL    HW131421   3.240   0.330   2.027  0.0786  0.0445  0.0544
 6654SOL    HW231422   3.376   0.294   2.003 -1.4473  0.3912 -1.5853
 6655SOL     OW31423   0.285   1.133   0.692  0.7471 -0.2073  0.0719
 6655SOL    HW131424   0.289   1.074   0.617  2.0626  2.8672 -2.2285
 6655SOL    HW231425   0.190   1.129   0.705  0.6306 -1.1944 -1.1174
 6656SOL     OW31426   2.393   2.729  11.868 -0.1140  0.1137 -0.1812
 6656SOL    HW131427   2.370   2.820  11.884  1.8064  0.2133  2.0079
 6656SOL    HW231428   2.488   2.739  11.876 -0.2567 -0.3774  2.1868
 6657SOL     OW31429   3.253   0.757   7.666 -0.1410 -0.0883  0.2255
 6657SOL    HW131430   3.207   0.840   7.657  1.2244  0.6117 -0.1475
 6657SOL    HW231431   3.186   0.694   7.637 -0.7147  0.1159  1.0998
 6658SOL     OW31432   2.473   3.355   9.324 -0.0572  0.3000  0.1435
 6658SOL    HW131433   2.548   3.373   9.267 -1.7087 -1.0172 -2.4112
 6658SOL    HW231434   2.456   3.445   9.353  1.1030  0.2963  0.8383
 6659SOL     OW31435   2.545   2.949   7.753  0.3968  0.2968  0.2079
 6659SOL    HW131436   2.477   3.006   7.718  0.5140  0.6501  0.5570
 6659SOL    HW231437   2.625   2.959   7.703 -0.8012  0.2982 -1.6957
 6660SOL     OW31438   2.804   0.972   8.393 -0.2189  0.4102 -0.0225
 6660SOL    HW131439   2.716   0.998   8.420 -0.3299  2.1982 -2.0971
 6660SOL    HW231440   2.831   0.913   8.464 -1.8360 -2.1578 -1.5409
 6661SOL     OW31441   2.520   4.152   3.212  0.1200 -0.0642  0.3816
 6661SOL    HW131442   2.505   4.061   3.237  0.1060 -0.6798 -1.9473
 6661SOL    HW231443   2.588   4.177   3.274  0.0002 -2.5288  1.4919
 6662SOL     OW31444   4.060   2.566   1.739 -0.4052  0.4701 -0.0585
 6662SOL    HW131445   4.079   2.659   1.749  1.4162  0.2626 -1.6700
 6662SOL    HW231446   4.127   2.544   1.675 -1.0940 -2.2941  0.1737
 6663SOL     OW31447   0.766   4.641  16.992 -0.6155 -0.7610 -0.3798
 6663SOL    HW131448   0.691   4.598  17.033  1.0236 -3.0841  0.1705
 6663SOL    HW231449   0.753   4.621  16.899  1.4245  1.0015 -1.0573
 6664SOL     OW31450   3.612   2.918   5.186  0.0597 -0.1545 -0.4419
 6664SOL    HW131451   3.614   2.980   5.259  0.5404  0.5781 -1.0816
 6664SOL    HW231452   3.637   2.977   5.115  0.8553  0.6237  0.4833
 6665SOL     OW31453   3.719   0.263   8.440  0.1916 -0.0473  0.7323
 6665SOL    HW131454   3.644   0.207   8.456  0.7804 -1.0649 -0.0343
 6665SOL    HW231455   3.741   0.304   8.523 -0.2511  1.9389 -0.1142
 6666SOL     OW31456   2.757   1.638   2.677 -0.4133 -0.2353  0.2228
 6666SOL    HW131457   2.694   1.607   2.741 -0.5895  2.2116  1.2200
 6666SOL    HW231458   2.702   1.704   2.633  0.8328  0.2174 -0.6562
 6667SOL     OW31459   0.170   2.499   4.781  0.8208 -0.2036  0.1821
 6667SOL    HW131460   0.199   2.432   4.843 -0.0738  0.7909  1.6797
 6667SOL    HW231461   0.250   2.549   4.763  0.7345 -0.3545 -0.6278
 6668SOL     OW31462   3.811   0.039  11.693 -0.1349  0.3741  0.1458
 6668SOL    HW131463   3.823   0.013  11.602 -3.7907 -0.8050  0.0224
 6668SOL    HW231464   3.721   0.070  11.691 -0.1302  0.4988  1.6868
 6669SOL     OW31465   0.666   1.592   1.302 -0.8365  0.2345  0.2287
 6669SOL    HW131466   0.700   1.638   1.379  0.4577  0.2837 -0.3791
 6669SOL    HW231467   0.735   1.585   1.237 -1.7448 -1.3504 -0.5478
 6670SOL     OW31468   3.031   0.283   9.593 -0.5525 -0.4933 -0.5169
 6670SOL    HW131469   3.012   0.313   9.681  1.3571 -1.0202  0.0687
 6670SOL    HW231470   3.010   0.360   9.539 -0.2452  0.9941  1.5168
 6671SOL     OW31471   4.373   0.229  11.263 -0.3075  0.6722 -0.0735
 6671SOL    HW131472   4.398   0.280  11.186  2.2838 -0.2486  0.1399
 6671SOL    HW231473   4.432   0.153  11.262 -0.5218  0.4589  2.9674
 6672SOL     OW31474   2.301   1.253   4.714  0.3163 -0.0199  0.4139
 6672SOL    HW131475   2.380   1.223   4.668  0.7354 -1.1726  1.8712
 6672SOL    HW231476   2.284   1.333   4.665  1.5221  0.5759  0.9532
 6673SOL     OW31477   0.242   2.654   0.443 -0.1086  0.4067  0.4148
 6673SOL    HW131478   0.286   2.738   0.433  0.6203 -0.1728 -1.2364
 6673SOL    HW231479   0.225   2.630   0.352 -0.5538 -0.7789  0.8029
 6674SOL     OW31480   3.577   1.396   9.909 -0.2288 -0.2771 -0.3107
 6674SOL    HW131481   3.564   1.422   9.818 -2.2914 -2.5144 -0.6753
 6674SOL    HW231482   3.525   1.458   9.960 -0.8686 -0.5402 -0.6381
 6675SOL     OW31483   1.636   0.911   3.172  0.2867 -0.1343  0.6050
 6675SOL    HW131484   1.574   0.977   3.203  0.3971  0.1936  0.1213
 6675SOL    HW231485   1.682   0.966   3.108  0.8662 -0.2592  0.9106
 6676SOL     OW31486   2.661   1.343  11.900 -0.4724 -0.0362  0.1506
 6676SOL    HW131487   2.570   1.318  11.918 -0.5288 -1.4413 -1.9786
 6676SOL    HW231488   2.646   1.356  11.806  0.0467 -0.8649 -0.0411
 6677SOL     OW31489   1.269   1.413  12.219  0.2402  0.0322  0.2254
 6677SOL    HW131490   1.340   1.352  12.200  1.1733  0.7968  1.2001
 6677SOL    HW231491   1.223   1.404  12.136 -0.3522 -0.5247  0.6130
 6678SOL     OW31492   1.374   1.293  15.002  0.4236  0.8490  0.1763
 6678SOL    HW131493   1.308   1.235  15.039  0.0479  2.7710  2.5276
 6678SOL    HW231494   1.359   1.269  14.911  0.0685 -0.4247  0.5651
 6679SOL     OW31495   2.124   2.280   6.711 -0.4943  0.1878  0.1892
 6679SOL    HW131496   2.056   2.216   6.733 -1.1585  0.6589 -0.5046
 6679SOL    HW231497   2.111   2.277   6.616  1.2334 -2.2603  0.0401
 6680SOL     OW31498   2.937   2.382  16.617 -0.2707 -0.1766  0.1787
 6680SOL    HW131499   2.998   2.317  16.650 -1.2656 -0.6812  1.0385
 6680SOL    HW231500   2.987   2.461  16.636 -0.1831 -0.5326  1.4391
 6681SOL     OW31501   3.375   0.055   3.639  0.1103  1.0210 -0.1856
 6681SOL    HW131502   3.365   0.041   3.545 -1.1467 -1.8771  0.3651
 6681SOL    HW231503   3.290   0.026   3.671  0.4922 -0.3499 -0.3822
 6682SOL     OW31504   4.150   3.255   8.562  0.0768 -0.1545 -0.0306
 6682SOL    HW131505   4.189   3.328   8.514 -0.5556 -0.0639 -0.4034
 6682SOL    HW231506   4.216   3.186   8.563 -0.9648 -1.1943 -3.1819
 6683SOL     OW31507   1.257   1.722   5.831  0.1762  0.1861  0.0758
 6683SOL    HW131508   1.275   1.641   5.879  1.4719  1.7799  2.2429
 6683SOL    HW231509   1.339   1.769   5.842  0.6426 -0.5033 -0.3895
 6684SOL     OW31510   2.154   1.867   0.301  0.2536 -0.3260  0.4640
 6684SOL    HW131511   2.101   1.791   0.323 -1.5117  0.8879  0.4030
 6684SOL    HW231512   2.101   1.892   0.225 -1.0329 -0.1782  1.4096
 6685SOL     OW31513   1.382   1.306   4.331  0.3069  0.0380 -0.5882
 6685SOL    HW131514   1.309   1.263   4.288 -0.6867 -1.0860  2.2382
 6685SOL    HW231515   1.436   1.238   4.372  1.5221  0.8461 -0.8470
 6686SOL     OW31516   4.177   3.969  12.032 -0.0669 -0.3145  0.3353
 6686SOL    HW131517   4.149   3.952  11.942 -0.5913 -0.6422  0.5550
 6686SOL    HW231518   4.236   4.041  12.012  0.3435 -0.6378  0.3941
 6687SOL     OW31519   2.280   3.871   5.254 -0.1594  0.1865  0.1369
 6687SOL    HW131520   2.351   3.829   5.205 -1.3833 -2.7100  0.8159
 6687SOL    HW231521   2.216   3.801   5.243 -1.1959  1.3278 -1.0502
 6688SOL     OW31522   0.715   1.541   4.175 -0.5105 -1.0241 -0.4488
 6688SOL    HW131523   0.758   1.503   4.098 -0.9367 -0.2072 -1.1014
 6688SOL    HW231524   0.792   1.592   4.200 -0.1177 -2.0587  0.4262
 6689SOL     OW31525   2.241   1.070  13.428  0.1300  0.2409  0.6794
 6689SOL    HW131526   2.264   1.149  13.476 -1.2677  0.2136  1.3895
 6689SOL    HW231527   2.245   1.002  13.495 -0.2037  0.9172  1.3823
 6690SOL     OW31528   0.077   1.424   0.407  0.0645 -0.0445  0.0212
 6690SOL    HW131529   0.014   1.495   0.392 -1.4581 -0.9631  2.2506
 6690SOL    HW231530   0.156   1.469   0.375  0.2279  0.4398  1.1166
 6691SOL     OW31531   4.486   2.519   1.688 -0.2037 -0.0414 -0.3081
 6691SOL    HW131532   4.392   2.538   1.684 -0.0005  1.3276  1.3757
 6691SOL    HW231533   4.487   2.424   1.674  2.1295 -0.0484 -0.0371
 6692SOL     OW31534   3.902   2.061   0.345  0.2120  0.4817  0.3453
 6692SOL    HW131535   3.883   1.967   0.341  3.1631 -0.1008 -0.1218
 6692SOL    HW231536   3.813   2.090   0.366 -0.0150 -0.6839  0.9800
 6693SOL     OW31537   3.781   2.366   8.233 -0.2165 -0.1500 -0.3646
 6693SOL    HW131538   3.743   2.430   8.293 -3.7581 -0.7927 -1.9322
 6693SOL    HW231539   3.837   2.420   8.178 -0.2067 -1.4016 -1.5874
 6694SOL     OW31540   4.398   2.262   1.530  0.6208 -0.1935  0.4193
 6694SOL    HW131541   4.439   2.202   1.468 -1.8371 -1.0557 -0.3594
 6694SOL    HW231542   4.318   2.216   1.556  0.1778  0.8266  0.9082
 6695SOL     OW31543   4.558   2.690   3.443 -0.2564  0.2863  0.4321
 6695SOL    HW131544   4.625   2.751   3.474 -1.2450  0.8299  1.4810
 6695SOL    HW231545   4.597   2.605   3.463 -1.1782 -0.3777 -0.6368
 6696SOL     OW31546   4.310   4.526   6.462  0.0786  0.4389  0.0313
 6696SOL    HW131547   4.374   4.509   6.393  0.6884  1.0824  0.4417
 6696SOL    HW231548   4.343   4.469   6.531  0.0165 -0.8895 -1.0275
 6697SOL     OW31549   0.561   0.950   9.387  1.2226 -0.4422 -0.3931
 6697SOL    HW131550   0.582   0.873   9.333  1.8161  0.4029 -1.3805
 6697SOL    HW231551   0.468   0.965   9.369  1.1491  0.5620  0.9273
 6698SOL     OW31552   4.363   3.092   8.220 -0.1311 -0.0160  0.6988
 6698SOL    HW131553   4.373   3.163   8.158 -0.9752  0.4014  1.0284
 6698SOL    HW231554   4.355   3.134   8.306 -0.6891  0.5231  0.3877
 6699SOL     OW31555   3.068   3.292   8.817 -0.0966 -0.5125  0.7937
 6699SOL    HW131556   3.021   3.253   8.744 -2.1013  0.2078  1.6769
 6699SOL    HW231557   3.136   3.342   8.773 -0.6374 -1.6011 -1.2410
 6700SOL     OW31558   1.980   2.406  16.778 -0.1224 -0.0616 -0.2125
 6700SOL    HW131559   2.009   2.420  16.688 -0.5181 -0.3087 -0.3810
 6700SOL    HW231560   1.979   2.310  16.778  1.6279 -0.0748 -1.4934
 6701SOL     OW31561   2.258   3.860  14.543 -0.2189  0.0648  0.9237
 6701SOL    HW131562   2.332   3.799  14.544 -0.5724 -0.4078 -0.3789
 6701SOL    HW231563   2.236   3.859  14.636 -0.3148  0.5514  0.9049
 6702SOL     OW31564   2.470   1.114   3.198 -0.7175  0.0346 -0.2834
 6702SOL    HW131565   2.410   1.188   3.204  0.4097  0.6689  3.0227
 6702SOL    HW231566   2.408   1.041   3.206 -0.6149 -0.0635 -0.3993
 6703SOL     OW31567   2.159   1.974   7.607 -0.1689 -0.5518 -0.7775
 6703SOL    HW131568   2.210   2.047   7.641 -1.4540 -1.0407  2.1847
 6703SOL    HW231569   2.122   1.943   7.689  0.2036  2.0903  0.3757
 6704SOL     OW31570   0.413   1.210   5.082  0.2838 -0.0581 -0.0379
 6704SOL    HW131571   0.435   1.264   5.006 -1.2643 -0.9027 -1.0894
 6704SOL    HW231572   0.337   1.257   5.118  1.7367  0.4752  2.3797
 6705SOL     OW31573   0.649   1.444   2.066  0.0397  0.8125 -0.3605
 6705SOL    HW131574   0.612   1.454   2.153  1.7963 -2.8190  0.8443
 6705SOL    HW231575   0.734   1.488   2.071  0.2434  0.5810 -1.7573
 6706SOL     OW31576   3.478   3.022   9.540 -0.5142 -0.5800  0.1047
 6706SOL    HW131577   3.534   3.096   9.563  0.4169 -0.8997 -1.1139
 6706SOL    HW231578   3.474   3.037   9.445 -0.1913  0.4134  0.2462
 6707SOL     OW31579   3.439   4.663   1.084  0.1198  0.3877 -0.1891
 6707SOL    HW131580   3.348   4.637   1.096 -0.1261  0.6852 -1.4384
 6707SOL    HW231581   3.479   4.607   1.152 -1.7270 -1.1380 -0.3641
 6708SOL     OW31582   1.839   0.711   9.488  0.0465  0.5559 -0.2437
 6708SOL    HW131583   1.825   0.656   9.411 -3.1087  1.3633 -0.2271
 6708SOL    HW231584   1.783   0.671   9.555  1.3069 -0.4179  0.2408
 6709SOL     OW31585   2.406   2.775  11.068 -0.0505  0.1532  0.3629
 6709SOL    HW131586   2.389   2.683  11.047  1.4460 -0.3808  1.5177
 6709SOL    HW231587   2.373   2.785  11.157  0.0493 -0.1214  0.4315
 6710SOL     OW31588   3.948   4.592   7.363 -0.9218  0.0010 -0.3959
 6710SOL    HW131589   3.872   4.644   7.338 -1.2363 -0.2097  0.1313
 6710SOL    HW231590   4.015   4.644   7.319  2.2735 -1.0637  3.2463
 6711SOL     OW31591   2.535   1.213  11.074 -0.6378  0.4688  0.1290
 6711SOL    HW131592   2.568   1.261  10.999  0.7750 -1.8683 -0.7272
 6711SOL    HW231593   2.447   1.250  11.085 -0.6016  1.1941 -2.0894
 6712SOL     OW31594   3.293   3.728   2.940  0.6611 -0.2832 -0.8323
 6712SOL    HW131595   3.227   3.755   2.877 -0.9706  2.0303  1.8793
 6712SOL    HW231596   3.299   3.643   2.896  2.4524 -1.4672  1.6952
 6713SOL     OW31597   3.017   2.890  15.868 -0.1546  0.1757  0.1155
 6713SOL    HW131598   3.084   2.906  15.802  0.4776  0.1261  0.7449
 6713SOL    HW231599   3.034   2.967  15.922 -1.4150 -0.5844  1.5742
 6714SOL     OW31600   2.234   4.356   2.666 -0.3642 -0.1584  0.0377
 6714SOL    HW131601   2.210   4.448   2.682  0.6493  0.2273 -0.6395
 6714SOL    HW231602   2.273   4.335   2.750  1.1515  0.1647 -0.5827
 6715SOL     OW31603   3.761   4.151   7.127  0.1027 -0.5880 -0.0850
 6715SOL    HW131604   3.719   4.141   7.041  1.8793 -1.1747 -0.8832
 6715SOL    HW231605   3.791   4.062   7.142 -0.1195 -0.8196 -0.9914
 6716SOL     OW31606   2.284   2.443   7.633 -0.8032  0.2333 -0.3706
 6716SOL    HW131607   2.242   2.422   7.717  1.1194 -3.8274 -0.3938
 6716SOL    HW231608   2.317   2.532   7.645  4.1182 -1.3457 -1.9904
 6717SOL     OW31609   0.064   0.531   8.825  0.3173 -0.3205 -0.1693
 6717SOL    HW131610   0.056   0.626   8.828 -0.4491 -0.3258 -2.2726
 6717SOL    HW231611   0.126   0.517   8.897  0.7450  2.6012  0.0158
 6718SOL     OW31612   2.424   3.121   7.006 -0.4771  0.1460 -0.3399
 6718SOL    HW131613   2.399   3.106   6.915 -0.4599 -2.5275  0.0917
 6718SOL    HW231614   2.341   3.145   7.047 -1.0273 -1.1114 -0.6932
 6719SOL     OW31615   0.197   2.854   2.903 -0.5310  0.2430  0.1729
 6719SOL    HW131616   0.209   2.822   2.813  0.7314 -0.8703  0.7225
 6719SOL    HW231617   0.280   2.889   2.937 -0.0443 -0.0674 -0.6881
 6720SOL     OW31618   0.207   2.015   2.166  0.2702  0.4274 -0.0413
 6720SOL    HW131619   0.281   1.967   2.129 -1.3333 -3.3896  1.7256
 6720SOL    HW231620   0.229   2.105   2.141  0.1125  0.9518  1.7528
 6721SOL     OW31621   2.328   1.258   5.008  0.1047 -0.6025  0.3291
 6721SOL    HW131622   2.345   1.275   4.915  2.2964 -0.3948  0.7813
 6721SOL    HW231623   2.234   1.241   5.015 -0.2569  1.6626  0.9236
 6722SOL     OW31624   3.539   3.624   9.937  0.9148  0.2622 -0.0282
 6722SOL    HW131625   3.454   3.665   9.954 -0.4063 -1.3076 -2.9209
 6722SOL    HW231626   3.575   3.689   9.875  1.5641 -0.1578 -0.0856
 6723SOL     OW31627   4.669   0.020   4.261  0.6293 -0.3302  0.1825
 6723SOL    HW131628   4.602   0.022   4.330  2.4855  4.4537  1.8722
 6723SOL    HW231629   4.719   4.666   4.294  0.1048 -1.2867 -1.2104
 6724SOL     OW31630   3.997   1.227   4.051  0.2551 -0.2774 -0.1890
 6724SOL    HW131631   4.048   1.156   4.091 -0.7347  0.8335  3.0804
 6724SOL    HW231632   4.039   1.214   3.966 -0.1151 -0.9119 -0.2715
 6725SOL     OW31633   0.985   1.914   1.049 -0.0424  0.4504 -0.1586
 6725SOL    HW131634   1.058   1.963   1.087  0.7993 -0.1893 -0.9597
 6725SOL    HW231635   1.027   1.839   1.009  3.0247  1.8279  0.5069
 6726SOL     OW31636   0.789   2.694   9.239 -0.2472 -0.6006  0.0999
 6726SOL    HW131637   0.842   2.636   9.294  0.5215 -0.2309 -0.2504
 6726SOL    HW231638   0.826   2.776   9.273 -1.6271  0.4079 -0.8377
 6727SOL     OW31639   1.952   0.328   9.962  0.3414  0.1428  0.7773
 6727SOL    HW131640   1.963   0.423   9.958 -1.2762  0.3392  1.1104
 6727SOL    HW231641   1.860   0.312   9.940  0.4677  1.9009 -1.0104
 6728SOL     OW31642   0.047   4.607   6.010 -0.5151  0.2410 -1.2299
 6728SOL    HW131643   0.110   4.549   6.053  1.9354  2.6621 -1.6123
 6728SOL    HW231644   0.086   4.624   5.925 -0.5135 -1.2489 -1.5297
 6729SOL     OW31645   2.308   1.555   1.159 -0.3769  0.4144  0.2880
 6729SOL    HW131646   2.368   1.481   1.164 -0.6301  0.2928  1.8087
 6729SOL    HW231647   2.373   1.614   1.121  0.8498 -0.8940  0.3422
 6730SOL     OW31648   2.573   1.596   2.883 -0.2668  0.1483  0.2074
 6730SOL    HW131649   2.535   1.511   2.903  1.5844 -0.3719  1.5933
 6730SOL    HW231650   2.499   1.653   2.902  0.4873  1.4535 -0.7216
 6731SOL     OW31651   1.469   4.076  17.031  0.0209  0.2841  0.0911
 6731SOL    HW131652   1.436   4.157  17.069  0.3293  1.4392 -2.0929
 6731SOL    HW231653   1.565   4.080  17.029  0.0452  0.5025  2.3132
 6732SOL     OW31654   0.520   2.134   0.879  0.3368 -0.2680 -0.1827
 6732SOL    HW131655   0.475   2.101   0.957  0.9355  0.2661  0.3886
 6732SOL    HW231656   0.603   2.089   0.898 -0.3655 -1.6149 -0.3255
 6733SOL     OW31657   0.679   2.910   5.851 -0.0786 -0.4088 -0.0111
 6733SOL    HW131658   0.711   2.963   5.924  1.9127 -0.3601 -0.9207
 6733SOL    HW231659   0.730   2.943   5.777  0.0185  1.3734  0.8740
 6734SOL     OW31660   1.949   1.659   0.280 -0.0714  0.3589 -0.1579
 6734SOL    HW131661   1.862   1.628   0.258 -0.0327  0.4556 -0.4576
 6734SOL    HW231662   1.995   1.583   0.245  0.7649  1.1808 -0.8794
 6735SOL     OW31663   4.682   1.243   5.206 -0.6732 -0.4529 -0.4092
 6735SOL    HW131664   4.637   1.237   5.290 -1.7229 -0.4217 -0.9543
 6735SOL    HW231665   4.602   1.268   5.158  0.8608 -0.4826 -2.9724
 6736SOL     OW31666   1.100   3.820   0.165  0.0302 -0.2122  0.4555
 6736SOL    HW131667   1.116   3.890   0.102 -0.7956 -0.2460  0.2186
 6736SOL    HW231668   1.189   3.819   0.202  0.0727 -0.3953  0.3465
 6737SOL     OW31669   3.493   2.698  11.180 -0.7215 -0.4825  0.1463
 6737SOL    HW131670   3.568   2.714  11.123 -2.0313 -1.1324 -1.7437
 6737SOL    HW231671   3.537   2.675  11.262 -0.0599  2.6057  0.6593
 6738SOL     OW31672   4.649   3.402   4.523 -0.0917  0.6054 -0.1188
 6738SOL    HW131673   4.680   3.489   4.548 -0.4228  0.5953  0.3250
 6738SOL    HW231674   4.586   3.379   4.591  0.4198 -1.0825 -0.2196
 6739SOL     OW31675   1.722   1.122   5.323 -0.2118  0.0228 -0.2828
 6739SOL    HW131676   1.697   1.059   5.391  1.0519 -1.5686 -1.2801
 6739SOL    HW231677   1.640   1.116   5.275 -0.1569  1.1890 -0.5228
 6740SOL     OW31678   1.899   1.829   0.764  0.3163 -0.8954 -0.4743
 6740SOL    HW131679   1.957   1.754   0.749  0.4305 -0.5708 -1.6823
 6740SOL    HW231680   1.901   1.837   0.859  0.7010 -2.6605 -0.3354
 6741SOL     OW31681   4.021   0.029   4.825  0.0916  0.2440  0.4617
 6741SOL    HW131682   3.989   0.078   4.901 -1.0696  0.0974  0.0613
 6741SOL    HW231683   3.998   4.661   4.855  3.7729 -1.0324 -0.4995
 6742SOL     OW31684   3.949   1.024  12.935  0.2454 -0.0070 -0.3014
 6742SOL    HW131685   3.883   1.021  13.004  1.2069 -2.8123  0.5053
 6742SOL    HW231686   3.960   0.930  12.926  0.6398 -0.0101  0.2386
 6743SOL     OW31687   0.940   0.140   1.465  0.3578  0.5242 -0.0254
 6743SOL    HW131688   0.896   0.224   1.449 -0.4800  0.4799  2.0033
 6743SOL    HW231689   1.032   0.165   1.470  0.4946  0.0953 -0.4343
 6744SOL     OW31690   0.409   2.978   6.199 -0.2126 -0.2208 -0.3697
 6744SOL    HW131691   0.475   3.043   6.225 -0.6919  0.3298 -0.5130
 6744SOL    HW231692   0.363   3.020   6.126 -0.6416  0.3073  0.2063
 6745SOL     OW31693   0.100   0.795   4.183 -0.0501  0.5528 -0.6992
 6745SOL    HW131694   0.191   0.819   4.200 -0.8304  1.1290  2.6727
 6745SOL    HW231695   0.083   0.840   4.100  3.1190  0.5900 -1.3198
 6746SOL     OW31696   0.177   1.779   8.442 -0.3945  0.1559  0.3476
 6746SOL    HW131697   0.182   1.857   8.497  0.7119 -0.6450  1.3809
 6746SOL    HW231698   0.175   1.709   8.508 -2.9735  1.1893  1.3654
 6747SOL     OW31699   2.212   1.649   8.796 -0.1619  0.1229  0.4638
 6747SOL    HW131700   2.234   1.571   8.847 -0.6177 -0.9181 -0.9300
 6747SOL    HW231701   2.166   1.701   8.862 -0.5104  1.1941 -0.6291
 6748SOL     OW31702   4.659   1.957   0.960 -0.9026  0.5780  0.4911
 6748SOL    HW131703   4.617   2.024   0.907 -0.5108  2.4364  2.5639
 6748SOL    HW231704   4.648   1.879   0.904  3.6074 -0.5202  1.0907
 6749SOL     OW31705   3.459   0.699  13.051  0.0058  0.0042 -0.1234
 6749SOL    HW131706   3.541   0.653  13.071 -1.7355 -2.9130  0.3682
 6749SOL    HW231707   3.400   0.628  13.078 -1.6935  1.6188  0.3697
 6750SOL     OW31708   1.382   1.614  14.673 -0.4598 -0.1624 -0.0170
 6750SOL    HW131709   1.462   1.582  14.714 -0.2842  0.6050  0.2425
 6750SOL    HW231710   1.353   1.539  14.620 -1.4767 -1.4863  2.4100
 6751SOL     OW31711   1.824   0.068   7.807 -0.9587 -0.0040  0.0310
 6751SOL    HW131712   1.741   0.021   7.800 -1.1241  0.3310 -0.2352
 6751SOL    HW231713   1.839   0.079   7.901  0.2124 -0.8080 -0.0554
 6752SOL     OW31714   1.328   0.975  17.200  0.7264 -0.5075  0.4087
 6752SOL    HW131715   1.376   1.054  17.176 -0.2545 -0.5619 -1.7569
 6752SOL    HW231716   1.348   0.917  17.127  2.9983  0.5246  0.2234
 6753SOL     OW31717   0.065   3.730   3.371 -0.0030 -0.1247  0.7833
 6753SOL    HW131718   0.148   3.683   3.379  0.0599 -0.1697 -0.2077
 6753SOL    HW231719   0.084   3.803   3.431 -0.5013 -0.0031  0.7955
 6754SOL     OW31720   1.699   0.145  16.882 -0.3465  0.2602  0.0602
 6754SOL    HW131721   1.682   0.122  16.974 -2.0876  0.8884 -0.0987
 6754SOL    HW231722   1.690   0.058  16.843 -1.3021 -0.6237  2.2619
 6755SOL     OW31723   1.288   3.332  14.907 -0.0815  0.0968 -0.0190
 6755SOL    HW131724   1.259   3.242  14.922 -2.4294  1.1740  1.9163
 6755SOL    HW231725   1.381   3.333  14.930 -0.3047  1.0975  0.8433
 6756SOL     OW31726   3.321   4.133   5.668 -0.2472 -0.1150  0.0670
 6756SOL    HW131727   3.273   4.197   5.721 -0.3916 -1.9835  2.2076
 6756SOL    HW231728   3.392   4.180   5.625 -0.5092  1.2204  1.1018
 6757SOL     OW31729   0.591   4.517  17.151  0.5912  0.1630 -0.3729
 6757SOL    HW131730   0.519   4.467  17.189  0.6217  0.0360 -0.4833
 6757SOL    HW231731   0.556   4.601  17.180  0.3707 -0.7728  2.1362
 6758SOL     OW31732   4.633   3.761  14.519  0.2681  0.1484 -0.0143
 6758SOL    HW131733   4.632   3.849  14.555  0.0084 -0.0468  0.4562
 6758SOL    HW231734   4.592   3.708  14.587  1.1723  0.8233  1.0563
 6759SOL     OW31735   2.704   3.347   0.902  0.0814  0.7958 -0.5954
 6759SOL    HW131736   2.706   3.349   0.806 -0.2929 -1.0067 -0.6383
 6759SOL    HW231737   2.793   3.315   0.915 -0.9874 -1.1404  1.9355
 6760SOL     OW31738   1.781   4.397   4.405 -0.1891  0.1344 -0.2244
 6760SOL    HW131739   1.723   4.330   4.368  0.2928 -0.3545 -0.1040
 6760SOL    HW231740   1.858   4.379   4.351  1.6458  1.0418  2.0705
 6761SOL     OW31741   0.447   4.003   2.895  0.5484  0.3795 -0.2646
 6761SOL    HW131742   0.369   4.033   2.848  1.3824  1.2399 -1.1226
 6761SOL    HW231743   0.446   4.073   2.960 -0.5625  1.0003 -0.9536
 6762SOL     OW31744   1.144   1.088  11.735 -0.2687 -0.3768  0.0795
 6762SOL    HW131745   1.058   1.046  11.731 -0.0830 -0.6878 -0.7378
 6762SOL    HW231746   1.138   1.171  11.688  0.8467 -0.6028 -0.4542
 6763SOL     OW31747   1.719   1.972   2.570 -0.0542  0.0834 -0.2910
 6763SOL    HW131748   1.771   1.951   2.648  0.3401 -0.1532 -0.6184
 6763SOL    HW231749   1.737   2.066   2.576  0.6616  0.0028 -1.2066
 6764SOL     OW31750   3.991   4.081   2.780  0.2322 -0.6982  0.3073
 6764SOL    HW131751   4.050   4.019   2.738 -0.7196 -1.1684 -0.3402
 6764SOL    HW231752   3.960   4.024   2.851 -2.1971  0.4965  0.2227
 6765SOL     OW31753   2.290   3.381   8.476  0.7741  0.5817 -0.5734
 6765SOL    HW131754   2.248   3.309   8.429  0.3696  1.2880 -1.3049
 6765SOL    HW231755   2.378   3.344   8.480 -1.0413 -3.6832 -0.7959
 6766SOL     OW31756   4.403   1.006   2.767  0.3002  0.2263 -0.7499
 6766SOL    HW131757   4.430   0.959   2.688 -2.2586 -0.2782 -1.3018
 6766SOL    HW231758   4.391   0.931   2.825  1.5368  0.0407 -0.7276
 6767SOL     OW31759   4.278   4.602   2.038 -0.7874  0.2119  0.1104
 6767SOL    HW131760   4.363   4.562   2.023 -1.8117 -2.2862  1.0244
 6767SOL    HW231761   4.222   4.537   1.995  0.9251 -1.2667  0.1675
 6768SOL     OW31762   3.537   2.404   6.446  0.3624 -0.1258 -0.1443
 6768SOL    HW131763   3.556   2.336   6.383  2.5025  0.5608 -0.2496
 6768SOL    HW231764   3.545   2.354   6.527 -1.2213 -0.6544 -0.3211
 6769SOL     OW31765   1.009   0.044  11.194  0.5590  0.1692  0.0164
 6769SOL    HW131766   0.997   4.681  11.240 -0.1416 -0.3106 -1.0527
 6769SOL    HW231767   0.933   0.036  11.137  0.8863  1.3739 -0.5912
 6770SOL     OW31768   0.074   2.888  14.804 -0.9451  0.6928 -0.0901
 6770SOL    HW131769   0.018   2.965  14.813 -1.5390  0.6100 -2.9228
 6770SOL    HW231770   0.021   2.811  14.825 -0.7708 -0.1890 -2.7635
 6771SOL     OW31771   3.414   2.921   1.292  0.4319  0.4006 -0.2641
 6771SOL    HW131772   3.471   2.924   1.214  2.4681  0.8165  1.2501
 6771SOL    HW231773   3.435   3.002   1.337  0.2619  0.2671  0.0524
 6772SOL     OW31774   2.800   1.139   2.422 -0.0650  0.1991  0.1620
 6772SOL    HW131775   2.810   1.078   2.349 -2.0302  0.1819 -0.0844
 6772SOL    HW231776   2.740   1.202   2.382 -0.6061  0.9804  2.1962
 6773SOL     OW31777   4.440   4.200  17.110 -0.0775 -0.1543  0.1635
 6773SOL    HW131778   4.379   4.174  17.179 -0.4594 -1.9009 -0.8125
 6773SOL    HW231779   4.402   4.286  17.090  0.1351 -0.1026 -0.0268
 6774SOL     OW31780   4.062   0.950   3.902  0.2774  0.2189  0.4881
 6774SOL    HW131781   3.979   0.902   3.909  1.4461 -1.5542  2.3658
 6774SOL    HW231782   4.044   1.021   3.840 -0.4900  1.5698  2.2763
 6775SOL     OW31783   2.905   3.591   6.421 -0.0591 -0.2472 -0.6232
 6775SOL    HW131784   2.933   3.682   6.426  1.9066 -0.9859  2.3989
 6775SOL    HW231785   2.959   3.551   6.353 -0.4258 -1.3798 -0.2589
 6776SOL     OW31786   3.528   0.731   2.847  0.1300  0.0154  0.2729
 6776SOL    HW131787   3.491   0.643   2.838 -1.4341  0.6519  0.5485
 6776SOL    HW231788   3.563   0.716   2.935  1.7325  0.1889 -0.3287
 6777SOL     OW31789   0.330   1.710  10.223 -0.3457 -0.2293  0.2964
 6777SOL    HW131790   0.357   1.796  10.253  1.9458 -0.7554 -0.2279
 6777SOL    HW231791   0.343   1.660  10.303 -1.3332  0.0649  0.6388
 6778SOL     OW31792   2.526   2.913   6.823 -0.7234  0.1902  0.1558
 6778SOL    HW131793   2.446   2.862   6.836 -0.6652  0.0151 -0.1827
 6778SOL    HW231794   2.564   2.912   6.911  2.2019 -0.4821 -1.1510
 6779SOL     OW31795   4.265   4.011  10.911 -0.5910 -0.0591  0.0574
 6779SOL    HW131796   4.178   4.030  10.877 -0.9859 -1.6829  0.1764
 6779SOL    HW231797   4.304   3.951  10.847  2.7627  1.9107  0.2210
 6780SOL     OW31798   3.600   3.503  12.583 -0.5113  0.1123 -0.3601
 6780SOL    HW131799   3.659   3.559  12.634  2.5170 -2.8889 -0.5455
 6780SOL    HW231800   3.552   3.568  12.531 -1.6983 -0.1427  0.4327
 6781SOL     OW31801   3.722   3.393  10.693  0.2684  0.0117  0.6599
 6781SOL    HW131802   3.743   3.345  10.773  1.6254 -1.8774 -0.8347
 6781SOL    HW231803   3.775   3.472  10.704  0.0101  0.2754  0.0537
 6782SOL     OW31804   3.519   3.920  13.522 -0.7326 -0.3025 -0.4999
 6782SOL    HW131805   3.467   4.000  13.526 -0.7783 -0.2999 -1.2114
 6782SOL    HW231806   3.578   3.948  13.453  2.2457  0.4238  2.3783
 6783SOL     OW31807   0.326   1.054   0.954  0.3598  0.4994  0.0656
 6783SOL    HW131808   0.256   1.103   0.997  0.7256  1.6457 -0.6530
 6783SOL    HW231809   0.332   1.109   0.875 -1.9772 -0.1131 -0.5429
 6784SOL     OW31810   1.573   2.806   8.144  0.4265 -0.9151 -0.1007
 6784SOL    HW131811   1.490   2.798   8.191  0.0527  0.6326 -0.4847
 6784SOL    HW231812   1.564   2.899   8.126  1.8112 -0.7600  0.0078
 6785SOL     OW31813   0.745   0.673   7.235 -0.1145  0.1490 -0.1524
 6785SOL    HW131814   0.762   0.760   7.198 -2.6724  0.6639 -0.0688
 6785SOL    HW231815   0.717   0.700   7.322 -2.2558 -2.0414 -0.1720
 6786SOL     OW31816   3.994   1.353   2.266  0.7636 -0.5836  0.4275
 6786SOL    HW131817   4.031   1.403   2.340  0.0458  1.7844 -0.8136
 6786SOL    HW231818   3.907   1.392   2.270  0.5067 -0.9506 -2.1743
 6787SOL     OW31819   2.287   1.182   8.524  0.2383 -0.0374 -0.2372
 6787SOL    HW131820   2.265   1.258   8.469  0.9183  0.3127 -0.0209
 6787SOL    HW231821   2.261   1.218   8.609  1.1917 -0.1194  0.0893
 6788SOL     OW31822   1.230   3.868   7.953 -0.6073  0.1233  0.8035
 6788SOL    HW131823   1.302   3.820   7.994 -1.7257 -2.4396 -0.2119
 6788SOL    HW231824   1.259   3.868   7.862 -0.6005 -1.4718  0.7965
 6789SOL     OW31825   4.447   3.220   3.099  0.1614 -0.0753  0.8517
 6789SOL    HW131826   4.436   3.306   3.059  0.8820 -0.4076 -0.0472
 6789SOL    HW231827   4.354   3.199   3.103 -0.1396  1.2660  0.9410
 6790SOL     OW31828   0.946   2.657   2.732  0.0112  0.0431 -0.3983
 6790SOL    HW131829   0.935   2.733   2.789 -0.3211  1.7769 -2.7538
 6790SOL    HW231830   1.038   2.658   2.705  0.6528 -0.8349  1.7338
 6791SOL     OW31831   4.204   0.378   7.407 -0.2357 -0.4509  0.1559
 6791SOL    HW131832   4.281   0.424   7.442  1.3380 -1.7515 -1.5653
 6791SOL    HW231833   4.135   0.442   7.423  1.3713  1.2105  0.4224
 6792SOL     OW31834   1.074   2.318   0.368  0.1652 -0.0435  0.2259
 6792SOL    HW131835   1.122   2.250   0.415 -0.9282 -0.4655  0.7331
 6792SOL    HW231836   1.103   2.290   0.281 -0.0214  1.4242 -0.3052
 6793SOL     OW31837   0.360   4.387   3.524  0.0896 -0.2944 -0.3939
 6793SOL    HW131838   0.328   4.467   3.482 -0.6300 -0.6856 -0.5889
 6793SOL    HW231839   0.288   4.329   3.498 -0.0273 -0.2016 -0.2820
 6794SOL     OW31840   2.523   1.464   8.447 -0.0761  0.0517  0.2474
 6794SOL    HW131841   2.428   1.480   8.454  0.0407  0.5157  0.8291
 6794SOL    HW231842   2.551   1.544   8.492 -2.1068 -1.0678  3.5223
 6795SOL     OW31843   0.015   3.958   1.705 -0.4501 -0.1023 -0.1121
 6795SOL    HW131844   0.009   4.053   1.701 -0.9182 -0.2350 -2.5579
 6795SOL    HW231845   0.075   3.952   1.779  0.2213  0.1098 -0.6407
 6796SOL     OW31846   3.947   4.029   7.754 -0.0436  0.9546 -0.2417
 6796SOL    HW131847   3.968   4.082   7.677  0.9558 -0.8105 -1.1559
 6796SOL    HW231848   3.862   3.995   7.726  1.1437 -1.1420 -1.2106
 6797SOL     OW31849   2.125   4.067   2.832 -0.2552  0.3300  0.5836
 6797SOL    HW131850   2.203   4.012   2.824  0.4230  1.1482  1.6383
 6797SOL    HW231851   2.132   4.139   2.769 -0.8354 -1.3229 -1.3574
 6798SOL     OW31852   4.009   1.737   1.359  0.2435  0.2875 -0.0070
 6798SOL    HW131853   4.084   1.692   1.399 -0.6564 -0.6501  0.6199
 6798SOL    HW231854   4.053   1.794   1.296  1.1890  0.8580  1.1758
 6799SOL     OW31855   0.069   0.952   3.584 -0.7099  0.0846  0.3520
 6799SOL    HW131856   0.009   0.893   3.630 -1.5966  2.1092  1.8391
 6799SOL    HW231857   0.031   1.037   3.609  1.0246  0.6660  0.9945
 6800SOL     OW31858   0.756   2.669   2.524  0.3146 -0.5344  0.0138
 6800SOL    HW131859   0.799   2.653   2.608  0.0166  0.8620  0.4324
 6800SOL    HW231860   0.712   2.754   2.531 -0.3283 -1.0164  1.9195
 6801SOL     OW31861   3.373   0.149   2.667 -0.0034  0.3733 -0.1358
 6801SOL    HW131862   3.438   0.099   2.617 -0.2274  0.8489 -0.8976
 6801SOL    HW231863   3.422   0.170   2.746 -0.0121  1.4827 -0.4327
 6802SOL     OW31864   1.931   2.495   6.596  0.1614 -0.5535  0.2219
 6802SOL    HW131865   1.900   2.503   6.686 -0.5133 -0.0096 -0.0508
 6802SOL    HW231866   1.954   2.586   6.577  0.4264 -0.3341  1.6081
 6803SOL     OW31867   3.322   1.279   1.036 -0.0828  0.1515 -0.4336
 6803SOL    HW131868   3.284   1.365   1.054  0.0368  0.0636  0.2544
 6803SOL    HW231869   3.383   1.312   0.970 -1.2255 -1.0172 -2.0823
 6804SOL     OW31870   2.281   1.437   9.041  0.2965  0.6586 -0.0045
 6804SOL    HW131871   2.285   1.516   9.095 -0.4996  0.3762  0.4810
 6804SOL    HW231872   2.373   1.439   9.017  0.0347  1.8010 -0.8699
 6805SOL     OW31873   4.700   2.871   6.686 -0.1876 -0.1502 -0.4895
 6805SOL    HW131874   0.010   2.792   6.731  1.1369 -0.1245 -1.3462
 6805SOL    HW231875   0.063   2.908   6.660 -1.4334  1.3606 -2.3302
 6806SOL     OW31876   3.689   3.691   8.252 -0.2815  0.0443 -0.3472
 6806SOL    HW131877   3.596   3.673   8.265 -0.5557  2.0155  0.4583
 6806SOL    HW231878   3.728   3.604   8.250 -0.7233 -0.1859  0.8993
 6807SOL     OW31879   4.529   1.878   2.794 -0.2877 -0.3269  0.1949
 6807SOL    HW131880   4.553   1.970   2.806  0.9892 -0.3130 -2.4529
 6807SOL    HW231881   4.439   1.869   2.825 -0.1360  1.8738  1.2551
 6808SOL     OW31882   3.922   0.329   4.202  0.3339 -0.3217  0.2986
 6808SOL    HW131883   3.871   0.249   4.212  0.8099 -0.6519  0.0532
 6808SOL    HW231884   3.869   0.378   4.140  2.5176  2.3293  0.5143
 6809SOL     OW31885   1.026   0.681  12.200  0.5169  0.4829  0.0207
 6809SOL    HW131886   1.046   0.738  12.126 -1.0664  1.9904  0.7566
 6809SOL    HW231887   0.938   0.703  12.231  0.4446  0.9314 -0.5035
 6810SOL     OW31888   1.001   3.333   3.081 -0.0608  0.5056 -0.1497
 6810SOL    HW131889   0.906   3.329   3.091 -0.1063 -0.2957 -0.8714
 6810SOL    HW231890   1.026   3.273   3.152  0.2363 -0.6407 -1.2145
 6811SOL     OW31891   0.955   0.561   8.066 -0.2901  0.1649  0.4883
 6811SOL    HW131892   0.970   0.495   8.134  0.1386  0.4319  0.6539
 6811SOL    HW231893   0.996   0.634   8.112  0.7565 -0.5582  0.7117
 6812SOL     OW31894   2.643   2.541   6.942 -0.4003 -0.1336 -0.2037
 6812SOL    HW131895   2.570   2.490   6.909  0.9329 -1.9664 -0.3075
 6812SOL    HW231896   2.700   2.468   6.968  0.0167  0.4007  0.4083
 6813SOL     OW31897   1.760   0.923  14.616 -0.0868  0.3150 -0.4939
 6813SOL    HW131898   1.681   0.940  14.668 -0.4607  1.2569 -1.3892
 6813SOL    HW231899   1.719   0.865  14.552  0.6640 -1.8105  0.9148
 6814SOL     OW31900   3.003   1.239  17.674  0.2458  0.3782  0.4356
 6814SOL    HW131901   2.911   1.268  17.680 -0.2960 -1.2419 -0.1175
 6814SOL    HW231902   3.035   1.301   0.056 -0.0433 -0.0470  0.9832
 6815SOL     OW31903   2.801   4.070  10.631  0.1078  0.6478  0.0103
 6815SOL    HW131904   2.719   4.076  10.679 -1.3857  1.0017 -2.5947
 6815SOL    HW231905   2.772   4.049  10.543 -0.3555  2.9184 -0.3822
 6816SOL     OW31906   0.935   3.142  15.377  0.1145  0.6779 -0.6737
 6816SOL    HW131907   1.030   3.146  15.360 -0.2123  2.5372 -2.0835
 6816SOL    HW231908   0.929   3.135  15.472 -0.4665  0.6030 -0.7177
 6817SOL     OW31909   1.141   4.541   3.669 -0.3438  0.2577 -0.6011
 6817SOL    HW131910   1.205   4.604   3.636 -1.3962 -0.2797 -3.7024
 6817SOL    HW231911   1.064   4.588   3.637 -0.2294  0.6838 -0.2470
 6818SOL     OW31912   3.069   3.510   0.393  0.0826 -0.0537 -0.1109
 6818SOL    HW131913   2.975   3.493   0.404 -0.6516  2.0423 -3.0167
 6818SOL    HW231914   3.107   3.423   0.379  0.0060 -0.4076  1.8645
 6819SOL     OW31915   0.483   4.587   1.391 -0.1933  0.3824  0.5850
 6819SOL    HW131916   0.567   4.627   1.413  0.1186 -0.4523  0.8787
 6819SOL    HW231917   0.507   4.499   1.418  2.7839  0.7916 -0.7137
 6820SOL     OW31918   4.067   1.309   5.950  0.0247  0.3093 -0.1945
 6820SOL    HW131919   4.065   1.217   5.924  0.0027  0.3460 -0.3200
 6820SOL    HW231920   4.143   1.310   6.009 -0.9041 -0.2804  1.0074
 6821SOL     OW31921   0.824   4.594   5.061 -0.2963 -0.5843 -0.3269
 6821SOL    HW131922   0.802   4.505   5.036 -0.0538 -0.4674 -0.9530
 6821SOL    HW231923   0.881   4.623   4.990 -0.9856  0.3183 -0.5113
 6822SOL     OW31924   2.024   2.638   3.881  0.1208  0.3341 -0.5860
 6822SOL    HW131925   2.041   2.657   3.973 -0.7476  0.2540 -0.4003
 6822SOL    HW231926   2.067   2.712   3.839 -1.6436  2.5141  1.4216
 6823SOL     OW31927   1.997   3.524   4.255 -0.5009 -0.4423 -0.2553
 6823SOL    HW131928   1.977   3.583   4.182 -1.3775  0.7103  0.9192
 6823SOL    HW231929   2.065   3.474   4.210 -1.2612  0.6398 -2.6049
 6824SOL     OW31930   2.768   1.538  15.178 -0.3366  0.2456 -0.2660
 6824SOL    HW131931   2.848   1.494  15.153 -0.2158  0.2936  0.0318
 6824SOL    HW231932   2.724   1.541  15.093  1.1193 -1.8155 -1.0819
 6825SOL     OW31933   1.979   3.372   4.900 -0.1907  0.0319 -0.5526
 6825SOL    HW131934   2.047   3.357   4.965  0.2470  2.6979 -0.4015
 6825SOL    HW231935   1.905   3.395   4.956 -0.4033  1.4434 -1.4160
 6826SOL     OW31936   4.323   3.021  11.170 -0.2658  0.2361 -0.2219
 6826SOL    HW131937   4.335   3.097  11.226 -0.3250  0.2488 -0.2257
 6826SOL    HW231938   4.345   3.062  11.086  1.5134 -0.2437  0.0174
 6827SOL     OW31939   3.213   3.495   2.805  0.1791 -0.1179  0.3289
 6827SOL    HW131940   3.236   3.521   2.716 -0.2651  2.8431  1.0925
 6827SOL    HW231941   3.121   3.470   2.799  0.0237 -0.1640  2.8874
 6828SOL     OW31942   2.674   2.032   4.440  0.0023 -0.8630  0.1280
 6828SOL    HW131943   2.769   2.038   4.430 -0.1292  0.2926 -0.3176
 6828SOL    HW231944   2.642   2.014   4.352 -0.5658 -0.4513  0.2505
 6829SOL     OW31945   3.321   3.229   3.381 -0.6925  0.6168  0.6454
 6829SOL    HW131946   3.391   3.223   3.446 -0.3719  0.7868  0.3177
 6829SOL    HW231947   3.252   3.180   3.426 -3.1402  1.9136 -1.6624
 6830SOL     OW31948   3.410   3.538   2.586 -0.4130 -0.3229  0.2245
 6830SOL    HW131949   3.411   3.447   2.553  2.8773  0.2496 -1.2050
 6830SOL    HW231950   3.448   3.587   2.513  2.5154  0.5279  2.3298
 6831SOL     OW31951   3.677   3.962   7.660 -0.1729  0.1617 -0.5809
 6831SOL    HW131952   3.608   3.927   7.603 -0.1911 -5.5317  2.9631
 6831SOL    HW231953   3.726   4.013   7.596  1.3667  0.3301  0.7418
 6832SOL     OW31954   2.581   0.822   9.467 -0.2784 -0.2723  0.7484
 6832SOL    HW131955   2.507   0.861   9.512 -0.7615 -1.0004  0.5945
 6832SOL    HW231956   2.530   0.748   9.433  1.6215 -1.6996  0.9646
 6833SOL     OW31957   0.143   1.708   6.007 -0.2472  1.0351  0.2759
 6833SOL    HW131958   0.187   1.643   5.951 -1.4526 -1.3513  2.0788
 6833SOL    HW231959   0.204   1.703   6.080  1.8819  1.8118 -1.4452
 6834SOL     OW31960   2.522   3.801   3.747 -0.1681 -0.3066  0.0183
 6834SOL    HW131961   2.611   3.821   3.718  0.5083  0.6578  2.7555
 6834SOL    HW231962   2.538   3.772   3.837  1.0985 -0.4972 -0.2587
 6835SOL     OW31963   4.606   0.242   4.162 -0.0429  1.0030  0.5095
 6835SOL    HW131964   4.653   0.165   4.192  0.7971  0.6459 -1.7446
 6835SOL    HW231965   4.660   0.259   4.084 -0.2029  0.8314  0.3625
 6836SOL     OW31966   2.873   3.704  11.360  0.2298  0.5766  0.4573
 6836SOL    HW131967   2.899   3.619  11.393  0.5728  1.4062  2.3402
 6836SOL    HW231968   2.842   3.679  11.273  1.0895 -0.3107  0.4111
 6837SOL     OW31969   0.491   2.361   7.214 -0.4153  0.6208 -0.1331
 6837SOL    HW131970   0.426   2.406   7.161  1.7154  3.4817 -0.3246
 6837SOL    HW231971   0.484   2.275   7.172  0.6526 -0.1244  1.2453
 6838SOL     OW31972   2.898   2.442   1.511 -0.0138 -0.2036 -0.1117
 6838SOL    HW131973   2.976   2.430   1.456 -1.9275 -0.1065 -2.8137
 6838SOL    HW231974   2.913   2.535   1.533  0.9204 -0.8432  1.9646
 6839SOL     OW31975   3.779   1.523   5.463  0.4783  0.5514 -1.0093
 6839SOL    HW131976   3.776   1.535   5.557 -0.6937 -1.4004 -0.7939
 6839SOL    HW231977   3.760   1.612   5.433 -2.0446  0.6790  1.0219
 6840SOL     OW31978   0.182   1.356   5.122  0.9472 -0.6361 -0.2257
 6840SOL    HW131979   0.095   1.322   5.145  1.2932 -2.0462 -0.9446
 6840SOL    HW231980   0.179   1.374   5.028  1.0662  1.3668  0.1642
 6841SOL     OW31981   1.561   3.974  13.987 -0.0991  0.2760  0.5039
 6841SOL    HW131982   1.520   3.978  14.073 -1.2381  0.9335 -0.0684
 6841SOL    HW231983   1.647   3.949  14.021  0.3944  0.6143 -0.4678
 6842SOL     OW31984   2.119   4.501   6.721 -0.0956  0.0251 -0.4827
 6842SOL    HW131985   2.181   4.447   6.672 -0.3061 -1.0792  0.4768
 6842SOL    HW231986   2.105   4.428   6.781  1.0152  0.1477 -0.0696
 6843SOL     OW31987   1.391   1.570   8.844  0.3788  0.4501  0.1136
 6843SOL    HW131988   1.412   1.478   8.825 -0.9575 -0.1308  1.4511
 6843SOL    HW231989   1.463   1.616   8.800 -0.5816  1.8153 -0.0195
 6844SOL     OW31990   2.497   2.609   1.875  0.1354 -0.4119  0.0444
 6844SOL    HW131991   2.507   2.514   1.884 -1.1975 -0.5140  0.4719
 6844SOL    HW231992   2.589   2.634   1.872  0.1596 -0.1880  2.2803
 6845SOL     OW31993   3.247   2.964   2.802 -0.5459 -0.7381  0.2444
 6845SOL    HW131994   3.317   3.006   2.852 -1.2064  1.6521 -0.8361
 6845SOL    HW231995   3.252   2.875   2.836  0.3913  0.0230  2.1362
 6846SOL     OW31996   0.159   0.884   7.573  0.2555 -0.4152  0.4278
 6846SOL    HW131997   0.245   0.905   7.535 -0.7851  1.6743 -0.7524
 6846SOL    HW231998   0.196   0.832   7.645  0.8806  1.9792  1.8223
 6847SOL     OW31999   1.122   4.421   2.575 -0.2209 -0.4120 -0.0754
 6847SOL    HW132000   1.110   4.416   2.670 -1.5696 -0.9835 -0.2741
 6847SOL    HW232001   1.199   4.365   2.576 -0.6222 -0.9635 -0.4247
 6848SOL     OW32002   0.935   4.358   6.717 -0.0647  0.1034 -0.1521
 6848SOL    HW132003   1.021   4.400   6.714  0.0653 -0.2146 -0.9700
 6848SOL    HW232004   0.890   4.437   6.746 -1.6187 -0.9650  0.3781
 6849SOL     OW32005   0.579   2.577   0.588  0.0349  0.1259  0.0652
 6849SOL    HW132006   0.551   2.648   0.530 -1.6823 -0.0242  0.7101
 6849SOL    HW232007   0.669   2.611   0.594 -0.0349  0.9933 -4.1108
 6850SOL     OW32008   3.217   2.931  15.679 -0.0366 -0.3537  0.3273
 6850SOL    HW132009   3.269   2.858  15.646 -1.7434 -0.8711 -1.1616
 6850SOL    HW232010   3.172   2.955  15.599 -1.5103  0.4122  1.3825
 6851SOL     OW32011   4.102   0.036   3.447 -0.7654 -0.7954  0.0137
 6851SOL    HW132012   4.035   4.706   3.400  0.1972  0.8485 -3.1122
 6851SOL    HW232013   4.175   0.001   3.396  0.2925  0.3329  0.7642
 6852SOL     OW32014   0.414   1.263   4.432  0.4097 -0.2762 -0.4120
 6852SOL    HW132015   0.402   1.267   4.527 -2.4318 -1.6259 -0.6983
 6852SOL    HW232016   0.447   1.351   4.417  0.8033 -0.5573 -1.1752
 6853SOL     OW32017   4.656   3.416   1.500  0.2630 -0.1036  0.1758
 6853SOL    HW132018   4.673   3.488   1.560  1.8885  1.1391 -1.7600
 6853SOL    HW232019   4.703   3.345   1.542  0.6940 -0.4434 -0.8890
 6854SOL     OW32020   2.289   2.628   2.568  0.3284  0.0221  0.1594
 6854SOL    HW132021   2.295   2.604   2.476  0.5453  2.7291 -0.5303
 6854SOL    HW232022   2.370   2.588   2.600 -0.4663 -2.2977 -0.7944
 6855SOL     OW32023   0.498   1.710   1.114 -0.4492 -0.1694 -0.4103
 6855SOL    HW132024   0.423   1.721   1.172 -0.8800 -1.1687 -0.7801
 6855SOL    HW232025   0.564   1.700   1.182 -0.6121  2.5528  0.1512
 6856SOL     OW32026   3.598   3.527   4.465  0.8080 -0.0819 -0.2222
 6856SOL    HW132027   3.522   3.556   4.516  1.9617  0.5272  1.1468
 6856SOL    HW232028   3.556   3.504   4.382  0.5907  0.4681 -0.2685
 6857SOL     OW32029   3.042   0.384   4.327 -0.0867  0.7256  0.2156
 6857SOL    HW132030   3.077   0.375   4.416  0.3814 -3.2280 -0.3643
 6857SOL    HW232031   3.114   0.432   4.286 -0.4587  1.9112  0.9622
 6858SOL     OW32032   2.395   4.007   7.304  0.2470  0.2206  0.5638
 6858SOL    HW132033   2.467   3.960   7.263  1.0588  1.7848  0.2196
 6858SOL    HW232034   2.426   4.097   7.303  0.7673  0.0543  1.3010
 6859SOL     OW32035   0.570   2.805   4.254 -0.8217 -0.0159  0.2002
 6859SOL    HW132036   0.529   2.823   4.169  0.0306  1.8381  0.1926
 6859SOL    HW232037   0.628   2.879   4.272 -3.5984  1.5131  2.8788
 6860SOL     OW32038   2.832   4.165   6.280  0.4252  0.0436 -0.3868
 6860SOL    HW132039   2.762   4.178   6.216 -0.1623  0.0815  0.2639
 6860SOL    HW232040   2.908   4.210   6.243  0.6819 -1.2861 -1.4638
 6861SOL     OW32041   2.273   4.051   5.445  0.5037 -0.7653 -0.7408
 6861SOL    HW132042   2.212   4.098   5.388 -0.6530 -0.1294  1.0426
 6861SOL    HW232043   2.291   3.981   5.381  1.3333 -2.4447  1.3215
 6862SOL     OW32044   4.323   0.836   3.819 -0.2782 -0.1862 -0.3258
 6862SOL    HW132045   4.313   0.741   3.827 -1.2200 -0.2065 -1.7337
 6862SOL    HW232046   4.240   0.866   3.855 -0.6561 -1.5897 -0.0181
 6863SOL     OW32047   4.279   1.705   4.877 -0.4525 -0.5864 -0.0317
 6863SOL    HW132048   4.282   1.750   4.961  0.7114 -0.9336  0.1174
 6863SOL    HW232049   4.205   1.648   4.895 -0.9284 -0.5013 -1.7423
 6864SOL     OW32050   1.601   0.554   2.766 -0.7272  0.6432  0.1730
 6864SOL    HW132051   1.529   0.527   2.709  0.3034  0.3990 -1.0143
 6864SOL    HW232052   1.571   0.529   2.853 -0.3109 -0.6897 -0.0641
 6865SOL     OW32053   1.018   3.381   5.980 -0.0751  0.1199  0.3009
 6865SOL    HW132054   1.020   3.300   6.032 -1.6117 -1.1872 -1.6943
 6865SOL    HW232055   0.992   3.441   6.050 -0.4038 -0.7688  0.9432
 6866SOL     OW32056   1.591   1.758  10.362 -0.4890  0.4326  0.6168
 6866SOL    HW132057   1.647   1.833  10.384 -0.2359 -0.0974  1.7442
 6866SOL    HW232058   1.521   1.778  10.425 -1.8667 -0.3710 -0.6643
 6867SOL     OW32059   1.883   3.628   5.809  0.0433  0.8593 -0.5330
 6867SOL    HW132060   1.882   3.717   5.845 -3.5240  0.7567 -0.4166
 6867SOL    HW232061   1.968   3.601   5.845 -0.2343  0.8948  0.1587
 6868SOL     OW32062   1.533   0.676   6.875 -0.1597  0.5386 -0.1921
 6868SOL    HW132063   1.564   0.730   6.803 -0.0579  1.6804  0.7005
 6868SOL    HW232064   1.503   0.746   6.933 -2.1219 -1.5067  1.2378
 6869SOL     OW32065   3.057   3.099  11.889  0.4295 -0.1638 -0.1251
 6869SOL    HW132066   2.993   3.169  11.899  1.6515  0.8191  0.8288
 6869SOL    HW232067   3.083   3.102  11.981  0.3508 -2.7218 -0.0122
 6870SOL     OW32068   0.880   0.941   4.829 -0.0943  0.5730  0.2800
 6870SOL    HW132069   0.840   0.911   4.747  1.8205  1.2871 -0.9151
 6870SOL    HW232070   0.964   0.961   4.788  1.4206 -2.2272  1.9780
 6871SOL     OW32071   0.345   2.348   6.140 -0.0304  0.2720  0.6233
 6871SOL    HW132072   0.269   2.298   6.108  1.6056 -1.2448 -0.8897
 6871SOL    HW232073   0.381   2.280   6.197  1.6288  2.0390  1.6764
 6872SOL     OW32074   4.168   3.074   6.991  0.4153  0.2350  0.1561
 6872SOL    HW132075   4.237   3.017   6.958 -1.8087 -1.0621 -2.2219
 6872SOL    HW232076   4.216   3.144   7.036  1.8721 -1.8742  1.8502
 6873SOL     OW32077   2.044   4.057   7.942 -0.3649  0.0715  0.1773
 6873SOL    HW132078   2.134   4.078   7.917  0.9809 -1.8390  3.4282
 6873SOL    HW232079   2.057   3.988   8.007 -1.1220 -1.7807 -1.6224
 6874SOL     OW32080   3.339   0.424  14.749 -0.1649 -0.2730 -0.4847
 6874SOL    HW132081   3.289   0.342  14.754 -0.0074 -0.4539 -1.7939
 6874SOL    HW232082   3.271   0.484  14.717 -0.1502  0.6867  1.2740
 6875SOL     OW32083   2.927   3.373  16.535 -0.0929  0.3622 -0.3928
 6875SOL    HW132084   2.870   3.404  16.466 -2.6202 -2.6650  0.3457
 6875SOL    HW232085   2.881   3.293  16.560  0.2177 -0.0230 -1.0405
 6876SOL     OW32086   2.111   0.122  17.115  0.2452 -0.1741  0.5798
 6876SOL    HW132087   2.165   0.168  17.051  0.5391 -2.7513 -1.0111
 6876SOL    HW232088   2.082   0.197  17.167  0.4887  0.3178  0.0056
 6877SOL     OW32089   4.405   2.355   6.725 -0.3068  1.2697  0.2769
 6877SOL    HW132090   4.348   2.280   6.739 -3.0457  3.4127  0.7943
 6877SOL    HW232091   4.438   2.338   6.637 -3.1698 -1.0556 -0.3214
 6878SOL     OW32092   0.744   3.975   4.138  0.5111  0.2781 -0.4336
 6878SOL    HW132093   0.749   4.013   4.050  1.5501  0.3093 -0.3642
 6878SOL    HW232094   0.829   3.931   4.145 -0.3815 -1.3153  0.6500
 6879SOL     OW32095   1.979   2.677   4.864  0.0904 -0.2172  0.4637
 6879SOL    HW132096   1.894   2.637   4.847 -0.6091  1.5127 -0.1744
 6879SOL    HW232097   1.960   2.722   4.947 -0.8566 -2.0944  1.2611
 6880SOL     OW32098   1.810   1.331   5.691 -0.2772  0.1476  0.1169
 6880SOL    HW132099   1.884   1.271   5.686  0.0686  0.4365  1.6469
 6880SOL    HW232100   1.857   1.413   5.708  0.4853 -0.4075  0.6989
 6881SOL     OW32101   0.203   1.197  17.653  0.0552  0.1077  0.0097
 6881SOL    HW132102   0.278   1.138  17.647 -1.2195 -1.6261  1.1777
 6881SOL    HW232103   0.196   1.210   0.064  1.3006  1.2971 -0.0551
 6882SOL     OW32104   0.161   4.196   8.698  0.1783 -0.3090 -0.0406
 6882SOL    HW132105   0.137   4.124   8.756 -1.0245  0.5333  0.5121
 6882SOL    HW232106   0.164   4.266   8.764 -0.6517  1.2379 -1.6370
 6883SOL     OW32107   0.751   3.311   1.282 -0.1802 -0.3570 -0.0426
 6883SOL    HW132108   0.789   3.262   1.209 -1.5332 -0.1540 -0.8845
 6883SOL    HW232109   0.724   3.394   1.241 -0.9313 -0.3596  0.4625
 6884SOL     OW32110   0.043   2.388  11.135  0.6516  0.3831  0.1312
 6884SOL    HW132111   0.070   2.412  11.224  3.6251 -3.2596  0.2023
 6884SOL    HW232112   4.695   2.452  11.117  0.1673  0.0810  0.8867
 6885SOL     OW32113   0.354   2.776  14.916  0.4737  0.2737  0.5426
 6885SOL    HW132114   0.377   2.701  14.972 -1.8107 -0.8966 -0.0879
 6885SOL    HW232115   0.261   2.786  14.934  0.2931  1.0521 -0.8308
 6886SOL     OW32116   4.002   2.187  12.734 -0.0304  0.1497  0.3653
 6886SOL    HW132117   4.018   2.259  12.674 -1.5190 -2.3153 -2.9947
 6886SOL    HW232118   3.912   2.199  12.766 -0.2688  1.5808 -0.8671
 6887SOL     OW32119   4.365   1.967   0.090 -0.3774  0.4239 -0.0424
 6887SOL    HW132120   4.415   1.976   0.009  0.4718  0.3758  0.4692
 6887SOL    HW232121   4.360   1.872   0.107 -0.2677 -0.0892 -2.8915
 6888SOL     OW32122   2.262   1.816  17.615  0.7144  0.2677  0.3855
 6888SOL    HW132123   2.339   1.872  17.629  1.2659 -0.7270  1.3066
 6888SOL    HW232124   2.273   1.783  17.526  0.8652 -3.2964  1.7365
 6889SOL     OW32125   3.929   1.461   1.685 -0.0595  0.6344 -0.1911
 6889SOL    HW132126   3.981   1.417   1.752 -1.6779 -2.3842 -0.9053
 6889SOL    HW232127   3.889   1.517   1.751  1.5037  0.5931  0.7945
 6890SOL     OW32128   1.329   4.496   8.793  0.0812  0.3011  0.0367
 6890SOL    HW132129   1.288   4.579   8.816  0.7147  0.5045  0.4347
 6890SOL    HW232130   1.317   4.503   8.698 -2.4513  1.2638  0.4424
 6891SOL     OW32131   0.097   2.526   2.343 -0.3512  0.1708  0.4418
 6891SOL    HW132132   0.121   2.449   2.395  1.6767  0.6927  0.2691
 6891SOL    HW232133   0.142   2.514   2.259  1.3425 -0.1501  1.3878
 6892SOL     OW32134   2.728   0.245   7.213 -0.0756  0.0559  0.0050
 6892SOL    HW132135   2.750   0.263   7.304 -2.0477 -0.6273  0.6204
 6892SOL    HW232136   2.638   0.276   7.202 -0.2438 -0.5008 -0.1946
 6893SOL     OW32137   0.619   1.366   9.587 -0.0179  0.8219 -0.4040
 6893SOL    HW132138   0.528   1.396   9.582  0.0334  1.3479  1.8878
 6893SOL    HW232139   0.656   1.426   9.651 -0.3531  0.3388  0.2358
 6894SOL     OW32140   2.408   3.461   4.792 -0.6018  0.3495  0.4493
 6894SOL    HW132141   2.338   3.521   4.815 -0.0717  0.5653  1.5002
 6894SOL    HW232142   2.477   3.520   4.823  0.5314 -0.1425 -1.1295
 6895SOL     OW32143   3.982   1.218   7.731  0.2463  0.3222 -0.6865
 6895SOL    HW132144   3.969   1.312   7.723  0.2028  0.6146  3.0453
 6895SOL    HW232145   4.077   1.211   7.719  0.4856 -0.3721  1.6386
 6896SOL     OW32146   1.400   1.685   3.085  0.3920  0.1833  0.5298
 6896SOL    HW132147   1.380   1.766   3.133 -1.5061 -0.1972  0.3755
 6896SOL    HW232148   1.370   1.624   3.152  0.2548 -1.8842 -1.4088
 6897SOL     OW32149   3.064   0.107   1.405 -0.0341 -0.3550 -0.3282
 6897SOL    HW132150   3.075   0.124   1.312  1.5777 -0.0447 -0.0734
 6897SOL    HW232151   2.987   0.051   1.399 -0.1953 -0.1111 -0.5303
 6898SOL     OW32152   3.298   4.242   8.794  0.0345 -0.3009 -0.6029
 6898SOL    HW132153   3.368   4.231   8.729 -2.1156  1.2491 -3.1518
 6898SOL    HW232154   3.251   4.161   8.776  1.9890 -1.3175 -1.2053
 6899SOL     OW32155   4.456   0.112   7.475 -0.5675 -0.4016 -0.2640
 6899SOL    HW132156   4.531   0.070   7.518  1.0906  0.5342 -2.2216
 6899SOL    HW232157   4.400   0.037   7.458  0.1150 -0.8085 -0.7491
 6900SOL     OW32158   2.399   0.022   8.468  0.4196  0.6655  0.8677
 6900SOL    HW132159   2.493   0.025   8.454  0.3750 -0.1292  0.3620
 6900SOL    HW232160   2.395   0.032   8.564  0.5461  0.5935  0.8804
 6901SOL     OW32161   1.453   3.981   5.482 -0.2916  0.2643  0.2216
 6901SOL    HW132162   1.455   3.898   5.433 -0.6180 -0.2103  1.0218
 6901SOL    HW232163   1.518   4.035   5.437  1.6527 -1.9432  0.3534
 6902SOL     OW32164   1.763   1.840   4.490 -0.3320 -0.2018  0.5812
 6902SOL    HW132165   1.755   1.918   4.545  0.7734  0.2335  0.1335
 6902SOL    HW232166   1.673   1.824   4.462  0.5792 -2.1739 -1.1792
 6903SOL     OW32167   3.714   2.023   4.015  0.0504 -0.1589 -0.0917
 6903SOL    HW132168   3.688   2.061   3.931 -0.7527 -0.2879  0.0941
 6903SOL    HW232169   3.663   2.081   4.072 -2.8495 -2.7948 -0.0605
 6904SOL     OW32170   2.794   1.662   7.476 -0.1672  0.6120  0.4856
 6904SOL    HW132171   2.844   1.743   7.464  1.4508 -0.4095  0.4537
 6904SOL    HW232172   2.717   1.687   7.424  0.5616 -0.1607 -0.9734
 6905SOL     OW32173   2.330   1.914   8.651  0.1125 -0.1181 -0.0891
 6905SOL    HW132174   2.403   1.853   8.662 -0.2637 -0.5678 -0.0919
 6905SOL    HW232175   2.257   1.861   8.684  0.1566 -1.4664 -2.2139
 6906SOL     OW32176   0.530   4.527  10.988  0.1690 -0.2800 -0.0372
 6906SOL    HW132177   0.532   4.476  10.907 -0.4804  0.7392 -0.6854
 6906SOL    HW232178   0.508   4.613  10.954  2.6736  0.8685  1.2495
 6907SOL     OW32179   4.129   2.818   3.371  0.0551  0.1278  0.2677
 6907SOL    HW132180   4.216   2.853   3.386  0.4996 -0.7270 -0.2932
 6907SOL    HW232181   4.095   2.803   3.459 -0.2961  1.3092  0.3216
 6908SOL     OW32182   1.020   0.140   2.569  0.3345  0.3896 -0.7346
 6908SOL    HW132183   0.979   0.151   2.655  0.4194  0.0363 -0.6507
 6908SOL    HW232184   0.961   0.076   2.530 -0.1762  0.8274 -0.6870
 6909SOL     OW32185   2.393   0.376  12.135  0.3965 -0.4632  0.4151
 6909SOL    HW132186   2.318   0.354  12.080  1.5547 -0.7572 -1.0328
 6909SOL    HW232187   2.469   0.370  12.078  1.4846 -1.1574  1.9509
 6910SOL     OW32188   2.984   2.419   8.460 -0.5142  0.2701  0.4658
 6910SOL    HW132189   2.985   2.379   8.374 -2.3383 -0.2405  0.6708
 6910SOL    HW232190   3.077   2.429   8.480 -0.3469  1.4726 -0.9453
 6911SOL     OW32191   3.102   3.317   9.401  0.1246  0.1497 -0.1608
 6911SOL    HW132192   3.165   3.260   9.359 -0.5146 -1.6415  1.3225
 6911SOL    HW232193   3.052   3.343   9.324 -0.5098  0.6529  0.4157
 6912SOL     OW32194   0.683   3.611   8.372  0.0845  0.2011  0.2673
 6912SOL    HW132195   0.606   3.585   8.422 -0.9434 -0.0481 -1.4294
 6912SOL    HW232196   0.695   3.701   8.402  0.0917  0.3757 -0.2573
 6913SOL     OW32197   0.433   4.406   1.114  0.1519  0.4369 -0.0164
 6913SOL    HW132198   0.458   4.393   1.023  2.1161 -1.1785  0.7448
 6913SOL    HW232199   0.516   4.391   1.160  0.4563 -1.6179 -1.2766
 6914SOL     OW32200   0.997   3.661   7.077 -0.0548 -0.2466 -0.4295
 6914SOL    HW132201   1.090   3.681   7.066 -0.0951  0.6013  0.7669
 6914SOL    HW232202   0.964   3.745   7.108  1.0716 -0.1555  0.5241
 6915SOL     OW32203   0.608   2.722  14.734 -0.2065 -0.2564 -1.3274
 6915SOL    HW132204   0.551   2.748  14.661 -0.5162 -1.6758 -1.5814
 6915SOL    HW232205   0.582   2.632  14.751  0.1855  0.1695  1.5833
 6916SOL     OW32206   0.344   0.181   5.502  0.4459 -0.4656  0.5286
 6916SOL    HW132207   0.402   0.241   5.455  2.3837 -1.2325  1.8954
 6916SOL    HW232208   0.262   0.220   5.475  0.9872 -0.0707 -0.5228
 6917SOL     OW32209   1.300   0.001   4.534 -0.2998 -0.4179  0.3725
 6917SOL    HW132210   1.338   4.675   4.460  1.0952 -0.6640  1.2517
 6917SOL    HW232211   1.346   4.681   4.608 -0.8734 -0.8358  0.5115
 6918SOL     OW32212   2.944   4.166   7.133 -0.1190 -0.5255  0.3874
 6918SOL    HW132213   2.888   4.189   7.059 -1.2482 -2.4324  0.6547
 6918SOL    HW232214   2.885   4.179   7.207 -1.3080  1.8142 -0.9576
 6919SOL     OW32215   0.653   0.695   4.880 -0.4755  0.2034  0.1496
 6919SOL    HW132216   0.665   0.776   4.928  0.1291  0.6124 -0.6957
 6919SOL    HW232217   0.563   0.684   4.911  0.0482 -2.6129  0.7222
 6920SOL     OW32218   4.383   0.811   6.629  0.0651 -0.5214 -0.6546
 6920SOL    HW132219   4.383   0.900   6.665  1.0272 -0.4472 -0.8382
 6920SOL    HW232220   4.387   0.825   6.534  0.6870  0.7036 -0.4468
 6921SOL     OW32221   2.023   2.258   9.747 -1.0743  0.0860  0.5649
 6921SOL    HW132222   1.967   2.281   9.821 -1.6665  0.0230  0.1404
 6921SOL    HW232223   2.067   2.179   9.777 -2.2771 -0.3468  1.1928
 6922SOL     OW32224   1.538   4.137   8.999  0.0606 -0.2733 -0.2834
 6922SOL    HW132225   1.616   4.151   8.946  0.3718 -0.8515  0.0231
 6922SOL    HW232226   1.476   4.114   8.931 -1.3457 -0.6518  1.1109
 6923SOL     OW32227   3.656   3.816  16.972  0.3864 -0.2589  0.0258
 6923SOL    HW132228   3.561   3.808  16.971  0.4865 -1.3770 -2.2876
 6923SOL    HW232229   3.694   3.796  17.058 -0.0753  0.1456  0.3230
 6924SOL     OW32230   1.181   3.148   6.717 -0.0114  0.0217  0.2256
 6924SOL    HW132231   1.218   3.083   6.776  0.2661 -0.7708 -0.8134
 6924SOL    HW232232   1.158   3.219   6.777  0.0143  1.0012 -0.9080
 6925SOL     OW32233   1.769   2.482   1.955 -1.0965  0.9113 -0.1502
 6925SOL    HW132234   1.835   2.549   1.975  0.4053 -0.8785  0.8961
 6925SOL    HW232235   1.725   2.474   2.040 -0.3670  0.0453  0.1508
 6926SOL     OW32236   3.521   2.460   7.567 -0.0611 -0.8644  0.0592
 6926SOL    HW132237   3.483   2.544   7.540 -0.3808 -0.4458  1.8489
 6926SOL    HW232238   3.587   2.499   7.624  0.6822 -0.4364 -1.0838
 6927SOL     OW32239   3.504   3.284  13.096 -0.3367  0.5074 -0.1541
 6927SOL    HW132240   3.490   3.373  13.130 -0.4847  1.3940 -2.5716
 6927SOL    HW232241   3.492   3.296  13.002  1.0214  0.2484 -0.3563
 6928SOL     OW32242   2.844   3.872   2.412 -0.4467  0.0513  0.2031
 6928SOL    HW132243   2.834   3.893   2.504  0.6372  2.4466 -0.2209
 6928SOL    HW232244   2.850   3.957   2.369 -0.7794 -1.1352 -2.2002
 6929SOL     OW32245   3.560   3.012   2.312 -0.1410 -0.4906 -0.6941
 6929SOL    HW132246   3.514   3.088   2.347  2.8862  1.3186 -0.6147
 6929SOL    HW232247   3.544   2.944   2.378 -0.5438 -0.4682 -0.7673
 6930SOL     OW32248   0.548   0.037  16.307  0.3118 -0.0518 -0.2279
 6930SOL    HW132249   0.532   4.665  16.328 -0.7026 -0.0600 -1.0108
 6930SOL    HW232250   0.573   0.023  16.215 -0.5287  3.2415 -0.9491
 6931SOL     OW32251   0.677   2.593  15.928 -0.1088 -0.3555 -0.0869
 6931SOL    HW132252   0.725   2.665  15.887 -3.0588 -0.2232 -3.2616
 6931SOL    HW232253   0.711   2.521  15.875  0.5689  0.3103 -0.5560
 6932SOL     OW32254   2.100   3.962   5.621  0.0649  0.3481 -0.2258
 6932SOL    HW132255   2.029   3.954   5.557  0.5726 -3.8588 -0.2502
 6932SOL    HW232256   2.183   3.970   5.573 -0.7537 -0.5068 -1.7974
 6933SOL     OW32257   0.994   1.427   5.493 -0.7440  0.0391  0.2485
 6933SOL    HW132258   0.972   1.505   5.443 -2.4692  1.9732  4.0440
 6933SOL    HW232259   1.061   1.455   5.556 -1.1242  1.1268  0.1675
 6934SOL     OW32260   2.342   1.373   3.343 -0.3208 -0.2443 -0.2199
 6934SOL    HW132261   2.407   1.368   3.414 -1.2410  0.9802  0.7127
 6934SOL    HW232262   2.291   1.294   3.359 -0.8037  0.2820  0.8615
 6935SOL     OW32263   3.604   2.541   2.620 -0.2514  0.4373 -0.3963
 6935SOL    HW132264   3.679   2.576   2.668 -0.6619  0.8416 -0.0456
 6935SOL    HW232265   3.643   2.467   2.574 -2.1809 -0.2097 -1.0056
 6936SOL     OW32266   4.254   0.349   9.751  0.3402 -0.3079 -0.3732
 6936SOL    HW132267   4.243   0.279   9.688  1.9425  1.8889 -3.1246
 6936SOL    HW232268   4.235   0.311   9.837 -2.4019  1.9367  0.0160
 6937SOL     OW32269   4.224   0.304   9.069 -0.4848 -0.0348  0.4794
 6937SOL    HW132270   4.170   0.380   9.093  0.5677  1.5935 -2.3301
 6937SOL    HW232271   4.195   0.295   8.978  0.2881  0.5456  0.1762
 6938SOL     OW32272   1.339   2.588  17.209  0.0838 -0.6603  0.5127
 6938SOL    HW132273   1.266   2.586  17.148  0.4246  1.6257  0.0243
 6938SOL    HW232274   1.418   2.560  17.163  0.1273  1.2146 -0.5741
 6939SOL     OW32275   0.309   2.943  12.148  0.1767  0.2919  0.9236
 6939SOL    HW132276   0.361   2.911  12.221  2.1773  1.2004 -0.0944
 6939SOL    HW232277   0.239   2.879  12.131 -0.8454  1.0614  2.2021
 6940SOL     OW32278   1.081   3.676   6.015  1.1222 -0.2235  0.1448
 6940SOL    HW132279   1.149   3.726   5.971  1.8594 -0.3694  1.1268
 6940SOL    HW232280   1.128   3.628   6.083  1.7629 -1.8967 -1.4905
 6941SOL     OW32281   0.341   3.076   4.961  0.1392 -0.0479  0.0591
 6941SOL    HW132282   0.399   3.145   4.991  0.7016 -0.9335  1.0146
 6941SOL    HW232283   0.268   3.124   4.922  2.0666  1.8641 -1.1385
 6942SOL     OW32284   3.150   4.665   0.101  0.2195 -0.6108 -0.0902
 6942SOL    HW132285   3.065   4.627   0.122  0.4255 -1.6096 -1.0504
 6942SOL    HW232286   3.120   0.032   0.075 -1.2898 -0.4866  2.0714
 6943SOL     OW32287   1.466   0.686   2.413  0.2378  0.4462 -0.0782
 6943SOL    HW132288   1.559   0.690   2.392  0.7591 -1.0366  1.9442
 6943SOL    HW232289   1.470   0.651   2.502 -1.3149  1.5884  0.4420
 6944SOL     OW32290   3.530   4.144  17.184  0.5295  0.7972  0.5290
 6944SOL    HW132291   3.453   4.154  17.129  0.2589  0.6785  0.8858
 6944SOL    HW232292   3.597   4.134  17.117  0.2451 -1.8433  0.6617
 6945SOL     OW32293   3.688   4.696   3.648  0.1602 -0.1640 -0.3174
 6945SOL    HW132294   3.614   4.669   3.703  0.5682 -1.7136 -0.5274
 6945SOL    HW232295   3.699   4.623   3.587 -0.6022 -0.8986  0.4048
 6946SOL     OW32296   0.771   2.994   3.553 -0.3621  0.3985 -0.0063
 6946SOL    HW132297   0.698   2.933   3.558 -0.3791  0.3521 -0.8464
 6946SOL    HW232298   0.820   2.968   3.476 -0.6204 -1.4543  0.4698
 6947SOL     OW32299   4.060   1.353   1.895 -0.3630  0.8678 -0.3208
 6947SOL    HW132300   4.017   1.298   1.960 -2.1135 -0.1660 -2.3774
 6947SOL    HW232301   4.073   1.426   1.956 -2.9923 -0.8277  2.2468
 6948SOL     OW32302   2.336   3.445   7.230  0.1560  0.7014  0.1762
 6948SOL    HW132303   2.383   3.512   7.179  1.4275 -0.6325 -0.4160
 6948SOL    HW232304   2.286   3.395   7.165  0.7310  0.5637 -0.1663
 6949SOL     OW32305   1.262   1.482   9.344 -0.0883 -0.5863  0.0107
 6949SOL    HW132306   1.352   1.511   9.357 -0.0723  0.3360 -2.2440
 6949SOL    HW232307   1.243   1.457   9.435 -2.2959 -0.1886 -0.3400
 6950SOL     OW32308   3.161   3.091   8.164  0.2560  0.3900  0.1051
 6950SOL    HW132309   3.234   3.042   8.127 -0.4168 -0.7514  0.2830
 6950SOL    HW232310   3.196   3.119   8.248 -1.1031  3.9884 -0.5398
 6951SOL     OW32311   4.642   1.413   2.058 -0.1767  0.6579 -0.5248
 6951SOL    HW132312   4.663   1.500   2.092  2.0837 -0.5675  1.1838
 6951SOL    HW232313   4.652   1.360   2.137 -0.8596  0.7514 -0.3735
 6952SOL     OW32314   2.874   2.796   7.264 -0.5813 -0.3627 -0.5745
 6952SOL    HW132315   2.844   2.711   7.297 -0.2567 -0.4103 -0.4047
 6952SOL    HW232316   2.961   2.769   7.234 -1.2535 -0.8887 -2.0384
 6953SOL     OW32317   3.308   3.008   5.745  1.0964 -0.2262 -0.5386
 6953SOL    HW132318   3.299   2.924   5.699  0.3859 -0.0454 -0.7249
 6953SOL    HW232319   3.322   2.966   5.829 -2.0710 -1.7697 -0.7884
 6954SOL     OW32320   0.758   2.935   6.461 -0.0591  0.0821 -0.4233
 6954SOL    HW132321   0.708   3.005   6.503  0.4419  0.6374 -0.7625
 6954SOL    HW232322   0.846   2.948   6.497 -0.1557 -1.1003  0.2677
 6955SOL     OW32323   1.545   2.040   1.563  0.0823  1.0012  0.3024
 6955SOL    HW132324   1.555   1.990   1.482  0.4135  1.7380 -0.1139
 6955SOL    HW232325   1.453   2.023   1.584 -0.1642  0.1571 -1.5277
 6956SOL     OW32326   2.379   4.116   8.248  1.1681 -0.1609  0.4290
 6956SOL    HW132327   2.427   4.048   8.295  0.5299 -0.1754  1.0651
 6956SOL    HW232328   2.426   4.198   8.265 -1.7524  2.0535 -2.1726
 6957SOL     OW32329   4.231   2.491  10.947  0.3584  0.6766  0.1262
 6957SOL    HW132330   4.192   2.570  10.982  1.3858  1.2151  0.0603
 6957SOL    HW232331   4.268   2.517  10.863 -0.6776 -0.6239 -0.7389
 6958SOL     OW32332   1.610   3.693   4.968  0.4673 -0.2546 -0.2188
 6958SOL    HW132333   1.658   3.775   4.959  0.6147 -0.2340  0.8009
 6958SOL    HW232334   1.526   3.711   4.926  1.2466  3.3691 -0.1524
 6959SOL     OW32335   0.291   1.424  12.471 -0.3279 -0.5814  0.0309
 6959SOL    HW132336   0.352   1.429  12.544 -0.8209 -1.2909  0.4918
 6959SOL    HW232337   0.280   1.515  12.444 -1.2423 -0.1239  1.9428
 6960SOL     OW32338   0.641   0.945   7.787 -0.7669 -0.5383 -0.0566
 6960SOL    HW132339   0.702   0.877   7.761  0.6478 -0.2454  2.4793
 6960SOL    HW232340   0.693   1.024   7.770 -0.8859 -0.4744 -0.1254
 6961SOL     OW32341   0.615   0.027   5.177  0.0705  0.1735 -0.0666
 6961SOL    HW132342   0.695   4.701   5.150 -0.3590 -1.8467  2.1184
 6961SOL    HW232343   0.643   0.066   5.260  0.4909 -0.6682  0.1807
 6962SOL     OW32344   4.497   3.359   7.589 -0.7934  0.0678 -0.3900
 6962SOL    HW132345   4.459   3.429   7.536 -0.9839 -1.0354 -1.7118
 6962SOL    HW232346   4.554   3.324   7.520 -1.6633 -1.6821 -0.2089
 6963SOL     OW32347   4.509   3.404   4.739 -0.2510 -0.3305 -0.2880
 6963SOL    HW132348   4.441   3.403   4.806  0.1762  3.1449  0.2015
 6963SOL    HW232349   4.550   3.483   4.775  0.1448 -0.0378 -1.3725
 6964SOL     OW32350   0.477   1.175   5.561  0.0556 -0.4500  0.2057
 6964SOL    HW132351   0.496   1.170   5.467  2.7095 -0.8272  0.7602
 6964SOL    HW232352   0.528   1.104   5.601  1.1995  0.8529  1.0656
 6965SOL     OW32353   2.861   0.339  11.679  0.1576 -0.0297  0.4775
 6965SOL    HW132354   2.806   0.375  11.609 -2.2243 -1.0856  1.8213
 6965SOL    HW232355   2.850   0.405  11.748 -2.4163  0.0898 -0.0636
 6966SOL     OW32356   0.393   3.091   9.110 -0.3257 -0.0757 -0.0669
 6966SOL    HW132357   0.439   3.075   9.192 -0.8738 -1.7354 -0.0886
 6966SOL    HW232358   0.464   3.124   9.055  1.4698  1.7086  3.3795
 6967SOL     OW32359   2.995   2.053   6.801 -0.4400 -0.1823  0.7230
 6967SOL    HW132360   2.984   2.115   6.729  1.2344  0.2093  0.8038
 6967SOL    HW232361   3.060   2.095   6.858  0.4422  0.0364 -0.4339
 6968SOL     OW32362   0.508   1.844   1.567 -0.6650 -0.3575  0.1442
 6968SOL    HW132363   0.529   1.917   1.509 -2.9316  1.4351  1.5987
 6968SOL    HW232364   0.593   1.803   1.553  0.9207  2.5443  1.5578
 6969SOL     OW32365   2.278   0.363  12.966  0.2600 -0.4259  0.0956
 6969SOL    HW132366   2.340   0.433  12.985 -1.7577  0.8198  2.0428
 6969SOL    HW232367   2.190   0.398  12.978  1.3807  1.8255  1.6266
 6970SOL     OW32368   3.451   1.364   8.546  0.1100  0.3773 -0.2654
 6970SOL    HW132369   3.435   1.312   8.467  0.5102  2.8064 -1.9829
 6970SOL    HW232370   3.419   1.292   8.599 -0.3241 -0.5114 -1.7268
 6971SOL     OW32371   3.301   2.018   3.475  0.1539 -0.3425  0.1191
 6971SOL    HW132372   3.240   1.961   3.523  0.2531  1.6977  2.6911
 6971SOL    HW232373   3.286   1.988   3.386 -0.6850  1.5524 -0.3584
 6972SOL     OW32374   0.994   2.874   5.943 -0.3027 -0.1316  0.1789
 6972SOL    HW132375   0.937   2.875   6.020  0.0231 -1.3209  0.4485
 6972SOL    HW232376   1.047   2.795   5.953  1.5084  0.9946 -0.5371
 6973SOL     OW32377   2.250   4.054   6.093  0.2320  0.1888  0.0850
 6973SOL    HW132378   2.210   4.085   6.012  0.1044 -2.4616 -0.8640
 6973SOL    HW232379   2.344   4.060   6.077 -0.3364  1.1009 -2.9785
 6974SOL     OW32380   1.275   3.815   5.905 -0.1690 -0.6000  0.3570
 6974SOL    HW132381   1.368   3.795   5.917 -0.2421  0.3422  2.6406
 6974SOL    HW232382   1.282   3.876   5.832 -0.1762 -1.7320 -0.5755
 6975SOL     OW32383   1.316   1.826   0.641  0.2306 -0.4367 -0.1419
 6975SOL    HW132384   1.229   1.837   0.603  0.3665 -1.3749 -0.7157
 6975SOL    HW232385   1.306   1.834   0.736  2.1791 -1.4443  0.1484
 6976SOL     OW32386   3.595   3.902   9.433  0.1542  0.4183 -0.1185
 6976SOL    HW132387   3.534   3.832   9.454  1.1113 -0.5408 -0.5142
 6976SOL    HW232388   3.661   3.891   9.502  1.4802  0.9581 -1.2865
 6977SOL     OW32389   0.940   1.594   1.773  0.3274 -0.7130  0.0196
 6977SOL    HW132390   0.909   1.683   1.792  3.5329  0.7737 -1.7663
 6977SOL    HW232391   1.029   1.608   1.743  0.5821 -0.3438  0.9494
 6978SOL     OW32392   3.253   3.803  16.121  0.2616  0.3057 -0.1170
 6978SOL    HW132393   3.213   3.732  16.070 -0.9476 -0.8348  2.4458
 6978SOL    HW232394   3.280   3.862  16.051  0.3082 -0.8429 -1.0711
 6979SOL     OW32395   1.517   3.856   7.981 -0.0935 -0.8298  0.1937
 6979SOL    HW132396   1.538   3.869   8.074  0.9676  2.1302 -0.4597
 6979SOL    HW232397   1.532   3.766   7.953 -1.1135 -0.4001 -1.7132
 6980SOL     OW32398   3.987   3.036  10.191  0.4461 -0.1781  0.3050
 6980SOL    HW132399   4.004   2.943  10.177 -0.4723  0.1078 -2.8584
 6980SOL    HW232400   3.984   3.046  10.286 -3.1604 -0.6716  0.2520
 6981SOL     OW32401   1.734   1.355   3.494 -0.7836  0.2449 -0.3440
 6981SOL    HW132402   1.680   1.308   3.559  0.0840 -2.0820 -1.2861
 6981SOL    HW232403   1.684   1.434   3.476 -0.1101  0.6286 -0.5220
 6982SOL     OW32404   3.805   4.535  13.483  0.1334  0.5861  0.3375
 6982SOL    HW132405   3.789   4.441  13.487  1.0027  0.4964  1.5967
 6982SOL    HW232406   3.886   4.534  13.535  1.0503  0.7129 -1.0801
 6983SOL     OW32407   3.966   3.969   5.061  0.2099  0.2275 -0.3473
 6983SOL    HW132408   3.921   4.019   4.993 -5.7878  0.2462  3.6119
 6983SOL    HW232409   3.893   3.918   5.098  1.1759  0.3932  1.7895
 6984SOL     OW32410   3.380   2.320   4.081  0.1467 -0.1145  0.5483
 6984SOL    HW132411   3.365   2.410   4.112  0.3695 -0.0883  0.5771
 6984SOL    HW232412   3.296   2.273   4.080 -0.1989  0.4846  1.5840
 6985SOL     OW32413   1.842   0.521   0.921 -0.1083  0.3587  0.1763
 6985SOL    HW132414   1.902   0.531   0.847  0.7419  2.4980  1.1494
 6985SOL    HW232415   1.764   0.568   0.891 -0.9157 -1.0942  0.0304
 6986SOL     OW32416   3.772   1.336   5.209  0.8696  0.2782 -0.7009
 6986SOL    HW132417   3.746   1.418   5.252  0.0290  0.6161 -1.8619
 6986SOL    HW232418   3.787   1.364   5.119  1.8961  0.1655 -0.5579
 6987SOL     OW32419   3.593   2.819   8.129  0.1502 -0.4726 -0.0492
 6987SOL    HW132420   3.657   2.888   8.111 -2.1411  1.7935  0.6075
 6987SOL    HW232421   3.630   2.756   8.191  3.2296 -0.6507 -2.0461
 6988SOL     OW32422   1.142   2.327  13.508  0.3981  0.0811 -0.5068
 6988SOL    HW132423   1.159   2.246  13.555  3.8322 -0.3295 -2.4181
 6988SOL    HW232424   1.115   2.296  13.421  1.5891 -4.7065  0.8547
 6989SOL     OW32425   1.683   1.828   8.188 -0.1989  0.2074  0.0312
 6989SOL    HW132426   1.758   1.807   8.244  0.5466 -5.1620 -2.9055
 6989SOL    HW232427   1.625   1.758   8.220 -1.5560  1.8650  1.2606
 6990SOL     OW32428   2.560   2.425   5.537  0.1150  0.4832 -0.5628
 6990SOL    HW132429   2.612   2.360   5.491  0.3874  1.0731 -1.0918
 6990SOL    HW232430   2.477   2.377   5.532  0.6137 -0.4868  0.5899
 6991SOL     OW32431   3.027   4.447   5.255  0.2255 -0.1174  0.1247
 6991SOL    HW132432   3.005   4.361   5.220 -1.7472  1.7287 -3.1660
 6991SOL    HW232433   3.109   4.470   5.210  0.4309  0.2553  0.6912
 6992SOL     OW32434   3.035   0.938   6.691 -0.1719 -0.2651  0.4373
 6992SOL    HW132435   2.946   0.972   6.680 -0.4639 -2.0933 -2.9518
 6992SOL    HW232436   3.055   0.994   6.766  0.1444 -0.7019  0.6785
 6993SOL     OW32437   0.034   2.101   4.885  0.0203  0.0709 -0.1166
 6993SOL    HW132438   0.009   2.193   4.885 -0.5704 -0.1060 -1.9748
 6993SOL    HW232439   0.016   2.079   4.794  2.4724 -1.7091 -0.1768
 6994SOL     OW32440   4.355   1.626   9.673  0.5072  0.0536 -0.0297
 6994SOL    HW132441   4.375   1.584   9.590  3.3890 -0.1329  0.7423
 6994SOL    HW232442   4.327   1.555   9.730 -1.1935  0.6018 -0.1876
 6995SOL     OW32443   4.013   3.930   1.205  0.4866  0.3759 -0.1036
 6995SOL    HW132444   3.932   3.895   1.169 -0.2923  1.8604  0.2395
 6995SOL    HW232445   4.054   3.846   1.226 -0.4424  0.2122  1.0773
 6996SOL     OW32446   3.149   4.547   3.381 -0.5943 -0.0801  0.3105
 6996SOL    HW132447   3.060   4.549   3.416 -1.3880  0.0682 -1.6725
 6996SOL    HW232448   3.118   4.466   3.340  1.4986  0.5994 -2.6660
 6997SOL     OW32449   2.971   0.091  13.737 -0.3089 -0.2367 -0.1491
 6997SOL    HW132450   3.019   0.093  13.654 -0.0417  0.5867  0.0274
 6997SOL    HW232451   2.882   0.116  13.709 -0.3825  0.6568  0.8765
 6998SOL     OW32452   3.724   4.422   8.817  0.3465 -0.2070  0.3248
 6998SOL    HW132453   3.726   4.335   8.777 -1.4584  0.1524 -0.5501
 6998SOL    HW232454   3.661   4.424   8.888  1.2553 -1.3439  1.1620
 6999SOL     OW32455   0.684   4.227   7.734 -0.0602  0.1320  0.3798
 6999SOL    HW132456   0.705   4.209   7.826  0.3087 -4.1959 -0.5230
 6999SOL    HW232457   0.590   4.213   7.733 -0.1199  0.5820 -1.3583
 7000SOL     OW32458   1.584   2.893   6.195  0.0688 -0.2589 -0.5718
 7000SOL    HW132459   1.553   2.831   6.261  2.7179  0.5278  1.4064
 7000SOL    HW232460   1.506   2.948   6.190  1.0685  0.9912 -2.3024
 7001SOL     OW32461   4.303   3.292   6.484  0.4470  0.7571  0.4146
 7001SOL    HW132462   4.212   3.305   6.511  1.8433  1.8332  4.6616
 7001SOL    HW232463   4.324   3.201   6.502  2.1846  1.2736  0.9718
 7002SOL     OW32464   1.399   4.275   5.728  0.4150 -0.5436 -0.2042
 7002SOL    HW132465   1.433   4.286   5.816  1.1928 -0.3855 -0.5206
 7002SOL    HW232466   1.353   4.355   5.703 -0.0765 -0.6980  0.2409
 7003SOL     OW32467   4.704   3.478   5.690  0.5880  0.6006 -0.2163
 7003SOL    HW132468   0.079   3.478   5.684  0.5827  0.8970 -0.3039
 7003SOL    HW232469   4.690   3.384   5.689  2.3759  0.3531 -3.0024
 7004SOL     OW32470   2.450   2.987   2.477 -0.1187  0.4482  0.1867
 7004SOL    HW132471   2.514   2.923   2.446 -1.4053 -1.2800  1.1277
 7004SOL    HW232472   2.448   3.045   2.401 -0.3473 -0.0848 -0.2140
 7005SOL     OW32473   4.540   1.324   0.854 -0.1655  0.0939 -0.0866
 7005SOL    HW132474   4.626   1.330   0.814  0.2256  3.2021  1.1992
 7005SOL    HW232475   4.483   1.386   0.808 -2.7405 -0.1085  2.7608
 7006SOL     OW32476   2.512   2.518  14.411 -0.2804  0.1238 -0.0486
 7006SOL    HW132477   2.567   2.561  14.345  0.0287  1.5098  1.1047
 7006SOL    HW232478   2.535   2.426  14.399 -2.4545 -0.5296  0.8103
 7007SOL     OW32479   1.094   2.548   9.941  0.1179  0.3659 -0.0769
 7007SOL    HW132480   1.106   2.587   9.855  1.5094 -1.6131 -0.7867
 7007SOL    HW232481   1.163   2.481   9.947 -2.4682 -2.2596  0.1340
 7008SOL     OW32482   1.735   0.612   1.160  0.1690 -0.0354  0.1005
 7008SOL    HW132483   1.823   0.641   1.138  0.1367  0.1277  0.1824
 7008SOL    HW232484   1.708   0.573   1.076  1.2042 -2.0835  0.7242
 7009SOL     OW32485   2.227   4.652   4.822 -0.9170  0.1590  0.0216
 7009SOL    HW132486   2.265   4.639   4.735 -1.4705  0.9245 -0.3389
 7009SOL    HW232487   2.171   0.005   4.797 -0.9773  0.7891  1.9782
 7010SOL     OW32488   3.167   1.912  15.567 -0.0891 -0.7234 -0.2219
 7010SOL    HW132489   3.138   2.003  15.558 -0.5516 -0.7401  1.1762
 7010SOL    HW232490   3.258   1.936  15.582 -0.2983 -1.2503  1.8547
 7011SOL     OW32491   0.639   3.402   5.545 -0.1278  0.4660  0.8249
 7011SOL    HW132492   0.632   3.497   5.560  2.4385  0.6086  1.0662
 7011SOL    HW232493   0.727   3.397   5.509 -0.0991  1.9667  0.6575
 7012SOL     OW32494   3.186   0.807   6.960  0.1916 -0.5788  0.2159
 7012SOL    HW132495   3.140   0.810   6.876 -0.6598 -0.9031  0.6684
 7012SOL    HW232496   3.157   0.892   6.995  0.4856 -1.4031  2.4532
 7013SOL     OW32497   0.757   2.017   3.927  0.1322  0.4904  0.3150
 7013SOL    HW132498   0.668   2.003   3.958 -0.4972  0.7852 -1.3419
 7013SOL    HW232499   0.778   2.100   3.971 -0.3623  0.8417 -0.1045
 7014SOL     OW32500   1.751   2.292   8.846 -0.6490 -0.1087  0.2529
 7014SOL    HW132501   1.711   2.223   8.792 -0.6406  0.7179 -0.7994
 7014SOL    HW232502   1.840   2.261   8.862  0.1332  2.2501  0.4874
 7015SOL     OW32503   3.695   2.635   3.331 -0.4239  1.2144 -0.1929
 7015SOL    HW132504   3.671   2.614   3.241  1.0805  0.8662 -0.5110
 7015SOL    HW232505   3.678   2.548   3.368 -0.3772  0.6005 -1.6407
 7016SOL     OW32506   3.552   1.529   3.158 -0.4151 -0.2550  0.0117
 7016SOL    HW132507   3.570   1.473   3.234 -1.2437  0.7020  0.9190
 7016SOL    HW232508   3.497   1.596   3.200  1.1117  1.0039 -0.0100
 7017SOL     OW32509   2.494   0.949   5.049  0.0154  0.1410 -0.0471
 7017SOL    HW132510   2.491   0.889   5.123  2.8181 -2.0263 -1.7165
 7017SOL    HW232511   2.404   0.981   5.057  0.5202  1.7543 -0.8756
 7018SOL     OW32512   0.511   3.785  16.924  0.5154  0.1961 -0.2374
 7018SOL    HW132513   0.421   3.780  16.890  0.5998 -1.5009 -0.2285
 7018SOL    HW232514   0.499   3.828  17.009  1.2178  0.0541 -0.0700
 7019SOL     OW32515   3.399   2.389   0.009 -0.1969  0.5359 -0.3443
 7019SOL    HW132516   3.451   2.336   0.069 -1.5826 -0.6040 -0.1438
 7019SOL    HW232517   3.373   2.314  17.639 -0.0918 -0.2001  0.6233
 7020SOL     OW32518   4.466   2.218   6.209 -0.4842 -0.0972  0.7938
 7020SOL    HW132519   4.426   2.302   6.187 -0.5437 -0.9400 -2.3808
 7020SOL    HW232520   4.546   2.230   6.158 -2.3075 -0.2598 -2.1130
 7021SOL     OW32521   2.144   4.295   6.898 -0.2099  0.6570 -0.2295
 7021SOL    HW132522   2.234   4.263   6.904 -0.0112  1.2957  0.2474
 7021SOL    HW232523   2.090   4.220   6.875 -1.0610  1.1526  0.1375
 7022SOL     OW32524   3.242   0.925   5.210  0.1576  0.5440  0.4407
 7022SOL    HW132525   3.160   0.954   5.249 -0.5031  0.9150 -1.2240
 7022SOL    HW232526   3.214   0.871   5.137  1.6560  2.8803 -1.8964
 7023SOL     OW32527   3.909   4.331   2.682 -0.1348  0.8469 -0.1406
 7023SOL    HW132528   3.891   4.317   2.589 -0.3278 -0.0636  0.0411
 7023SOL    HW232529   3.940   4.243   2.702 -0.8251  1.4355  3.6490
 7024SOL     OW32530   4.211   2.907   6.018 -0.5693 -0.2745  0.0688
 7024SOL    HW132531   4.306   2.902   6.013 -0.6768 -4.1548  1.3421
 7024SOL    HW232532   4.193   2.969   5.947  1.3851  0.2762  0.0419
 7025SOL     OW32533   0.292   3.095  16.174 -0.1042 -0.2485  0.1580
 7025SOL    HW132534   0.206   3.112  16.212 -0.4391 -0.2552 -0.5930
 7025SOL    HW232535   0.330   3.183  16.168  1.5412 -0.8427  1.8761
 7026SOL     OW32536   3.900   4.393  12.494 -0.5393 -0.7193  0.1889
 7026SOL    HW132537   3.945   4.312  12.468  0.7454 -0.2905  1.0773
 7026SOL    HW232538   3.963   4.450  12.539  1.4991 -3.2430  0.5613
 7027SOL     OW32539   1.238   3.996   5.260  0.0018  1.1354  0.3788
 7027SOL    HW132540   1.284   4.038   5.332  2.4017  3.0009 -2.2173
 7027SOL    HW232541   1.282   3.914   5.238  0.2896  1.5914 -0.7653
 7028SOL     OW32542   3.617   0.612   9.871 -0.3223 -0.0814 -0.6232
 7028SOL    HW132543   3.537   0.655   9.841 -1.6012 -0.7562  1.7964
 7028SOL    HW232544   3.682   0.682   9.868 -0.2400 -0.2266 -2.2740
 7029SOL     OW32545   0.533   0.871   5.393 -0.2085 -0.6624 -0.2185
 7029SOL    HW132546   0.609   0.821   5.362  0.2939  0.3692 -0.6849
 7029SOL    HW232547   0.555   0.961   5.369 -0.1938 -0.7149 -0.4009
 7030SOL     OW32548   3.683   4.514   9.078 -1.0105  0.7642  0.1675
 7030SOL    HW132549   3.748   4.545   9.015 -3.1246  1.7601 -1.4895
 7030SOL    HW232550   3.742   4.491   9.150  0.3073  0.6076 -0.9498
 7031SOL     OW32551   1.359   3.255   9.805 -0.1363 -0.2258 -0.7818
 7031SOL    HW132552   1.440   3.245   9.755  0.1090  0.6826 -0.5740
 7031SOL    HW232553   1.296   3.232   9.737  0.8345  2.0245 -2.4462
 7032SOL     OW32554   3.999   4.364   4.865 -0.2912 -0.1687  0.0383
 7032SOL    HW132555   3.997   4.391   4.956 -0.1603 -1.6301  0.4810
 7032SOL    HW232556   3.905   4.368   4.848 -0.5451 -1.7280  1.1250
 7033SOL     OW32557   0.043   2.318   4.224  0.1307  0.2545 -0.5311
 7033SOL    HW132558   4.683   2.341   4.271  0.6301 -0.5442  0.7098
 7033SOL    HW232559   0.008   2.338   4.138  1.3059  0.7276 -0.9036
 7034SOL     OW32560   2.191   1.303   3.739  0.7161 -0.2390  0.0157
 7034SOL    HW132561   2.211   1.271   3.652 -0.1909 -0.2838 -0.1759
 7034SOL    HW232562   2.278   1.279   3.772  0.5217  0.9197  1.3822
 7035SOL     OW32563   2.822   4.488   7.472 -0.0624 -0.0903 -0.5395
 7035SOL    HW132564   2.911   4.493   7.436 -0.8478  2.3693 -2.1681
 7035SOL    HW232565   2.808   4.397   7.448  2.1560 -0.1328 -1.6972
 7036SOL     OW32566   4.491   1.627   6.831 -0.1009  0.6825 -0.2254
 7036SOL    HW132567   4.475   1.716   6.861  0.3492  0.2839  1.2320
 7036SOL    HW232568   4.540   1.651   6.753  0.4359 -1.1682 -0.4696
 7037SOL     OW32569   3.542   2.647  17.244 -0.5982  0.5506 -0.4482
 7037SOL    HW132570   3.516   2.735  17.270 -0.5876  0.3278  0.3339
 7037SOL    HW232571   3.468   2.594  17.276  0.3609 -0.0893  0.7448
 7038SOL     OW32572   2.781   4.342   2.024 -0.0412 -0.3038 -0.2831
 7038SOL    HW132573   2.728   4.263   2.037 -0.4787  0.3314  1.8704
 7038SOL    HW232574   2.835   4.341   2.103 -1.1144  0.1781  0.4612
 7039SOL     OW32575   0.551   3.991  10.201 -0.1182 -0.2512  0.0750
 7039SOL    HW132576   0.629   3.945  10.170 -1.0028 -0.7783 -1.3518
 7039SOL    HW232577   0.591   4.055  10.259  0.3296 -0.2936 -0.1863
 7040SOL     OW32578   1.375   0.671   6.251  0.0510 -0.6119  0.1041
 7040SOL    HW132579   1.291   0.681   6.295 -0.7621  0.0282 -1.5861
 7040SOL    HW232580   1.346   0.642   6.165 -1.4684  0.3294  0.2962
 7041SOL     OW32581   2.400   4.557   3.132  0.0224 -0.5776 -0.5303
 7041SOL    HW132582   2.335   4.489   3.149 -0.7961  0.7298  1.5528
 7041SOL    HW232583   2.436   4.586   3.216 -2.4749 -1.8392  0.9856
 7042SOL     OW32584   2.872   0.996   3.723 -0.2635 -0.9324 -0.6885
 7042SOL    HW132585   2.833   0.916   3.687 -1.1231 -1.4297  1.3121
 7042SOL    HW232586   2.796   1.012   3.779  1.1550 -0.9072  1.2121
 7043SOL     OW32587   2.705   3.049   4.630  0.0039  0.1939 -0.1552
 7043SOL    HW132588   2.614   3.034   4.655  0.0308 -2.1320 -1.4635
 7043SOL    HW232589   2.745   2.962   4.624 -0.8743 -0.1974 -0.3317
 7044SOL     OW32590   1.230   4.565   2.998 -0.2288  0.9401  0.0368
 7044SOL    HW132591   1.250   4.658   2.986 -0.2770  0.6260 -2.4737
 7044SOL    HW232592   1.274   4.535   3.078 -0.3981  0.1154 -0.1786
 7045SOL     OW32593   2.625   3.400  12.932 -0.5946 -0.4322  0.2804
 7045SOL    HW132594   2.675   3.441  13.003 -2.3172  1.0244  0.6664
 7045SOL    HW232595   2.563   3.341  12.976 -1.6470  2.0026  2.0561
 7046SOL     OW32596   1.055   2.054  10.108 -0.2658 -0.4901  0.1819
 7046SOL    HW132597   1.143   2.077  10.138 -0.6446 -0.6975  1.4813
 7046SOL    HW232598   1.011   2.138  10.096  0.3599 -0.1131  0.4931
 7047SOL     OW32599   4.263   3.501   7.522 -0.3595  0.0057 -0.1400
 7047SOL    HW132600   4.211   3.514   7.443 -0.9973 -1.1984  0.0863
 7047SOL    HW232601   4.252   3.586   7.565  1.0244 -0.1751  0.5825
 7048SOL     OW32602   3.655   1.777   1.425  0.4319 -0.0470  0.2564
 7048SOL    HW132603   3.748   1.757   1.415  0.7184  1.6019 -0.3395
 7048SOL    HW232604   3.638   1.819   1.341 -0.0316  0.0237  0.3856
 7049SOL     OW32605   0.283   0.390   6.938  0.0338 -0.6599 -0.0200
 7049SOL    HW132606   0.199   0.434   6.925  0.3736  0.3304  1.2051
 7049SOL    HW232607   0.263   0.336   7.015  1.9579 -0.0908  0.8592
 7050SOL     OW32608   3.226   0.363  13.036 -0.4739  0.0384 -0.0596
 7050SOL    HW132609   3.229   0.435  13.099  0.6613 -0.1710  0.1157
 7050SOL    HW232610   3.186   0.404  12.960 -1.3700 -0.4099  0.1707
 7051SOL     OW32611   1.149   0.789  10.713 -0.2635 -0.0859 -0.5541
 7051SOL    HW132612   1.228   0.825  10.673 -0.3693  1.1803  0.3778
 7051SOL    HW232613   1.173   0.788  10.806 -2.3599  0.4373  0.0138
 7052SOL     OW32614   2.968   1.785   8.485 -0.3326  0.0740  0.4308
 7052SOL    HW132615   2.989   1.691   8.480 -2.4903 -0.4511  0.9983
 7052SOL    HW232616   2.963   1.801   8.390  0.3205 -0.7906  0.2544
 7053SOL     OW32617   2.609   0.606   3.835 -0.3564 -1.1209 -0.0908
 7053SOL    HW132618   2.596   0.570   3.923  0.4774 -1.2840 -0.0358
 7053SOL    HW232619   2.662   0.540   3.790  1.7661  0.5461 -0.0916
 7054SOL     OW32620   3.530   3.203   3.593 -0.1035  0.0539  0.2045
 7054SOL    HW132621   3.602   3.158   3.549  0.4863  0.6931  0.5103
 7054SOL    HW232622   3.587   3.274   3.625 -0.2443  0.1695  0.1984
 7055SOL     OW32623   1.056   0.540   3.024  0.2460 -0.3944 -0.3023
 7055SOL    HW132624   1.098   0.617   2.986  1.0767 -0.2587  0.9112
 7055SOL    HW232625   1.015   0.514   2.941 -1.4931  1.5183 -0.0504
 7056SOL     OW32626   2.884   3.719   5.652  0.0946  0.2310 -0.0381
 7056SOL    HW132627   2.930   3.746   5.573 -0.1537 -1.1510 -0.6650
 7056SOL    HW232628   2.825   3.795   5.651  1.4912  1.2575 -2.7303
 7057SOL     OW32629   4.607   3.793   7.451  0.7531  0.1108  0.0458
 7057SOL    HW132630   4.596   3.813   7.358  1.7506  0.2896 -0.0290
 7057SOL    HW232631   4.687   3.840   7.476  0.0521  1.4392 -0.2143
 7058SOL     OW32632   0.367   2.644  11.089 -0.3665  0.4289 -0.2713
 7058SOL    HW132633   0.274   2.625  11.090 -0.7239  2.0887 -0.6868
 7058SOL    HW232634   0.398   2.589  11.160 -0.1623  0.5945 -0.2312
 7059SOL     OW32635   1.516   0.899  16.210 -0.0563 -0.1198  0.2155
 7059SOL    HW132636   1.561   0.823  16.247  0.1166 -0.6625 -1.0701
 7059SOL    HW232637   1.425   0.880  16.234 -0.2835  0.9528  0.2036
 7060SOL     OW32638   1.514   4.405   4.604  0.1353 -0.1451  0.1018
 7060SOL    HW132639   1.486   4.325   4.647 -0.1838 -0.0117  0.1434
 7060SOL    HW232640   1.472   4.476   4.653 -0.6909 -1.2365  0.9788
 7061SOL     OW32641   2.184   3.096  11.364 -0.4307  0.0351 -0.1747
 7061SOL    HW132642   2.225   3.176  11.397 -0.5534 -0.1316  0.3776
 7061SOL    HW232643   2.113   3.080  11.426  1.0703  1.0948  1.8016
 7062SOL     OW32644   0.563   4.155   4.330  0.9242  0.0640  0.2897
 7062SOL    HW132645   0.634   4.097   4.302 -0.8677 -2.1224  0.2653
 7062SOL    HW232646   0.502   4.096   4.376 -0.3563  2.2215  1.3828
 7063SOL     OW32647   0.697   4.408  16.044  0.3134 -0.1112  0.2751
 7063SOL    HW132648   0.761   4.429  16.112 -2.0567 -1.0156  2.7808
 7063SOL    HW232649   0.639   4.354  16.098 -0.7612  0.7462 -0.0340
 7064SOL     OW32650   3.337   0.271  11.315  0.1047 -0.0693 -0.1015
 7064SOL    HW132651   3.353   0.223  11.233 -1.1222  0.7431 -0.8046
 7064SOL    HW232652   3.422   0.315  11.319 -0.2715  0.4850  1.5813
 7065SOL     OW32653   4.533   0.103   3.034 -0.2784  0.5551 -0.1133
 7065SOL    HW132654   4.622   0.073   3.048 -0.3867 -0.9578 -2.7104
 7065SOL    HW232655   4.500   0.021   2.997  1.0654  0.0858 -0.2719
 7066SOL     OW32656   3.309   1.633   7.248 -0.5067 -0.0371  0.1438
 7066SOL    HW132657   3.300   1.725   7.269  0.7531 -0.3586  2.1468
 7066SOL    HW232658   3.251   1.623   7.173  0.7596 -0.1327 -0.8088
 7067SOL     OW32659   1.790   3.718   7.692 -0.2307  0.1965  0.2304
 7067SOL    HW132660   1.830   3.802   7.668  0.0554  0.8892  3.0886
 7067SOL    HW232661   1.868   3.668   7.669  0.6024  1.5338  0.1623
 7068SOL     OW32662   4.500   0.211   9.087 -0.3583 -0.0418  0.1398
 7068SOL    HW132663   4.517   0.176   8.999  0.1889 -0.8241  0.5591
 7068SOL    HW232664   4.410   0.241   9.085  0.3833  2.0998 -1.7037
 7069SOL     OW32665   2.053   4.466   5.733  0.5587  0.0660  0.0075
 7069SOL    HW132666   2.056   4.377   5.769 -0.4277  0.5052  1.1677
 7069SOL    HW232667   1.960   4.485   5.743  1.3698  3.4315  1.0307
 7070SOL     OW32668   4.674   0.364   6.466 -0.0082 -0.0682 -0.7174
 7070SOL    HW132669   4.696   0.409   6.547  0.7181  0.6024 -1.2909
 7070SOL    HW232670   0.038   0.328   6.440  0.6754  1.8810 -1.1886
 7071SOL     OW32671   2.122   1.706   3.314  0.1835 -0.4086 -0.0552
 7071SOL    HW132672   2.091   1.710   3.404 -1.1219 -2.3572 -0.4122
 7071SOL    HW232673   2.217   1.699   3.325  0.2874  1.2985  0.2172
 7072SOL     OW32674   3.170   3.184   1.289  1.0449  0.0633 -0.9509
 7072SOL    HW132675   3.225   3.159   1.216 -0.6402 -1.3003 -1.7616
 7072SOL    HW232676   3.206   3.120   1.350  1.6283  1.6177  0.3331
 7073SOL     OW32677   3.227   2.237   0.478  0.3924 -0.3913  0.3962
 7073SOL    HW132678   3.212   2.241   0.572  2.4733 -1.6906  0.7845
 7073SOL    HW232679   3.136   2.230   0.449 -0.0086  2.1223  1.0660
 7074SOL     OW32680   2.747   4.699   4.858 -0.2680  0.6253  0.5406
 7074SOL    HW132681   2.680   0.040   4.828  0.0068  0.9187  0.5137
 7074SOL    HW232682   2.822   0.037   4.868  0.9842 -0.8366 -0.2844
 7075SOL     OW32683   3.428   0.189   3.878 -0.2139 -0.5292 -0.1037
 7075SOL    HW132684   3.455   0.279   3.862  0.8830 -0.8909 -0.2579
 7075SOL    HW232685   3.425   0.155   3.788 -0.2188 -0.3363 -0.1772
 7076SOL     OW32686   0.571   3.788   4.177 -0.6480  0.2391  0.0641
 7076SOL    HW132687   0.643   3.851   4.178 -0.2070 -0.2688  0.5782
 7076SOL    HW232688   0.579   3.745   4.262 -2.2126 -0.6499 -0.2361
 7077SOL     OW32689   2.849   3.206  13.562 -0.0483  0.0245 -0.0377
 7077SOL    HW132690   2.876   3.183  13.651 -1.4737  0.3475  0.4800
 7077SOL    HW232691   2.830   3.123  13.518 -0.8631 -0.2377  0.8159
 7078SOL     OW32692   1.500   0.489  15.037 -0.3847  0.3772 -0.2250
 7078SOL    HW132693   1.423   0.525  14.993  0.6294  1.9440 -0.7110
 7078SOL    HW232694   1.559   0.484  14.962  0.0282 -0.3529  0.1529
 7079SOL     OW32695   3.981   3.054   4.679  0.5023 -0.1303 -0.2920
 7079SOL    HW132696   3.909   3.111   4.651  2.0784  1.5899 -0.8730
 7079SOL    HW232697   3.931   2.973   4.684 -0.7478  0.6993  0.5195
 7080SOL     OW32698   1.465   3.495   5.820 -0.0837 -0.4209 -0.1038
 7080SOL    HW132699   1.395   3.430   5.831 -0.1058 -0.3973 -0.1043
 7080SOL    HW232700   1.448   3.527   5.731 -0.5087 -3.7181 -1.2233
 7081SOL     OW32701   1.480   2.367  14.353  0.3336 -0.0841 -0.3975
 7081SOL    HW132702   1.501   2.459  14.340  1.5608 -0.3703 -0.4107
 7081SOL    HW232703   1.565   2.328  14.369  1.2804  1.0075 -2.6804
 7082SOL     OW32704   4.598   1.272  15.599 -0.2662 -0.0396 -0.1343
 7082SOL    HW132705   4.558   1.204  15.546  0.0698 -1.3027  1.2371
 7082SOL    HW232706   4.644   1.213  15.658  0.7944 -1.0180 -1.9677
 7083SOL     OW32707   3.604   0.670   3.223  0.1235  0.2876 -0.0829
 7083SOL    HW132708   3.649   0.588   3.204  0.4638  0.3667  0.3968
 7083SOL    HW232709   3.527   0.618   3.244  1.4188 -1.2364  0.8166
 7084SOL     OW32710   3.046   3.306  12.208 -0.2683  0.2561  0.5500
 7084SOL    HW132711   2.995   3.318  12.127  0.3274 -0.3420  0.0782
 7084SOL    HW232712   3.067   3.212  12.204 -1.3117 -0.0293  2.0551
 7085SOL     OW32713   4.532   1.560   5.378 -0.5288 -0.6236 -0.1382
 7085SOL    HW132714   4.525   1.467   5.399 -0.5549 -0.4126  0.7707
 7085SOL    HW232715   4.558   1.557   5.286  3.0073  0.9422  0.8312
 7086SOL     OW32716   2.151   4.671  14.518 -0.4385  0.3463  0.2053
 7086SOL    HW132717   2.068   4.630  14.494  0.1736 -2.9160  3.6958
 7086SOL    HW232718   2.139   0.034  14.472 -0.4133 -0.2848 -0.9562
 7087SOL     OW32719   3.458   0.459  17.246  0.3300  0.2925  0.0885
 7087SOL    HW132720   3.392   0.507  17.296  0.1196  1.4394 -1.2770
 7087SOL    HW232721   3.532   0.453  17.306  0.5392 -0.8426 -0.2812
 7088SOL     OW32722   3.116   3.520   0.934  0.5825 -0.2106 -0.9509
 7088SOL    HW132723   3.104   3.611   0.906  0.8715  0.8409  2.4288
 7088SOL    HW232724   3.077   3.534   1.020 -1.1770 -1.5306 -1.5358
 7089SOL     OW32725   4.232   1.668   2.699  0.0750  0.0329 -0.2528
 7089SOL    HW132726   4.172   1.645   2.770  0.4126 -1.0737 -0.3251
 7089SOL    HW232727   4.319   1.638   2.726  0.0240 -0.0031 -0.1262
 7090SOL     OW32728   2.819   2.620   4.408 -0.1736 -0.0378  0.0078
 7090SOL    HW132729   2.841   2.542   4.458  0.6677  0.3560  0.2440
 7090SOL    HW232730   2.833   2.586   4.320  0.9043  2.1183 -0.6455
 7091SOL     OW32731   0.453   0.833  11.136  0.1361  0.2241 -0.0399
 7091SOL    HW132732   0.415   0.919  11.116  1.2064  0.3681 -1.4418
 7091SOL    HW232733   0.457   0.804  11.045  0.2839  1.5127 -0.4465
 7092SOL     OW32734   0.093   2.764   6.027 -0.5127  0.4020 -0.2784
 7092SOL    HW132735   0.026   2.753   5.959 -0.0345  2.2453 -1.0454
 7092SOL    HW232736   0.035   2.737   6.097  1.0324 -1.7206  0.2120
 7093SOL     OW32737   1.075   3.132   7.989  0.4113 -0.2987  0.2233
 7093SOL    HW132738   1.042   3.090   7.911 -0.5292 -2.0996  1.5985
 7093SOL    HW232739   1.019   3.209   7.995  1.7861  0.7784 -0.5706
 7094SOL     OW32740   3.058   3.359   7.191  0.0110  0.3641 -0.4283
 7094SOL    HW132741   2.975   3.311   7.184 -0.8028  1.5695  0.9362
 7094SOL    HW232742   3.120   3.293   7.161 -2.3902 -0.2106 -4.1479
 7095SOL     OW32743   2.413   3.750   8.755 -0.3958 -0.2074 -0.2856
 7095SOL    HW132744   2.335   3.775   8.706 -0.0225 -0.5372 -1.0500
 7095SOL    HW232745   2.443   3.826   8.805  1.3684  0.1834 -1.9623
 7096SOL     OW32746   2.899   3.936   6.077  0.4467 -0.2629 -0.2109
 7096SOL    HW132747   2.865   3.847   6.069 -0.1219 -0.1199  0.5352
 7096SOL    HW232748   2.882   3.949   6.171 -0.1675  1.4508 -0.5563
 7097SOL     OW32749   0.044   0.637   4.639 -0.2293 -0.3351 -0.0617
 7097SOL    HW132750   0.002   0.669   4.559 -1.1937 -1.5639 -0.0278
 7097SOL    HW232751   0.132   0.608   4.614 -0.7885 -2.8089  0.8574
 7098SOL     OW32752   0.675   1.704  11.554  0.3494 -0.4913 -0.5896
 7098SOL    HW132753   0.630   1.750  11.626  1.9496 -0.3846  0.3370
 7098SOL    HW232754   0.657   1.759  11.478  0.1280  1.3174  0.7699
 7099SOL     OW32755   3.947   0.729  12.941 -0.4044  0.7886 -0.1805
 7099SOL    HW132756   3.972   0.696  13.027  0.1823  0.1985 -0.5760
 7099SOL    HW232757   3.853   0.711  12.942 -0.2075 -0.2251  1.0372
 7100SOL     OW32758   0.512   1.880   8.063  0.1924 -0.5546 -0.1082
 7100SOL    HW132759   0.433   1.879   8.010 -1.8513  3.0151  2.8842
 7100SOL    HW232760   0.477   1.907   8.148  0.9742  3.1789 -0.9645
 7101SOL     OW32761   3.739   2.845  16.355 -0.0384 -0.3550  0.0268
 7101SOL    HW132762   3.774   2.911  16.296 -0.0306 -0.5364 -0.1705
 7101SOL    HW232763   3.818   2.829  16.406  0.3259 -0.2931 -0.5142
 7102SOL     OW32764   0.504   1.964   7.706 -0.4103 -0.4024 -0.5363
 7102SOL    HW132765   0.447   1.917   7.766  0.7877 -0.7048  0.3601
 7102SOL    HW232766   0.584   1.913   7.717 -0.2533 -0.4769 -1.9853
 7103SOL     OW32767   1.976   4.012   5.133  0.2661  0.2116 -0.0177
 7103SOL    HW132768   2.003   4.082   5.074  0.5597  0.7336  0.7278
 7103SOL    HW232769   2.033   3.945   5.094  1.6042  1.3605 -0.0435
 7104SOL     OW32770   3.222   3.200   7.056 -0.2029 -0.9388 -0.5923
 7104SOL    HW132771   3.278   3.199   6.978  0.9445  2.3568  0.2002
 7104SOL    HW232772   3.257   3.122   7.100  1.9524 -0.1042 -0.7985
 7105SOL     OW32773   0.666   1.837  12.177  0.9525  0.1704  0.2109
 7105SOL    HW132774   0.641   1.889  12.101 -1.3662  0.1782  0.9723
 7105SOL    HW232775   0.577   1.831  12.213 -0.0381  2.3996 -1.8535
 7106SOL     OW32776   2.547   1.029   8.503  0.2139 -0.2755 -0.1398
 7106SOL    HW132777   2.481   1.097   8.517 -1.2128 -1.6603 -0.1322
 7106SOL    HW232778   2.492   0.954   8.479 -2.0053  1.0074  0.9438
 7107SOL     OW32779   2.845   0.005  10.174  0.0659 -0.5302 -0.0819
 7107SOL    HW132780   2.912   4.691  10.233  0.9807 -0.9371 -1.3729
 7107SOL    HW232781   2.858   0.099  10.183 -0.2962 -0.2169 -2.9056
 7108SOL     OW32782   3.762   1.171   6.756  0.0243  0.2479  0.0680
 7108SOL    HW132783   3.681   1.150   6.710 -0.0562  0.7152 -0.0064
 7108SOL    HW232784   3.733   1.222   6.832  1.2837  0.0661  0.6650
 7109SOL     OW32785   0.748   4.551   4.658 -0.1154  0.3236 -0.0969
 7109SOL    HW132786   0.709   4.483   4.603  0.6016 -0.1739  0.0110
 7109SOL    HW232787   0.793   4.501   4.726  0.0386  1.5009  0.6648
 7110SOL     OW32788   2.660   0.154  11.695  0.3883 -0.6579  0.1377
 7110SOL    HW132789   2.596   0.223  11.709  0.0877 -1.8556  4.6948
 7110SOL    HW232790   2.728   0.200  11.645  0.1877 -1.3097 -0.7360
 7111SOL     OW32791   0.141   2.246   2.386 -0.5757 -0.7365  0.0875
 7111SOL    HW132792   0.141   2.183   2.459 -0.5466 -3.3552 -2.1872
 7111SOL    HW232793   0.233   2.245   2.360 -1.4271 -3.2714 -2.7815
 7112SOL     OW32794   3.447   3.407   2.963  0.4917 -0.8117 -0.1124
 7112SOL    HW132795   3.388   3.448   2.899 -0.5248 -0.7360  0.8845
 7112SOL    HW232796   3.388   3.341   3.000 -0.9193 -0.0900 -1.1037
 7113SOL     OW32797   1.265   2.704   4.224 -0.1482 -0.4358  0.0937
 7113SOL    HW132798   1.288   2.796   4.207  2.6792 -0.3840  3.9186
 7113SOL    HW232799   1.222   2.685   4.141  2.0588 -0.1905 -1.0991
 7114SOL     OW32800   3.597   4.634  13.758 -0.1239  0.1253 -0.0435
 7114SOL    HW132801   3.587   4.704  13.823 -0.5767 -1.0596  1.1680
 7114SOL    HW232802   3.597   4.681  13.675  1.4352 -1.1029 -0.7370
 7115SOL     OW32803   0.768   2.212   8.209 -0.0181  0.1340 -0.1222
 7115SOL    HW132804   0.817   2.144   8.255  0.1222  0.0822 -0.3501
 7115SOL    HW232805   0.762   2.274   8.282 -0.3806  0.8968 -0.7950
 7116SOL     OW32806   1.304   2.204  11.940 -0.5671  0.6666 -0.6986
 7116SOL    HW132807   1.359   2.181  12.015 -1.5255  0.5489 -0.0390
 7116SOL    HW232808   1.235   2.138  11.943  1.0994 -0.9969  1.7201
 7117SOL     OW32809   0.359   2.657  17.018 -0.2567 -0.0107 -0.4281
 7117SOL    HW132810   0.342   2.701  16.934  1.0415  2.0844  0.4071
 7117SOL    HW232811   0.441   2.617  16.989  0.0775 -0.0267  0.5483
 7118SOL     OW32812   1.762   0.858   4.325  0.4938 -0.3690 -0.7930
 7118SOL    HW132813   1.686   0.803   4.305 -0.0317 -0.6340  1.9697
 7118SOL    HW232814   1.732   0.939   4.283  1.1342 -0.7554 -1.9956
 7119SOL     OW32815   4.313   2.706  17.341 -1.3228  0.2438 -0.1898
 7119SOL    HW132816   4.404   2.724  17.362 -0.8036 -1.5889 -0.8363
 7119SOL    HW232817   4.274   2.695  17.428 -1.0825  1.0579  0.0164
 7120SOL     OW32818   3.251   3.350   8.611  0.1167  0.3873  0.1796
 7120SOL    HW132819   3.338   3.316   8.633  0.9422  3.1697  1.2414
 7120SOL    HW232820   3.268   3.439   8.582  0.4710  1.4333  3.5880
 7121SOL     OW32821   4.248   4.250   7.615 -0.3591 -0.1193 -0.3528
 7121SOL    HW132822   4.323   4.278   7.667  0.4215  1.6116 -2.4375
 7121SOL    HW232823   4.198   4.331   7.622  1.7442  1.0361  1.1650
 7122SOL     OW32824   0.881   1.943   2.871 -0.2713  0.3237 -0.0729
 7122SOL    HW132825   0.868   1.900   2.786  2.2331 -0.7986  0.1099
 7122SOL    HW232826   0.925   1.873   2.919  0.1881 -0.0138 -0.9800
 7123SOL     OW32827   1.950   4.292   5.935  0.0703  0.8375  0.3470
 7123SOL    HW132828   1.854   4.294   5.937  0.0395  2.2978 -1.8364
 7123SOL    HW232829   1.973   4.376   5.975 -3.2349  0.3311  3.3420
 7124SOL     OW32830   0.961   1.232   8.491 -0.3133 -0.0659  0.1303
 7124SOL    HW132831   1.052   1.254   8.510 -0.8872  1.0097  1.6580
 7124SOL    HW232832   0.942   1.287   8.416  0.1815 -0.4954 -0.3160
 7125SOL     OW32833   4.298   1.085   6.581 -0.2105 -0.2100  0.0533
 7125SOL    HW132834   4.275   1.176   6.566  2.0734  0.2379 -0.7277
 7125SOL    HW232835   4.236   1.052   6.647 -0.6469  0.2040 -0.1575
 7126SOL     OW32836   3.742   3.542   7.921 -0.7365 -0.0419 -0.1676
 7126SOL    HW132837   3.765   3.563   7.830  1.4537 -1.2637  0.0980
 7126SOL    HW232838   3.736   3.636   7.939  2.4789  0.2356 -0.5333
 7127SOL     OW32839   2.202   1.843  12.966  0.1926  0.2233 -0.6067
 7127SOL    HW132840   2.264   1.916  12.970  1.0498 -0.4359 -1.7314
 7127SOL    HW232841   2.264   1.776  12.994  0.2511  1.5489  2.4413
 7128SOL     OW32842   2.696   2.076  13.783 -0.0302  0.0454  1.1791
 7128SOL    HW132843   2.775   2.115  13.820  1.5532 -1.4653 -0.5988
 7128SOL    HW232844   2.630   2.146  13.789 -0.5550 -0.3368 -0.0499
 7129SOL     OW32845   3.838   2.595   5.098 -0.2099  0.2568  0.2907
 7129SOL    HW132846   3.746   2.598   5.072 -0.2434  0.8966  0.4691
 7129SOL    HW232847   3.844   2.690   5.094  1.1364  0.1461 -0.1882
 7130SOL     OW32848   3.395   3.325   4.336 -0.2190  0.5396 -0.2561
 7130SOL    HW132849   3.386   3.301   4.243 -0.1269 -0.3131 -0.0407
 7130SOL    HW232850   3.316   3.378   4.350  0.6234  1.9869 -0.9619
 7131SOL     OW32851   2.081   1.932   7.083 -0.1729  0.1287  0.4830
 7131SOL    HW132852   2.153   1.994   7.096 -2.0141  2.7607 -1.8194
 7131SOL    HW232853   2.054   1.944   7.174  0.0962  1.1954  0.4254
 7132SOL     OW32854   4.245   2.164   3.399 -0.3315 -0.2292 -0.4680
 7132SOL    HW132855   4.232   2.223   3.473 -1.5494  1.1130 -1.7486
 7132SOL    HW232856   4.266   2.082   3.444 -1.6131 -0.7366 -0.7954
 7133SOL     OW32857   4.357   1.849   5.616  0.5278 -0.2169  0.5732
 7133SOL    HW132858   4.424   1.918   5.624 -1.8340  2.2063 -0.5522
 7133SOL    HW232859   4.358   1.808   5.703  1.0636  0.4163  0.8741
 7134SOL     OW32860   3.194   4.079   7.055 -0.1558  0.1901  0.1459
 7134SOL    HW132861   3.198   4.137   6.979  1.8418  0.7443  0.6856
 7134SOL    HW232862   3.101   4.091   7.076 -0.3322 -1.3206  0.2392
 7135SOL     OW32863   0.193   3.449   4.357 -0.2065 -0.1450  0.0782
 7135SOL    HW132864   0.109   3.423   4.319  0.3443 -0.5148 -0.8786
 7135SOL    HW232865   0.243   3.370   4.381  1.8938  1.4752  1.0509
 7136SOL     OW32866   3.891   0.218  16.712  0.2392  0.3754 -0.2915
 7136SOL    HW132867   3.811   0.189  16.756  2.0049 -2.6557  0.8456
 7136SOL    HW232868   3.866   0.189  16.624  0.5209 -4.0819  1.0990
 7137SOL     OW32869   1.493   0.635   4.592  0.5658  0.1939  0.1760
 7137SOL    HW132870   1.551   0.562   4.615 -0.7302 -0.2727  1.9350
 7137SOL    HW232871   1.444   0.674   4.664  1.1861  2.1599 -0.4756
 7138SOL     OW32872   3.294   4.581   8.592 -0.1069 -0.4889  0.0689
 7138SOL    HW132873   3.248   4.629   8.523 -1.1745 -1.4222  0.1293
 7138SOL    HW232874   3.258   4.619   8.671  2.6082  0.3805  0.9086
 7139SOL     OW32875   1.544   4.270  15.198  0.3935  0.4389 -0.3354
 7139SOL    HW132876   1.547   4.204  15.128  1.3536  0.9787 -0.8062
 7139SOL    HW232877   1.455   4.280  15.232  0.6035  1.8961 -0.2121
 7140SOL     OW32878   1.816   2.274   7.630  0.3929 -0.2314 -0.1512
 7140SOL    HW132879   1.808   2.211   7.702  1.4843 -0.2683 -0.0684
 7140SOL    HW232880   1.810   2.361   7.671 -0.5121 -1.8431  3.1714
 7141SOL     OW32881   0.412   1.493   1.825 -0.3486  0.8789  0.1874
 7141SOL    HW132882   0.477   1.562   1.809  0.7488 -0.3878 -0.8820
 7141SOL    HW232883   0.340   1.536   1.779 -0.9085 -0.2163  0.0513
 7142SOL     OW32884   1.605   3.375  16.835 -0.0026 -0.5374  0.2330
 7142SOL    HW132885   1.675   3.414  16.784 -1.7897  3.3493  0.7772
 7142SOL    HW232886   1.652   3.320  16.898  1.2011 -0.3283 -0.4917
 7143SOL     OW32887   4.036   4.476   8.728 -0.0257  0.1434 -0.3335
 7143SOL    HW132888   3.970   4.465   8.796  1.7581 -0.7389  1.2526
 7143SOL    HW232889   4.076   4.390   8.740 -0.6249 -0.1473 -0.4124
 7144SOL     OW32890   3.242   3.866   3.871 -0.0736 -0.5834 -0.0400
 7144SOL    HW132891   3.303   3.913   3.928 -3.3240  3.1989  0.2817
 7144SOL    HW232892   3.165   3.861   3.926 -0.9221 -0.4302 -1.2145
 7145SOL     OW32893   3.989   1.472   0.429  0.2702  0.6465  0.0061
 7145SOL    HW132894   3.916   1.457   0.489  0.3538  0.4261  0.0516
 7145SOL    HW232895   3.959   1.415   0.357 -0.6863  1.1309  0.0125
 7146SOL     OW32896   0.945   4.625  15.757  0.2723  0.3823 -0.0673
 7146SOL    HW132897   0.851   4.640  15.765 -0.0291  0.5535 -4.0810
 7146SOL    HW232898   0.982   4.704  15.796 -0.4225  0.8722 -0.4153
 7147SOL     OW32899   1.685   4.011   7.848 -0.2286 -0.1739  0.2739
 7147SOL    HW132900   1.757   3.969   7.895  0.1526  0.2312  0.0537
 7147SOL    HW232901   1.609   3.965   7.884 -1.2631  0.0580 -1.6219
 7148SOL     OW32902   0.861   3.465  17.647  0.6982 -0.2100  0.8312
 7148SOL    HW132903   0.879   3.372  17.631 -0.4302 -0.5692  1.6599
 7148SOL    HW232904   0.937   3.480   0.020  2.8609 -1.6309 -1.6792
 7149SOL     OW32905   0.667   1.978   5.200  0.6224  0.0225  0.1838
 7149SOL    HW132906   0.687   1.884   5.194 -2.7359 -0.6562 -0.7704
 7149SOL    HW232907   0.740   2.007   5.254 -0.2621 -1.2202  2.0172
 7150SOL     OW32908   3.640   1.479   5.750  0.2428  0.2249  0.2754
 7150SOL    HW132909   3.670   1.568   5.734  3.5352 -1.3377 -2.2044
 7150SOL    HW232910   3.600   1.457   5.666  2.4828  2.0290 -1.2613
 7151SOL     OW32911   2.189   1.244  16.675 -0.1937 -0.0678 -0.1176
 7151SOL    HW132912   2.112   1.289  16.710 -0.4417 -1.0314  0.5763
 7151SOL    HW232913   2.219   1.203  16.756  1.9890  0.7305 -0.5442
 7152SOL     OW32914   3.867   2.926  17.596  0.0755 -0.2428  0.4861
 7152SOL    HW132915   3.821   2.920  17.512  0.9758 -1.1544  0.0714
 7152SOL    HW232916   3.809   2.869  17.647 -1.6219 -0.6348 -1.8828
 7153SOL     OW32917   2.417   0.626  15.452  0.8211  0.0163  0.0914
 7153SOL    HW132918   2.476   0.568  15.403 -0.2590 -0.5038 -0.5909
 7153SOL    HW232919   2.330   0.594  15.428  1.4010 -1.4579 -0.0820
 7154SOL     OW32920   3.921   1.583  11.167 -0.2785  0.2977  0.4200
 7154SOL    HW132921   3.922   1.678  11.180  4.0567  0.5041 -1.3039
 7154SOL    HW232922   3.868   1.580  11.087 -0.7686  0.0533  0.7557
 7155SOL     OW32923   2.195   3.342   5.090 -0.3506 -0.3631  0.3354
 7155SOL    HW132924   2.259   3.273   5.075  0.1759  0.4819 -1.3994
 7155SOL    HW232925   2.254   3.391   5.147 -0.0130 -0.3464 -0.0205
 7156SOL     OW32926   2.234   1.245   8.815  0.4040 -0.6023 -0.7233
 7156SOL    HW132927   2.281   1.300   8.878  1.0989 -0.1610 -1.6181
 7156SOL    HW232928   2.252   1.154   8.837 -2.2430 -0.7854  0.6753
 7157SOL     OW32929   1.171   0.542   5.283  0.0395  0.0674  0.0509
 7157SOL    HW132930   1.191   0.453   5.312 -0.5570  0.2149  0.9304
 7157SOL    HW232931   1.080   0.535   5.254  0.5245 -2.3584 -0.8975
 7158SOL     OW32932   2.641   0.248   2.902  0.3630  0.2441 -0.3068
 7158SOL    HW132933   2.704   0.292   2.845 -0.3490 -1.3400 -2.2787
 7158SOL    HW232934   2.677   0.159   2.910 -0.0840  0.1508  0.6727
 7159SOL     OW32935   3.920   1.008   6.902 -0.0450 -0.2930 -0.3482
 7159SOL    HW132936   3.843   0.988   6.956 -0.4643 -0.3486 -0.9647
 7159SOL    HW232937   3.888   1.062   6.830  1.5684 -2.0003 -2.3327
 7160SOL     OW32938   0.218   1.636  12.183 -0.0599 -0.1609  0.0805
 7160SOL    HW132939   0.220   1.686  12.265 -2.0474 -0.0333  0.0538
 7160SOL    HW232940   0.282   1.567  12.200 -1.4111 -0.5881  3.4322
 7161SOL     OW32941   1.646   1.369  11.322  0.1504 -0.4087  0.0349
 7161SOL    HW132942   1.635   1.387  11.415 -0.5437 -1.4159  0.1406
 7161SOL    HW232943   1.740   1.386  11.316  0.0164 -0.2157 -1.6103
 7162SOL     OW32944   2.974   4.108   5.849  0.4236 -0.3791 -0.1720
 7162SOL    HW132945   2.946   4.055   5.924  0.4945  0.9993  0.8275
 7162SOL    HW232946   2.985   4.034   5.789 -0.0666 -1.0887  0.6177
 7163SOL     OW32947   3.608   1.559   1.644 -0.1490  0.7037 -0.2494
 7163SOL    HW132948   3.629   1.511   1.724  0.1402  2.2630  0.5971
 7163SOL    HW232949   3.608   1.490   1.577  0.2453  0.4994 -0.0387
 7164SOL     OW32950   1.257   3.298   7.653 -0.5031  0.9014  0.1857
 7164SOL    HW132951   1.194   3.366   7.678 -0.9215  0.7328 -0.4052
 7164SOL    HW232952   1.223   3.286   7.565 -1.7498 -1.4185  0.9989
 7165SOL     OW32953   4.370   4.134   0.732 -0.0603  0.1800 -0.1389
 7165SOL    HW132954   4.425   4.164   0.660 -0.8951  2.4463  0.1821
 7165SOL    HW232955   4.422   4.128   0.812  2.4185  1.0028 -1.6726
 7166SOL     OW32956   4.602   1.840  13.118 -0.1847 -0.0742  0.3099
 7166SOL    HW132957   4.616   1.914  13.058  2.4424  1.6116  3.0391
 7166SOL    HW232958   4.682   1.839  13.171  0.8124  2.1965 -1.1215
 7167SOL     OW32959   0.893   2.398   9.060 -0.1692 -0.0323  0.3939
 7167SOL    HW132960   0.853   2.485   9.055  3.2847  1.5765  0.6885
 7167SOL    HW232961   0.985   2.424   9.068  0.2372 -2.3517  3.4386
 7168SOL     OW32962   2.408   2.676   8.585 -0.2438  0.6509 -0.0913
 7168SOL    HW132963   2.402   2.616   8.511  0.3080  0.4117  0.0597
 7168SOL    HW232964   2.342   2.735   8.548 -2.3012 -0.2524  2.1179
 7169SOL     OW32965   4.313   0.537  17.260  0.5384  0.2400  0.6729
 7169SOL    HW132966   4.259   0.548  17.338 -0.6909  1.9890 -0.4347
 7169SOL    HW232967   4.301   0.629  17.238  2.4882  0.6264  1.2365
 7170SOL     OW32968   4.654   1.562   1.057  0.1240 -0.3860 -0.4780
 7170SOL    HW132969   4.655   1.473   1.023 -1.3318 -1.0517  1.2363
 7170SOL    HW232970   0.026   1.587   1.054  0.4192 -1.4158  0.2808
 7171SOL     OW32971   0.578   0.260   3.934  0.7451 -0.2098  0.7603
 7171SOL    HW132972   0.598   0.221   4.019  0.5720  0.2155  0.9986
 7171SOL    HW232973   0.662   0.297   3.906  1.7131 -3.2250 -0.2882
 7172SOL     OW32974   4.297   2.120   4.855  0.2547  0.5708 -0.3183
 7172SOL    HW132975   4.352   2.187   4.814  1.5651  0.1032  0.6438
 7172SOL    HW232976   4.335   2.110   4.943 -0.1857  2.6961  0.1378
 7173SOL     OW32977   3.787   2.390  15.630 -0.3666 -0.1498  0.1546
 7173SOL    HW132978   3.801   2.378  15.724  0.0728  2.4106  0.4046
 7173SOL    HW232979   3.701   2.348  15.625 -0.1510 -0.0727 -4.2232
 7174SOL     OW32980   3.315   1.549   1.833 -0.2049  0.6102  0.4148
 7174SOL    HW132981   3.234   1.517   1.793  0.1083 -0.1264  0.3607
 7174SOL    HW232982   3.280   1.627   1.876  0.6509  1.4318 -0.3993
 7175SOL     OW32983   2.165   2.543   6.752 -0.0885 -0.0521  0.5219
 7175SOL    HW132984   2.157   2.448   6.742  1.8794 -0.2876  1.2425
 7175SOL    HW232985   2.102   2.558   6.823  2.8751 -0.0111  3.1185
 7176SOL     OW32986   2.076   3.948   3.616  0.4067  0.2477 -0.2506
 7176SOL    HW132987   2.104   3.892   3.543 -0.9898  1.2073 -1.5235
 7176SOL    HW232988   1.994   3.911   3.649  1.4569 -1.5610  0.3379
 7177SOL     OW32989   1.446   0.150   8.050  0.0184 -0.9367 -0.6657
 7177SOL    HW132990   1.487   0.092   8.113 -2.1942  0.1958  1.8320
 7177SOL    HW232991   1.357   0.115   8.048 -0.0757 -0.7166 -0.3475
 7178SOL     OW32992   4.466   3.490   6.622  0.2943 -0.0459  0.6094
 7178SOL    HW132993   4.549   3.498   6.574 -0.2753  1.9635 -0.0593
 7178SOL    HW232994   4.422   3.427   6.564  2.0814 -1.2589  0.5546
 7179SOL     OW32995   2.402   2.610  16.705  0.2162 -0.1203 -0.1995
 7179SOL    HW132996   2.387   2.674  16.635 -0.1317 -0.4411 -0.4184
 7179SOL    HW232997   2.383   2.531  16.653  1.6627 -0.8346  0.3455
 7180SOL     OW32998   2.490   0.124   4.109 -0.2988  0.3904  0.5555
 7180SOL    HW132999   2.550   0.120   4.184  1.0172  0.6864 -0.4870
 7180SOL    HW233000   2.493   0.032   4.085 -0.5280  0.9778 -1.7325
 7181SOL     OW33001   4.051   3.630   6.507 -0.5567  0.6894 -0.5824
 7181SOL    HW133002   4.022   3.694   6.442  1.5246  0.9656 -1.2536
 7181SOL    HW233003   3.980   3.646   6.569 -0.6497 -0.1776 -0.4769
 7182SOL     OW33004   2.781   1.175   9.829  0.5026  0.0926  0.2001
 7182SOL    HW133005   2.769   1.116   9.754  2.7139  0.6619 -0.5977
 7182SOL    HW233006   2.871   1.207   9.826  1.0894 -1.5308  0.6658
 7183SOL     OW33007   2.935   1.586  13.515 -0.2016 -0.2705  0.1748
 7183SOL    HW133008   2.890   1.598  13.431 -0.3509  1.4754  0.4990
 7183SOL    HW233009   3.005   1.650  13.507 -0.7890  0.6285  2.2826
 7184SOL     OW33010   3.173   4.013  10.343  0.4026  0.4789  0.3336
 7184SOL    HW133011   3.098   3.961  10.372  0.7426 -0.6025 -0.7433
 7184SOL    HW233012   3.200   4.040  10.430  0.6414 -1.2167  0.7750
 7185SOL     OW33013   1.268   1.725   6.669 -0.6220 -0.4505 -0.1516
 7185SOL    HW133014   1.283   1.663   6.740 -0.0553  1.1098  1.0826
 7185SOL    HW233015   1.357   1.728   6.633 -0.0052  2.0845  1.5848
 7186SOL     OW33016   0.282   0.995   9.284 -0.0643  0.0963 -0.1927
 7186SOL    HW133017   0.272   0.945   9.202  0.9475  1.5096 -1.1804
 7186SOL    HW233018   0.196   0.994   9.325  0.6513  0.5998  1.3196
 7187SOL     OW33019   1.569   1.287  15.185  0.0311 -0.6579 -0.1546
 7187SOL    HW133020   1.528   1.218  15.237 -1.3078 -0.0334 -0.3676
 7187SOL    HW233021   1.499   1.299  15.120 -1.7421 -0.4681  1.8054
 7188SOL     OW33022   1.933   0.970   3.266  0.1365 -0.2732 -0.4512
 7188SOL    HW133023   1.944   0.901   3.331  3.8908  0.9646  0.2581
 7188SOL    HW233024   2.027   0.989   3.260 -0.5378  2.9705 -0.7996
 7189SOL     OW33025   1.327   2.428   6.727 -0.1945  0.3596 -0.2430
 7189SOL    HW133026   1.332   2.405   6.820  0.0280  0.0240 -0.3393
 7189SOL    HW233027   1.238   2.464   6.723 -0.5688 -0.4375  0.7536
 7190SOL     OW33028   1.661   2.495   2.215 -0.0346 -0.1971 -0.3846
 7190SOL    HW133029   1.687   2.499   2.307 -1.8710 -0.8815  0.1649
 7190SOL    HW233030   1.593   2.428   2.222 -1.0470  0.9557  0.8651
 7191SOL     OW33031   1.518   2.838   7.034  0.2309  0.4015  0.2785
 7191SOL    HW133032   1.570   2.878   7.104  0.2040 -0.4354  0.7865
 7191SOL    HW233033   1.588   2.816   6.972 -0.1883  4.1052 -1.5123
 7192SOL     OW33034   0.295   3.739  16.772 -0.4279  0.0892 -0.0790
 7192SOL    HW133035   0.305   3.809  16.708  1.2410 -0.1870 -0.1190
 7192SOL    HW233036   0.200   3.740  16.785 -0.5693 -1.3700 -0.9593
 7193SOL     OW33037   2.076   0.423   4.051  0.1061 -0.1589  0.0173
 7193SOL    HW133038   2.012   0.439   3.982 -0.1592  1.7705  0.7189
 7193SOL    HW233039   2.040   0.338   4.078  1.4606 -0.7284  0.0696
 7194SOL     OW33040   3.239   4.178  11.535 -0.1971 -0.1999 -0.1254
 7194SOL    HW133041   3.296   4.162  11.460  1.1945  0.0028  0.8884
 7194SOL    HW233042   3.294   4.161  11.612 -3.1132 -3.7238  1.1532
 7195SOL     OW33043   0.953   0.776  10.054  0.5311 -0.6710  0.4979
 7195SOL    HW133044   0.943   0.749  10.145  1.5674 -1.4566  0.3892
 7195SOL    HW233045   0.980   0.694  10.013  0.0300 -0.5758 -0.0192
 7196SOL     OW33046   3.548   4.219   5.223 -0.2338  0.6141 -0.4877
 7196SOL    HW133047   3.627   4.265   5.250 -0.2004  0.3122 -0.0675
 7196SOL    HW233048   3.517   4.241   5.311 -1.2141 -0.3407 -0.5933
 7197SOL     OW33049   3.987   2.834   8.301  0.2665 -0.5050  0.1128
 7197SOL    HW133050   4.058   2.799   8.356 -1.6493 -2.2362  1.4611
 7197SOL    HW233051   3.928   2.759   8.298  0.2395 -0.4734 -0.1007
 7198SOL     OW33052   1.561   2.029  10.115 -0.1754  0.0447 -0.0268
 7198SOL    HW133053   1.580   2.122  10.121  3.1435 -0.6908  0.8114
 7198SOL    HW233054   1.476   2.035  10.072  0.9600 -1.0532 -2.4567
 7199SOL     OW33055   3.214   3.063   7.354 -0.5036  0.0180  0.2809
 7199SOL    HW133056   3.246   2.973   7.352 -2.9146 -0.8388  0.2144
 7199SOL    HW233057   3.122   3.045   7.335 -0.9578  1.4280  1.1059
 7200SOL     OW33058   2.375   1.242  16.886 -0.1632  0.1239 -0.1188
 7200SOL    HW133059   2.424   1.296  16.948 -0.8464  0.6248 -0.0104
 7200SOL    HW233060   2.442   1.219  16.821 -1.3110 -0.1371 -1.2275
 7201SOL     OW33061   2.749   2.583   8.496  0.3225 -0.4739  0.4114
 7201SOL    HW133062   2.667   2.536   8.483  0.8794 -0.5821 -2.8630
 7201SOL    HW233063   2.807   2.513   8.525  0.2720 -0.4286  0.6216
 7202SOL     OW33064   3.155   0.177  13.238 -0.4944 -0.5221 -0.0408
 7202SOL    HW133065   3.163   0.218  13.152  0.7309  0.0414  0.3570
 7202SOL    HW233066   3.241   0.135  13.246 -0.8415 -1.1581  0.4336
 7203SOL     OW33067   0.710   2.640   7.373 -0.1764  0.3562  0.2986
 7203SOL    HW133068   0.672   2.556   7.396 -0.6202  0.3644 -0.4251
 7203SOL    HW233069   0.802   2.615   7.383 -0.3689  0.3817  2.2339
 7204SOL     OW33070   3.291   0.847   3.029  0.3928  0.1884  0.0516
 7204SOL    HW133071   3.289   0.751   3.031  0.1395  0.2152  1.1261
 7204SOL    HW233072   3.197   0.867   3.026  0.4808  0.4398 -1.0991
 7205SOL     OW33073   0.727   1.107   9.524 -0.6015 -0.8029 -1.0379
 7205SOL    HW133074   0.656   1.057   9.484 -1.9033  0.3232 -0.1160
 7205SOL    HW233075   0.701   1.198   9.516  0.9624 -0.1832  0.7220
 7206SOL     OW33076   4.065   1.674   6.427  0.2548 -0.0914 -0.3501
 7206SOL    HW133077   3.983   1.708   6.391  0.1999 -0.6702 -0.7710
 7206SOL    HW233078   4.034   1.640   6.511 -2.3821 -1.3382 -1.8194
 7207SOL     OW33079   4.669   2.479  13.668  0.1323  0.4030  0.2040
 7207SOL    HW133080   4.705   2.506  13.752 -1.5484 -1.6852  1.5729
 7207SOL    HW233081   4.671   2.384  13.678  0.1901  0.4580  0.7014
 7208SOL     OW33082   2.458   4.458  12.850  0.3641  0.4401  1.3073
 7208SOL    HW133083   2.376   4.454  12.898 -0.5257 -2.3631 -0.4245
 7208SOL    HW233084   2.521   4.418  12.909 -0.8913 -1.7425  1.1972
 7209SOL     OW33085   2.929   3.909  11.829  0.7999  0.2082  0.4278
 7209SOL    HW133086   2.898   3.924  11.918 -0.9740  1.2198 -0.3493
 7209SOL    HW233087   3.019   3.941  11.833  0.8263  0.3668 -1.2184
 7210SOL     OW33088   1.226   2.225   2.263  0.2849  0.4101  0.3519
 7210SOL    HW133089   1.193   2.288   2.328  1.2914 -0.8676  2.0934
 7210SOL    HW233090   1.143   2.199   2.225  0.1048 -0.1029  1.0842
 7211SOL     OW33091   4.582   1.205  10.572 -0.3391 -0.0025 -0.1775
 7211SOL    HW133092   4.647   1.196  10.503 -0.9044  0.7828 -0.8233
 7211SOL    HW233093   4.510   1.235  10.515 -0.4274 -0.5949 -0.3729
 7212SOL     OW33094   4.399   4.714  11.490 -0.2151  0.5143 -0.2844
 7212SOL    HW133095   4.436   0.001  11.402 -5.0453 -0.2000 -2.3484
 7212SOL    HW233096   4.312   4.687  11.459 -0.3412 -0.6436  1.0853
 7213SOL     OW33097   3.886   4.186  13.031  0.2351  0.5262 -0.2680
 7213SOL    HW133098   3.941   4.182  12.953  1.2246  2.0189  0.3375
 7213SOL    HW233099   3.951   4.167  13.099 -0.6483 -1.5739 -0.0416
 7214SOL     OW33100   3.710   2.399   8.859  0.3366  0.1517  0.1234
 7214SOL    HW133101   3.769   2.475   8.854  1.0932 -0.5101 -1.0798
 7214SOL    HW233102   3.678   2.403   8.949  2.0879 -0.8399  0.7972
 7215SOL     OW33103   1.461   4.568  15.959 -0.2879 -0.0265  0.2109
 7215SOL    HW133104   1.390   4.531  15.907 -0.2157 -1.6551  1.2861
 7215SOL    HW233105   1.420   4.566  16.046 -0.5032  0.9715  0.1374
 7216SOL     OW33106   0.104   1.025   2.650 -0.0751  0.4597  0.1662
 7216SOL    HW133107   0.077   0.977   2.573  0.6728  0.0653  0.1460
 7216SOL    HW233108   0.084   1.114   2.621  0.1390 -0.1522 -1.8144
 7217SOL     OW33109   1.853   2.569   1.461  0.8507 -0.3255  0.4430
 7217SOL    HW133110   1.924   2.571   1.397  1.2051 -0.8498  0.8233
 7217SOL    HW233111   1.783   2.519   1.419  1.9932 -2.5663  1.2113
 7218SOL     OW33112   1.008   2.779  14.009  0.1856  0.4219 -0.3749
 7218SOL    HW133113   0.916   2.754  14.021  0.1988 -0.4960 -2.2554
 7218SOL    HW233114   1.041   2.723  14.080 -3.9529 -0.6119  0.7409
 7219SOL     OW33115   1.364   1.083   9.483  0.5342  0.1408  0.0551
 7219SOL    HW133116   1.453   1.114   9.463 -0.2236  1.7248 -0.8381
 7219SOL    HW233117   1.385   1.032   9.561 -1.7515 -2.3547 -1.0020
 7220SOL     OW33118   3.299   3.396   9.780 -0.1007 -0.5927 -0.5951
 7220SOL    HW133119   3.306   3.456   9.706 -0.4962  0.3170  0.1126
 7220SOL    HW233120   3.390   3.366   9.788  0.6533  1.9598  0.4382
 7221SOL     OW33121   4.282   3.373  17.144 -0.6074 -0.4131  0.2202
 7221SOL    HW133122   4.230   3.293  17.147 -1.2508 -0.0968 -2.4459
 7221SOL    HW233123   4.223   3.434  17.099 -0.4598 -1.3961 -1.2859
 7222SOL     OW33124   0.079   2.199   6.072 -0.2293 -0.0836  0.5029
 7222SOL    HW133125   4.719   2.242   6.044  0.9900  0.6132 -1.9207
 7222SOL    HW233126   0.069   2.111   6.036  2.0073  0.7712 -2.1969
 7223SOL     OW33127   1.407   4.609   7.166 -0.1793 -0.4660  0.1105
 7223SOL    HW133128   1.405   4.655   7.250  1.0426  0.4990 -0.3866
 7223SOL    HW233129   1.333   4.647   7.119  1.5428  1.6625 -0.8716
 7224SOL     OW33130   4.213   0.902   5.667  0.4095  0.2167  0.6404
 7224SOL    HW133131   4.264   0.867   5.740  0.2285  0.0952  0.7076
 7224SOL    HW233132   4.162   0.824   5.647 -2.0693  1.9878  0.0180
 7225SOL     OW33133   1.903   3.873  12.675  0.4629 -0.0477 -0.0188
 7225SOL    HW133134   1.997   3.862  12.690  0.7480  0.6056 -1.3352
 7225SOL    HW233135   1.885   3.825  12.594 -0.1791 -1.3248  0.8746
 7226SOL     OW33136   2.133   2.754  13.295 -0.0040 -0.0310  0.2417
 7226SOL    HW133137   2.158   2.845  13.311  1.6956 -0.2807 -0.9832
 7226SOL    HW233138   2.168   2.713  13.373  0.0150 -1.5410 -0.5698
 7227SOL     OW33139   1.913   2.247  10.021 -0.4518 -0.4545  0.0471
 7227SOL    HW133140   1.828   2.238   9.978 -0.9029 -1.2050  1.0954
 7227SOL    HW233141   1.975   2.187   9.978  0.0284 -0.5686  0.8851
 7228SOL     OW33142   1.807   4.282   7.058 -0.0611  0.0845  0.0215
 7228SOL    HW133143   1.718   4.315   7.071 -0.1853  0.3428 -1.3858
 7228SOL    HW233144   1.791   4.239   6.974 -0.7021  0.9467 -0.3030
 7229SOL     OW33145   2.412   4.054  16.890 -0.1119  0.5456 -0.0760
 7229SOL    HW133146   2.488   4.103  16.859 -2.6233  3.3265 -1.8927
 7229SOL    HW233147   2.446   3.978  16.936  1.9928  1.6601  0.2072
 7230SOL     OW33148   0.900   1.167   3.144  0.2124 -0.0450 -0.5638
 7230SOL    HW133149   0.842   1.225   3.194  1.2688 -0.0011  0.6122
 7230SOL    HW233150   0.841   1.096   3.118  0.9445 -0.5779 -0.7708
 7231SOL     OW33151   4.545   1.631   8.328 -0.4529  0.3341  0.1666
 7231SOL    HW133152   4.450   1.625   8.327 -0.4613  0.3674  0.8981
 7231SOL    HW233153   4.560   1.543   8.363 -1.0909  0.1104 -0.1315
 7232SOL     OW33154   0.509   3.419   4.376 -0.1508 -0.0624  0.3522
 7232SOL    HW133155   0.567   3.473   4.322 -0.0244  0.1786  0.7276
 7232SOL    HW233156   0.490   3.473   4.454  1.5219 -0.4236  1.0077
 7233SOL     OW33157   2.608   3.323   5.449 -0.3608  0.6746 -0.0350
 7233SOL    HW133158   2.578   3.239   5.486  0.2286  0.2492 -0.5313
 7233SOL    HW233159   2.636   3.380   5.521 -0.2661  2.0984 -1.2005
 7234SOL     OW33160   1.107   1.591   2.400  0.2374 -0.5365 -0.0891
 7234SOL    HW133161   1.182   1.583   2.459  1.3222 -0.1507 -1.4021
 7234SOL    HW233162   1.113   1.679   2.362 -1.8567 -0.4091 -0.1468
 7235SOL     OW33163   1.644   3.338  16.436  0.1639  0.0063 -0.5169
 7235SOL    HW133164   1.606   3.251  16.445  1.7786 -0.6470  0.0098
 7235SOL    HW233165   1.735   3.329  16.405 -0.4886 -0.7842 -2.1939
 7236SOL     OW33166   1.252   1.515   5.614 -0.3731  0.3866  0.3741
 7236SOL    HW133167   1.230   1.435   5.662 -0.2936 -0.2474 -0.6439
 7236SOL    HW233168   1.273   1.572   5.688  0.3381 -1.6762  1.7716
 7237SOL     OW33169   1.643   2.243   5.900  0.2785  0.0278  0.2851
 7237SOL    HW133170   1.693   2.292   5.965  1.8044 -0.1294 -0.7718
 7237SOL    HW233171   1.621   2.159   5.941  0.0689 -0.6514 -1.2337
 7238SOL     OW33172   3.316   0.609   5.280  0.4967  0.2158  0.8584
 7238SOL    HW133173   3.222   0.593   5.273  0.6596 -0.1119 -0.5912
 7238SOL    HW233174   3.323   0.686   5.336 -2.5829  0.6060  0.6797
 7239SOL     OW33175   3.029   2.813   3.067  1.1593  0.2515  0.0876
 7239SOL    HW133176   3.101   2.778   3.014 -0.4926 -2.2005 -0.5527
 7239SOL    HW233177   3.073   2.811   3.152 -1.2908  1.2222  1.3817
 7240SOL     OW33178   1.700   0.489   4.131 -0.3285  0.0074 -0.4921
 7240SOL    HW133179   1.754   0.525   4.201  1.4265 -0.4405 -1.6122
 7240SOL    HW233180   1.766   0.488   4.062  1.2899  0.9828  1.0081
 7241SOL     OW33181   2.345   4.682   4.558  0.8973  0.3332  0.4203
 7241SOL    HW133182   2.440   4.693   4.558  0.8837  0.4525  0.3651
 7241SOL    HW233183   2.315   0.050   4.539 -3.5936 -1.6630 -1.8243
 7242SOL     OW33184   1.338   0.535   2.897 -0.7302  0.3727  0.4479
 7242SOL    HW133185   1.373   0.590   2.967 -1.4084  2.0208 -0.5026
 7242SOL    HW233186   1.357   0.446   2.927  0.1420  1.2375  2.4719
 7243SOL     OW33187   3.244   4.636   3.958  0.0041 -0.1910 -0.1191
 7243SOL    HW133188   3.253   0.006   3.986 -1.0108 -0.6210  1.5890
 7243SOL    HW233189   3.249   4.587   4.040  0.0776 -1.0055 -0.6073
 7244SOL     OW33190   1.285   3.059  15.942  0.0270 -0.3415  0.2592
 7244SOL    HW133191   1.196   3.038  15.968  0.2238 -1.9358 -0.3753
 7244SOL    HW233192   1.339   2.987  15.975  1.4306 -0.0015 -1.3337
 7245SOL     OW33193   1.361   0.431  10.520 -0.6187 -0.0102 -0.4005
 7245SOL    HW133194   1.359   0.519  10.483  0.9552  0.0994 -0.1867
 7245SOL    HW233195   1.280   0.391  10.488 -0.4452 -1.3423  0.8705
 7246SOL     OW33196   1.973   1.023   6.265 -0.1127  0.0053 -0.3463
 7246SOL    HW133197   1.966   1.014   6.170  1.7811 -1.3108 -0.3648
 7246SOL    HW233198   1.990   0.936   6.301  0.6882 -0.3113 -1.4765
 7247SOL     OW33199   2.334   1.531   5.261  0.1229  0.2091  0.1095
 7247SOL    HW133200   2.337   1.609   5.316 -1.9775  0.2484  0.1589
 7247SOL    HW233201   2.414   1.545   5.210 -1.0135 -0.6969 -1.9661
 7248SOL     OW33202   2.041   2.457  12.339  0.0238 -0.4048  0.5034
 7248SOL    HW133203   1.984   2.382  12.358 -0.3269  0.2541  2.1016
 7248SOL    HW233204   2.127   2.422  12.360  1.0197  1.8036  0.1559
 7249SOL     OW33205   0.818   1.805   5.601  0.1788 -0.4388  1.0851
 7249SOL    HW133206   0.876   1.764   5.537  2.5472  2.4348  1.3579
 7249SOL    HW233207   0.881   1.803   5.673 -0.3194  1.9019  1.5905
 7250SOL     OW33208   1.562   4.378   7.135 -0.5381  0.2199  0.5006
 7250SOL    HW133209   1.509   4.455   7.158  1.8098  1.5025  1.6040
 7250SOL    HW233210   1.580   4.345   7.223  0.9792  0.1925  0.1823
 7251SOL     OW33211   2.066   4.036   1.763  0.2058 -0.1018  0.0963
 7251SOL    HW133212   2.151   4.062   1.797  1.5259 -3.4868 -0.6142
 7251SOL    HW233213   2.009   4.068   1.833 -0.5345 -1.4518  0.1124
 7252SOL     OW33214   3.362   0.369   0.337 -0.6453  0.0768 -0.3982
 7252SOL    HW133215   3.327   0.287   0.371  1.6796 -0.6617  0.1954
 7252SOL    HW233216   3.312   0.431   0.390  4.0207  1.9389  1.8080
 7253SOL     OW33217   3.014   0.280   1.612 -0.0989 -0.6002  0.0299
 7253SOL    HW133218   3.099   0.322   1.618 -0.9660  1.0864  0.3488
 7253SOL    HW233219   3.042   0.209   1.554 -3.0999 -1.4557 -0.3799
 7254SOL     OW33220   2.864   0.584   3.298 -0.0384  0.0046  0.3328
 7254SOL    HW133221   2.845   0.610   3.208 -0.4764  0.1000  0.4518
 7254SOL    HW233222   2.801   0.512   3.307  0.2885 -0.2062  0.9272
 7255SOL     OW33223   2.133   1.995   3.267  0.4693 -0.6464 -0.6756
 7255SOL    HW133224   2.224   1.985   3.294  0.7446 -1.5591 -1.9429
 7255SOL    HW233225   2.104   1.904   3.275  1.9242 -1.1737 -1.2948
 7256SOL     OW33226   1.757   0.019   6.156  0.2449  0.0581 -0.1162
 7256SOL    HW133227   1.719   0.106   6.149 -0.9653 -0.4060  0.7361
 7256SOL    HW233228   1.841   0.052   6.189  1.6333  0.1236 -3.6914
 7257SOL     OW33229   3.563   1.641   3.988 -0.0709  0.1206 -0.2642
 7257SOL    HW133230   3.523   1.699   3.923 -1.1014  2.5885  2.5645
 7257SOL    HW233231   3.657   1.651   3.970 -0.5256  2.7871 -1.1094
 7258SOL     OW33232   1.829   1.038  13.209  0.2621  0.3702 -0.2422
 7258SOL    HW133233   1.742   1.008  13.236 -0.6081  2.1364 -1.0965
 7258SOL    HW233234   1.797   1.077  13.128  0.4320 -0.6790 -0.8148
 7259SOL     OW33235   1.109   2.778   7.301 -0.0382 -0.2959  0.6542
 7259SOL    HW133236   1.059   2.698   7.311 -0.4550  0.0324  1.1996
 7259SOL    HW233237   1.188   2.749   7.256 -1.0839  0.9804 -2.0467
 7260SOL     OW33238   0.767   0.180   9.921 -0.3341  0.3703 -0.4690
 7260SOL    HW133239   0.715   0.164  10.000 -3.2482  1.4660 -2.1567
 7260SOL    HW233240   0.818   0.256   9.947 -0.3456 -0.7501  2.8548
 7261SOL     OW33241   1.283   0.528   2.292 -0.5291  0.1915  0.3132
 7261SOL    HW133242   1.325   0.443   2.304  0.9714  0.9701  0.5335
 7261SOL    HW233243   1.336   0.586   2.347  0.5220 -0.7502  0.2795
 7262SOL     OW33244   4.502   3.917   5.788 -0.0666  0.5051  0.0785
 7262SOL    HW133245   4.562   3.968   5.843  1.1194  0.7998 -1.4909
 7262SOL    HW233246   4.538   3.830   5.806 -0.0547  0.1198 -1.7691
 7263SOL     OW33247   3.263   1.247   2.306 -0.1163  0.5951 -0.3526
 7263SOL    HW133248   3.197   1.194   2.350 -0.9220  2.6901  0.9748
 7263SOL    HW233249   3.219   1.271   2.224 -0.6907  0.3084 -0.1289
 7264SOL     OW33250   1.496   1.789   4.845 -0.3989  0.3619 -0.2873
 7264SOL    HW133251   1.460   1.706   4.813 -0.5914  0.5137 -0.4692
 7264SOL    HW233252   1.589   1.766   4.845 -0.6196 -0.5335 -3.6645
 7265SOL     OW33253   2.955   2.365  15.010  0.4396  0.8658 -0.0368
 7265SOL    HW133254   3.039   2.388  15.051 -0.6285  2.5150  1.2083
 7265SOL    HW233255   2.905   2.322  15.080  1.7181 -0.6744 -0.0510
 7266SOL     OW33256   3.381   0.191  16.887 -0.0983 -0.7861 -0.5350
 7266SOL    HW133257   3.347   0.237  16.811  0.1696  1.3269  0.6120
 7266SOL    HW233258   3.322   0.223  16.954 -0.6333 -2.0774 -0.3849
 7267SOL     OW33259   1.202   2.469   8.514 -0.6346 -0.1117 -0.5466
 7267SOL    HW133260   1.165   2.557   8.518 -2.4538 -0.9138  0.3127
 7267SOL    HW233261   1.160   2.422   8.586 -0.7189 -0.4971 -0.8439
 7268SOL     OW33262   2.826   1.283   4.932 -0.1042  1.0663  0.0103
 7268SOL    HW133263   2.741   1.248   4.904  0.8524 -1.5850  0.3803
 7268SOL    HW233264   2.805   1.376   4.940 -0.1645  1.0449  0.1048
 7269SOL     OW33265   0.422   4.226   1.462  0.4188  0.1341 -0.1610
 7269SOL    HW133266   0.448   4.151   1.515  1.0304  0.3737 -0.1269
 7269SOL    HW233267   0.326   4.218   1.461  0.4441  0.0610 -1.7311
 7270SOL     OW33268   1.530   4.069  10.791 -0.0112  0.2003  0.3178
 7270SOL    HW133269   1.554   4.161  10.781 -0.2578  0.1898 -0.3985
 7270SOL    HW233270   1.512   4.051  10.698 -1.1220  0.6715  0.4458
 7271SOL     OW33271   3.203   1.662   4.060  0.2375  0.5795  0.6975
 7271SOL    HW133272   3.160   1.662   4.146  1.1373 -0.2695  1.1388
 7271SOL    HW233273   3.198   1.756   4.040 -0.7064  0.0892 -1.4097
 7272SOL     OW33274   1.336   4.590   1.978  0.4025  0.1286 -0.0234
 7272SOL    HW133275   1.242   4.598   1.964 -0.0203  1.3994  3.4000
 7272SOL    HW233276   1.369   4.618   1.893  2.6493 -0.5137  0.6433
 7273SOL     OW33277   0.168   1.296   7.427 -0.6516  0.3676 -0.1181
 7273SOL    HW133278   0.208   1.249   7.354  0.1240 -1.3572  1.4098
 7273SOL    HW233279   0.103   1.348   7.381  1.2500  1.4063 -1.6340
 7274SOL     OW33280   4.514   1.006   4.465 -0.4577 -0.5430 -0.1729
 7274SOL    HW133281   4.490   1.037   4.378  0.7844  1.1040  0.0599
 7274SOL    HW233282   4.424   0.992   4.494 -0.3722  2.9001  1.8206
 7275SOL     OW33283   2.412   3.621  14.567  0.0618 -0.0391  0.1964
 7275SOL    HW133284   2.440   3.605  14.657  0.0814 -1.7637 -0.1179
 7275SOL    HW233285   2.420   3.535  14.525  1.1871  0.7660 -1.2032
 7276SOL     OW33286   3.282   3.336  14.742 -0.2773 -0.0702 -0.4749
 7276SOL    HW133287   3.241   3.402  14.797  2.6269  0.6513  0.7858
 7276SOL    HW233288   3.323   3.276  14.805  0.8241  1.1127 -0.0656
 7277SOL     OW33289   1.100   0.572   9.943  0.1962 -0.2786  0.1286
 7277SOL    HW133290   1.034   0.516   9.901 -0.3585 -0.1639  0.8476
 7277SOL    HW233291   1.155   0.505   9.984  0.3990 -0.2009 -0.0152
 7278SOL     OW33292   1.358   2.469   8.295  0.4211 -0.0719 -0.1018
 7278SOL    HW133293   1.330   2.560   8.282 -0.0530 -0.2590 -0.3575
 7278SOL    HW233294   1.312   2.459   8.378  0.1889  0.3283 -0.1801
 7279SOL     OW33295   3.651   0.028   6.394  0.1348 -0.1304 -0.0191
 7279SOL    HW133296   3.564   0.068   6.407 -0.2600 -0.5205 -1.4958
 7279SOL    HW233297   3.704   0.107   6.404 -0.1670  0.0463  0.2296
 7280SOL     OW33298   0.856   3.227   7.453  0.6086  0.4653 -0.8878
 7280SOL    HW133299   0.925   3.209   7.388 -0.1118 -0.0109 -1.5111
 7280SOL    HW233300   0.785   3.173   7.418 -0.4881  2.9026 -2.4595
 7281SOL     OW33301   3.288   3.263   5.008 -0.0051 -0.3807 -0.6575
 7281SOL    HW133302   3.337   3.316   5.072 -0.6183  1.2756 -1.5873
 7281SOL    HW233303   3.329   3.177   5.011  1.6844  0.4120 -0.7944
 7282SOL     OW33304   0.651   2.288   9.135  0.0657 -0.5145 -0.7826
 7282SOL    HW133305   0.664   2.205   9.180 -0.8721  1.2173  2.7025
 7282SOL    HW233306   0.741   2.303   9.106  0.2498 -3.1272 -1.5149
 7283SOL     OW33307   1.040   3.903   6.484 -0.5827 -0.3286 -0.1995
 7283SOL    HW133308   0.952   3.909   6.446 -0.4624  2.7778  0.0474
 7283SOL    HW233309   1.064   3.995   6.494 -0.7282 -0.3059 -0.0658
 7284SOL     OW33310   3.232   2.018   5.435  0.3265  0.2922  0.1913
 7284SOL    HW133311   3.233   1.961   5.359 -0.8899 -0.2098  0.5464
 7284SOL    HW233312   3.302   2.080   5.414 -0.9914  1.2482 -1.3419
 7285SOL     OW33313   2.663   0.792   5.353 -0.2882 -0.2277  0.2200
 7285SOL    HW133314   2.581   0.839   5.367 -1.2732 -1.2972 -1.9424
 7285SOL    HW233315   2.715   0.857   5.400 -4.1105  2.2187  1.0114
 7286SOL     OW33316   0.465   3.513   6.459 -0.3940  0.0421  0.1165
 7286SOL    HW133317   0.439   3.458   6.533  0.1839 -0.7873 -0.2943
 7286SOL    HW233318   0.441   3.596   6.499 -1.6213 -0.6471  0.8115
 7287SOL     OW33319   3.630   2.913   6.771  0.2723 -0.5522 -0.6946
 7287SOL    HW133320   3.625   2.985   6.835 -0.9783 -1.6180  0.4059
 7287SOL    HW233321   3.540   2.880   6.773 -0.5512  1.6433 -0.7854
 7288SOL     OW33322   0.159   0.996   4.793  0.3724 -0.0485  0.3494
 7288SOL    HW133323   0.087   0.935   4.804  2.0603 -2.4023 -1.6268
 7288SOL    HW233324   0.129   1.045   4.717  0.3801 -1.0269 -0.2912
 7289SOL     OW33325   1.702   2.503   7.789  0.8373 -0.2692 -0.0394
 7289SOL    HW133326   1.643   2.579   7.785  0.1507 -0.7296  1.4591
 7289SOL    HW233327   1.699   2.482   7.882  0.8473 -0.4365 -0.0776
 7290SOL     OW33328   0.422   3.712   5.759 -0.1032  1.4226  0.2888
 7290SOL    HW133329   0.500   3.726   5.812 -0.9877  0.1692  1.8859
 7290SOL    HW233330   0.354   3.725   5.825  0.6636  0.8330  1.1973
 7291SOL     OW33331   1.263   3.286  10.075  0.3672  0.5733  0.5750
 7291SOL    HW133332   1.316   3.295   9.995  1.2858 -1.6025  0.9382
 7291SOL    HW233333   1.319   3.223  10.119  0.7476  1.4077  1.2683
 7292SOL     OW33334   2.317   0.486   7.697  0.2689  0.1531  0.1503
 7292SOL    HW133335   2.318   0.391   7.704  0.7623  0.2537  1.4611
 7292SOL    HW233336   2.406   0.497   7.729 -0.0876 -3.4445  2.3449
 7293SOL     OW33337   3.233   4.110  17.630  0.1168  0.2267 -0.3142
 7293SOL    HW133338   3.275   4.057   0.014 -3.1570 -1.2649  0.5501
 7293SOL    HW233339   3.301   4.134  17.567  1.3419 -1.6178  0.3270
 7294SOL     OW33340   0.480   0.057   5.717  0.1593  0.6354  0.0545
 7294SOL    HW133341   0.439   0.111   5.649  1.7542  1.3944 -0.3012
 7294SOL    HW233342   0.495   0.129   5.779 -0.1507  1.7169 -1.1107
 7295SOL     OW33343   0.725   3.563   4.014  0.1451  0.4663 -0.0871
 7295SOL    HW133344   0.721   3.655   3.989  0.0674  0.4016 -0.3099
 7295SOL    HW233345   0.656   3.539   4.076 -0.4480  0.0181 -0.9345
 7296SOL     OW33346   0.312   0.292   9.827  0.2710 -0.1548  0.1703
 7296SOL    HW133347   0.301   0.252   9.913 -0.6866 -0.2710 -0.0052
 7296SOL    HW233348   0.243   0.250   9.776  0.1432  0.9356 -0.5453
 7297SOL     OW33349   1.886   3.870   7.488 -0.4782 -0.6422 -0.0153
 7297SOL    HW133350   1.801   3.858   7.444 -0.7258  3.2020 -0.6122
 7297SOL    HW233351   1.925   3.924   7.419 -1.3675  1.1266  0.8750
 7298SOL     OW33352   3.046   0.333   2.014 -0.3593 -0.0232 -0.3542
 7298SOL    HW133353   2.988   0.311   2.087 -1.2678  0.7993 -0.8261
 7298SOL    HW233354   2.985   0.371   1.951 -0.7313  0.5244  0.3235
 7299SOL     OW33355   1.381   0.799  15.583  0.3969  0.5097  0.8614
 7299SOL    HW133356   1.344   0.785  15.496  2.0762 -1.2713  0.4350
 7299SOL    HW233357   1.397   0.707  15.608  1.7320  0.1832 -1.1890
 7300SOL     OW33358   4.416   0.549   4.274 -0.2683 -0.3025 -0.1819
 7300SOL    HW133359   4.392   0.639   4.295  2.4535  0.7201 -1.3065
 7300SOL    HW233360   4.327   0.517   4.263 -0.1555  0.3754 -3.1075
 7301SOL     OW33361   0.003   0.979   3.966 -0.5082 -0.1268 -0.1470
 7301SOL    HW133362   4.706   0.928   3.887  1.9424  0.5788 -1.1509
 7301SOL    HW233363   0.074   1.037   3.937 -1.9023  2.0964  0.9407
 7302SOL     OW33364   0.188   1.624   0.997 -0.4472  0.3421 -0.3608
 7302SOL    HW133365   0.213   1.628   0.905 -2.8297  0.7548 -0.9857
 7302SOL    HW233366   0.245   1.693   1.032 -0.4310 -0.5854  1.4807
 7303SOL     OW33367   1.978   4.057   4.493  0.1774  0.2391  0.1407
 7303SOL    HW133368   1.928   4.083   4.416  1.8355  0.9860 -0.6799
 7303SOL    HW233369   2.064   4.090   4.468 -0.3120  0.1999 -1.5625
 7304SOL     OW33370   4.273   3.794   3.162  0.0696 -0.0855 -0.5488
 7304SOL    HW133371   4.270   3.880   3.121  3.4929  1.3608  2.2305
 7304SOL    HW233372   4.364   3.763   3.160  1.0739  2.8795 -1.5277
 7305SOL     OW33373   3.459   4.203  10.002  0.0891  0.3652  0.1592
 7305SOL    HW133374   3.376   4.170  10.036 -0.1999  0.0785 -0.8534
 7305SOL    HW233375   3.501   4.120   9.980  0.1253  0.5140 -0.3289
 7306SOL     OW33376   2.319   1.494   7.969 -0.7009 -0.1011 -0.4565
 7306SOL    HW133377   2.389   1.539   8.018 -0.4291  0.3769 -1.2771
 7306SOL    HW233378   2.259   1.497   8.043 -0.7331 -0.3767 -0.4729
 7307SOL     OW33379   0.097   4.411   4.312 -0.0117 -0.3516  0.4406
 7307SOL    HW133380   0.003   4.396   4.309  0.1953 -1.4146 -1.3193
 7307SOL    HW233381   0.103   4.472   4.384  1.9508  1.6330 -1.3824
 7308SOL     OW33382   1.982   2.109  11.549 -0.4596 -0.1246 -0.2338
 7308SOL    HW133383   1.888   2.093  11.547 -0.3329 -0.6411 -1.9636
 7308SOL    HW233384   1.997   2.111  11.643 -1.1577  0.3646 -0.1312
 7309SOL     OW33385   2.011   0.517  12.920  0.1157  0.7466 -0.1506
 7309SOL    HW133386   1.979   0.556  13.001  0.2571  1.5870 -0.4950
 7309SOL    HW233387   2.090   0.568  12.905 -0.0530  0.6986 -1.2409
 7310SOL     OW33388   1.313   2.892   2.949  0.4283  0.0909  0.4370
 7310SOL    HW133389   1.396   2.849   2.971  1.1459 -0.1298 -2.7459
 7310SOL    HW233390   1.333   2.979   2.985  1.7547  0.5000 -1.2584
 7311SOL     OW33391   3.181   3.622   8.990 -0.4489 -0.0954 -0.0159
 7311SOL    HW133392   3.205   3.674   9.067 -0.0256  0.7641 -0.7354
 7311SOL    HW233393   3.265   3.582   8.969 -0.6852 -0.4381 -0.3147
 7312SOL     OW33394   3.324   3.790   8.269 -0.3033 -0.1189  0.1200
 7312SOL    HW133395   3.313   3.872   8.316 -1.0155  0.2240 -0.6472
 7312SOL    HW233396   3.235   3.771   8.239 -0.9936 -0.8387  2.6740
 7313SOL     OW33397   2.680   1.016   3.912 -0.6971  0.1048  0.1204
 7313SOL    HW133398   2.694   1.090   3.972 -3.8498  0.8158 -0.0371
 7313SOL    HW233399   2.690   0.942   3.972 -0.5764 -0.2514 -0.3499
 7314SOL     OW33400   3.137   3.247   0.426  0.3142 -0.8447 -0.1390
 7314SOL    HW133401   3.090   3.197   0.359 -0.0669 -0.4235 -0.1826
 7314SOL    HW233402   3.221   3.201   0.418  0.8606 -0.0310  0.9483
 7315SOL     OW33403   2.195   3.629  10.518  1.1014 -0.0414 -0.0266
 7315SOL    HW133404   2.210   3.709  10.569  2.7529 -0.4470  0.1411
 7315SOL    HW233405   2.150   3.670  10.444  0.3125 -0.6649  0.1156
 7316SOL     OW33406   4.717   1.279   2.603 -0.2665 -0.6923  0.3804
 7316SOL    HW133407   4.634   1.304   2.645 -0.0302  0.1736  0.3415
 7316SOL    HW233408   0.050   1.346   2.646  0.6148  0.0624 -1.8769
 7317SOL     OW33409   4.349   0.056   6.233  0.4104  0.2938 -0.0389
 7317SOL    HW133410   4.440   0.061   6.206  0.8026  1.9105  1.5916
 7317SOL    HW233411   4.352   4.689   6.272  1.8088 -1.0649 -3.2361
 7318SOL     OW33412   0.172   4.340   6.074  0.6874 -0.0446 -0.2457
 7318SOL    HW133413   0.252   4.386   6.100  1.0645 -0.1208 -1.2554
 7318SOL    HW233414   0.200   4.290   5.997 -0.2174 -1.0718  0.1071
 7319SOL     OW33415   4.368   1.345  15.701  0.2887  0.2117  0.5884
 7319SOL    HW133416   4.387   1.433  15.732 -1.4982  0.6031  0.5284
 7319SOL    HW233417   4.415   1.343  15.617 -0.6172  2.0353  0.0452
 7320SOL     OW33418   0.603   0.526  15.962  1.0238  0.1286  0.4334
 7320SOL    HW133419   0.669   0.492  16.022  1.1922 -0.9569 -0.3620
 7320SOL    HW233420   0.597   0.461  15.892  2.6302  2.2110 -1.6152
 7321SOL     OW33421   1.374   2.378   8.980  0.7257  0.4344 -0.1173
 7321SOL    HW133422   1.438   2.333   9.035 -0.0091 -0.5130 -0.0427
 7321SOL    HW233423   1.293   2.379   9.030  1.4365 -0.9827  1.0527
 7322SOL     OW33424   3.974   1.009   5.520 -0.1572  0.1785  0.7089
 7322SOL    HW133425   4.050   0.979   5.571 -0.8042 -0.8488  1.0580
 7322SOL    HW233426   3.903   1.022   5.583 -1.4572  0.8991 -0.9423
 7323SOL     OW33427   4.658   0.888   7.311  0.4795  0.2580 -0.2944
 7323SOL    HW133428   4.604   0.920   7.240 -1.2655 -2.0311  0.0080
 7323SOL    HW233429   0.005   0.846   7.258  0.3030  1.4095 -1.4239
 7324SOL     OW33430   3.127   4.173   5.374  0.1400 -0.1100 -0.2936
 7324SOL    HW133431   3.141   4.095   5.427 -0.0375 -0.2829 -0.4961
 7324SOL    HW233432   3.195   4.167   5.307 -2.5651 -1.7364 -2.9083
 7325SOL     OW33433   3.864   1.537  15.279 -0.3733  0.1509 -0.4228
 7325SOL    HW133434   3.956   1.563  15.270 -0.3860  0.6224  0.8037
 7325SOL    HW233435   3.859   1.456  15.229 -0.5901 -0.3461  0.4116
 7326SOL     OW33436   3.332   0.431   4.821 -0.2087  0.1781 -0.0327
 7326SOL    HW133437   3.426   0.448   4.833  0.0159 -0.3911 -1.0459
 7326SOL    HW233438   3.319   0.346   4.861  2.9347  0.4819  1.6815
 7327SOL     OW33439   4.431   1.425   1.905  0.6606 -0.5219  0.4957
 7327SOL    HW133440   4.359   1.434   1.967  1.5456 -0.1957  1.4792
 7327SOL    HW233441   4.504   1.406   1.964  2.3713  3.2198 -0.3573
 7328SOL     OW33442   0.092   2.015   6.316 -0.0046 -0.2395 -0.7513
 7328SOL    HW133443   0.092   2.066   6.396  2.0927  1.8494 -2.1081
 7328SOL    HW233444   0.100   2.086   6.253  0.1669  1.2231  0.9460
 7329SOL     OW33445   4.661   2.579   2.918  0.3029  0.2166  0.5531
 7329SOL    HW133446   4.715   2.501   2.929  0.9952  0.9860  2.5802
 7329SOL    HW233447   4.693   2.610   2.833 -1.4935 -0.0581 -0.2331
 7330SOL     OW33448   1.993   0.645   5.639  0.4388 -0.9565 -0.4263
 7330SOL    HW133449   2.054   0.588   5.590  0.3141 -2.7040  1.4439
 7330SOL    HW233450   2.006   0.618   5.730 -0.4855  0.2280  0.0445
 7331SOL     OW33451   0.700   3.664   5.555  0.2990  0.2411  0.0452
 7331SOL    HW133452   0.788   3.690   5.526  1.3170  0.8081  3.6170
 7331SOL    HW233453   0.693   3.677   5.649  2.0018  0.7359  0.1064
 7332SOL     OW33454   2.813   3.229  16.915 -0.4267 -0.0048 -0.2030
 7332SOL    HW133455   2.760   3.162  16.871 -0.5288 -0.6572  0.8975
 7332SOL    HW233456   2.858   3.169  16.974  0.9084  1.0841 -0.1406
 7333SOL     OW33457   3.392   0.403   3.178 -0.0924  0.1406  0.2208
 7333SOL    HW133458   3.350   0.318   3.164 -3.8183  2.3057 -1.5665
 7333SOL    HW233459   3.484   0.378   3.189  0.0340  0.1570 -0.7900
 7334SOL     OW33460   0.097   3.400   8.988  0.4825  0.3013  0.1687
 7334SOL    HW133461   0.059   3.480   9.023  0.2333  0.2737 -0.0438
 7334SOL    HW233462   0.026   3.336   8.997 -0.1034  1.3029  2.6492
 7335SOL     OW33463   3.628   1.400  15.004 -0.6882 -0.1642 -0.1305
 7335SOL    HW133464   3.724   1.390  15.005 -0.6003  1.0355  2.6421
 7335SOL    HW233465   3.607   1.308  15.017  0.8020 -0.1403  2.4863
 7336SOL     OW33466   3.422   4.239   6.570  0.0258 -0.1051  0.8335
 7336SOL    HW133467   3.462   4.238   6.483  1.3514  1.5481  1.4194
 7336SOL    HW233468   3.335   4.210   6.544 -0.7049 -1.2628  4.4975
 7337SOL     OW33469   3.914   0.017   1.865 -0.0069  0.2173 -0.6331
 7337SOL    HW133470   3.922   0.010   1.960  2.4190  1.2269 -0.7638
 7337SOL    HW233471   3.878   0.105   1.859 -1.4246 -0.5147 -2.9497
 7338SOL     OW33472   2.641   2.658   5.280  0.5654  0.0009 -0.0667
 7338SOL    HW133473   2.643   2.565   5.255  1.7035  0.0257 -0.0687
 7338SOL    HW233474   2.597   2.700   5.206  0.0173  1.3854  1.0441
 7339SOL     OW33475   1.660   2.520   2.503 -0.5446 -0.1945  0.5343
 7339SOL    HW133476   1.598   2.573   2.553  0.8192  1.2151  0.7258
 7339SOL    HW233477   1.651   2.437   2.550 -2.5156  0.6757  1.7176
 7340SOL     OW33478   4.262   4.614   7.419 -0.8262  0.4276 -0.2978
 7340SOL    HW133479   4.216   4.573   7.491 -0.5141  0.8040  0.1143
 7340SOL    HW233480   4.208   4.689   7.394 -0.6768  0.3057 -0.9862
 7341SOL     OW33481   0.354   0.614  14.590 -0.3483 -0.4511  0.2722
 7341SOL    HW133482   0.370   0.635  14.682 -0.2268 -0.0883  0.1658
 7341SOL    HW233483   0.290   0.681  14.569  1.0495  0.6671 -0.4001
 7342SOL     OW33484   2.850   4.648  13.269 -1.1826  0.6705 -0.5092
 7342SOL    HW133485   2.914   4.645  13.197 -0.2081 -0.2630  0.3978
 7342SOL    HW233486   2.790   4.714  13.233 -2.1770  0.0604  0.0587
 7343SOL     OW33487   2.436   3.084   1.758 -0.2557  0.5892 -0.5185
 7343SOL    HW133488   2.491   3.040   1.692 -1.3613  0.7610 -1.5507
 7343SOL    HW233489   2.376   3.014   1.782  1.5856 -1.8919 -3.1378
 7344SOL     OW33490   1.158   0.983   1.249  0.3874  0.2702  0.1146
 7344SOL    HW133491   1.070   0.986   1.209  0.9769 -0.5465 -1.2605
 7344SOL    HW233492   1.193   0.897   1.228 -0.1608  0.3843 -1.2829
 7345SOL     OW33493   3.121   4.304   5.792  0.5916  0.0052  0.4593
 7345SOL    HW133494   3.065   4.232   5.822  1.1021 -1.0103 -1.0251
 7345SOL    HW233495   3.061   4.376   5.772 -0.8368 -0.7869  1.8428
 7346SOL     OW33496   1.891   3.130   7.422 -0.0615  0.3690 -0.2387
 7346SOL    HW133497   1.951   3.204   7.429 -0.5185  0.7670 -0.5563
 7346SOL    HW233498   1.951   3.060   7.447  0.2530  0.7261  0.0026
 7347SOL     OW33499   2.488   3.500  10.995 -0.3803  0.2158  0.5921
 7347SOL    HW133500   2.436   3.420  11.009 -1.1005  0.8245  1.4572
 7347SOL    HW233501   2.516   3.473  10.908 -2.0277 -1.4377  0.5578
 7348SOL     OW33502   4.571   3.504   7.317 -0.5190  0.3162 -0.3496
 7348SOL    HW133503   4.548   3.426   7.266 -0.3241 -0.3708  0.6058
 7348SOL    HW233504   4.487   3.543   7.340 -0.7366  0.5990 -1.6313
 7349SOL     OW33505   3.496   3.069   6.328 -0.2161  0.0320  1.1337
 7349SOL    HW133506   3.481   2.974   6.329  0.8953 -0.1566 -0.1660
 7349SOL    HW233507   3.519   3.080   6.236  1.7116 -2.5591  1.2872
 7350SOL     OW33508   4.359   3.110   0.451 -0.3019 -0.6491  0.0061
 7350SOL    HW133509   4.366   3.036   0.511 -2.4716 -0.4406  0.5023
 7350SOL    HW233510   4.275   3.095   0.408 -0.2111  0.2381 -0.4740
 7351SOL     OW33511   3.953   4.662   1.608  0.1036  0.4136  0.6465
 7351SOL    HW133512   3.869   4.630   1.577 -0.4550  2.0252  0.4750
 7351SOL    HW233513   3.942   4.671   1.703 -1.2685 -0.9431  0.6082
 7352SOL     OW33514   3.836   3.526   9.228 -0.2455 -0.2795  0.2475
 7352SOL    HW133515   3.889   3.503   9.151 -0.4431  1.0970 -0.3132
 7352SOL    HW233516   3.903   3.535   9.294  0.6062  0.3912 -0.7069
 7353SOL     OW33517   1.925   4.648  15.423  0.0400  0.0631  0.0444
 7353SOL    HW133518   1.857   4.656  15.490 -1.0461 -1.7515 -0.8242
 7353SOL    HW233519   1.874   4.675  15.346  0.8218 -1.0968 -0.8862
 7354SOL     OW33520   3.721   4.307   4.317 -0.1934 -0.6094  0.2554
 7354SOL    HW133521   3.649   4.275   4.262  1.7644 -1.5822 -1.7779
 7354SOL    HW233522   3.792   4.313   4.253  0.6508 -2.5774  0.9818
 7355SOL     OW33523   4.008   1.631   8.651 -0.0425 -0.3840 -0.3605
 7355SOL    HW133524   4.098   1.658   8.633 -0.3833  0.2792 -1.0881
 7355SOL    HW233525   4.021   1.608   8.743 -2.0288 -0.6564 -0.1599
 7356SOL     OW33526   4.231   3.818   2.266 -0.1626 -0.1257 -0.3360
 7356SOL    HW133527   4.244   3.888   2.201 -2.2461  0.2512 -0.3556
 7356SOL    HW233528   4.231   3.743   2.207  0.7011  1.7769 -2.7586
 7357SOL     OW33529   4.071   3.564   7.282 -0.7919  0.3603 -0.3426
 7357SOL    HW133530   4.013   3.506   7.232 -1.8031  1.9880 -1.0286
 7357SOL    HW233531   4.007   3.597   7.345 -0.6569 -1.0875  0.5758
 7358SOL     OW33532   2.046   0.122   3.795  0.3870 -0.1022  0.5136
 7358SOL    HW133533   2.026   0.036   3.833 -0.5309  0.1968  0.7041
 7358SOL    HW233534   2.111   0.165   3.850  1.3437 -2.5067  1.2661
 7359SOL     OW33535   0.150   2.697  12.116  0.0540  0.1773  0.1364
 7359SOL    HW133536   0.237   2.665  12.089  0.2791  0.0867  0.9872
 7359SOL    HW233537   0.096   2.706  12.037  0.7585  2.6863 -0.0414
 7360SOL     OW33538   1.808   4.535  17.116 -0.4672 -0.4956 -0.2080
 7360SOL    HW133539   1.903   4.546  17.115 -0.6144  0.7950 -0.2128
 7360SOL    HW233540   1.793   4.484  17.036 -1.5950 -1.6406  0.7279
 7361SOL     OW33541   3.159   3.531   5.558  0.1385 -0.5076 -0.6282
 7361SOL    HW133542   3.087   3.468   5.563  0.5718 -0.8992  0.7809
 7361SOL    HW233543   3.120   3.600   5.505  1.5101 -0.5078 -1.6353
 7362SOL     OW33544   3.490   3.271   8.750 -0.3016 -0.0925 -0.2768
 7362SOL    HW133545   3.569   3.292   8.800  0.4502 -0.9974 -1.0854
 7362SOL    HW233546   3.443   3.228   8.821 -1.2558 -0.3360 -1.0507
 7363SOL     OW33547   0.909   0.318   5.086  0.3198  0.1085  0.0329
 7363SOL    HW133548   0.914   0.382   5.157  1.0610  0.3786 -0.2592
 7363SOL    HW233549   0.829   0.351   5.048  0.0011 -0.9052 -0.1803
 7364SOL     OW33550   4.176   3.155   1.066  0.0079  0.1516 -0.8566
 7364SOL    HW133551   4.188   3.240   1.022 -0.4039 -0.0070 -1.2677
 7364SOL    HW233552   4.259   3.132   1.107 -0.2238 -0.5474 -0.7806
 7365SOL     OW33553   0.626   2.461  16.255 -0.1123 -0.4762 -0.4709
 7365SOL    HW133554   0.615   2.528  16.187  2.1771 -0.6724 -1.0512
 7365SOL    HW233555   0.720   2.443  16.254  0.1545  0.9219 -1.1766
 7366SOL     OW33556   1.451   0.185   5.103  0.0307 -0.0637 -0.1205
 7366SOL    HW133557   1.431   0.232   5.022  2.2776 -0.0331 -0.6730
 7366SOL    HW233558   1.424   0.095   5.082 -0.7441  0.0420  0.4450
 7367SOL     OW33559   2.891   3.312   3.973 -0.5514  0.4448 -0.0386
 7367SOL    HW133560   2.893   3.313   3.877  0.3740 -0.3965 -0.0276
 7367SOL    HW233561   2.819   3.250   3.984 -0.3724 -0.0660 -1.7362
 7368SOL     OW33562   4.535   0.228   3.295  0.9436 -0.2799 -0.0896
 7368SOL    HW133563   4.515   0.208   3.204  1.5938 -1.0023 -0.0792
 7368SOL    HW233564   4.469   0.173   3.338  0.0889  0.8399  0.0374
 7369SOL     OW33565   1.947   2.388   4.146 -0.1281 -0.1643  0.6862
 7369SOL    HW133566   1.866   2.352   4.182 -1.8685  1.1487 -1.9453
 7369SOL    HW233567   1.938   2.481   4.166  3.0171  0.5050 -1.0618
 7370SOL     OW33568   3.525   2.756   4.084  0.2970 -0.3024 -0.7527
 7370SOL    HW133569   3.541   2.811   4.161  0.1666  0.2014 -1.0848
 7370SOL    HW233570   3.586   2.800   4.026 -0.0245  0.9459 -0.1481
 7371SOL     OW33571   3.489   0.238   8.921 -0.1591 -0.3727  0.2336
 7371SOL    HW133572   3.490   0.157   8.870  0.2642 -0.9352  1.1395
 7371SOL    HW233573   3.534   0.310   8.877 -0.4883 -0.4195 -0.1788
 7372SOL     OW33574   1.704   3.177   4.289 -0.1977  0.5131  0.2092
 7372SOL    HW133575   1.666   3.111   4.347  1.2530  0.2481  0.8563
 7372SOL    HW233576   1.752   3.232   4.350  2.2053 -2.1057  0.6510
 7373SOL     OW33577   4.035   1.884   3.899  0.1016 -0.0244 -0.3297
 7373SOL    HW133578   4.013   1.865   3.808  1.7976 -0.1201 -0.7101
 7373SOL    HW233579   4.091   1.959   3.880 -0.2590  0.3822  0.2181
 7374SOL     OW33580   1.666   0.706   1.767  0.0322 -0.3950 -0.4761
 7374SOL    HW133581   1.581   0.735   1.736 -0.9354 -0.0884  2.5349
 7374SOL    HW233582   1.700   0.655   1.692  0.5584  1.4411 -1.4834
 7375SOL     OW33583   0.154   0.235   7.747  0.4100  0.3133 -0.9984
 7375SOL    HW133584   0.191   0.294   7.812  1.8479 -0.9058 -0.7077
 7375SOL    HW233585   0.186   0.272   7.665 -0.7940  0.4001 -1.4378
 7376SOL     OW33586   0.447   4.613   9.695 -0.2428 -0.3086 -0.2712
 7376SOL    HW133587   0.442   4.520   9.674  2.2192 -0.2628 -1.0907
 7376SOL    HW233588   0.433   4.655   9.610 -0.0937 -1.4235 -0.8389
 7377SOL     OW33589   3.906   3.772   4.574 -0.0911 -0.3465 -0.0080
 7377SOL    HW133590   3.832   3.711   4.578 -0.8474  0.4855 -1.4447
 7377SOL    HW233591   3.866   3.859   4.565 -0.4820 -0.9361 -3.9992
 7378SOL     OW33592   4.436   0.467   3.973  0.9178 -0.3515 -0.0086
 7378SOL    HW133593   4.451   0.458   4.067 -1.7997 -1.3022  0.3572
 7378SOL    HW233594   4.379   0.543   3.965 -1.5545 -2.0315  1.4929
 7379SOL     OW33595   4.377   1.577   6.052  0.2298 -0.6923 -0.6782
 7379SOL    HW133596   4.394   1.653   5.996 -0.0104 -0.1929 -0.0747
 7379SOL    HW233597   4.462   1.534   6.053 -0.2343 -1.5543  1.2249
 7380SOL     OW33598   3.955   0.226   9.586 -0.2118 -0.3139 -0.3627
 7380SOL    HW133599   4.045   0.194   9.579 -0.9285 -2.4559  0.2756
 7380SOL    HW233600   3.961   0.269   9.671  1.1974  0.0677 -0.6485
 7381SOL     OW33601   0.799   2.156   1.247  0.3334 -0.0885 -0.3817
 7381SOL    HW133602   0.880   2.121   1.283  0.3361  2.0381  1.6266
 7381SOL    HW233603   0.770   2.104   1.172 -1.1833  1.8907 -1.1738
 7382SOL     OW33604   3.838   4.023   9.951 -0.1701  0.1049  0.4182
 7382SOL    HW133605   3.782   3.966  10.005  0.5962 -1.8685 -0.8757
 7382SOL    HW233606   3.788   4.037   9.870  1.9469 -1.0094 -1.0710
 7383SOL     OW33607   4.369   1.495   0.733 -0.0588  0.2962 -0.2268
 7383SOL    HW133608   4.288   1.544   0.720  0.0860  0.3896 -0.7613
 7383SOL    HW233609   4.384   1.553   0.807 -0.3169  0.2199 -0.1128
 7384SOL     OW33610   0.228   0.174   4.783 -0.7480  0.0945  0.0744
 7384SOL    HW133611   0.295   0.105   4.786  0.6279  1.4815  0.8019
 7384SOL    HW233612   0.216   0.153   4.690  1.3476 -0.9653  0.0302
 7385SOL     OW33613   0.435   0.366   0.324 -0.2347  0.0653  0.0224
 7385SOL    HW133614   0.527   0.342   0.326  0.0125  1.0410  0.4115
 7385SOL    HW233615   0.415   0.299   0.259  0.2369  3.1732 -3.3725
 7386SOL     OW33616   0.163   0.901  13.358  0.1425  0.0733 -0.1938
 7386SOL    HW133617   0.249   0.860  13.347 -1.0585 -2.5146  0.0202
 7386SOL    HW233618   0.106   0.825  13.371 -0.5155  0.1325 -2.7246
 7387SOL     OW33619   2.845   0.809   7.589 -0.2749 -0.5026  0.2697
 7387SOL    HW133620   2.870   0.847   7.504 -0.8077 -0.5517  0.0942
 7387SOL    HW233621   2.799   0.884   7.627  1.5244  0.8476 -0.1848
 7388SOL     OW33622   1.891   0.041   8.063  0.1442 -0.5147  0.0094
 7388SOL    HW133623   1.873   4.704   8.138 -0.4642  0.3521  0.5157
 7388SOL    HW233624   1.986   0.045   8.068  0.0533 -0.3044  1.4635
 7389SOL     OW33625   0.846   2.445  17.308 -0.1264  0.0019  0.4479
 7389SOL    HW133626   0.940   2.447  17.322  0.1324 -1.1828 -1.1053
 7389SOL    HW233627   0.847   2.428  17.213  0.6913  1.7951  0.1409
 7390SOL     OW33628   3.238   3.951  10.920  0.0790  0.1281 -0.0491
 7390SOL    HW133629   3.220   3.873  10.973 -1.1832 -0.1775 -0.9275
 7390SOL    HW233630   3.315   3.918  10.873 -1.8415 -1.1480 -2.3488
 7391SOL     OW33631   0.304   2.518   6.391 -0.2828  0.0165 -0.2800
 7391SOL    HW133632   0.267   2.450   6.333  0.7705  0.3812 -1.3906
 7391SOL    HW233633   0.291   2.589   6.328  1.1708  2.1676  1.8894
 7392SOL     OW33634   4.349   4.308   8.248 -0.3514  0.2919  0.8732
 7392SOL    HW133635   4.317   4.234   8.299 -0.0692  0.5191  1.3799
 7392SOL    HW233636   4.306   4.383   8.289  1.0910  1.0942  0.9368
 7393SOL     OW33637   4.394   3.018  13.198  0.0759  0.4598 -0.1669
 7393SOL    HW133638   4.335   2.944  13.187 -0.2323  0.5202  1.0666
 7393SOL    HW233639   4.445   2.980  13.270 -0.2607  2.5430  1.1445
 7394SOL     OW33640   1.468   3.073   8.097 -0.4845  0.1305 -0.1297
 7394SOL    HW133641   1.454   3.161   8.062 -1.0566  0.2549  0.4168
 7394SOL    HW233642   1.413   3.088   8.174  1.0049 -2.8211  1.5060
 7395SOL     OW33643   4.069   1.627  15.596 -0.3338  0.3285  0.4813
 7395SOL    HW133644   4.077   1.607  15.503 -1.3013  1.2567  0.1944
 7395SOL    HW233645   4.110   1.713  15.605  2.3137 -0.8777  0.0873
 7396SOL     OW33646   1.863   4.188   0.581  0.4067  0.3137  0.4828
 7396SOL    HW133647   1.950   4.179   0.540  0.9129 -1.1503  1.9045
 7396SOL    HW233648   1.848   4.097   0.605 -1.8238  0.5604  0.0158
 7397SOL     OW33649   3.760   1.772   7.568  0.5023  0.0391 -0.1561
 7397SOL    HW133650   3.732   1.768   7.477 -0.2901 -2.4847  0.2044
 7397SOL    HW233651   3.729   1.862   7.581 -2.0761 -0.5146 -2.5343
 7398SOL     OW33652   1.230   1.805   8.629 -0.6422 -0.1750 -0.0700
 7398SOL    HW133653   1.188   1.891   8.641 -1.0389 -0.1555 -1.5654
 7398SOL    HW233654   1.301   1.829   8.569 -0.4753 -0.9347 -0.1686
 7399SOL     OW33655   2.605   0.049  10.040 -0.5421 -0.0202  0.7067
 7399SOL    HW133656   2.646   0.054   9.954 -0.5539  2.3022  0.8478
 7399SOL    HW233657   2.682   0.020  10.089 -0.5561  0.4922  1.0291
 7400SOL     OW33658   2.954   0.829   3.346  0.6290 -0.4326  0.1189
 7400SOL    HW133659   2.883   0.858   3.403  2.3848  2.7167  0.7301
 7400SOL    HW233660   2.923   0.739   3.334  1.9101 -0.8196 -0.2433
 7401SOL     OW33661   0.599   2.001  17.464  0.1117 -0.1510 -0.6921
 7401SOL    HW133662   0.673   2.050  17.428 -0.2801  0.7791 -0.2124
 7401SOL    HW233663   0.549   2.072  17.503  0.3476 -0.4505  0.1481
 7402SOL     OW33664   3.908   0.366   8.687  0.0417 -0.3698  0.1502
 7402SOL    HW133665   3.911   0.451   8.644 -0.4727 -1.3092 -1.7479
 7402SOL    HW233666   3.883   0.388   8.777 -1.7125 -2.1680  0.1045
 7403SOL     OW33667   3.629   1.090  13.713  0.5629 -0.3817 -0.0605
 7403SOL    HW133668   3.703   1.074  13.771  0.1224 -1.5609  0.1719
 7403SOL    HW233669   3.655   1.054  13.628  1.5553 -0.6104  0.3419
 7404SOL     OW33670   4.388   2.557   2.697  0.1397 -0.1619  0.4775
 7404SOL    HW133671   4.452   2.532   2.631  0.6817  0.1137  0.8983
 7404SOL    HW233672   4.398   2.652   2.690  1.1204 -0.3372 -0.4652
 7405SOL     OW33673   0.742   4.276   7.998 -0.0755  0.2201  0.3184
 7405SOL    HW133674   0.832   4.245   8.004  0.5826  1.7687 -1.5970
 7405SOL    HW233675   0.689   4.221   8.055  1.3575 -1.8303 -0.3604
 7406SOL     OW33676   2.131   4.092   7.485 -0.0579  0.0936  0.1217
 7406SOL    HW133677   2.202   4.151   7.510  0.5851 -0.2111 -0.9837
 7406SOL    HW233678   2.079   4.140   7.421  1.2084  0.2720 -0.7731
 7407SOL     OW33679   2.103   1.640  15.910 -0.3693  0.2979  0.5380
 7407SOL    HW133680   2.130   1.728  15.881  2.5581 -0.9314 -0.4862
 7407SOL    HW233681   2.081   1.587  15.833  1.0682  2.6418 -1.5343
 7408SOL     OW33682   0.532   1.225   4.159 -0.4663 -0.1182 -0.0489
 7408SOL    HW133683   0.589   1.187   4.226  0.4916  1.6287  0.1282
 7408SOL    HW233684   0.515   1.310   4.199  1.9179 -0.4825  1.7424
 7409SOL     OW33685   3.700   1.409   3.627  0.3396 -0.0442  0.3756
 7409SOL    HW133686   3.711   1.390   3.721 -2.8639 -0.2658  0.6822
 7409SOL    HW233687   3.781   1.458   3.610 -0.7691  1.8495  0.5743
 7410SOL     OW33688   0.610   2.511   9.718 -0.3596  0.0797 -0.2648
 7410SOL    HW133689   0.698   2.494   9.684 -0.0554 -2.7544  1.8949
 7410SOL    HW233690   0.553   2.510   9.641  0.3802 -0.1164 -0.8074
 7411SOL     OW33691   2.457   0.182   5.849  0.1419 -0.1270 -0.2654
 7411SOL    HW133692   2.509   0.178   5.929 -0.0713  1.7882 -0.0499
 7411SOL    HW233693   2.449   0.089   5.827  2.5261 -0.6327  1.0435
 7412SOL     OW33694   3.925   1.578   5.174 -0.1263  0.1268 -0.5963
 7412SOL    HW133695   3.973   1.555   5.253 -0.7349  0.0351 -0.2545
 7412SOL    HW233696   3.901   1.669   5.194 -4.5126 -1.5378  1.5313
 7413SOL     OW33697   2.085   0.685   3.737  0.2194  0.0535  0.7740
 7413SOL    HW133698   2.040   0.638   3.667  0.5253  0.5616  0.2375
 7413SOL    HW233699   2.155   0.624   3.763  1.1676  0.3483 -1.1215
 7414SOL     OW33700   3.015   0.819   4.640  0.3807  0.0686 -0.1358
 7414SOL    HW133701   3.084   0.763   4.675  0.8196  1.6969  1.5855
 7414SOL    HW233702   2.995   0.783   4.554 -0.6461 -1.5688  0.7936
 7415SOL     OW33703   2.501   3.463   4.055  0.2396 -0.1913 -0.5987
 7415SOL    HW133704   2.596   3.463   4.070  0.5279  3.2914 -2.2674
 7415SOL    HW233705   2.466   3.429   4.137 -1.6464 -1.0676 -1.7630
 7416SOL     OW33706   0.238   3.018   5.954 -0.4236 -0.4407  0.2162
 7416SOL    HW133707   0.203   2.932   5.979  0.7763 -1.2822 -0.9513
 7416SOL    HW233708   0.294   2.996   5.879  0.3160 -0.6730  0.8336
 7417SOL     OW33709   1.610   1.506  16.760 -0.1109  0.1522 -0.0159
 7417SOL    HW133710   1.676   1.440  16.739 -2.8277 -2.3692 -0.6356
 7417SOL    HW233711   1.592   1.548  16.676 -1.4255  3.7866  2.0618
 7418SOL     OW33712   0.949   1.648  16.263  0.3308  0.3210 -0.2107
 7418SOL    HW133713   0.979   1.695  16.341 -1.7307 -1.3257  1.5793
 7418SOL    HW233714   0.854   1.640  16.276 -0.1471 -0.0226 -3.9220
 7419SOL     OW33715   2.090   1.996   7.902  0.4348 -0.1086 -0.8167
 7419SOL    HW133716   2.168   2.013   7.955 -0.0516 -0.5367  0.0329
 7419SOL    HW233717   2.060   1.908   7.927  0.2330  0.8128  2.1840
 7420SOL     OW33718   0.409   2.537  15.020 -0.5247 -0.2149  0.4483
 7420SOL    HW133719   0.406   2.467  15.085  0.4041  0.0003  0.7358
 7420SOL    HW233720   0.439   2.493  14.941 -0.2709  0.8190 -0.0331
 7421SOL     OW33721   4.147   2.641   4.070  0.0340  0.1712  0.2177
 7421SOL    HW133722   4.221   2.608   4.121 -0.4831 -0.8854  0.2823
 7421SOL    HW233723   4.129   2.713   4.130  1.2990  2.1169 -1.7126
 7422SOL     OW33724   1.480   2.033   9.613  0.1843  0.1089  0.4326
 7422SOL    HW133725   1.544   1.962   9.616 -0.0630 -0.0019  2.8717
 7422SOL    HW233726   1.401   1.995   9.575  2.6805 -2.7772 -1.8975
 7423SOL     OW33727   1.605   3.171   3.594  0.1294 -0.5913  0.5535
 7423SOL    HW133728   1.543   3.191   3.524  0.4734 -2.1772 -0.1995
 7423SOL    HW233729   1.548   3.139   3.664 -0.3903  2.5624  1.5815
 7424SOL     OW33730   2.504   1.869   7.642 -0.3270  0.0615 -0.1952
 7424SOL    HW133731   2.513   1.775   7.654 -1.7395  0.1306  1.4022
 7424SOL    HW233732   2.433   1.879   7.706 -0.6979  0.8441 -0.7316
 7425SOL     OW33733   0.842   3.901   7.465  0.4212 -0.6816 -0.1406
 7425SOL    HW133734   0.895   3.912   7.543 -0.1778 -0.2886  0.2130
 7425SOL    HW233735   0.763   3.947   7.494  0.5242  0.0566 -1.0237
 7426SOL     OW33736   0.194   1.208   8.580 -0.2164 -0.0829  0.4080
 7426SOL    HW133737   0.101   1.209   8.604 -0.5055  0.7889 -0.7168
 7426SOL    HW233738   0.233   1.161   8.654 -0.0197 -0.0121  0.3487
 7427SOL     OW33739   2.770   3.572   4.626  0.0266  0.6730 -0.3474
 7427SOL    HW133740   2.829   3.520   4.681 -0.4543  0.9950  0.4730
 7427SOL    HW233741   2.686   3.555   4.670 -0.6437 -0.0170 -1.9181
 7428SOL     OW33742   0.741   1.035   5.725 -0.1151  0.3607 -0.4859
 7428SOL    HW133743   0.756   0.957   5.672 -0.4280  0.4867 -0.7603
 7428SOL    HW233744   0.804   1.089   5.676  2.3135 -1.9381  0.0532
 7429SOL     OW33745   2.731   2.366   4.185  0.6075  0.1704  0.8970
 7429SOL    HW133746   2.661   2.380   4.121 -0.0067  2.4345  2.0857
 7429SOL    HW233747   2.800   2.418   4.145 -0.7052  1.1366 -0.0973
 7430SOL     OW33748   0.352   4.216  10.384  1.0381  0.1834  0.5232
 7430SOL    HW133749   0.329   4.123  10.380  3.4869 -0.4479  0.9261
 7430SOL    HW233750   0.359   4.233  10.290 -2.4011  0.1998  0.2809
 7431SOL     OW33751   0.984   1.786  16.492  0.2483  0.0414  1.1129
 7431SOL    HW133752   0.997   1.880  16.488 -0.9983  0.2094  1.1078
 7431SOL    HW233753   0.890   1.789  16.509  0.1304  0.7086  0.3643
 7432SOL     OW33754   3.713   4.056   9.693  0.0855  0.0266  0.0580
 7432SOL    HW133755   3.798   4.099   9.683 -0.7028  1.3959 -0.6750
 7432SOL    HW233756   3.659   4.125   9.654 -0.0200 -0.1259 -0.0659
 7433SOL     OW33757   2.872   0.153   6.986 -0.2001 -0.0172  0.2192
 7433SOL    HW133758   2.784   0.167   7.020 -1.0460  2.5471 -3.0680
 7433SOL    HW233759   2.909   0.234   7.021 -0.4668 -0.4657  1.5340
 7434SOL     OW33760   4.361   0.798   2.942 -0.1961 -0.2893  0.4811
 7434SOL    HW133761   4.309   0.735   2.892 -0.3617 -1.1658  1.7480
 7434SOL    HW233762   4.311   0.809   3.023  2.1877  1.1992  1.7518
 7435SOL     OW33763   3.995   1.796   2.928  0.0336 -0.1627  0.1747
 7435SOL    HW133764   4.025   1.705   2.920  1.3484  0.3164 -0.1775
 7435SOL    HW233765   3.910   1.793   2.883  0.0622  0.0000  0.1112
 7436SOL     OW33766   1.845   0.479  14.586 -0.0459 -0.2765 -0.2019
 7436SOL    HW133767   1.857   0.384  14.582 -2.6715 -0.6667  0.6542
 7436SOL    HW233768   1.751   0.469  14.570  0.3564 -0.4830 -2.4173
 7437SOL     OW33769   4.606   0.751  14.474 -0.2133  0.6117  0.4370
 7437SOL    HW133770   4.568   0.703  14.400 -0.4566  0.0767  0.9061
 7437SOL    HW233771   4.540   0.819  14.482 -0.5722  0.4778 -1.2859
 7438SOL     OW33772   2.780   2.273   5.436  0.6745 -0.1544 -0.0186
 7438SOL    HW133773   2.790   2.282   5.341  1.1216  0.1219  0.0561
 7438SOL    HW233774   2.866   2.305   5.461  2.3053 -3.5769 -1.2129
 7439SOL     OW33775   3.250   4.081   5.984  0.2899  0.3977 -0.6170
 7439SOL    HW133776   3.190   4.137   6.033 -0.2551  1.9478 -3.0703
 7439SOL    HW233777   3.330   4.091   6.037  0.4237 -0.9212 -0.5890
 7440SOL     OW33778   4.002   2.530   8.172  0.0843 -0.3620  0.8600
 7440SOL    HW133779   3.983   2.584   8.095  0.3048 -0.3871  0.7869
 7440SOL    HW233780   4.079   2.486   8.135 -0.0777  0.8798 -0.9748
 7441SOL     OW33781   3.304   3.379   1.583 -0.2448 -0.0004 -0.9585
 7441SOL    HW133782   3.302   3.409   1.492  1.6497  0.7847 -0.7600
 7441SOL    HW233783   3.219   3.335   1.586  0.1954 -0.8529 -0.9588
 7442SOL     OW33784   0.057   1.670   7.473 -0.0531  0.0366 -0.6915
 7442SOL    HW133785   0.044   1.629   7.388  1.3599 -1.5055 -0.1775
 7442SOL    HW233786   0.034   1.598   7.533 -1.2159  0.5450 -0.5370
 7443SOL     OW33787   1.038   0.547  16.102 -0.0935  0.4168 -0.2520
 7443SOL    HW133788   1.044   0.571  16.010 -1.3292 -0.9251 -0.6693
 7443SOL    HW233789   1.049   0.636  16.136  0.0351  0.7910 -1.2751
 7444SOL     OW33790   3.102   2.334   6.936 -0.1859  0.1257  0.3604
 7444SOL    HW133791   3.169   2.316   6.870 -1.0880 -1.9671  0.0141
 7444SOL    HW233792   3.146   2.385   7.003  1.4433 -1.4047  0.4437
 7445SOL     OW33793   4.042   1.799  11.400  0.4815 -0.0560 -0.0940
 7445SOL    HW133794   4.110   1.867  11.403 -0.0619  0.5328 -1.3963
 7445SOL    HW233795   4.004   1.814  11.314  0.2203  0.8547  0.1753
 7446SOL     OW33796   2.003   1.777   4.593  0.1341 -0.0528  0.4142
 7446SOL    HW133797   1.916   1.791   4.555  0.2206  3.2608  1.4655
 7446SOL    HW233798   1.988   1.811   4.681 -0.8190  1.3037 -0.2726
 7447SOL     OW33799   3.728   3.866   2.549  0.1814  0.0720  0.7435
 7447SOL    HW133800   3.645   3.817   2.547  0.1199  0.1837  0.4818
 7447SOL    HW233801   3.780   3.822   2.482 -0.3765  2.2850 -1.1443
 7448SOL     OW33802   2.911   0.509  10.904 -0.9178  0.1841 -0.5712
 7448SOL    HW133803   2.863   0.459  10.837  2.1690  0.5887 -3.0884
 7448SOL    HW233804   2.919   0.595  10.863  1.7744  1.0079  1.7051
 7449SOL     OW33805   0.379   3.054   2.661  1.0166 -0.3930 -0.2444
 7449SOL    HW133806   0.450   2.997   2.631  0.7719 -0.1906 -1.2058
 7449SOL    HW233807   0.306   2.997   2.640  1.0428  0.2620 -2.1523
 7450SOL     OW33808   3.309   3.835   0.976 -0.3557  0.2581 -0.0532
 7450SOL    HW133809   3.220   3.838   0.941  0.0169 -1.1684 -1.0914
 7450SOL    HW233810   3.287   3.865   1.065  1.0131 -0.8452  0.6503
 7451SOL     OW33811   1.547   0.647   6.467 -0.2410  0.3250 -0.5838
 7451SOL    HW133812   1.488   0.613   6.400  2.3588 -1.1615 -2.1044
 7451SOL    HW233813   1.482   0.709   6.500  0.6102  0.5220  0.7218
 7452SOL     OW33814   3.274   2.794   9.184 -0.2512 -0.0930  0.0316
 7452SOL    HW133815   3.268   2.842   9.267 -1.3967  1.0912 -0.7370
 7452SOL    HW233816   3.184   2.764   9.169 -0.2545  0.2450 -0.6251
 7453SOL     OW33817   1.354   3.703   4.841  0.0641 -0.5839 -0.0066
 7453SOL    HW133818   1.289   3.768   4.868  0.0098 -1.1859  1.3249
 7453SOL    HW233819   1.345   3.723   4.748  1.5564 -3.3190 -0.7542
 7454SOL     OW33820   1.580   1.633   7.009  0.5593  0.3187  0.2777
 7454SOL    HW133821   1.672   1.634   6.984  1.1385  0.3334  2.4115
 7454SOL    HW233822   1.576   1.673   7.096  2.0157  2.5322 -0.6615
 7455SOL     OW33823   4.040   4.357   5.487  0.1200  0.2698  0.2629
 7455SOL    HW133824   4.107   4.290   5.492 -0.9147 -0.7302  0.9510
 7455SOL    HW233825   4.088   4.437   5.470  0.5575 -0.3614 -1.3929
 7456SOL     OW33826   2.896   4.397   6.899  0.5319  0.3387 -0.5772
 7456SOL    HW133827   2.802   4.380   6.893  0.7054 -0.8150 -0.1806
 7456SOL    HW233828   2.900   4.447   6.981 -2.5384  1.1134 -0.8989
 7457SOL     OW33829   3.441   2.749  12.253  0.0974 -0.3204  0.1206
 7457SOL    HW133830   3.438   2.713  12.164  0.6374 -0.5957  0.2099
 7457SOL    HW233831   3.376   2.698  12.301  0.1538  1.2910  1.9434
 7458SOL     OW33832   2.855   3.480  13.451 -0.1193  0.1501 -0.2390
 7458SOL    HW133833   2.855   3.399  13.503 -0.3271 -0.4416 -1.1714
 7458SOL    HW233834   2.764   3.500  13.471 -0.4987  0.4230 -2.2508
 7459SOL     OW33835   0.948   3.811   7.942 -0.1081 -0.3740 -0.8749
 7459SOL    HW133836   1.036   3.823   7.978 -0.4662  0.4591 -0.2594
 7459SOL    HW233837   0.893   3.807   8.020 -0.1572  1.5041 -0.8139
 7460SOL     OW33838   1.645   0.931   6.294 -0.1894 -0.2954  0.1121
 7460SOL    HW133839   1.700   0.861   6.328 -1.9753 -0.5126  2.5587
 7460SOL    HW233840   1.679   0.939   6.205  1.3644 -0.8514  0.6561
 7461SOL     OW33841   0.667   0.015   2.611 -0.6136 -0.6277 -0.5466
 7461SOL    HW133842   0.674   0.109   2.594 -3.0936 -0.1670  0.9320
 7461SOL    HW233843   0.753   4.705   2.640  0.5562  1.5367 -1.7464
 7462SOL     OW33844   1.296   1.881   5.078  0.5278  0.6273  0.1056
 7462SOL    HW133845   1.338   1.963   5.053  0.7179  0.6188  0.3951
 7462SOL    HW233846   1.277   1.841   4.993  3.3186  3.5254 -1.8809
 7463SOL     OW33847   1.550   0.679   4.327 -0.8041  0.2771  0.5262
 7463SOL    HW133848   1.516   0.696   4.414 -0.7273  1.1450  0.3867
 7463SOL    HW233849   1.594   0.595   4.334  1.7582  1.5180 -0.6070
 7464SOL     OW33850   3.175   1.628   2.577 -0.0110  0.1716 -0.4249
 7464SOL    HW133851   3.159   1.720   2.555 -0.7405  0.1910  0.1786
 7464SOL    HW233852   3.254   1.636   2.631 -0.2216 -2.2356  0.2258
 7465SOL     OW33853   0.390   0.722   8.200  0.5123 -0.0528  0.0969
 7465SOL    HW133854   0.451   0.651   8.180 -0.5963 -0.7817 -0.6863
 7465SOL    HW233855   0.429   0.798   8.156  2.0684 -2.2588 -2.3486
 7466SOL     OW33856   2.595   4.243  16.833 -0.0713  0.2484 -0.5673
 7466SOL    HW133857   2.529   4.293  16.881  0.1038  0.5167 -0.6073
 7466SOL    HW233858   2.660   4.230  16.902  0.6633 -3.2537 -1.8985
 7467SOL     OW33859   1.320   2.678   7.139  0.1650  0.3789 -0.1939
 7467SOL    HW133860   1.383   2.733   7.094  1.5798 -0.2790  1.0074
 7467SOL    HW233861   1.383   2.631   7.193  0.5875  0.5240 -0.5671
 7468SOL     OW33862   2.666   0.505  16.420 -0.4519 -0.5678 -0.7192
 7468SOL    HW133863   2.706   0.418  16.414  0.2388 -0.3327  0.4352
 7468SOL    HW233864   2.610   0.493  16.344 -0.8143 -0.9822 -0.3925
 7469SOL     OW33865   0.641   1.160  16.528 -0.0412 -0.0326 -0.3711
 7469SOL    HW133866   0.573   1.098  16.554 -1.6266  0.8243 -2.4739
 7469SOL    HW233867   0.702   1.106  16.478  0.3052  0.3928 -0.4099
 7470SOL     OW33868   2.053   3.542  10.744  0.2541 -0.0039  0.1999
 7470SOL    HW133869   2.089   3.566  10.658  1.0098  1.1792  0.8542
 7470SOL    HW233870   2.010   3.458  10.725  1.9692 -0.7715 -0.2971
 7471SOL     OW33871   2.542   4.097   2.953 -0.5205 -0.5600 -0.2615
 7471SOL    HW133872   2.548   4.103   3.048 -0.0514 -0.4319 -0.2992
 7471SOL    HW233873   2.593   4.176   2.936  1.9126 -2.4919 -1.9533
 7472SOL     OW33874   3.989   0.458   1.785  0.5256  0.0070  0.0949
 7472SOL    HW133875   3.992   0.392   1.855 -1.9066  2.0542  2.0786
 7472SOL    HW233876   4.036   0.532   1.823 -0.2048  1.6254 -2.1979
 7473SOL     OW33877   0.124   3.259   6.050 -0.4386  0.6473  0.3655
 7473SOL    HW133878   0.169   3.295   5.974 -0.0477  1.0717  0.8014
 7473SOL    HW233879   0.149   3.167   6.046 -0.5795  0.6528 -0.6834
 7474SOL     OW33880   2.993   3.615  16.629 -0.2282 -0.1797 -0.2115
 7474SOL    HW133881   2.987   3.614  16.534  0.4447 -1.1693 -0.2434
 7474SOL    HW233882   3.006   3.521  16.637 -1.5897 -0.3189  0.3164
 7475SOL     OW33883   3.709   0.250   3.707  0.2228 -0.0667 -0.4714
 7475SOL    HW133884   3.767   0.258   3.783 -0.2098 -1.9633  0.0850
 7475SOL    HW233885   3.710   0.156   3.685 -1.3170  0.3797 -2.4265
 7476SOL     OW33886   4.289   2.746   6.476 -0.2269  0.3199  0.2128
 7476SOL    HW133887   4.293   2.678   6.408 -1.1872  0.5767 -0.1008
 7476SOL    HW233888   4.246   2.696   6.545  0.9483 -1.0888 -0.0766
 7477SOL     OW33889   2.864   3.517  11.863 -0.0299  0.2483 -0.3537
 7477SOL    HW133890   2.912   3.559  11.792  0.5058  2.0597  1.0923
 7477SOL    HW233891   2.779   3.509  11.819 -0.3940  0.1067  0.3724
 7478SOL     OW33892   0.345   0.013   9.898  0.1431 -0.6788 -0.1900
 7478SOL    HW133893   0.367   4.655   9.847 -2.7340 -1.2882 -0.4996
 7478SOL    HW233894   0.293   0.071   9.842  0.5988 -0.3730 -0.2974
 7479SOL     OW33895   4.384   3.081  15.660  0.2596 -0.6198 -0.2018
 7479SOL    HW133896   4.403   3.146  15.727  2.8999  0.5301 -2.0628
 7479SOL    HW233897   4.298   3.104  15.625 -0.4863  1.3945  3.0414
 7480SOL     OW33898   4.541   1.222   7.779 -0.0872  0.4843 -0.1726
 7480SOL    HW133899   4.464   1.259   7.822 -0.0549 -1.1860  1.3090
 7480SOL    HW233900   4.603   1.294   7.791 -0.0589  0.3022  0.7352
 7481SOL     OW33901   1.406   0.970  11.687 -0.4010  0.2987 -0.9003
 7481SOL    HW133902   1.383   0.954  11.595 -0.9321 -0.4364 -0.6444
 7481SOL    HW233903   1.316   0.984  11.717 -0.2020 -1.0963  0.2989
 7482SOL     OW33904   1.225   4.349   7.268 -0.0750 -0.4713 -0.0626
 7482SOL    HW133905   1.141   4.375   7.307 -1.1897 -0.5057 -2.4897
 7482SOL    HW233906   1.276   4.364   7.348  1.9603 -2.2758 -1.0002
 7483SOL     OW33907   1.389   4.496   5.957 -0.3594  0.1730  0.1622
 7483SOL    HW133908   1.373   4.425   6.019  0.0104 -0.3915 -0.3915
 7483SOL    HW233909   1.410   4.568   6.017  0.8555  0.6423 -0.8445
 7484SOL     OW33910   3.721   0.360   6.792 -0.5349 -0.0190  0.2870
 7484SOL    HW133911   3.685   0.310   6.719  2.5124  1.0534 -1.9711
 7484SOL    HW233912   3.759   0.441   6.758 -0.3001 -0.1555  0.2271
 7485SOL     OW33913   1.174   3.139  16.591  0.0047  0.4807  0.1301
 7485SOL    HW133914   1.154   3.215  16.535 -0.9342 -0.1540 -0.4043
 7485SOL    HW233915   1.102   3.078  16.574  1.3629 -1.1541  0.3647
 7486SOL     OW33916   2.882   2.123  16.232 -0.5536 -0.1928 -0.1817
 7486SOL    HW133917   2.818   2.086  16.292  0.7282  0.8926  1.8349
 7486SOL    HW233918   2.845   2.082  16.153  3.3134 -1.5291 -1.3039
 7487SOL     OW33919   3.190   3.640   6.759 -0.0994 -0.1238 -0.2598
 7487SOL    HW133920   3.129   3.567   6.746 -0.6139  0.1687  0.4810
 7487SOL    HW233921   3.268   3.600   6.720  0.0415 -0.1849  0.0872
 7488SOL     OW33922   3.490   3.611  10.998  0.4978 -0.0524  0.6250
 7488SOL    HW133923   3.505   3.697  10.960  2.3044 -0.3788  0.5927
 7488SOL    HW233924   3.396   3.603  10.980  0.2139  0.7884  1.6818
 7489SOL     OW33925   2.353   3.584   5.641  0.0889  0.4794 -0.8677
 7489SOL    HW133926   2.335   3.497   5.605  1.2444 -0.8239  1.6580
 7489SOL    HW233927   2.400   3.627   5.570  0.3021 -0.7007 -1.4535
 7490SOL     OW33928   2.013   2.019   7.345  0.6977 -0.5535 -0.4318
 7490SOL    HW133929   2.050   2.003   7.432  1.4173 -1.1279 -0.8461
 7490SOL    HW233930   2.036   2.112   7.340 -2.1567  0.2098  0.6488
 7491SOL     OW33931   1.413   4.621   4.755 -0.2742 -0.3416 -0.1542
 7491SOL    HW133932   1.467   4.650   4.829 -1.1965 -0.3390  0.5174
 7491SOL    HW233933   1.336   4.599   4.807 -0.6866 -0.1705 -0.6904
 7492SOL     OW33934   0.307   3.682   6.599 -0.0226 -0.1428  0.2707
 7492SOL    HW133935   0.328   3.636   6.681  1.6204 -0.6388 -0.4234
 7492SOL    HW233936   0.371   3.753   6.600  1.0752 -1.1417  0.7473
 7493SOL     OW33937   4.375   2.534  17.092 -0.2251  0.3339 -1.0654
 7493SOL    HW133938   4.352   2.513  17.183 -0.0680  2.2591 -0.5735
 7493SOL    HW233939   4.375   2.629  17.102 -0.1042  0.3924 -1.6400
 7494SOL     OW33940   1.444   2.129   9.217  0.7150 -0.0398  0.3765
 7494SOL    HW133941   1.505   2.185   9.169 -1.7444  1.8846 -0.4733
 7494SOL    HW233942   1.495   2.050   9.236  3.1268  0.7622 -2.8367
 7495SOL     OW33943   4.206   2.569  12.031 -0.1706 -0.6562  0.2164
 7495SOL    HW133944   4.276   2.586  11.969  0.6128 -1.5616  0.8466
 7495SOL    HW233945   4.226   2.635  12.097 -1.7463  2.1550 -2.1311
 7496SOL     OW33946   0.357   2.628  13.142 -0.1235  0.1257  0.4679
 7496SOL    HW133947   0.381   2.571  13.216 -2.3070 -0.8840  0.3744
 7496SOL    HW233948   0.409   2.589  13.072 -1.5061 -3.2612  1.3264
 7497SOL     OW33949   0.902   4.355   7.658  0.3255  0.0701 -0.4906
 7497SOL    HW133950   0.817   4.334   7.697  0.6184 -2.5037 -1.2154
 7497SOL    HW233951   0.956   4.281   7.684  0.1246 -0.1713 -0.7543
 7498SOL     OW33952   0.294   3.998   1.811 -0.1339 -0.0376 -0.2306
 7498SOL    HW133953   0.278   4.091   1.831  0.8240 -0.0609  0.6531
 7498SOL    HW233954   0.386   3.993   1.835 -0.2725  2.0535  0.8155
 7499SOL     OW33955   0.908   0.045   0.347  0.2835  0.0097  0.1922
 7499SOL    HW133956   0.900   0.009   0.436  0.6623  0.9670  0.6122
 7499SOL    HW233957   0.879   4.696   0.288  0.8797  0.8196 -1.0409
 7500SOL     OW33958   3.658   2.875   2.934  0.6199  0.0266 -0.1247
 7500SOL    HW133959   3.730   2.879   2.998 -1.2079  2.7839  1.7731
 7500SOL    HW233960   3.694   2.914   2.855  0.9320  2.4095  1.1896
 7501SOL     OW33961   4.423   2.709   1.463  0.1200  0.0555  0.1403
 7501SOL    HW133962   4.468   2.783   1.504 -1.0852  1.0855 -0.4004
 7501SOL    HW233963   4.495   2.668   1.415  0.7336 -0.3861  1.4225
 7502SOL     OW33964   1.127   1.549   4.744 -0.3071 -0.4448 -0.1463
 7502SOL    HW133965   1.180   1.470   4.745  0.1152 -0.1552  0.4263
 7502SOL    HW233966   1.069   1.535   4.818 -1.2340  0.4314 -0.7162
 7503SOL     OW33967   1.437   0.627   4.068  0.4703 -0.9609  0.6574
 7503SOL    HW133968   1.480   0.642   4.152  0.5902  0.2348  0.3780
 7503SOL    HW233969   1.363   0.687   4.074 -0.6873 -2.5414  2.0882
 7504SOL     OW33970   1.528   1.506   5.484  0.0566  0.0343 -0.1919
 7504SOL    HW133971   1.495   1.425   5.445  0.9297 -0.1756 -0.5064
 7504SOL    HW233972   1.511   1.496   5.578 -2.0519  1.5026 -0.4252
 7505SOL     OW33973   0.374   0.393   7.788 -0.4712  0.1023  0.1557
 7505SOL    HW133974   0.405   0.416   7.700  1.9502  0.9732  1.2251
 7505SOL    HW233975   0.398   0.300   7.789  0.5243  0.3682  1.0558
 7506SOL     OW33976   0.766   4.681   2.148  1.2426  0.1223  0.1982
 7506SOL    HW133977   0.758   4.606   2.207  1.9962 -1.4544 -1.7405
 7506SOL    HW233978   0.730   4.663   2.062  1.9949  2.0472 -0.5223
 7507SOL     OW33979   4.152   3.081   9.338 -0.1374  0.0648  0.5255
 7507SOL    HW133980   4.137   2.999   9.291 -1.1016  0.2751  0.4813
 7507SOL    HW233981   4.161   3.054   9.429 -2.0554 -2.6126 -0.1044
 7508SOL     OW33982   2.052   3.249  10.490  0.3862  0.0773 -0.2602
 7508SOL    HW133983   1.975   3.249  10.434  0.5925  0.6882 -0.5461
 7508SOL    HW233984   1.997   3.263  10.567  1.0238 -3.0693  0.7835
 7509SOL     OW33985   0.363   3.811  10.057 -0.1453 -0.3389 -0.0825
 7509SOL    HW133986   0.332   3.869   9.988  1.0273  0.0983 -0.2457
 7509SOL    HW233987   0.417   3.869  10.111 -1.6380  1.2273 -0.2975
 7510SOL     OW33988   0.329   3.739  17.278  0.2306  0.2426  0.3519
 7510SOL    HW133989   0.327   3.650  17.313  0.7616  0.7846  1.7521
 7510SOL    HW233990   0.241   3.747  17.241 -0.0562 -2.6565  0.4080
 7511SOL     OW33991   3.698   3.824  10.697  0.2043 -0.1771  0.1591
 7511SOL    HW133992   3.775   3.768  10.706  1.3030  1.3036 -0.0811
 7511SOL    HW233993   3.712   3.852  10.607 -2.0870 -2.3848 -0.8795
 7512SOL     OW33994   1.597   1.085  15.668  0.1087 -0.7456  0.2824
 7512SOL    HW133995   1.678   1.087  15.720  0.1427  0.9492  0.1379
 7512SOL    HW233996   1.623   1.044  15.585 -1.1981 -1.8679  0.4241
 7513SOL     OW33997   3.157   1.751  13.469 -0.1580  0.3463  0.2190
 7513SOL    HW133998   3.161   1.845  13.456 -0.0351  0.4350  0.8894
 7513SOL    HW233999   3.187   1.710  13.388 -1.7446 -1.4878  0.5447
 7514SOL     OW34000   4.503   3.461   6.909 -0.7483 -0.5520  0.1922
 7514SOL    HW134001   4.485   3.367   6.914 -0.1917 -0.5508  2.2715
 7514SOL    HW234002   4.486   3.486   6.818 -0.0225  1.1107  0.5112
 7515SOL     OW34003   0.103   3.075   1.103 -0.2330  0.3102 -0.0465
 7515SOL    HW134004   0.047   3.120   1.039 -0.0612 -2.4964 -2.1534
 7515SOL    HW234005   0.075   2.984   1.099 -0.8214  0.5719 -1.7678
 7516SOL     OW34006   2.453   0.094   3.754 -0.3873  0.1633 -0.2295
 7516SOL    HW134007   2.365   0.109   3.718 -0.3572  1.2742  0.1624
 7516SOL    HW234008   2.500   0.156   3.699  1.0955 -1.2680 -0.5740
 7517SOL     OW34009   1.772   2.936   5.143  0.4639 -0.0957 -0.0041
 7517SOL    HW134010   1.702   2.904   5.199  0.4805  0.9470  0.6135
 7517SOL    HW234011   1.759   3.030   5.153  0.5145  0.0092 -0.9356
 7518SOL     OW34012   1.405   2.930   9.389  0.2205  0.3764 -0.2280
 7518SOL    HW134013   1.438   2.924   9.479 -1.6309  1.8462  0.5327
 7518SOL    HW234014   1.464   2.862   9.355  2.0540  1.0216  1.6360
 7519SOL     OW34015   3.775   2.695   9.289 -0.0034 -0.3888 -0.1536
 7519SOL    HW134016   3.737   2.658   9.369 -0.2884  1.3652  0.5199
 7519SOL    HW234017   3.697   2.723   9.241  0.6114 -2.5348 -2.3858
 7520SOL     OW34018   3.756   1.152  11.337  0.2009 -0.4077  0.2674
 7520SOL    HW134019   3.689   1.214  11.308 -0.0554  0.2930  2.2951
 7520SOL    HW234020   3.824   1.177  11.275  1.2699 -0.8227  1.2696
 7521SOL     OW34021   4.274   0.056   4.702  0.1253 -0.2109 -0.0964
 7521SOL    HW134022   4.328   0.069   4.779 -0.8422  1.3266  0.3395
 7521SOL    HW234023   4.183   0.053   4.732  0.2587 -0.6799  0.2605
 7522SOL     OW34024   4.421   1.686   3.898  0.5248 -0.4124 -0.4713
 7522SOL    HW134025   4.340   1.678   3.948  1.2456  0.2100  0.8054
 7522SOL    HW234026   4.481   1.696   3.973 -0.6746 -0.8579  0.5506
 7523SOL     OW34027   4.147   1.850   4.412  0.4148 -0.3395  0.1783
 7523SOL    HW134028   4.119   1.856   4.503  2.5355  0.7111  0.7864
 7523SOL    HW234029   4.164   1.756   4.405 -1.5829 -0.6474 -0.4361
 7524SOL     OW34030   2.791   3.535   6.938  0.1398 -0.3146 -0.5819
 7524SOL    HW134031   2.831   3.489   6.864  2.3573  0.5036  0.1104
 7524SOL    HW234032   2.711   3.486   6.958 -0.0241  0.5511  0.8604
 7525SOL     OW34033   2.141   0.999  15.238  0.5450 -0.0946  0.4268
 7525SOL    HW134034   2.225   1.018  15.280  0.2771 -0.8900  1.3089
 7525SOL    HW234035   2.147   1.061  15.165  3.2840 -0.2552  0.4823
 7526SOL     OW34036   3.752   1.458   2.308 -0.4043 -0.8612  0.0348
 7526SOL    HW134037   3.686   1.496   2.250  1.3680 -3.4720 -3.6331
 7526SOL    HW234038   3.695   1.387   2.339 -1.6162  0.5115  1.0130
 7527SOL     OW34039   1.286   1.913   9.247 -0.2935  0.0769 -0.1355
 7527SOL    HW134040   1.314   1.955   9.167  0.7948  0.0735  0.2470
 7527SOL    HW234041   1.358   1.852   9.262 -0.9064 -0.9382 -1.2785
 7528SOL     OW34042   0.713   3.609   3.208 -0.1976  0.1177 -0.4760
 7528SOL    HW134043   0.693   3.702   3.203  0.1748  0.1179 -1.9850
 7528SOL    HW234044   0.652   3.571   3.145  0.2149 -1.8135  0.2880
 7529SOL     OW34045   1.027   4.466   3.182 -0.3068  0.5923  0.2295
 7529SOL    HW134046   1.083   4.518   3.125 -0.4239  1.1019  0.5825
 7529SOL    HW234047   0.969   4.530   3.222  0.6086  2.4658 -1.4376
 7530SOL     OW34048   0.070   3.637   4.543  0.2299 -1.0409  0.2098
 7530SOL    HW134049   0.110   3.574   4.483 -0.1093  0.9080 -2.1013
 7530SOL    HW234050   0.140   3.680   4.591  0.5661 -2.2957  0.8407
 7531SOL     OW34051   2.306   0.934   7.365  0.4727 -0.1760 -0.2139
 7531SOL    HW134052   2.259   0.851   7.361  0.0079  0.0432  0.6433
 7531SOL    HW234053   2.288   0.976   7.280 -1.6972 -1.0636 -0.1835
 7532SOL     OW34054   1.699   0.600   0.312 -0.0075 -0.2510  0.0044
 7532SOL    HW134055   1.679   0.540   0.240 -1.4214 -0.8167  0.8589
 7532SOL    HW234056   1.757   0.652   0.256 -1.4616 -0.4871 -1.7163
 7533SOL     OW34057   1.601   1.623   0.660  0.2939  0.4842  0.1681
 7533SOL    HW134058   1.540   1.612   0.733  0.5753  0.8824  0.4663
 7533SOL    HW234059   1.569   1.552   0.605  1.5251 -0.6816  0.9665
 7534SOL     OW34060   2.237   3.364   4.581 -0.0207  0.2739  0.2167
 7534SOL    HW134061   2.224   3.421   4.657  0.7907  0.7022  0.0372
 7534SOL    HW234062   2.328   3.345   4.603  0.4290  1.5032 -0.5902
 7535SOL     OW34063   1.574   0.693   5.763 -0.2573  0.4046 -0.2863
 7535SOL    HW134064   1.573   0.608   5.807  2.8218 -0.5285 -1.9869
 7535SOL    HW234065   1.637   0.676   5.692  0.3707  1.0836  0.1206
 7536SOL     OW34066   2.332   3.654   8.377 -0.0917  0.1839  0.5155
 7536SOL    HW134067   2.265   3.712   8.413 -0.1625  1.1257 -1.1598
 7536SOL    HW234068   2.320   3.566   8.415  1.2052 -0.0469  0.3894
 7537SOL     OW34069   1.435   3.777   4.082  0.2460 -0.3597 -0.1113
 7537SOL    HW134070   1.369   3.714   4.110 -1.3605  1.9095  1.1486
 7537SOL    HW234071   1.506   3.714   4.073 -0.6069 -1.0659 -1.9319
 7538SOL     OW34072   0.021   0.247   8.281 -0.0239 -0.2774  0.1453
 7538SOL    HW134073   4.705   0.165   8.315 -1.2221  1.0776  2.1719
 7538SOL    HW234074   0.047   0.291   8.362 -0.0024  0.3252 -0.1918
 7539SOL     OW34075   1.327   2.978   7.553 -0.5297 -0.3539 -0.1123
 7539SOL    HW134076   1.245   3.019   7.581  0.7674  4.0551 -2.7813
 7539SOL    HW234077   1.302   2.887   7.566  0.5219 -0.0379  4.0241
 7540SOL     OW34078   0.442   4.224   3.871  0.2130 -0.5207 -0.2895
 7540SOL    HW134079   0.498   4.242   3.946  1.1124  1.9477 -1.5479
 7540SOL    HW234080   0.514   4.235   3.809 -0.0395  0.1934 -0.4557
 7541SOL     OW34081   2.632   2.317  16.835  0.2431 -0.7134 -0.1173
 7541SOL    HW134082   2.637   2.318  16.930  1.1548  0.0094 -0.1748
 7541SOL    HW234083   2.544   2.353  16.826 -0.1991 -2.2835 -2.1249
 7542SOL     OW34084   4.436   1.381   4.827 -0.6080 -0.4136 -0.4255
 7542SOL    HW134085   4.433   1.475   4.812  0.7925 -0.6100 -1.8251
 7542SOL    HW234086   4.499   1.354   4.761  1.5100  2.4927  0.4045
 7543SOL     OW34087   2.541   0.538  15.670  0.5049  0.5544 -0.2418
 7543SOL    HW134088   2.597   0.615  15.672  3.2075 -1.3612 -1.3152
 7543SOL    HW234089   2.474   0.573  15.612  0.3741  0.1189 -0.3594
 7544SOL     OW34090   4.165   1.767   5.956 -0.0162 -0.2623 -0.3069
 7544SOL    HW134091   4.153   1.761   6.051 -1.6413 -0.9335 -0.5486
 7544SOL    HW234092   4.154   1.679   5.920  0.0341 -0.7914  0.9429
 7545SOL     OW34093   4.577   3.168   1.311  0.0520  0.8418  0.5085
 7545SOL    HW134094   4.649   3.155   1.249 -0.9185 -2.1548 -0.0380
 7545SOL    HW234095   4.604   3.231   1.377  0.6456 -0.0791  1.1419
 7546SOL     OW34096   0.692   2.145   6.907  0.4042  0.4201 -0.2075
 7546SOL    HW134097   0.635   2.155   6.983  1.8507  0.3375  0.8799
 7546SOL    HW234098   0.675   2.052   6.893 -1.8679  0.6678  0.8769
 7547SOL     OW34099   3.295   0.519   7.817  0.6894  0.1242  0.5487
 7547SOL    HW134100   3.306   0.448   7.754  0.6288  0.5562  0.0457
 7547SOL    HW234101   3.289   0.593   7.756 -0.2791  2.2093  3.1498
 7548SOL     OW34102   4.572   2.724  17.364 -0.1459  0.2296  0.2821
 7548SOL    HW134103   4.631   2.648  17.365  1.5417  1.5336 -0.1373
 7548SOL    HW234104   4.612   2.781  17.299 -2.2581 -1.4019 -2.4351
 7549SOL     OW34105   4.017   0.915   5.279 -0.3385  0.6969 -0.1125
 7549SOL    HW134106   3.980   0.977   5.216 -0.1517  1.4577  0.5255
 7549SOL    HW234107   4.018   0.960   5.363 -2.8684  3.4157 -1.5640
 7550SOL     OW34108   0.509   0.476  16.543 -0.5562  0.4185  0.5867
 7550SOL    HW134109   0.485   0.554  16.493 -2.3979 -0.7267 -0.2960
 7550SOL    HW234110   0.442   0.412  16.521 -1.0576 -0.0661  3.4874
 7551SOL     OW34111   2.396   3.809   6.311 -0.5273  0.1480  0.0819
 7551SOL    HW134112   2.406   3.883   6.251  2.9554 -0.0879  0.3351
 7551SOL    HW234113   2.316   3.837   6.356 -0.7127 -0.0472 -0.1261
 7552SOL     OW34114   1.002   2.858  15.398  0.1613 -0.1015  0.1817
 7552SOL    HW134115   1.023   2.949  15.380  1.9676 -0.7351 -1.0143
 7552SOL    HW234116   0.907   2.857  15.396  0.1937 -0.7755 -1.2555
 7553SOL     OW34117   3.541   4.208   5.533  0.5253 -0.0513  0.2485
 7553SOL    HW134118   3.559   4.115   5.545 -0.9751 -0.3177  0.4991
 7553SOL    HW234119   3.615   4.257   5.568  0.5847 -1.7154  2.4188
 7554SOL     OW34120   3.552   0.377   7.248  0.1256 -0.1298 -0.6042
 7554SOL    HW134121   3.474   0.429   7.227 -0.4777 -0.6652  0.3262
 7554SOL    HW234122   3.519   0.289   7.229  1.3364 -0.8889  0.8843
 7555SOL     OW34123   2.454   1.761   1.055 -0.0148 -0.3721  0.5615
 7555SOL    HW134124   2.373   1.787   1.011  1.1525  0.0994 -1.2874
 7555SOL    HW234125   2.508   1.837   1.032 -0.5292  0.1781  1.1691
 7556SOL     OW34126   4.660   2.624   5.160  0.1687  0.2407 -0.2841
 7556SOL    HW134127   4.701   2.653   5.078  1.6558  0.7961  0.6491
 7556SOL    HW234128   4.687   2.695   5.218  0.3983  2.5547 -3.2616
 7557SOL     OW34129   4.458   3.140   2.448 -0.1199  0.1875 -0.5273
 7557SOL    HW134130   4.508   3.221   2.455  0.3066 -0.1448  0.2314
 7557SOL    HW234131   4.380   3.162   2.499  0.6685 -0.5765  0.9839
 7558SOL     OW34132   0.958   0.976   4.097 -0.4437  0.2875 -0.0725
 7558SOL    HW134133   0.924   0.895   4.136 -0.8764  0.8180  0.6611
 7558SOL    HW234134   0.950   0.958   4.003  2.4466 -3.1823  0.3267
 7559SOL     OW34135   3.909   1.767   0.409 -0.0892 -0.2950 -0.5255
 7559SOL    HW134136   3.920   1.672   0.414 -1.4787 -0.5289 -2.1227
 7559SOL    HW234137   3.842   1.778   0.478 -1.0971  1.5055 -1.7944
 7560SOL     OW34138   4.133   0.488   4.261 -0.5189 -0.0821 -0.4620
 7560SOL    HW134139   4.071   0.419   4.238  0.0338 -0.5072 -0.6741
 7560SOL    HW234140   4.094   0.561   4.213 -1.4568 -0.1191  0.2492
 7561SOL     OW34141   0.240   1.131   7.205 -0.3509 -0.0120  0.8493
 7561SOL    HW134142   0.221   1.038   7.190  0.6076  0.0055 -0.5169
 7561SOL    HW234143   0.324   1.134   7.159  0.1798  1.1927  1.8994
 7562SOL     OW34144   3.142   3.145   4.444 -0.5778  0.1304 -0.0094
 7562SOL    HW134145   3.060   3.173   4.485  0.5377  0.3687  2.0472
 7562SOL    HW234146   3.199   3.152   4.520 -1.2387 -0.6695  0.5624
 7563SOL     OW34147   1.564   3.835   8.263 -0.3156  0.6377  0.2063
 7563SOL    HW134148   1.546   3.744   8.237  0.0313  0.1724  1.5740
 7563SOL    HW234149   1.521   3.844   8.348  0.3559  1.5846  0.4379
 7564SOL     OW34150   0.466   3.663   8.153  0.2457  0.7135 -0.1003
 7564SOL    HW134151   0.389   3.702   8.194  0.1167  2.1645 -1.7307
 7564SOL    HW234152   0.430   3.575   8.141  1.0755 -0.0053  2.7677
 7565SOL     OW34153   3.023   4.080   2.132  0.2079 -0.0510  0.3705
 7565SOL    HW134154   3.088   4.140   2.168 -1.1180  2.0951 -0.8364
 7565SOL    HW234155   2.979   4.067   2.217 -0.7458 -0.5024 -0.1926
 7566SOL     OW34156   2.698   3.107   6.770 -0.2759 -0.1419 -0.0625
 7566SOL    HW134157   2.657   3.167   6.832 -0.7134 -1.6349  1.0978
 7566SOL    HW234158   2.644   3.029   6.784  1.6057 -1.3908  0.3269
 7567SOL     OW34159   4.190   3.970   7.164 -0.2766  0.0271 -0.3772
 7567SOL    HW134160   4.228   4.051   7.129 -1.5815  0.5918 -0.5112
 7567SOL    HW234161   4.137   4.002   7.237  1.1214  0.4594  0.4348
 7568SOL     OW34162   0.616   0.148   4.187  0.0668 -0.0042  0.3881
 7568SOL    HW134163   0.679   0.140   4.258  0.1181 -3.1422 -0.0150
 7568SOL    HW234164   0.567   0.066   4.198 -0.7474  0.7824  2.7578
 7569SOL     OW34165   2.717   3.757   8.154  0.4510  0.2016  0.1619
 7569SOL    HW134166   2.757   3.843   8.163 -0.7166  0.7336  0.3407
 7569SOL    HW234167   2.629   3.780   8.186 -0.5065  0.6527 -2.8053
 7570SOL     OW34168   2.468   0.765   2.431 -0.2599  0.1934 -0.6776
 7570SOL    HW134169   2.461   0.669   2.435 -0.1787  0.2628  0.7854
 7570SOL    HW234170   2.559   0.769   2.457 -1.1216  1.2817  2.1378
 7571SOL     OW34171   0.832   1.119   7.316  0.1452  0.5558 -0.1975
 7571SOL    HW134172   0.901   1.101   7.379 -1.5221 -3.1901  0.5443
 7571SOL    HW234173   0.858   1.207   7.286  0.0316  0.1689 -1.4477
 7572SOL     OW34174   1.640   0.785   5.287  0.4457 -0.7088  0.0396
 7572SOL    HW134175   1.647   0.733   5.367 -1.9240  0.9547  1.3105
 7572SOL    HW234176   1.606   0.866   5.326 -0.1813 -1.1435  0.3858
 7573SOL     OW34177   2.826   3.899   3.596 -0.1324  0.1121  0.6990
 7573SOL    HW134178   2.914   3.885   3.631 -0.8304 -1.2436  1.9314
 7573SOL    HW234179   2.823   3.835   3.525 -0.3863 -0.4169  1.1827
 7574SOL     OW34180   2.753   2.011   3.847 -0.1319 -0.0381 -0.2011
 7574SOL    HW134181   2.813   2.083   3.862 -0.2539  0.3169 -1.4912
 7574SOL    HW234182   2.724   2.032   3.759 -1.2864  1.3324  0.5075
 7575SOL     OW34183   4.250   0.870   7.019 -0.2994 -0.5155 -0.1483
 7575SOL    HW134184   4.228   0.833   7.105 -0.9645 -0.8119 -0.4408
 7575SOL    HW234185   4.221   0.799   6.961 -0.5532 -0.0671 -0.5629
 7576SOL     OW34186   4.202   3.383   2.269 -0.2839 -0.6569  0.3808
 7576SOL    HW134187   4.128   3.366   2.328 -1.5032 -1.4473 -1.3537
 7576SOL    HW234188   4.169   3.456   2.216 -1.7571 -0.8821  0.9714
 7577SOL     OW34189   0.273   0.239   8.573 -0.1088 -0.7535 -0.1830
 7577SOL    HW134190   0.320   0.318   8.545  0.0755 -0.9125 -0.3287
 7577SOL    HW234191   0.186   0.276   8.561  1.3735  2.9517  0.2550
 7578SOL     OW34192   0.474   3.308   3.998  0.0418 -0.3284 -0.2261
 7578SOL    HW134193   0.522   3.330   3.919  0.4895 -2.0760 -0.4297
 7578SOL    HW234194   0.438   3.391   4.030  2.0685  0.1742  0.7484
 7579SOL     OW34195   3.342   3.791   7.870 -0.9082  0.3691  0.6566
 7579SOL    HW134196   3.259   3.818   7.832  0.6737  2.2589 -1.4398
 7579SOL    HW234197   3.320   3.700   7.890  0.4211 -0.2615 -0.7304
 7580SOL     OW34198   1.323   2.019  14.761  0.0483 -0.6506 -0.7529
 7580SOL    HW134199   1.324   2.076  14.685  0.8272 -0.4071 -0.5514
 7580SOL    HW234200   1.405   2.034  14.808 -0.2344 -0.1020 -0.4417
 7581SOL     OW34201   3.384   3.397   6.038  0.3512 -0.1302  0.1619
 7581SOL    HW134202   3.357   3.352   5.958 -3.4195  2.1917  0.1442
 7581SOL    HW234203   3.373   3.327   6.103  0.5819  1.4886  1.9272
 7582SOL     OW34204   4.143   2.756   5.028 -0.2686 -0.6701 -0.3435
 7582SOL    HW134205   4.159   2.770   5.121 -1.4998  0.4531 -0.2992
 7582SOL    HW234206   4.222   2.704   5.014  0.1200 -0.5752  1.5315
 7583SOL     OW34207   3.287   1.606  11.583 -0.3252  0.2117  0.3294
 7583SOL    HW134208   3.346   1.627  11.655  1.2329  1.3624 -1.2568
 7583SOL    HW234209   3.208   1.575  11.626 -0.5307 -0.3255 -0.4367
 7584SOL     OW34210   3.178   2.148   2.666  0.0868  0.4280 -0.2295
 7584SOL    HW134211   3.200   2.239   2.683  1.0123 -0.1915  1.9769
 7584SOL    HW234212   3.082   2.149   2.664  0.0827 -0.2326 -0.3366
 7585SOL     OW34213   2.713   4.247   6.027  0.0325 -0.4477 -0.1165
 7585SOL    HW134214   2.801   4.285   6.028 -0.0273 -0.3131  0.3963
 7585SOL    HW234215   2.693   4.251   5.934 -0.1067 -1.3806 -0.1221
 7586SOL     OW34216   3.850   3.725   5.237 -0.1918  0.3624 -0.2484
 7586SOL    HW134217   3.875   3.666   5.309 -1.0652  0.0971 -0.1654
 7586SOL    HW234218   3.770   3.765   5.271 -0.0027 -0.9445  1.7456
 7587SOL     OW34219   2.475   3.697  11.992  0.1833  0.0797 -0.5662
 7587SOL    HW134220   2.503   3.679  12.082  1.8594 -1.0680 -1.3078
 7587SOL    HW234221   2.429   3.616  11.971  1.3851 -0.3521 -1.5202
 7588SOL     OW34222   1.154   4.128   2.899  0.1271  0.3832  0.0724
 7588SOL    HW134223   1.233   4.085   2.934 -0.5940 -1.6424 -0.7789
 7588SOL    HW234224   1.187   4.216   2.879 -0.8458  1.0773  1.5141
 7589SOL     OW34225   3.406   3.619  15.815 -0.2860 -0.2506 -0.0808
 7589SOL    HW134226   3.380   3.559  15.745 -0.6648 -1.1123  0.7959
 7589SOL    HW234227   3.316   3.635  15.844  0.0660 -1.1825  1.5432
 7590SOL     OW34228   0.708   0.987   0.233  0.2513  0.4415  0.3785
 7590SOL    HW134229   0.713   1.064   0.177  1.3943  0.0817 -0.0210
 7590SOL    HW234230   0.796   0.984   0.269 -0.4858  0.9792  2.1797
 7591SOL     OW34231   0.496   2.159  14.543  0.8806  0.2470 -0.0932
 7591SOL    HW134232   0.506   2.130  14.452 -0.4490 -0.8952  0.1224
 7591SOL    HW234233   0.505   2.254  14.538 -0.3707  0.4877  2.5302
 7592SOL     OW34234   2.662   3.524  10.753 -0.2437  0.4000  0.8120
 7592SOL    HW134235   2.694   3.463  10.686 -0.2154 -1.0866  2.1692
 7592SOL    HW234236   2.652   3.611  10.715  2.8626 -0.0385 -1.0158
 7593SOL     OW34237   0.845   4.126  15.561  0.1735  0.3830 -0.6565
 7593SOL    HW134238   0.921   4.096  15.611 -2.0734 -1.5439  1.5738
 7593SOL    HW234239   0.772   4.128  15.623  0.7625 -1.7204  0.1095
 7594SOL     OW34240   2.414   3.251   6.317 -0.0624 -0.0769  0.2551
 7594SOL    HW134241   2.412   3.329   6.262  1.9726  0.7434  1.3623
 7594SOL    HW234242   2.478   3.201   6.266  1.9279 -0.0507  2.7576
 7595SOL     OW34243   1.782   1.623   6.463  0.0678  0.6417  0.0659
 7595SOL    HW134244   1.854   1.659   6.515  0.9632  1.6328 -1.8703
 7595SOL    HW234245   1.790   1.676   6.384 -0.3191  0.6317  0.0176
 7596SOL     OW34246   1.988   3.086   4.833 -0.2501  0.8289 -0.5412
 7596SOL    HW134247   1.903   3.052   4.864  0.8760  0.4786  2.2103
 7596SOL    HW234248   1.964   3.178   4.823  1.9538  1.5160  0.4857
 7597SOL     OW34249   1.593   1.444   3.787  0.4420 -0.7530 -0.1370
 7597SOL    HW134250   1.672   1.488   3.818  0.1319 -1.7264  2.0338
 7597SOL    HW234251   1.530   1.511   3.763  0.7483 -0.2577  0.4296
 7598SOL     OW34252   1.198   0.107   9.803  0.0921 -0.2890 -0.3418
 7598SOL    HW134253   1.131   0.155   9.754 -0.3192  1.9357  2.4201
 7598SOL    HW234254   1.142   0.055   9.861  1.1919 -1.0800 -0.0059
 7599SOL     OW34255   1.077   3.295   9.756  0.3090 -0.9068 -0.4813
 7599SOL    HW134256   1.079   3.364   9.690 -2.0864 -1.8662 -1.5277
 7599SOL    HW234257   0.984   3.273   9.759  0.3181 -0.8296  0.3821
 7600SOL     OW34258   3.735   1.949  16.025  0.3238 -0.6190  0.3434
 7600SOL    HW134259   3.669   1.884  16.050  0.1536 -0.9654 -1.0262
 7600SOL    HW234260   3.793   1.892  15.976 -0.4832 -0.4992 -0.7595
 7601SOL     OW34261   1.594   0.943   2.823  0.0533 -0.5028  0.6319
 7601SOL    HW134262   1.661   1.010   2.836 -2.7847  2.0729  2.0036
 7601SOL    HW234263   1.570   0.983   2.740  2.7700 -1.2272 -0.5258
 7602SOL     OW34264   3.914   2.536   3.841 -0.2101 -0.5447  0.2940
 7602SOL    HW134265   3.882   2.554   3.753  1.0420 -0.8574 -0.2184
 7602SOL    HW234266   3.861   2.458   3.857  0.7522 -0.8639  1.9393
 7603SOL     OW34267   2.849   1.658  16.082  0.6690  0.6792  0.2347
 7603SOL    HW134268   2.870   1.565  16.077  1.3654  0.8421  0.1912
 7603SOL    HW234269   2.828   1.688  15.993  2.4996 -0.3938 -0.5508
 7604SOL     OW34270   3.629   4.275  13.988 -0.1704  0.3688  0.3395
 7604SOL    HW134271   3.633   4.180  13.973  2.3530  0.4072  0.7909
 7604SOL    HW234272   3.641   4.308  13.899  2.2220 -0.8288  0.2220
 7605SOL     OW34273   0.018   2.575   8.938  0.0680  0.2445 -0.6018
 7605SOL    HW134274   4.674   2.544   8.874  2.4700 -2.0206 -1.8959
 7605SOL    HW234275   4.705   2.528   9.015 -0.4017  0.1356 -0.8727
 7606SOL     OW34276   0.969   4.117   3.890  0.4433  0.4875 -0.0517
 7606SOL    HW134277   0.983   4.206   3.924 -0.4299 -0.1551  2.0023
 7606SOL    HW234278   1.006   4.129   3.802 -0.8406 -0.6505 -0.7438
 7607SOL     OW34279   1.157   0.543  16.599  0.2287 -0.3065 -0.7139
 7607SOL    HW134280   1.114   0.533  16.684  0.9259 -1.7590 -0.5374
 7607SOL    HW234281   1.098   0.607  16.558  1.4675  0.6305 -1.0135
 7608SOL     OW34282   3.073   2.598   9.158 -0.2757 -0.5499  0.2061
 7608SOL    HW134283   3.101   2.532   9.221  0.6745  0.0399  0.4104
 7608SOL    HW234284   3.048   2.553   9.077 -4.6860 -1.9620  2.3747
 7609SOL     OW34285   4.269   0.371  10.692  0.4138  0.0679 -0.1045
 7609SOL    HW134286   4.357   0.397  10.665  1.3288 -1.1985  1.6991
 7609SOL    HW234287   4.231   0.457  10.711  0.8428  0.0958  0.6350
 7610SOL     OW34288   3.760   1.711   3.699 -0.3486 -0.4689 -0.2594
 7610SOL    HW134289   3.830   1.775   3.682 -0.1366 -0.2883  1.3651
 7610SOL    HW234290   3.804   1.649   3.757 -1.7420 -2.1012 -0.9351
 7611SOL     OW34291   1.066   0.455   1.938 -0.0505 -0.1012  0.1842
 7611SOL    HW134292   1.098   0.540   1.907  0.3650 -0.9907 -1.7558
 7611SOL    HW234293   1.152   0.417   1.957 -0.4363 -0.9119  0.3304
 7612SOL     OW34294   2.101   4.415   7.602  0.0584  0.0886  0.0829
 7612SOL    HW134295   2.144   4.419   7.516 -1.6179 -1.4439 -0.8302
 7612SOL    HW234296   2.104   4.508   7.623 -2.0787  0.7860 -2.6517
 7613SOL     OW34297   4.183   0.590   7.139 -0.4986  0.2208 -0.4029
 7613SOL    HW134298   4.160   0.510   7.091 -1.6896 -0.5880  1.5052
 7613SOL    HW234299   4.227   0.547   7.213  0.3687 -1.8379 -2.1299
 7614SOL     OW34300   3.578   2.964  10.640  0.4342 -0.1755  0.1024
 7614SOL    HW134301   3.572   2.883  10.692 -0.2083  0.5552  1.1666
 7614SOL    HW234302   3.568   3.022  10.716 -1.6334 -0.6908  0.2252
 7615SOL     OW34303   4.303   2.147  12.722 -0.9066  0.3904 -0.2822
 7615SOL    HW134304   4.290   2.053  12.724 -0.8455  0.3408 -2.0988
 7615SOL    HW234305   4.218   2.167  12.761 -0.1341  2.1660  0.5217
 7616SOL     OW34306   1.807   1.797   0.467  0.2385 -0.3987 -0.3720
 7616SOL    HW134307   1.864   1.744   0.411 -0.1121 -0.8239 -0.3274
 7616SOL    HW234308   1.849   1.778   0.550 -0.5427 -1.3466 -0.1948
 7617SOL     OW34309   3.430   1.081   2.989  1.0191 -0.6041  0.2276
 7617SOL    HW134310   3.518   1.045   2.980  1.2520  0.0583 -0.0933
 7617SOL    HW234311   3.383   0.998   2.995  1.6468 -0.9100  0.8997
 7618SOL     OW34312   4.540   0.415   1.823 -0.6822 -0.9377 -0.2002
 7618SOL    HW134313   4.510   0.364   1.748 -1.9615 -2.1397  1.1465
 7618SOL    HW234314   4.617   0.368   1.854 -0.5978  0.2471  1.3856
 7619SOL     OW34315   1.183   3.714  17.452  0.6695 -0.0165  0.5095
 7619SOL    HW134316   1.201   3.663  17.530 -1.0667 -0.9290  0.3195
 7619SOL    HW234317   1.148   3.644  17.398 -0.5097  1.1573 -0.2658
 7620SOL     OW34318   0.321   1.852  11.117  0.5666 -0.3913  0.2446
 7620SOL    HW134319   0.348   1.851  11.026 -1.3551 -2.2064 -0.2916
 7620SOL    HW234320   0.309   1.760  11.142  0.0291 -0.0427  1.2976
 7621SOL     OW34321   2.507   3.350  11.301  0.4654  0.1421 -0.1891
 7621SOL    HW134322   2.524   3.286  11.232 -0.2157  1.8722 -1.9698
 7621SOL    HW234323   2.595   3.372  11.333  0.2437  0.8658 -0.0627
 7622SOL     OW34324   0.451   2.876  12.354  0.3322 -0.0107  0.1816
 7622SOL    HW134325   0.532   2.915  12.388  1.3877 -1.6039 -0.5032
 7622SOL    HW234326   0.416   2.816  12.419 -0.0085  0.8847  0.8180
 7623SOL     OW34327   4.352   2.041  13.544  0.6871  0.1309 -0.2661
 7623SOL    HW134328   4.335   2.131  13.518  0.5214  0.3369  0.5667
 7623SOL    HW234329   4.422   2.010  13.486  1.7694  0.1502  1.0425
 7624SOL     OW34330   4.131   3.053   2.053 -0.2106 -0.0128  0.7384
 7624SOL    HW134331   4.225   3.062   2.067 -0.1499  2.1995 -1.0229
 7624SOL    HW234332   4.106   3.114   1.983  1.4131  0.8555  0.9131
 7625SOL     OW34333   0.499   2.058   3.060  0.2473  0.5580  0.1803
 7625SOL    HW134334   0.456   2.051   2.974 -0.3229  1.9601  0.3517
 7625SOL    HW234335   0.576   2.112   3.047  0.9678 -0.4721  0.1450
 7626SOL     OW34336   3.008   0.470   7.306 -0.8088 -0.3575 -0.0431
 7626SOL    HW134337   2.963   0.415   7.369 -1.4236 -2.3364 -2.2142
 7626SOL    HW234338   2.949   0.465   7.231  1.2697 -1.4950 -1.6135
 7627SOL     OW34339   2.293   4.349  12.173  0.1665  0.1831  0.0516
 7627SOL    HW134340   2.247   4.266  12.184 -0.5446  0.7634  1.4226
 7627SOL    HW234341   2.217   4.407  12.163 -0.0262  0.2496  1.8534
 7628SOL     OW34342   2.156   0.469   5.517  0.2354 -0.6034 -0.6744
 7628SOL    HW134343   2.232   0.428   5.558 -0.8981 -1.4026  0.6142
 7628SOL    HW234344   2.190   0.487   5.429  2.4410 -1.3642  0.0106
 7629SOL     OW34345   3.634   1.299   6.947 -0.0893  0.1978 -0.2047
 7629SOL    HW134346   3.553   1.330   6.908  0.8506  2.0272 -0.7328
 7629SOL    HW234347   3.650   1.368   7.011  0.8152 -0.6728  0.5071
 7630SOL     OW34348   0.085   1.360   7.819 -0.0115  0.0176  0.8732
 7630SOL    HW134349   0.123   1.294   7.761  0.8768  0.9579  0.3853
 7630SOL    HW234350   0.042   1.412   7.751  0.7639  1.1452  1.2423
 7631SOL     OW34351   1.659   0.648  15.481 -0.0447  0.1364 -0.6818
 7631SOL    HW134352   1.581   0.607  15.518  0.8026 -1.2311 -0.3994
 7631SOL    HW234353   1.727   0.600  15.529 -1.4182 -1.3150 -0.1963
 7632SOL     OW34354   0.021   2.716   4.917 -0.2596  0.4319  0.4492
 7632SOL    HW134355   0.006   2.803   4.880  0.4702 -0.9687 -3.1206
 7632SOL    HW234356   0.063   2.673   4.842 -0.6799 -1.2849  1.2031
 7633SOL     OW34357   1.513   2.733   1.307 -0.6742  0.0580  0.4402
 7633SOL    HW134358   1.442   2.706   1.366  0.5352 -1.6355  1.1355
 7633SOL    HW234359   1.584   2.682   1.346 -0.8256 -0.7193 -0.2928
 7634SOL     OW34360   1.889   1.678   6.997  0.4625  0.4177  0.5043
 7634SOL    HW134361   1.854   1.767   7.007 -0.5911  0.0226  0.3739
 7634SOL    HW234362   1.966   1.697   6.943  1.4719 -1.0325  1.4482
 7635SOL     OW34363   2.370   1.747   4.302  0.0114  0.7200 -0.2352
 7635SOL    HW134364   2.300   1.748   4.237  1.3150  1.1317 -1.6076
 7635SOL    HW234365   2.400   1.656   4.293  0.6250  0.8793  0.1524
 7636SOL     OW34366   2.630   3.010   8.327  0.0605  0.6798  0.3503
 7636SOL    HW134367   2.626   2.992   8.234  0.0213 -0.3647  0.5523
 7636SOL    HW234368   2.724   3.001   8.346  0.0687 -0.5198 -0.2192
 7637SOL     OW34369   4.585   0.128  14.518  0.1807  0.1414 -0.3471
 7637SOL    HW134370   4.575   0.042  14.559  0.8392  0.6343  0.8412
 7637SOL    HW234371   4.493   0.152  14.504  1.1421  3.5182 -0.8932
 7638SOL     OW34372   1.702   3.167   5.260  0.2297  0.1364 -0.3614
 7638SOL    HW134373   1.746   3.251   5.267 -1.5270  1.1332 -1.2750
 7638SOL    HW234374   1.704   3.145   5.353 -0.5405  2.8186  0.2843
 7639SOL     OW34375   3.122   0.001   4.272  0.5585 -0.7602  0.4459
 7639SOL    HW134376   3.106   0.048   4.354 -0.9090  1.8706 -1.3546
 7639SOL    HW234377   3.195   0.046   4.230 -1.6436  1.9124 -0.5074
 7640SOL     OW34378   4.523   1.299   5.894  0.0504  0.4210 -0.0178
 7640SOL    HW134379   4.574   1.369   5.935  0.8947 -1.4606  2.1553
 7640SOL    HW234380   4.473   1.353   5.833 -0.3101 -0.5710 -0.5964
 7641SOL     OW34381   0.710   2.660   3.391 -0.6711  0.1121 -0.0234
 7641SOL    HW134382   0.766   2.619   3.325  1.0093  1.8770  0.2977
 7641SOL    HW234383   0.650   2.708   3.335 -0.5752 -1.6253 -1.6242
 7642SOL     OW34384   3.871   0.380   9.340  0.4385  0.0359  0.3890
 7642SOL    HW134385   3.860   0.332   9.422 -0.3725  1.0081  0.8475
 7642SOL    HW234386   3.961   0.410   9.356  0.1325  0.4478  1.3620
 7643SOL     OW34387   3.545   2.105  15.891 -0.2663 -0.6969 -0.3902
 7643SOL    HW134388   3.501   2.136  15.969  0.0071  1.7893 -1.2220
 7643SOL    HW234389   3.620   2.053  15.921 -0.9632  0.1393  2.7352
 7644SOL     OW34390   4.511   1.600  17.557  0.2822  0.1431  0.5028
 7644SOL    HW134391   4.503   1.602  17.461  0.6299 -1.9180  0.4310
 7644SOL    HW234392   4.514   1.689  17.592 -0.4285  1.1053 -1.8457
 7645SOL     OW34393   1.647   2.677  14.201  0.4481  0.2552 -0.7909
 7645SOL    HW134394   1.588   2.669  14.276  2.9714  3.0856  1.5132
 7645SOL    HW234395   1.626   2.765  14.167  0.4845 -0.4334 -2.5970
 7646SOL     OW34396   2.398   4.583  14.857  0.2693 -0.3648  0.8202
 7646SOL    HW134397   2.330   4.627  14.805  0.5960  1.3032  1.8058
 7646SOL    HW234398   2.363   4.494  14.849  0.1187 -0.3757  1.6155
 7647SOL     OW34399   0.693   1.115  11.636 -0.8338 -0.1978  0.3455
 7647SOL    HW134400   0.647   1.173  11.575 -0.8819 -1.8764 -1.2040
 7647SOL    HW234401   0.704   1.159  11.720  0.9445  0.1303 -0.0738
 7648SOL     OW34402   1.007   1.905   9.861 -0.5736  0.2670 -0.5104
 7648SOL    HW134403   0.960   1.834   9.904  0.1590  1.7467  2.7722
 7648SOL    HW234404   1.001   1.977   9.924  0.6923  0.6153 -0.7945
 7649SOL     OW34405   4.532   3.506  10.536  0.5169  0.1245 -0.0497
 7649SOL    HW134406   4.616   3.518  10.492  1.0570 -2.3979  0.2847
 7649SOL    HW234407   4.473   3.477  10.467  1.3705  1.4137 -1.3091
 7650SOL     OW34408   0.679   0.997  13.192 -0.0540 -0.7933  0.1444
 7650SOL    HW134409   0.636   0.945  13.260  1.1417  0.1984  1.6442
 7650SOL    HW234410   0.755   1.033  13.238 -0.3694 -0.1455  0.1507
 7651SOL     OW34411   2.198   2.130  17.421  0.2998  0.9970  0.1037
 7651SOL    HW134412   2.250   2.133  17.502 -0.5909  0.4104  0.6893
 7651SOL    HW234413   2.234   2.048  17.387 -1.8461  0.5476 -1.0741
 7652SOL     OW34414   1.015   3.429   7.730  0.2876 -0.5144  0.9443
 7652SOL    HW134415   0.964   3.506   7.704 -0.0211 -0.9990  0.0921
 7652SOL    HW234416   0.994   3.421   7.823 -0.7236  2.6980  1.0158
 7653SOL     OW34417   1.567   3.940   4.790  0.6164  0.1889  0.4145
 7653SOL    HW134418   1.630   3.980   4.730 -0.6590  1.4631 -0.0636
 7653SOL    HW234419   1.504   3.907   4.726 -0.9427  1.1159  1.4480
 7654SOL     OW34420   2.584   1.673   8.641 -0.1368  0.4650  0.9739
 7654SOL    HW134421   2.593   1.690   8.735 -0.7544  1.7792  0.7941
 7654SOL    HW234422   2.641   1.739   8.601  1.1777 -2.5070 -2.0271
 7655SOL     OW34423   1.772   4.573   2.993 -0.3272 -0.1525 -0.3040
 7655SOL    HW134424   1.837   4.627   3.039  3.2474 -3.5106 -1.4566
 7655SOL    HW234425   1.726   4.648   2.956  2.7698  1.9220  0.0402
 7656SOL     OW34426   2.822   0.699   6.009 -0.2241  0.0937 -0.2307
 7656SOL    HW134427   2.858   0.612   5.992 -1.0414 -0.1509 -0.7344
 7656SOL    HW234428   2.890   0.741   6.061 -1.8247  1.1984  0.9722
 7657SOL     OW34429   3.766   3.479   0.269  0.4852  0.3785 -0.1088
 7657SOL    HW134430   3.741   3.416   0.201 -2.7255 -0.7619  2.1166
 7657SOL    HW234431   3.829   3.528   0.216  0.2312  2.7182  1.7668
 7658SOL     OW34432   2.471   3.291  13.650 -0.6430 -0.5766 -0.2328
 7658SOL    HW134433   2.386   3.248  13.667 -0.8207 -0.0814  0.1258
 7658SOL    HW234434   2.522   3.232  13.705  0.1190  0.9790  0.7240
 7659SOL     OW34435   3.443   0.270   9.279 -0.0010 -0.1975 -0.0076
 7659SOL    HW134436   3.493   0.221   9.213 -0.8531  1.1735 -1.6554
 7659SOL    HW234437   3.504   0.344   9.277 -2.6088  1.8807 -1.0382
 7660SOL     OW34438   0.328   2.174   3.298  0.0469  0.6743 -0.1282
 7660SOL    HW134439   0.420   2.198   3.312  0.1356 -0.5625  1.4996
 7660SOL    HW234440   0.311   2.188   3.205  1.5982  1.5497 -0.2794
 7661SOL     OW34441   2.388   3.629   3.525  0.2615  0.3717  0.3370
 7661SOL    HW134442   2.418   3.596   3.610 -0.9298 -0.2218  0.5396
 7661SOL    HW234443   2.375   3.719   3.553 -0.2719  0.6918 -0.9542
 7662SOL     OW34444   2.857   4.625   1.385 -0.4578 -0.0520  0.4818
 7662SOL    HW134445   2.778   4.668   1.352  1.5050  2.0080 -1.5084
 7662SOL    HW234446   2.827   4.610   1.474 -0.8948 -1.6969  0.0547
 7663SOL     OW34447   3.406   3.288   5.781 -0.4382 -0.3761 -0.2944
 7663SOL    HW134448   3.495   3.253   5.781 -0.1458  0.3990  1.8832
 7663SOL    HW234449   3.357   3.210   5.756 -2.5073  1.1513 -1.1010
 7664SOL     OW34450   3.442   2.932  16.485 -0.2119 -0.0683  0.1567
 7664SOL    HW134451   3.446   2.916  16.391 -2.0860 -0.6083  0.1863
 7664SOL    HW234452   3.534   2.935  16.512 -0.6231 -0.6846  1.6475
 7665SOL     OW34453   2.308   3.096   7.697 -0.8680 -0.3145  0.4100
 7665SOL    HW134454   2.320   3.158   7.769 -1.6777  0.3911 -0.0705
 7665SOL    HW234455   2.222   3.059   7.714 -1.3114  0.5073 -0.0633
 7666SOL     OW34456   3.610   3.992  14.214 -0.5436  0.3632  0.0885
 7666SOL    HW134457   3.651   4.001  14.300 -1.8698  1.7161  0.6008
 7666SOL    HW234458   3.548   3.922  14.236 -0.8316  0.7934  0.6388
 7667SOL     OW34459   3.783   3.024  10.782  0.4318  0.4497  0.1453
 7667SOL    HW134460   3.733   2.999  10.704 -0.1289 -1.1189  1.0095
 7667SOL    HW234461   3.840   2.951  10.805  0.0606  0.7758  2.1332
 7668SOL     OW34462   1.234   4.185   7.048  0.1567  0.2311  0.0212
 7668SOL    HW134463   1.269   4.243   7.116 -1.0148  1.2138 -0.2295
 7668SOL    HW234464   1.140   4.195   7.062  0.3531  0.4836  1.1704
 7669SOL     OW34465   3.102   4.595   0.837 -0.2512 -0.0732 -0.4912
 7669SOL    HW134466   3.017   4.603   0.793 -0.3928  4.4017  0.6110
 7669SOL    HW234467   3.126   4.686   0.852 -1.3149  0.4810 -2.2259
 7670SOL     OW34468   1.203   0.107   2.379 -0.2017 -0.4509 -0.5572
 7670SOL    HW134469   1.144   0.124   2.453  3.2631 -0.5087  2.1816
 7670SOL    HW234470   1.137   0.060   2.327 -0.2191 -0.4301 -0.5541
 7671SOL     OW34471   1.033   4.101   4.306  0.4780 -0.2600 -0.4151
 7671SOL    HW134472   1.105   4.105   4.243 -0.7718  1.1441 -1.7513
 7671SOL    HW234473   0.983   4.027   4.272  0.5890  0.2796 -1.7520
 7672SOL     OW34474   3.457   1.124  17.346  0.0160 -0.4209  0.1133
 7672SOL    HW134475   3.402   1.140  17.423  1.6946  1.2742  0.9460
 7672SOL    HW234476   3.433   1.203  17.298 -0.0635  0.8087  2.1753
 7673SOL     OW34477   4.708   2.351   0.310  0.2083 -0.0590  0.2704
 7673SOL    HW134478   0.024   2.384   0.228 -1.7817 -3.5112 -1.9535
 7673SOL    HW234479   4.655   2.428   0.333 -0.0767 -0.4395  0.8945
 7674SOL     OW34480   2.408   1.708  13.090 -0.0975  0.9172 -0.3850
 7674SOL    HW134481   2.502   1.691  13.083 -0.5143 -1.1623 -1.0592
 7674SOL    HW234482   2.388   1.627  13.136  0.9876  0.2229 -1.1118
 7675SOL     OW34483   0.192   3.928  14.496 -0.4613  0.4204 -0.1121
 7675SOL    HW134484   0.174   3.873  14.571 -1.2359 -1.0809 -1.3930
 7675SOL    HW234485   0.100   3.949  14.481 -0.7743 -1.3017 -0.6191
 7676SOL     OW34486   1.004   1.089  16.687  0.1450 -0.4288  0.7353
 7676SOL    HW134487   1.038   1.178  16.678  0.9575 -0.8966 -0.6926
 7676SOL    HW234488   1.052   1.054  16.762 -0.3857 -1.6450  0.5044
 7677SOL     OW34489   0.235   1.021  16.205 -0.1072 -0.3526 -0.2762
 7677SOL    HW134490   0.315   0.969  16.195 -0.2444 -0.5475 -0.3583
 7677SOL    HW234491   0.194   0.993  16.286 -2.5890 -0.6121 -1.6035
 7678SOL     OW34492   1.678   4.464  15.365 -0.4058 -0.0533  0.4705
 7678SOL    HW134493   1.629   4.403  15.310 -0.4997  0.8333 -0.4368
 7678SOL    HW234494   1.653   4.440  15.454 -2.0211 -2.0409 -0.5306
 7679SOL     OW34495   2.404   0.676   5.518  0.5185  0.3544  0.2526
 7679SOL    HW134496   2.446   0.732   5.452  1.7628 -0.4169  0.4059
 7679SOL    HW234497   2.354   0.617   5.461 -0.9988  1.4835  0.4001
 7680SOL     OW34498   3.950   2.062  15.747 -0.3248  0.2972  0.4302
 7680SOL    HW134499   3.952   1.985  15.803  1.5365  0.5391  0.7155
 7680SOL    HW234500   4.008   2.122  15.794  0.6013  0.3478 -0.7536
 7681SOL     OW34501   3.195   1.370  17.488 -0.1096 -0.4090 -0.3650
 7681SOL    HW134502   3.135   1.344  17.557  1.3746  1.4398  1.6174
 7681SOL    HW234503   3.262   1.423  17.531  1.0435 -0.2932 -2.2986
 7682SOL     OW34504   4.544   0.458   8.294 -0.9415 -0.4540 -0.3784
 7682SOL    HW134505   4.624   0.407   8.289 -0.4358  0.1290  1.7860
 7682SOL    HW234506   4.517   0.426   8.207 -0.4921 -1.2308 -0.2364
 7683SOL     OW34507   0.682   1.946   2.062  0.7906  0.1834  0.3850
 7683SOL    HW134508   0.695   2.034   2.098  2.0166  1.0682 -2.2851
 7683SOL    HW234509   0.587   1.949   2.074  0.9254 -0.4222  1.6285
 7684SOL     OW34510   2.402   3.059   9.261 -0.4626 -0.0499  0.4174
 7684SOL    HW134511   2.474   3.107   9.218 -0.6418  0.0156  0.1888
 7684SOL    HW234512   2.412   3.085   9.353 -1.5205 -0.1158  0.5504
 7685SOL     OW34513   2.461   1.348   2.917 -0.2722 -0.0466  0.1866
 7685SOL    HW134514   2.514   1.274   2.945  1.9965  1.8425  0.8890
 7685SOL    HW234515   2.370   1.318   2.917 -0.3616  0.2343  0.7421
 7686SOL     OW34516   4.271   0.153   5.084 -0.1638  0.4346  0.2870
 7686SOL    HW134517   4.270   0.233   5.033 -1.0271  1.5666  2.0765
 7686SOL    HW234518   4.366   0.152   5.097  0.0440 -0.3976 -1.2713
 7687SOL     OW34519   3.448   0.230   5.027 -0.0086  0.5050  0.4656
 7687SOL    HW134520   3.526   0.192   4.986 -0.1475  0.3162  0.3745
 7687SOL    HW234521   3.475   0.245   5.118  0.8882 -2.1195  0.6372
 7688SOL     OW34522   2.814   2.627   8.861  0.3163 -0.5632  0.1064
 7688SOL    HW134523   2.757   2.550   8.866  1.9602 -1.8142 -0.3835
 7688SOL    HW234524   2.769   2.675   8.791 -0.0670  0.8709  1.3497
 7689SOL     OW34525   2.882   2.820  14.508 -0.3756  0.0834  0.6728
 7689SOL    HW134526   2.828   2.742  14.517 -0.6702  0.0093 -1.7398
 7689SOL    HW234527   2.933   2.817  14.589 -0.5412 -2.5387  0.6828
 7690SOL     OW34528   0.226   4.537   4.744  0.0058 -0.0645 -0.3095
 7690SOL    HW134529   0.230   4.518   4.838  2.2250  0.3829 -0.3110
 7690SOL    HW234530   0.298   4.482   4.714 -0.4279 -0.3072 -0.9025
 7691SOL     OW34531   1.918   1.992   6.559  0.6736  0.3063  0.2272
 7691SOL    HW134532   1.824   1.985   6.574  0.8081 -1.4116  0.3105
 7691SOL    HW234533   1.923   1.896   6.559  0.5442  0.3025  0.7413
 7692SOL     OW34534   3.859   4.261   6.336 -0.5309 -0.0849 -0.1137
 7692SOL    HW134535   3.812   4.183   6.307  0.6647 -0.4111 -1.1504
 7692SOL    HW234536   3.859   4.237   6.429 -0.3723 -1.9951 -0.6134
 7693SOL     OW34537   1.580   0.380  15.793  0.0501  0.0243 -0.2457
 7693SOL    HW134538   1.523   0.304  15.787  1.2780 -0.9106 -0.2241
 7693SOL    HW234539   1.669   0.344  15.795 -0.2047 -0.6171 -0.7424
 7694SOL     OW34540   3.752   0.794   8.389 -0.2936  0.6048 -0.2387
 7694SOL    HW134541   3.811   0.832   8.325 -1.3922  2.5142 -0.1417
 7694SOL    HW234542   3.670   0.842   8.374 -1.0001 -0.8540 -1.0562
 7695SOL     OW34543   1.501   2.695   2.660 -0.0243  0.2757  0.1499
 7695SOL    HW134544   1.561   2.759   2.622  1.6825 -3.1045 -2.8774
 7695SOL    HW234545   1.532   2.665   2.746  2.6905  1.1571 -0.5571
 7696SOL     OW34546   0.066   0.138  13.403 -0.2335 -0.8856 -0.5307
 7696SOL    HW134547   0.044   0.215  13.351  0.1830  1.1091  2.2215
 7696SOL    HW234548   0.158   0.148  13.426 -0.6799  0.7110  0.6102
 7697SOL     OW34549   3.484   4.374   8.233  0.2551 -0.0188 -0.1645
 7697SOL    HW134550   3.552   4.344   8.292 -1.7556 -1.0457  1.6392
 7697SOL    HW234551   3.521   4.455   8.199  2.0569 -0.1786  1.4674
 7698SOL     OW34552   4.040   3.050   4.368 -0.2106  0.2114  0.3386
 7698SOL    HW134553   4.075   3.130   4.407 -0.1327  0.7888 -0.9195
 7698SOL    HW234554   3.952   3.074   4.397 -0.1525  0.2989  0.4445
 7699SOL     OW34555   2.306   3.820   4.511 -0.2524 -0.5387  0.3255
 7699SOL    HW134556   2.389   3.868   4.511 -0.8785  0.5312 -0.9920
 7699SOL    HW234557   2.326   3.761   4.439  1.7511 -0.3267  0.6838
 7700SOL     OW34558   4.585   1.394   8.465  0.0587 -0.4151 -0.1337
 7700SOL    HW134559   4.620   1.398   8.554  1.7326  3.1016 -0.9321
 7700SOL    HW234560   4.660   1.355   8.420  1.2095  2.1240 -0.4497
 7701SOL     OW34561   0.869   4.639   7.527 -0.6583  0.3404 -0.5845
 7701SOL    HW134562   0.879   4.564   7.469  0.8967  1.3629 -1.6400
 7701SOL    HW234563   0.846   4.595   7.609  1.3722  1.2004  0.4451
 7702SOL     OW34564   4.149   0.197   7.002 -0.0779  0.2577  0.2471
 7702SOL    HW134565   4.231   0.184   6.954  0.2910  0.1767  0.8978
 7702SOL    HW234566   4.079   0.214   6.939  1.2525  0.6242 -1.1266
 7703SOL     OW34567   3.818   2.603   2.247  0.0019  0.0535 -0.0845
 7703SOL    HW134568   3.795   2.590   2.339 -0.2380 -1.9620 -0.4464
 7703SOL    HW234569   3.732   2.594   2.208  0.8909 -0.6118 -1.9031
 7704SOL     OW34570   1.126   0.317   6.801 -0.0316  0.1155 -0.5366
 7704SOL    HW134571   1.190   0.256   6.839  1.5405  2.4659  0.5832
 7704SOL    HW234572   1.049   0.270   6.832  1.8949 -2.0930  0.9026
 7705SOL     OW34573   2.845   0.578   5.402 -0.3528 -0.2381 -0.0810
 7705SOL    HW134574   2.770   0.635   5.385  2.0315  3.0058  0.2900
 7705SOL    HW234575   2.908   0.610   5.336  1.0779 -1.0592  0.8813
 7706SOL     OW34576   2.195   1.442   2.458 -0.0735  0.0513 -0.6966
 7706SOL    HW134577   2.156   1.528   2.467 -1.2661 -0.7301  1.6315
 7706SOL    HW234578   2.188   1.426   2.364  0.4210  0.7268 -0.8420
 7707SOL     OW34579   4.700   1.661   3.466  0.4368  0.0117 -0.2581
 7707SOL    HW134580   4.683   1.567   3.456  2.6615 -0.0350 -3.8215
 7707SOL    HW234581   4.646   1.686   3.541  1.2037 -0.2485  0.3691
 7708SOL     OW34582   4.083   4.203  15.137  0.3603  0.0744  0.0801
 7708SOL    HW134583   4.097   4.288  15.095  0.3330  0.2494  0.4316
 7708SOL    HW234584   4.070   4.236  15.225 -4.1629  2.3193 -1.4111
 7709SOL     OW34585   2.368   0.341   5.597 -0.1073  0.5343  0.2423
 7709SOL    HW134586   2.410   0.377   5.676  0.4495 -1.9501  1.0652
 7709SOL    HW234587   2.444   0.326   5.540 -1.7235 -2.0486 -1.2105
 7710SOL     OW34588   4.716   0.105   3.709  0.1262 -0.5404  0.0538
 7710SOL    HW134589   4.675   0.180   3.666  0.1136 -1.6339 -1.8622
 7710SOL    HW234590   0.073   0.090   3.654  0.5862  1.0200  0.2736
 7711SOL     OW34591   0.661   2.593   9.040 -0.7402  0.5339  0.3192
 7711SOL    HW134592   0.629   2.674   9.000 -0.2684  1.0306  0.9476
 7711SOL    HW234593   0.701   2.634   9.117  1.8144  0.8841 -1.2045
 7712SOL     OW34594   1.648   2.102  16.754  0.3892 -0.2743 -0.3417
 7712SOL    HW134595   1.607   2.073  16.672 -1.6627  2.5903 -0.2866
 7712SOL    HW234596   1.661   2.021  16.803  1.4424 -1.3935 -2.4629
 7713SOL     OW34597   1.278   2.714   5.434  0.5531  0.5701  0.0939
 7713SOL    HW134598   1.217   2.701   5.506 -0.0933  0.1586 -0.5294
 7713SOL    HW234599   1.220   2.750   5.366  0.1203  0.3607  0.3513
 7714SOL     OW34600   2.428   4.526  10.913  0.3951 -0.7472 -0.2127
 7714SOL    HW134601   2.420   4.585  10.839 -0.3281  1.3382  1.5305
 7714SOL    HW234602   2.521   4.536  10.934  0.5261 -1.6753 -0.3317
 7715SOL     OW34603   4.418   4.499   5.258  0.5480  0.0887  0.1981
 7715SOL    HW134604   4.481   4.563   5.292  1.7041 -0.9745  0.0515
 7715SOL    HW234605   4.368   4.483   5.338 -3.4082  1.0120 -2.0770
 7716SOL     OW34606   1.673   3.442   3.577  0.7108  0.6384  0.3114
 7716SOL    HW134607   1.668   3.463   3.484 -1.8906  0.3223  0.3814
 7716SOL    HW234608   1.678   3.347   3.570 -2.1897  0.5286  0.0855
 7717SOL     OW34609   4.299   2.763   8.763  0.2685 -0.4507 -0.1140
 7717SOL    HW134610   4.363   2.831   8.784  0.3635 -0.8212  0.8177
 7717SOL    HW234611   4.260   2.764   8.851  0.4481  1.0797 -0.0594
 7718SOL     OW34612   3.913   4.611   3.286 -0.0788  0.7401  0.2696
 7718SOL    HW134613   3.954   4.620   3.200  1.2121 -2.2729  0.5828
 7718SOL    HW234614   3.820   4.614   3.266  0.1527 -1.0761 -1.0455
 7719SOL     OW34615   2.911   2.559   5.081  0.2322  0.0065  0.3061
 7719SOL    HW134616   2.870   2.531   4.999  0.4691 -2.9907  1.2394
 7719SOL    HW234617   2.900   2.654   5.074 -0.0033 -0.0314  0.1341
 7720SOL     OW34618   4.541   4.054   6.687 -0.3121  0.5241  0.0239
 7720SOL    HW134619   4.570   3.989   6.622 -0.4473  0.2814  0.2070
 7720SOL    HW234620   4.488   4.002   6.747 -0.7853  3.0610  1.7923
 7721SOL     OW34621   3.069   1.310   4.163  0.2463  0.0607 -0.2766
 7721SOL    HW134622   2.984   1.354   4.155  1.6172  2.8002  0.3064
 7721SOL    HW234623   3.112   1.333   4.081 -1.3259 -1.2461 -1.4792
 7722SOL     OW34624   0.888   1.631   2.741 -0.2272  0.2593 -0.2468
 7722SOL    HW134625   0.811   1.628   2.798 -0.3370 -0.0709 -0.4121
 7722SOL    HW234626   0.962   1.620   2.800 -0.5253  2.3619  0.4998
 7723SOL     OW34627   2.865   1.503   2.460  0.3857  0.4472 -0.2675
 7723SOL    HW134628   2.786   1.450   2.463 -0.3529  1.6097  0.7482
 7723SOL    HW234629   2.861   1.556   2.539 -0.7507  1.3951 -0.9536
 7724SOL     OW34630   3.446   2.212  15.429 -0.1187  0.6468 -0.2899
 7724SOL    HW134631   3.489   2.222  15.514 -0.4877  0.0344 -0.0243
 7724SOL    HW234632   3.457   2.117  15.426  1.8594  0.8738 -0.2600
 7725SOL     OW34633   0.442   1.015  16.894 -0.0531 -0.1895  0.3408
 7725SOL    HW134634   0.385   1.085  16.861  1.5140  1.1301  0.4596
 7725SOL    HW234635   0.520   1.068  16.910  1.9082 -1.8205 -3.9632
 7726SOL     OW34636   0.061   1.879   0.430 -0.2257 -0.3319 -0.4997
 7726SOL    HW134637   0.144   1.830   0.423 -0.6588 -1.3383  1.4573
 7726SOL    HW234638   0.054   1.883   0.525 -1.7083 -0.5549 -0.6088
 7727SOL     OW34639   2.581   4.655   6.662 -0.1101  0.0292 -0.1650
 7727SOL    HW134640   2.581   4.654   6.566 -3.6119 -0.8347 -0.1808
 7727SOL    HW234641   2.573   0.030   6.668  0.8776  0.1913 -1.3757
 7728SOL     OW34642   4.703   3.155   1.608  0.1798  0.0773  0.6460
 7728SOL    HW134643   4.659   3.138   1.691 -0.3497  0.8646  0.5174
 7728SOL    HW234644   0.064   3.104   1.609 -0.0454 -0.2970 -0.4051
 7729SOL     OW34645   2.632   3.617  11.435 -0.3696 -0.3693  0.0524
 7729SOL    HW134646   2.715   3.664  11.431 -2.0412  2.3488 -2.2407
 7729SOL    HW234647   2.596   3.640  11.349 -0.4918  0.2049  0.2517
 7730SOL     OW34648   3.786   4.440   3.799 -0.4700  0.3801 -0.1462
 7730SOL    HW134649   3.791   4.416   3.707  1.3586  1.4713 -0.3350
 7730SOL    HW234650   3.691   4.451   3.803 -0.6556 -1.8008  1.4233
 7731SOL     OW34651   0.241   1.293   2.010  0.2699 -0.3589 -0.1292
 7731SOL    HW134652   0.192   1.355   1.956  1.6095  1.9652  1.3058
 7731SOL    HW234653   0.219   1.209   1.970  2.1941 -1.7212  1.7132
 7732SOL     OW34654   0.601   1.460   7.331 -0.4707 -0.5874 -0.1566
 7732SOL    HW134655   0.538   1.429   7.395 -0.6169 -2.0806 -1.0267
 7732SOL    HW234656   0.639   1.539   7.368 -1.8942  0.7058 -1.4481
 7733SOL     OW34657   4.132   1.339   3.826  0.1541  0.1021  0.8522
 7733SOL    HW134658   4.175   1.262   3.787  1.1263  0.1426  1.8418
 7733SOL    HW234659   4.158   1.408   3.765 -0.8670  1.5620  2.0743
 7734SOL     OW34660   1.259   3.666  17.038  0.3150 -0.3501 -0.1464
 7734SOL    HW134661   1.167   3.657  17.013 -0.0034 -1.2570  1.3282
 7734SOL    HW234662   1.268   3.586  17.091  3.7428  0.4713  0.5125
 7735SOL     OW34663   2.531   0.681   7.549 -0.3678  0.0264  0.3981
 7735SOL    HW134664   2.512   0.760   7.602  2.3491  0.1702  1.1392
 7735SOL    HW234665   2.561   0.721   7.467  1.5640  0.2361  1.2041
 7736SOL     OW34666   3.122   3.546  10.096 -0.2679  0.2774  0.2574
 7736SOL    HW134667   3.190   3.491  10.057  0.0203  0.6176  0.2875
 7736SOL    HW234668   3.046   3.521  10.044 -1.5236  0.4614  1.9764
 7737SOL     OW34669   0.937   0.001   8.603  0.5535  0.3455 -0.1046
 7737SOL    HW134670   0.842   0.012   8.607  0.4118  0.0714 -2.4316
 7737SOL    HW234671   0.947   4.656   8.672 -0.9468 -1.3836 -1.5250
 7738SOL     OW34672   1.742   2.959  13.270 -0.1765  0.1562  0.1436
 7738SOL    HW134673   1.835   2.961  13.290 -0.3486  0.9898  0.8559
 7738SOL    HW234674   1.735   3.027  13.203  3.2069 -0.5757 -0.9516
 7739SOL     OW34675   1.306   4.127   2.084 -0.1378  0.4989 -0.7659
 7739SOL    HW134676   1.308   4.064   2.156 -2.7552 -0.9865 -1.9999
 7739SOL    HW234677   1.211   4.141   2.081 -0.2357 -0.2400 -1.2552
 7740SOL     OW34678   4.663   3.899   0.316  0.1497 -0.0562  0.7736
 7740SOL    HW134679   0.033   3.919   0.338  0.1820  0.5457  0.0840
 7740SOL    HW234680   4.667   3.819   0.263  0.0458  0.5954 -0.2255
 7741SOL     OW34681   2.870   1.904  13.355  0.4016 -0.2186 -0.2147
 7741SOL    HW134682   2.900   1.820  13.320 -1.1381 -0.6319 -0.5849
 7741SOL    HW234683   2.948   1.937  13.398  1.1167 -3.0390  0.6434
 7742SOL     OW34684   0.820   1.857   1.834 -0.1073 -0.3646  0.1341
 7742SOL    HW134685   0.868   1.939   1.825 -2.3852  1.0443  1.0796
 7742SOL    HW234686   0.802   1.865   1.927 -0.6426 -0.7025  0.0597
 7743SOL     OW34687   0.994   3.228   4.614 -0.1833  0.0423 -0.1963
 7743SOL    HW134688   0.930   3.257   4.549 -0.5810  0.0207  0.1912
 7743SOL    HW234689   1.030   3.154   4.565  0.2270  1.3882 -1.9485
 7744SOL     OW34690   0.867   4.518   8.803 -0.7493 -0.3221  0.6276
 7744SOL    HW134691   0.859   4.568   8.884 -0.2562  1.7457 -0.5930
 7744SOL    HW234692   0.781   4.476   8.803  0.2573 -2.3830 -0.7268
 7745SOL     OW34693   1.936   0.584   4.825 -0.1490  0.7698 -0.1740
 7745SOL    HW134694   1.962   0.602   4.734  0.8166 -2.2433 -0.4813
 7745SOL    HW234695   1.842   0.600   4.825 -0.5113 -1.5483  3.5477
 7746SOL     OW34696   1.316   3.228   9.525 -0.0908 -0.0716  0.2167
 7746SOL    HW134697   1.395   3.179   9.548  0.1694  0.8791  1.3411
 7746SOL    HW234698   1.315   3.224   9.429 -1.4287 -0.4468  0.2417
 7747SOL     OW34699   4.681   3.322   8.486 -0.0244 -0.8110 -0.9675
 7747SOL    HW134700   0.034   3.272   8.448  1.5333  1.6349 -1.2259
 7747SOL    HW234701   4.714   3.329   8.575  1.1823 -0.9281 -1.4006
 7748SOL     OW34702   2.997   0.132   3.566  0.0599  0.0365  0.7350
 7748SOL    HW134703   3.038   0.212   3.598 -2.0622  2.0934 -1.8106
 7748SOL    HW234704   3.043   0.070   3.624 -1.4344  0.1904  2.1067
 7749SOL     OW34705   3.113   4.204  15.610 -0.2427  0.2396 -0.0253
 7749SOL    HW134706   3.111   4.255  15.690  0.6465 -0.3431  0.3706
 7749SOL    HW234707   3.134   4.117  15.643 -0.5182  0.9562  2.0218
 7750SOL     OW34708   3.699   1.992   4.865 -0.3500  0.2650  0.3976
 7750SOL    HW134709   3.752   2.046   4.805 -1.2362  0.4602 -0.2119
 7750SOL    HW234710   3.611   2.025   4.846 -0.6185 -0.6524  0.0352
 7751SOL     OW34711   4.652   0.418   6.169 -0.2278  0.1546  0.5129
 7751SOL    HW134712   4.639   0.390   6.260  0.0013 -0.0452  0.4864
 7751SOL    HW234713   4.654   0.337   6.118  1.1009  0.4688  0.0481
 7752SOL     OW34714   2.366   3.333   2.735 -0.1509 -0.3564  0.4744
 7752SOL    HW134715   2.398   3.280   2.808 -0.6886 -0.1294  0.8783
 7752SOL    HW234716   2.301   3.270   2.703  0.4895 -0.7584 -0.0312
 7753SOL     OW34717   0.187   0.852   3.260 -0.1460 -0.0118  0.1337
 7753SOL    HW134718   0.201   0.823   3.350  0.4770 -0.5267 -0.1282
 7753SOL    HW234719   0.244   0.930   3.257  1.2210 -0.9869  0.7101
 7754SOL     OW34720   2.373   0.841   8.396 -0.0703  0.1726  0.2915
 7754SOL    HW134721   2.312   0.773   8.426  0.6061 -0.5914 -0.0848
 7754SOL    HW234722   2.402   0.790   8.320 -2.1147 -4.0445  2.2950
 7755SOL     OW34723   4.331   1.453   4.320  0.3678 -0.5616  1.0875
 7755SOL    HW134724   4.401   1.510   4.351  0.6658 -1.6568  2.4387
 7755SOL    HW234725   4.366   1.444   4.231 -1.6104 -0.3135  0.3020
 7756SOL     OW34726   1.378   3.863   4.602 -0.2735 -0.0601 -0.1523
 7756SOL    HW134727   1.416   3.895   4.520 -0.9726  0.7026 -0.1713
 7756SOL    HW234728   1.294   3.908   4.595 -0.3938 -0.4100 -0.9551
 7757SOL     OW34729   1.616   0.418   8.582  0.0465  0.4098 -0.4218
 7757SOL    HW134730   1.568   0.385   8.506 -2.1593  0.3639  0.9932
 7757SOL    HW234731   1.556   0.488   8.607  1.1220  1.2513 -0.1753
 7758SOL     OW34732   0.688   1.174   0.964  0.4556 -0.1653 -0.4533
 7758SOL    HW134733   0.724   1.152   1.050  1.6255 -2.5277 -1.5462
 7758SOL    HW234734   0.642   1.092   0.946  0.2000  0.1160 -1.0642
 7759SOL     OW34735   3.794   4.280   5.340 -0.0019  0.1447  0.8301
 7759SOL    HW134736   3.885   4.279   5.372  0.8147 -1.8507 -1.6186
 7759SOL    HW234737   3.762   4.356   5.390 -0.2348  0.5059  0.1236
 7760SOL     OW34738   4.588   2.364   5.988 -0.3913  1.0151  0.2062
 7760SOL    HW134739   4.658   2.407   5.940 -0.5595 -0.6011 -1.5079
 7760SOL    HW234740   4.513   2.421   5.971 -1.8585 -1.3632 -1.3064
 7761SOL     OW34741   1.748   0.966  11.519 -0.0046  0.3515 -0.0716
 7761SOL    HW134742   1.812   0.947  11.451 -1.0581  0.5969 -1.1387
 7761SOL    HW234743   1.677   1.001  11.465  0.6913 -0.3900 -1.4609
 7762SOL     OW34744   0.719   0.268   2.522 -0.3741 -0.4560 -0.0704
 7762SOL    HW134745   0.648   0.325   2.494  0.6734  0.9360  0.0932
 7762SOL    HW234746   0.767   0.257   2.440  2.1844 -0.5777  1.4317
 7763SOL     OW34747   2.303   3.119   8.124 -0.0981 -0.2728 -0.2384
 7763SOL    HW134748   2.345   3.198   8.157  1.0459 -1.5525  1.3632
 7763SOL    HW234749   2.382   3.073   8.096  0.3736 -0.2712  1.1360
 7764SOL     OW34750   2.817   0.392   1.383  0.2849  0.6832  0.3672
 7764SOL    HW134751   2.763   0.323   1.345 -0.8926  1.0357  1.3994
 7764SOL    HW234752   2.865   0.352   1.455  1.0539  0.1114 -0.4526
 7765SOL     OW34753   0.672   0.684  16.652 -0.3105 -0.1565  0.2192
 7765SOL    HW134754   0.624   0.601  16.649  0.6941 -0.6784 -1.3519
 7765SOL    HW234755   0.589   0.732  16.645  0.1313  0.5262 -0.4348
 7766SOL     OW34756   3.693   1.739   5.744  0.5034  0.7041  0.0378
 7766SOL    HW134757   3.639   1.802   5.696  0.5201  1.0337  0.4546
 7766SOL    HW234758   3.759   1.796   5.784  0.5169  0.1047  0.8598
 7767SOL     OW34759   1.517   0.044  17.427 -0.3703  0.4072 -0.3824
 7767SOL    HW134760   1.517   4.710  17.506 -3.2338 -1.1471 -1.4367
 7767SOL    HW234761   1.545   0.128  17.462  0.3235  0.4974 -1.1552
 7768SOL     OW34762   4.178   2.828  13.197  0.2157  0.5560  0.1016
 7768SOL    HW134763   4.157   2.736  13.216 -0.8185  0.9030  0.6599
 7768SOL    HW234764   4.124   2.882  13.254 -2.5655  0.5118 -2.4818
 7769SOL     OW34765   0.215   1.779   6.285  0.3069 -0.1355  0.7115
 7769SOL    HW134766   0.196   1.872   6.293 -1.0814 -0.2808 -0.7781
 7769SOL    HW234767   0.307   1.786   6.256  0.2730  2.0827  1.1371
 7770SOL     OW34768   2.713   3.711   6.609  0.2288  0.3132 -0.0110
 7770SOL    HW134769   2.752   3.772   6.671 -1.4606  0.1401  1.2248
 7770SOL    HW234770   2.779   3.642   6.606  1.0625  1.2161 -3.0926
 7771SOL     OW34771   3.836   0.778   8.835  0.3718 -0.4499 -0.4257
 7771SOL    HW134772   3.855   0.731   8.754 -1.4420 -0.1718 -1.0196
 7771SOL    HW234773   3.895   0.853   8.838 -0.3481  0.1242 -0.7193
 7772SOL     OW34774   0.224   1.634   9.976 -0.0957  0.6435 -0.4400
 7772SOL    HW134775   0.286   1.695   9.936  1.7500  0.4525  2.1143
 7772SOL    HW234776   0.236   1.672  10.064 -0.8745 -0.9782  0.3615
 7773SOL     OW34777   2.317   2.184   8.000 -0.5684 -0.0252 -0.1702
 7773SOL    HW134778   2.378   2.114   8.020  1.0329  0.9798 -1.5521
 7773SOL    HW234779   2.308   2.177   7.905 -2.0474  1.3970 -0.1538
 7774SOL     OW34780   1.612   2.473   6.989  0.1738 -0.4956 -0.0501
 7774SOL    HW134781   1.530   2.494   6.945 -0.0083  2.1469  1.5902
 7774SOL    HW234782   1.583   2.413   7.058 -1.5954  0.6751  0.2152
 7775SOL     OW34783   0.989   3.872  12.981  0.1828  0.0147  0.4846
 7775SOL    HW134784   0.978   3.953  12.930 -0.8331 -0.1481  0.4485
 7775SOL    HW234785   1.044   3.827  12.916  1.9256  0.2287  1.8000
 7776SOL     OW34786   1.581   3.894  15.580  0.0573 -0.2851 -0.2042
 7776SOL    HW134787   1.591   3.856  15.493  1.5594 -1.3089  0.3999
 7776SOL    HW234788   1.546   3.822  15.634  0.9518  0.0079  0.7754
 7777SOL     OW34789   0.911   1.883   2.595  0.3559 -0.2468 -0.0595
 7777SOL    HW134790   0.914   1.787   2.598  1.1152 -0.1655  1.3646
 7777SOL    HW234791   0.967   1.905   2.521  0.8221  0.7807  0.6192
 7778SOL     OW34792   2.506   1.672   0.366 -0.2530  0.0095 -0.2061
 7778SOL    HW134793   2.476   1.597   0.418  2.0642 -1.9338 -1.6313
 7778SOL    HW234794   2.458   1.744   0.406 -1.0721  0.1215 -1.3970
 7779SOL     OW34795   3.744   2.728  11.008  0.0684 -0.6796  0.3832
 7779SOL    HW134796   3.800   2.675  11.065  0.8659 -0.4110 -0.1486
 7779SOL    HW234797   3.811   2.791  10.980 -1.0038 -0.4361 -1.6342
 7780SOL     OW34798   0.580   1.026  14.505 -0.0451 -0.5764 -0.3026
 7780SOL    HW134799   0.581   0.944  14.553 -1.4680 -1.1296 -1.2110
 7780SOL    HW234800   0.548   1.002  14.418 -1.1796  0.2702 -0.1251
 7781SOL     OW34801   3.153   4.622  12.071 -0.8438  0.4454  0.1379
 7781SOL    HW134802   3.161   4.530  12.098 -0.8092 -0.0009 -1.4096
 7781SOL    HW234803   3.073   4.654  12.113 -1.3491 -1.3869  0.5861
 7782SOL     OW34804   3.126   4.668   8.859 -0.3393 -0.2998  0.8784
 7782SOL    HW134805   3.054   4.670   8.922 -0.7363 -0.6850  0.4267
 7782SOL    HW234806   3.171   4.588   8.887  0.1384  0.0334  1.0727
 7783SOL     OW34807   4.601   4.592   6.638  0.1358 -0.5593 -0.6669
 7783SOL    HW134808   4.548   4.517   6.665  1.1247 -0.6334  1.0581
 7783SOL    HW234809   4.554   4.658   6.690  0.8692 -0.6139  0.0606
 7784SOL     OW34810   3.084   4.325   0.949 -0.0079  0.0435 -0.0192
 7784SOL    HW134811   3.061   4.333   1.042 -0.6132 -0.5112 -0.1223
 7784SOL    HW234812   3.052   4.406   0.911 -0.8876  0.6928  2.0942
 7785SOL     OW34813   2.711   3.683   7.152  0.2441 -0.1842 -0.2482
 7785SOL    HW134814   2.723   3.606   7.097  0.2962 -0.9014  0.7797
 7785SOL    HW234815   2.802   3.710   7.164 -0.4891  2.2946 -0.3287
 7786SOL     OW34816   0.559   1.421  16.418 -0.5217 -0.5089 -0.3727
 7786SOL    HW134817   0.534   1.334  16.449  2.0701 -0.4300  1.9103
 7786SOL    HW234818   0.630   1.395  16.360  0.0490 -1.4410  0.7399
 7787SOL     OW34819   2.950   3.101   4.220  0.0473 -0.1036  0.4660
 7787SOL    HW134820   2.914   3.014   4.234  0.4479 -0.1303  1.3588
 7787SOL    HW234821   2.990   3.117   4.306  1.9363  0.2288 -0.4592
 7788SOL     OW34822   1.992   0.158   6.288  0.2356  0.2976  0.0872
 7788SOL    HW134823   1.991   0.176   6.382 -3.2756 -1.5186  0.4162
 7788SOL    HW234824   2.076   0.113   6.279 -0.6572 -1.3146 -0.2954
 7789SOL     OW34825   3.054   0.153  13.996 -0.3774  0.5361 -0.0632
 7789SOL    HW134826   3.132   0.098  13.987 -0.6289  0.4342 -1.6043
 7789SOL    HW234827   3.010   0.125  13.916 -0.3102 -1.2403  0.5118
 7790SOL     OW34828   2.345   4.381  11.165  0.1621  0.5048  0.0976
 7790SOL    HW134829   2.326   4.435  11.088 -2.1291  0.1207  0.3839
 7790SOL    HW234830   2.377   4.443  11.230 -0.2591  1.8217 -0.9553
 7791SOL     OW34831   3.656   0.117   9.168  0.6789 -0.1236 -0.2393
 7791SOL    HW134832   3.624   0.074   9.088  0.1266  1.4248 -0.8420
 7791SOL    HW234833   3.731   0.167   9.138  1.1517 -0.8906 -0.3441
 7792SOL     OW34834   3.736   3.806   4.968 -0.0609  0.2599 -0.0200
 7792SOL    HW134835   3.676   3.794   4.895 -0.3371 -0.8816  0.3958
 7792SOL    HW234836   3.707   3.893   4.995 -0.2504 -0.5163  2.3438
 7793SOL     OW34837   3.384   1.166  10.489  0.6995 -0.5220  0.0448
 7793SOL    HW134838   3.472   1.130  10.475  1.2106  1.0137 -0.6890
 7793SOL    HW234839   3.348   1.141  10.574 -1.0684 -0.3514 -0.6514
 7794SOL     OW34840   4.332   0.672   7.668  0.2142 -0.1617 -0.1568
 7794SOL    HW134841   4.237   0.678   7.680  0.1689 -2.0299  0.4060
 7794SOL    HW234842   4.361   0.674   7.759 -0.4683  0.1611  0.0546
 7795SOL     OW34843   3.170   2.633   9.790 -0.4162  0.4611  0.4743
 7795SOL    HW134844   3.238   2.604   9.850 -0.3302  0.6011  0.4459
 7795SOL    HW234845   3.199   2.718   9.757 -0.9497  0.3504 -0.2817
 7796SOL     OW34846   1.767   4.530   5.529  0.3662  0.3504 -0.4442
 7796SOL    HW134847   1.771   4.562   5.439 -0.9334  0.7867 -0.3485
 7796SOL    HW234848   1.675   4.501   5.527 -0.4415  2.8024  1.1827
 7797SOL     OW34849   4.457   3.426   2.710  0.3722  0.5381  0.5649
 7797SOL    HW134850   4.386   3.370   2.677 -0.1600  2.4417 -1.5194
 7797SOL    HW234851   4.514   3.426   2.633  1.5226 -0.9154  1.4082
 7798SOL     OW34852   0.682   4.579   6.446 -0.1225 -0.2308 -0.1386
 7798SOL    HW134853   0.751   4.643   6.458 -0.2450  0.1687 -1.5760
 7798SOL    HW234854   0.652   4.565   6.536 -0.0301  0.7284  0.0434
 7799SOL     OW34855   2.838   4.630   0.749 -0.3051  0.4555  0.6678
 7799SOL    HW134856   2.772   4.567   0.721 -1.2150  0.9718  1.6302
 7799SOL    HW234857   2.775   4.694   0.785 -2.3600 -1.2210  0.0543
 7800SOL     OW34858   2.546   3.977   8.471  0.0103  0.6310  0.1766
 7800SOL    HW134859   2.605   3.925   8.526 -1.4315 -0.5921  0.5907
 7800SOL    HW234860   2.588   4.063   8.476  0.1720  0.5391  0.3691
 7801SOL     OW34861   3.512   4.116   7.832  0.5884  0.2448 -0.1803
 7801SOL    HW134862   3.551   4.056   7.896 -0.0478  1.0186  0.9281
 7801SOL    HW234863   3.540   4.072   7.752 -1.6291 -1.3592 -0.0537
 7802SOL     OW34864   2.176   0.680  15.550 -0.2353 -1.0752  0.2009
 7802SOL    HW134865   2.129   0.754  15.588  3.4874  1.2120  0.2657
 7802SOL    HW234866   2.263   0.715  15.534 -0.6647 -0.0306  0.1557
 7803SOL     OW34867   1.709   2.140  11.555  0.0544  0.5576  0.1553
 7803SOL    HW134868   1.658   2.221  11.559 -0.7114  0.1282 -0.7461
 7803SOL    HW234869   1.667   2.101  11.478  0.6420 -0.3279  0.2888
 7804SOL     OW34870   4.338   3.072   1.714  0.7301  0.7078 -0.1146
 7804SOL    HW134871   4.398   3.104   1.782  0.7192 -0.9206  0.6752
 7804SOL    HW234872   4.270   3.138   1.725  0.4658  0.5995 -1.0953
 7805SOL     OW34873   4.557   4.242  15.762 -0.6202  0.2767 -0.0020
 7805SOL    HW134874   4.608   4.177  15.713 -0.3396 -0.2350  0.9663
 7805SOL    HW234875   4.497   4.183  15.807  2.9743 -2.2112  1.5729
 7806SOL     OW34876   0.664   0.401   9.042 -0.0557  0.1724 -0.3913
 7806SOL    HW134877   0.651   0.368   8.954  1.3158  2.1464 -1.3390
 7806SOL    HW234878   0.708   0.325   9.079 -1.2561 -0.3781 -0.1239
 7807SOL     OW34879   3.954   0.360   9.850 -0.8430 -0.0244  0.5073
 7807SOL    HW134880   4.043   0.329   9.865 -0.6404  1.0260  1.4521
 7807SOL    HW234881   3.951   0.446   9.891 -3.5439 -0.6591  1.6572
 7808SOL     OW34882   0.606   2.176  16.377 -0.0974  0.2406  0.1843
 7808SOL    HW134883   0.621   2.267  16.350  1.3187 -0.0600 -0.0309
 7808SOL    HW234884   0.572   2.157  16.290  0.9463 -1.2380  0.0965
 7809SOL     OW34885   3.724   4.471   2.405  0.1520  0.3187 -0.3785
 7809SOL    HW134886   3.721   4.539   2.338 -0.4733 -1.0147 -1.7056
 7809SOL    HW234887   3.757   4.399   2.351 -1.9720 -0.0691 -1.1672
 7810SOL     OW34888   1.952   2.775   3.227  0.8681 -0.3504 -0.1849
 7810SOL    HW134889   1.967   2.860   3.266  0.8996 -0.6472  0.4432
 7810SOL    HW234890   2.034   2.730   3.209  1.3819  0.0029  1.3080
 7811SOL     OW34891   0.815   4.589   3.286 -0.0875  0.2023 -0.4265
 7811SOL    HW134892   0.721   4.576   3.300 -0.2223  1.5326 -0.0409
 7811SOL    HW234893   0.839   4.592   3.378  0.0108 -2.0885 -0.3737
 7812SOL     OW34894   1.436   3.135  15.720  0.0920  0.1456  0.5366
 7812SOL    HW134895   1.384   3.194  15.665 -0.5492 -0.1435  0.8302
 7812SOL    HW234896   1.379   3.108  15.792 -1.3289  1.2676 -0.1484
 7813SOL     OW34897   0.847   2.473  11.803  0.2574  0.0334  0.2839
 7813SOL    HW134898   0.791   2.396  11.813  0.6890 -0.5921 -2.1471
 7813SOL    HW234899   0.931   2.432  11.822 -0.3800 -1.8230 -0.9065
 7814SOL     OW34900   0.825   2.064  12.774  0.0568  0.0360  0.6065
 7814SOL    HW134901   0.919   2.080  12.780 -0.4827  3.0628  0.6857
 7814SOL    HW234902   0.829   1.984  12.722  1.5490  0.7919 -0.4630
 7815SOL     OW34903   3.641   0.602   4.374  0.3230 -0.0911 -0.1615
 7815SOL    HW134904   3.712   0.596   4.438  0.5887  0.9018 -0.3691
 7815SOL    HW234905   3.646   0.515   4.333 -0.2661  0.6802 -1.8744
 7816SOL     OW34906   2.630   1.865   2.591 -0.0588  0.3151 -0.3342
 7816SOL    HW134907   2.610   1.932   2.656 -0.9096  0.1105 -0.3825
 7816SOL    HW234908   2.549   1.815   2.598 -2.3531  3.9439 -1.1459
 7817SOL     OW34909   3.474   2.661   1.815  0.3685  0.5380  0.1954
 7817SOL    HW134910   3.417   2.584   1.818  1.3411 -0.1862  0.0683
 7817SOL    HW234911   3.561   2.635   1.846 -0.2463 -1.3181  0.3907
 7818SOL     OW34912   0.350   1.888   3.352 -0.0647 -0.2417  0.7835
 7818SOL    HW134913   0.263   1.856   3.329  0.8523 -0.6342 -2.0652
 7818SOL    HW234914   0.348   1.982   3.336  0.3857 -0.3460  0.1333
 7819SOL     OW34915   0.405   1.587  10.452 -0.3128  0.3383  0.0307
 7819SOL    HW134916   0.405   1.654  10.520  0.5676  0.7812 -0.4026
 7819SOL    HW234917   0.384   1.505  10.496 -0.9124  0.2221 -0.4751
 7820SOL     OW34918   2.277   2.100   7.214 -0.2318 -0.5699 -0.1878
 7820SOL    HW134919   2.360   2.062   7.186  1.3566  2.8548 -0.2108
 7820SOL    HW234920   2.306   2.143   7.295 -0.3892  1.3016 -1.1265
 7821SOL     OW34921   3.236   3.783  10.035 -0.2444 -0.0966  0.2387
 7821SOL    HW134922   3.214   3.715  10.098  0.0789 -0.9012 -0.5078
 7821SOL    HW234923   3.163   3.791   9.974  0.1356  0.6906 -0.1115
 7822SOL     OW34924   0.103   4.146   4.364 -0.3468 -0.4928 -0.4017
 7822SOL    HW134925   0.191   4.108   4.366 -0.0907  0.1878  0.9152
 7822SOL    HW234926   0.124   4.235   4.335  0.0951 -0.8489 -1.1837
 7823SOL     OW34927   4.617   2.385   4.922  0.0142  0.0700 -0.1862
 7823SOL    HW134928   4.554   2.390   4.851  0.4435 -0.4801 -0.6009
 7823SOL    HW234929   4.697   2.428   4.891 -0.5227 -0.6477 -2.5459
 7824SOL     OW34930   0.631   4.651   6.192 -0.8297 -0.2884 -0.5431
 7824SOL    HW134931   0.677   4.573   6.162  0.5660  1.4170 -2.8465
 7824SOL    HW234932   0.639   4.640   6.287 -0.8876  0.1185 -0.4879
 7825SOL     OW34933   2.480   0.990   6.933 -0.6810  0.6903 -0.2002
 7825SOL    HW134934   2.498   1.084   6.920 -0.4726  0.7885  0.8011
 7825SOL    HW234935   2.498   0.957   6.845  1.6675  0.5871  0.3253
 7826SOL     OW34936   4.394   2.519  10.741  0.1311  0.0520 -0.0611
 7826SOL    HW134937   4.392   2.565  10.656  0.0940  1.1489  0.5323
 7826SOL    HW234938   4.460   2.571  10.786 -0.2473  0.3699  0.1259
 7827SOL     OW34939   0.286   1.926   9.851 -0.1156 -0.3302 -0.3559
 7827SOL    HW134940   0.194   1.946   9.866  0.0432 -0.6271  1.0705
 7827SOL    HW234941   0.310   1.995   9.789  1.1377 -0.7422 -0.3234
 7828SOL     OW34942   2.855   4.606  17.673  0.3103  0.3089  0.0223
 7828SOL    HW134943   2.839   4.616  17.579 -0.5313 -0.5144  0.0749
 7828SOL    HW234944   2.801   4.679   0.023  2.2035  2.1318 -0.8870
 7829SOL     OW34945   4.101   1.084   7.258 -0.1535 -0.3888 -0.4254
 7829SOL    HW134946   4.037   1.071   7.188 -1.5360 -0.9197  0.9340
 7829SOL    HW234947   4.101   0.990   7.278 -2.3211 -0.6325 -1.4949
 7830SOL     OW34948   4.576   1.732   3.689  0.4568 -0.1630 -0.1611
 7830SOL    HW134949   4.508   1.760   3.750 -0.3639  1.2054 -1.6998
 7830SOL    HW234950   4.642   1.801   3.696  1.7377 -1.1465 -2.6353
 7831SOL     OW34951   4.279   1.086  12.605  0.1916 -0.1880 -0.1042
 7831SOL    HW134952   4.283   1.013  12.668  1.6076 -1.5380 -1.7471
 7831SOL    HW234953   4.370   1.090  12.576  0.7991 -2.4470  1.4347
 7832SOL     OW34954   1.069   2.090   7.151  0.0858  0.4881  0.1192
 7832SOL    HW134955   1.078   2.180   7.120 -1.6013  0.8629  0.7176
 7832SOL    HW234956   1.036   2.044   7.073  1.7677 -1.1873  0.4006
 7833SOL     OW34957   3.298   3.662   3.515  0.6795  0.0152  0.1457
 7833SOL    HW134958   3.311   3.605   3.439  0.8131 -0.9168  0.8629
 7833SOL    HW234959   3.386   3.646   3.548  1.3582  0.8959 -1.2062
 7834SOL     OW34960   1.896   3.668  12.478 -0.0951 -0.2205  0.5126
 7834SOL    HW134961   1.816   3.693  12.430 -0.3671 -0.4973  0.8205
 7834SOL    HW234962   1.868   3.579  12.500 -3.1256  0.3716 -0.9146
 7835SOL     OW34963   0.066   2.351   4.578 -0.1460  0.3718  0.1064
 7835SOL    HW134964   0.005   2.399   4.522  0.6028 -1.3016 -2.1613
 7835SOL    HW234965   0.097   2.425   4.630  0.5152 -1.4180  2.2476
 7836SOL     OW34966   3.996   1.073   4.629  0.8290  0.6313 -0.3944
 7836SOL    HW134967   3.903   1.091   4.641  1.5745  4.7470 -0.7423
 7836SOL    HW234968   4.030   1.162   4.622  0.8280  0.6925  0.3942
 7837SOL     OW34969   0.305   2.259   2.164 -0.3412 -0.0621 -0.2457
 7837SOL    HW134970   0.263   2.338   2.130 -2.6438 -1.2343 -0.1203
 7837SOL    HW234971   0.393   2.265   2.125  0.1516 -2.7029  0.4606
 7838SOL     OW34972   2.671   2.758   5.776 -0.6157  0.3846 -0.3997
 7838SOL    HW134973   2.656   2.665   5.789 -2.8899  0.9277  0.8824
 7838SOL    HW234974   2.672   2.762   5.680  0.5257 -1.9756 -0.4738
 7839SOL     OW34975   0.608   0.499   5.739 -0.2611 -0.4596  1.2053
 7839SOL    HW134976   0.524   0.531   5.708  0.8329 -0.2391 -1.5245
 7839SOL    HW234977   0.588   0.506   5.833  0.6173  0.6133  1.3154
 7840SOL     OW34978   1.717   2.545   7.495 -0.4152 -0.2149 -0.6591
 7840SOL    HW134979   1.721   2.638   7.519  0.8079 -0.0481 -1.5147
 7840SOL    HW234980   1.728   2.508   7.583 -1.8275  1.7024  0.3269
 7841SOL     OW34981   1.769   4.651   4.346  0.1095  0.2174  0.6946
 7841SOL    HW134982   1.774   4.557   4.366 -0.8810 -0.2578 -1.2258
 7841SOL    HW234983   1.848   4.680   4.391 -0.1384  0.8391  0.7370
 7842SOL     OW34984   2.586   0.852   5.704  0.3915 -0.1393 -0.0860
 7842SOL    HW134985   2.492   0.862   5.691  0.3451 -0.8551 -0.2978
 7842SOL    HW234986   2.594   0.764   5.668  1.7995  0.2850 -0.7930
 7843SOL     OW34987   2.286   2.417   5.329 -0.1303 -0.0995  0.2504
 7843SOL    HW134988   2.300   2.512   5.330  2.7239 -0.5146 -0.6855
 7843SOL    HW234989   2.285   2.392   5.421 -3.5620 -1.3659 -0.1444
 7844SOL     OW34990   1.747   1.322  15.712  0.0079 -0.6166 -0.3110
 7844SOL    HW134991   1.752   1.405  15.759 -2.8632 -2.4575  3.2806
 7844SOL    HW234992   1.684   1.346  15.644  0.5261 -1.5591 -1.1152
 7845SOL     OW34993   1.066   2.875   3.077 -0.4128 -0.2214 -0.3754
 7845SOL    HW134994   1.112   2.791   3.084  0.5149  0.5938  3.2520
 7845SOL    HW234995   1.137   2.924   3.035  0.9781  0.2074  2.4721
 7846SOL     OW34996   2.405   3.593   5.931  0.6786 -0.0237  0.4442
 7846SOL    HW134997   2.499   3.602   5.946  0.5122  1.5990  0.5377
 7846SOL    HW234998   2.393   3.621   5.840 -1.5806  0.5034  0.9001
 7847SOL     OW34999   1.228   1.804   0.910 -0.3902  0.4070 -0.0775
 7847SOL    HW135000   1.302   1.775   0.963 -0.2586  1.7512  0.4857
 7847SOL    HW235001   1.163   1.736   0.929  0.2804 -0.2269 -0.0771
 7848SOL     OW35002   0.147   1.015  10.957 -0.2077 -0.2511  0.1690
 7848SOL    HW135003   0.205   1.043  11.027  3.5131 -1.8738 -2.2599
 7848SOL    HW235004   0.108   1.092  10.917 -0.9471 -0.2228  0.9439
 7849SOL     OW35005   0.841   0.595  11.971 -0.1321  0.1285 -0.0471
 7849SOL    HW135006   0.843   0.502  11.990  1.1913 -0.1885 -1.6677
 7849SOL    HW235007   0.791   0.623  12.048  0.6901 -1.5665  1.0916
 7850SOL     OW35008   1.794   2.253   2.892  0.2912 -0.4055  0.2700
 7850SOL    HW135009   1.717   2.275   2.839 -0.0401 -1.2643  0.3942
 7850SOL    HW235010   1.854   2.249   2.818 -1.1253 -1.8637 -0.8021
 7851SOL     OW35011   3.675   0.418   3.217 -0.0922 -0.1682 -0.2093
 7851SOL    HW135012   3.740   0.378   3.159  0.9876 -0.6627  1.3396
 7851SOL    HW235013   3.707   0.378   3.298 -1.2701 -0.0956  0.2830
 7852SOL     OW35014   4.228   2.680   2.391  0.4427 -0.0984  0.2867
 7852SOL    HW135015   4.194   2.769   2.385  0.7006  0.0569  1.0772
 7852SOL    HW235016   4.296   2.681   2.459 -1.4351 -1.1097  2.1842
 7853SOL     OW35017   4.363   2.401  15.089 -0.2453 -0.2745 -0.5129
 7853SOL    HW135018   4.380   2.320  15.041 -3.4217 -0.3655 -1.4862
 7853SOL    HW235019   4.442   2.455  15.090 -0.0362 -0.5793 -0.4608
 7854SOL     OW35020   4.466   0.576   8.543  0.1402  0.1281 -0.6410
 7854SOL    HW135021   4.421   0.658   8.521  2.8377  1.9737  0.7426
 7854SOL    HW235022   4.465   0.525   8.462  0.2147  1.0393 -1.2150
 7855SOL     OW35023   1.695   2.682   3.244 -0.1760  0.1924 -0.0767
 7855SOL    HW135024   1.780   2.726   3.252 -0.6788  1.0489  0.5929
 7855SOL    HW235025   1.710   2.590   3.266  0.6525  0.5970  1.0398
 7856SOL     OW35026   4.421   1.223   3.062  0.0504 -0.0086  0.1450
 7856SOL    HW135027   4.360   1.150   3.074  1.4131 -1.1443  0.1321
 7856SOL    HW235028   4.500   1.177   3.090  0.2923 -0.4856 -1.3230
 7857SOL     OW35029   3.409   2.708   5.618 -0.2264  0.3638 -0.0488
 7857SOL    HW135030   3.376   2.748   5.537  2.6566  2.3749 -0.2355
 7857SOL    HW235031   3.336   2.649   5.636  0.1165 -0.2320 -0.6518
 7858SOL     OW35032   2.796   3.064   9.337 -0.1235  0.3419  0.0533
 7858SOL    HW135033   2.847   3.006   9.281 -0.6873  2.8426 -2.9811
 7858SOL    HW235034   2.739   3.104   9.271 -1.5220 -0.4293  0.7808
 7859SOL     OW35035   3.037   0.601   7.605 -0.5624  0.2475  0.0492
 7859SOL    HW135036   2.966   0.661   7.587 -1.8210 -1.4186 -0.5607
 7859SOL    HW235037   3.004   0.525   7.557 -2.4471  0.0448  1.6637
 7860SOL     OW35038   4.286   2.354   9.265  0.1172  0.7823 -0.8442
 7860SOL    HW135039   4.242   2.354   9.180 -0.3337 -0.2847 -0.6199
 7860SOL    HW235040   4.278   2.261   9.287  2.1267  1.3672  2.3858
 7861SOL     OW35041   0.481   2.718   3.225  0.0328  0.8250  0.4629
 7861SOL    HW135042   0.457   2.630   3.195 -1.7335  1.7303 -0.8014
 7861SOL    HW235043   0.446   2.778   3.159 -0.8317  1.1164  1.1892
 7862SOL     OW35044   1.183   3.518  16.728  0.0628  0.1087 -0.0898
 7862SOL    HW135045   1.117   3.473  16.675 -0.3330  0.1630  0.3692
 7862SOL    HW235046   1.240   3.448  16.759 -2.2382 -0.9967  1.6053
 7863SOL     OW35047   2.192   0.516   2.797 -0.2457  0.2039 -0.0498
 7863SOL    HW135048   2.173   0.498   2.705 -2.1055  3.1395 -0.2098
 7863SOL    HW235049   2.241   0.598   2.795 -0.9362  0.6405  0.8040
 7864SOL     OW35050   2.517   0.155  13.210  0.1683  0.1802  0.2495
 7864SOL    HW135051   2.583   0.140  13.277  1.2998 -1.4560 -1.2496
 7864SOL    HW235052   2.451   0.198  13.265  1.0862  0.9569  0.7301
 7865SOL     OW35053   0.494   2.322   1.187  0.1804 -0.0504 -0.0297
 7865SOL    HW135054   0.449   2.299   1.268  0.0861 -1.1828 -0.4029
 7865SOL    HW235055   0.518   2.231   1.169  0.7033  0.0803  0.0052
 7866SOL     OW35056   2.998   3.855   6.421 -0.6386 -0.2330 -0.0365
 7866SOL    HW135057   3.065   3.853   6.353  1.2540  3.3970  1.7491
 7866SOL    HW235058   3.053   3.857   6.499 -0.5066  2.3785 -0.1978
 7867SOL     OW35059   0.507   4.318   2.906 -0.7009  0.7472 -0.2913
 7867SOL    HW135060   0.576   4.334   2.841 -1.3034  2.4614 -0.5081
 7867SOL    HW235061   0.522   4.395   2.961  3.2079  1.5423 -2.4921
 7868SOL     OW35062   2.208   1.330   7.236 -0.3134 -0.1961  0.0598
 7868SOL    HW135063   2.275   1.357   7.173 -1.3301  0.5250 -0.7215
 7868SOL    HW235064   2.159   1.411   7.252 -0.2846 -0.5781  2.1011
 7869SOL     OW35065   4.040   0.903   8.271 -0.3158 -0.7071 -0.0176
 7869SOL    HW135066   4.030   0.900   8.366  2.8545 -0.2360  0.3539
 7869SOL    HW235067   4.118   0.959   8.265 -1.5173  1.0260  0.6318
 7870SOL     OW35068   2.541   0.694   4.938  0.2885 -0.2977 -0.0633
 7870SOL    HW135069   2.547   0.686   5.034 -0.3120 -0.7639 -0.0618
 7870SOL    HW235070   2.537   0.789   4.933 -0.9563 -0.4363 -1.6618
 7871SOL     OW35071   0.253   2.274   9.993  0.2650 -0.5010 -0.3573
 7871SOL    HW135072   0.348   2.277   9.981  0.2943  0.1518  0.0287
 7871SOL    HW235073   0.226   2.298   9.905  4.1425  2.2939 -0.7820
 7872SOL     OW35074   1.016   1.148   5.402  0.4426 -0.3689 -0.5794
 7872SOL    HW135075   0.945   1.191   5.450  0.7839 -0.4185 -0.0414
 7872SOL    HW235076   1.096   1.184   5.439 -1.3390  1.2937  1.7208
 7873SOL     OW35077   1.587   1.705   5.750  0.6643  0.2070  0.1776
 7873SOL    HW135078   1.572   1.611   5.754 -1.0999  0.3476 -3.5059
 7873SOL    HW235079   1.599   1.721   5.844 -1.3626 -1.0652  0.6387
 7874SOL     OW35080   0.687   0.427  13.270  0.3383  0.4481  0.4158
 7874SOL    HW135081   0.781   0.416  13.263  0.2940  1.0075 -1.0843
 7874SOL    HW235082   0.661   0.343  13.232  0.2872  1.5953 -2.0797
 7875SOL     OW35083   2.074   0.408  11.574 -0.4205  0.4294 -0.2611
 7875SOL    HW135084   2.050   0.414  11.667 -1.5544 -1.6035 -0.4359
 7875SOL    HW235085   2.070   0.502  11.555 -1.0796  0.2466 -0.9932
 7876SOL     OW35086   1.238   3.467  15.147  0.1705 -0.1927 -0.3172
 7876SOL    HW135087   1.178   3.539  15.126 -0.7784 -1.2381 -1.1690
 7876SOL    HW235088   1.249   3.435  15.058 -2.4108 -1.1160 -0.3045
 7877SOL     OW35089   1.691   0.366   1.801 -0.2896 -1.0107 -0.3559
 7877SOL    HW135090   1.625   0.428   1.770  0.5950  1.0298  1.7613
 7877SOL    HW235091   1.730   0.415   1.873 -1.1575 -2.7344  1.2860
 7878SOL     OW35092   2.381   1.791   7.114 -0.0843 -0.4294 -0.1406
 7878SOL    HW135093   2.405   1.878   7.081 -1.7210 -0.4971 -1.4806
 7878SOL    HW235094   2.319   1.813   7.184  0.7911  2.7152 -0.3139
 7879SOL     OW35095   4.714   3.552  11.538  0.6069 -0.2745 -0.1826
 7879SOL    HW135096   4.691   3.460  11.526 -2.3797  0.7216 -2.1256
 7879SOL    HW235097   4.706   3.560  11.633  0.2607 -0.6813 -0.1748
 7880SOL     OW35098   2.537   1.878   5.497  0.4333  0.2795 -0.0318
 7880SOL    HW135099   2.538   1.789   5.461 -0.8329  0.1798  0.1684
 7880SOL    HW235100   2.626   1.890   5.529 -0.1857 -1.6778  2.4388
 7881SOL     OW35101   0.079   3.499   7.465 -0.2977 -0.3267  0.4769
 7881SOL    HW135102   0.074   3.548   7.547 -0.8880  0.9784 -0.3310
 7881SOL    HW235103   0.002   3.526   7.414 -0.1098  1.8171  1.3427
 7882SOL     OW35104   4.242   2.947   4.643 -0.4953  0.7094  0.0051
 7882SOL    HW135105   4.158   2.989   4.663  0.1734  0.8000  2.6501
 7882SOL    HW235106   4.306   3.015   4.663  2.0445 -1.3429 -1.2138
 7883SOL     OW35107   0.170   4.104  12.607  0.3308 -0.4112  0.2212
 7883SOL    HW135108   0.141   4.174  12.665  0.2149 -3.1334  3.4422
 7883SOL    HW235109   0.251   4.077  12.650  1.9563 -0.7721 -3.0881
 7884SOL     OW35110   2.158   2.151   3.038 -0.3838  0.0760  0.4281
 7884SOL    HW135111   2.209   2.231   3.052  1.7409 -1.3178  0.6026
 7884SOL    HW235112   2.111   2.135   3.119  1.2818  0.4501  1.4666
 7885SOL     OW35113   1.425   1.438   0.561  0.6851  0.4180 -0.0819
 7885SOL    HW135114   1.430   1.347   0.590  0.6013  0.3578 -0.2580
 7885SOL    HW235115   1.332   1.443   0.536  0.8647  0.4852 -0.7375
 7886SOL     OW35116   4.575   2.550  15.044  0.2256  0.7472  0.2766
 7886SOL    HW135117   4.647   2.608  15.069  0.3313  0.0994  1.4528
 7886SOL    HW235118   4.510   2.617  15.023  0.1573  0.6975  0.3284
 7887SOL     OW35119   3.130   3.071  12.141  0.2171  0.3786  0.0192
 7887SOL    HW135120   3.190   3.064  12.215  1.4213 -0.8662 -1.0765
 7887SOL    HW235121   3.081   2.988  12.150 -1.3971  1.1345 -1.6196
 7888SOL     OW35122   2.248   0.855   3.528 -0.1133  0.9885 -0.4663
 7888SOL    HW135123   2.198   0.838   3.608 -0.7922 -0.7285 -1.2396
 7888SOL    HW235124   2.203   0.799   3.464  1.4291  0.9700 -1.5153
 7889SOL     OW35125   2.349   1.930   9.970 -0.7690 -0.1215 -0.1645
 7889SOL    HW135126   2.398   1.849   9.955 -0.5574 -0.1023  0.4138
 7889SOL    HW235127   2.404   1.988  10.024 -2.1890  0.1355  0.9969
 7890SOL     OW35128   0.660   0.200   1.943 -0.4560  0.1474 -0.0244
 7890SOL    HW135129   0.755   0.216   1.947 -0.2120 -0.3050 -3.9356
 7890SOL    HW235130   0.652   0.118   1.895  2.6348  0.7074 -1.5210
 7891SOL     OW35131   2.342   1.832   5.779 -0.3248  0.0816  0.4740
 7891SOL    HW135132   2.374   1.919   5.755 -2.2813  0.9880  1.1172
 7891SOL    HW235133   2.268   1.821   5.718 -0.5188 -1.5857  1.0089
 7892SOL     OW35134   0.935   2.313   9.972 -0.2031  0.0858 -0.3420
 7892SOL    HW135135   0.912   2.351  10.057 -0.6218 -0.7584 -0.0670
 7892SOL    HW235136   0.964   2.394   9.931  0.0195  0.8144  1.2880
 7893SOL     OW35137   3.284   3.884  13.260 -0.4627 -0.2643 -0.5393
 7893SOL    HW135138   3.365   3.849  13.222  0.5628 -2.0882  3.3085
 7893SOL    HW235139   3.238   3.803  13.284 -1.0117 -0.7933 -3.2804
 7894SOL     OW35140   3.594   1.906   8.429  0.0896  0.4241 -0.3579
 7894SOL    HW135141   3.647   1.865   8.497  0.2220  0.3121 -0.5272
 7894SOL    HW235142   3.521   1.844   8.420 -0.5088  1.2924 -1.5671
 7895SOL     OW35143   0.948   4.476   2.806 -0.1832  0.3687  0.2081
 7895SOL    HW135144   0.892   4.553   2.814 -0.5447  0.3216 -1.8525
 7895SOL    HW235145   1.027   4.506   2.850  0.0051  0.1875 -0.0072
 7896SOL     OW35146   0.999   4.433  10.424  0.1946 -0.2737 -0.3787
 7896SOL    HW135147   1.084   4.405  10.459  0.5872  2.8288  1.1799
 7896SOL    HW235148   0.956   4.349  10.409  1.3538 -0.7457 -1.0118
 7897SOL     OW35149   1.613   0.081   5.766 -0.3885 -0.1765  0.0505
 7897SOL    HW135150   1.622   0.160   5.820  0.5218 -0.1887 -0.0813
 7897SOL    HW235151   1.644   0.119   5.684 -0.0543 -0.1741  0.1780
 7898SOL     OW35152   4.409   0.777   2.226 -0.6784  0.1333  0.5232
 7898SOL    HW135153   4.340   0.765   2.160 -1.2364  1.7815  0.8147
 7898SOL    HW235154   4.371   0.844   2.283 -0.1873 -0.5892  1.6811
 7899SOL     OW35155   0.917   3.946   7.703 -0.2755 -0.1644  1.2194
 7899SOL    HW135156   0.953   3.888   7.769 -0.8811 -1.9308  0.0080
 7899SOL    HW235157   0.972   4.024   7.714  0.5329 -0.6488  0.6093
 7900SOL     OW35158   1.686   3.726   5.462  0.6308 -0.3865 -0.2088
 7900SOL    HW135159   1.598   3.687   5.468 -0.0808  1.1385 -0.8857
 7900SOL    HW235160   1.731   3.665   5.521 -0.6670 -0.1695  1.0119
 7901SOL     OW35161   2.490   4.102  11.471 -0.3238  0.0585  0.4917
 7901SOL    HW135162   2.528   4.016  11.455 -1.6885 -0.3988 -0.2757
 7901SOL    HW235163   2.527   4.151  11.398 -0.1779  0.1870  0.6503
 7902SOL     OW35164   1.638   0.668   3.849  0.0107 -0.3910  0.5847
 7902SOL    HW135165   1.598   0.625   3.773 -1.3306  2.5493 -0.3832
 7902SOL    HW235166   1.570   0.653   3.915 -1.9578  2.7999 -0.7417
 7903SOL     OW35167   3.127   4.330   2.751  0.2155  0.5672 -0.1973
 7903SOL    HW135168   3.208   4.281   2.738 -0.7584 -1.2233  0.4946
 7903SOL    HW235169   3.116   4.360   2.660 -0.2645 -2.4334 -1.1251
 7904SOL     OW35170   1.183   4.453   6.772  0.1926 -0.3619 -0.0833
 7904SOL    HW135171   1.221   4.538   6.750  1.5129  0.0790  3.7682
 7904SOL    HW235172   1.264   4.407   6.793 -1.2959 -3.3611 -1.0362
 7905SOL     OW35173   2.650   2.100  12.845 -0.3112  0.5904  0.0634
 7905SOL    HW135174   2.722   2.072  12.902  0.3305  0.3392 -0.8777
 7905SOL    HW235175   2.611   2.013  12.832 -0.4139  0.5579  0.5810
 7906SOL     OW35176   4.047   3.613   2.062  0.1931  0.5628  0.3625
 7906SOL    HW135177   4.029   3.694   2.014 -2.5109 -0.7049 -0.7691
 7906SOL    HW235178   4.141   3.625   2.073 -0.4344  3.1592  2.8982
 7907SOL     OW35179   4.547   2.007   4.035  0.1484  0.5149  0.2725
 7907SOL    HW135180   4.617   1.978   4.092 -0.1504 -1.0373 -0.1457
 7907SOL    HW235181   4.475   1.983   4.094 -1.6059 -0.2310 -2.1502
 7908SOL     OW35182   0.857   1.487  16.836  0.1465  0.1497  0.1534
 7908SOL    HW135183   0.781   1.505  16.780  0.8540 -0.1040 -0.8940
 7908SOL    HW235184   0.814   1.485  16.921 -0.9653 -0.5689 -0.4323
 7909SOL     OW35185   1.600   4.707   6.902  0.0035  0.9314 -0.0082
 7909SOL    HW135186   1.561   4.632   6.949 -0.3221  0.7681 -0.5331
 7909SOL    HW235187   1.596   0.055   6.968 -0.2868 -1.3899  2.3894
 7910SOL     OW35188   2.804   0.023  11.020  0.3784 -0.1061  0.1203
 7910SOL    HW135189   2.871   0.092  11.016  1.7594 -1.5978 -2.6771
 7910SOL    HW235190   2.724   0.068  11.044 -0.8344 -2.3247  0.2069
 7911SOL     OW35191   0.713   3.113  13.463 -0.2774 -0.1101  0.5333
 7911SOL    HW135192   0.620   3.091  13.452  0.2822 -2.4726  0.5232
 7911SOL    HW235193   0.711   3.160  13.546 -0.2734  0.4957  0.1915
 7912SOL     OW35194   0.827   2.155  10.336 -0.2402 -0.2103 -0.9995
 7912SOL    HW135195   0.854   2.228  10.281  0.7655  0.5460  0.4955
 7912SOL    HW235196   0.847   2.196  10.420  2.2852  1.2295 -2.2822
 7913SOL     OW35197   3.808   4.294   4.033  0.4205  0.2964 -0.8141
 7913SOL    HW135198   3.880   4.356   4.046  0.0028  0.7497 -0.6753
 7913SOL    HW235199   3.809   4.305   3.938  1.7235  1.8497 -0.6154
 7914SOL     OW35200   3.335   0.307   5.938  0.1285  0.1821 -0.0363
 7914SOL    HW135201   3.329   0.317   6.033 -0.5654  2.4913 -0.3400
 7914SOL    HW235202   3.344   0.213   5.919  3.0505  0.6006 -0.5666
 7915SOL     OW35203   0.839   0.183   3.594 -0.1268 -0.3142  0.7948
 7915SOL    HW135204   0.920   0.219   3.558 -1.1855 -1.1209 -2.3533
 7915SOL    HW235205   0.811   0.252   3.653 -2.6173 -0.2381 -0.4806
 7916SOL     OW35206   2.627   4.349  13.450 -0.3211 -0.0870  0.1642
 7916SOL    HW135207   2.545   4.394  13.429  0.0133  0.7583  0.6465
 7916SOL    HW235208   2.632   4.292  13.374 -3.5486 -0.8375  0.5047
 7917SOL     OW35209   0.505   2.261   8.132  0.1244  0.4220  0.3212
 7917SOL    HW135210   0.598   2.243   8.140  0.5481  2.5648  0.1999
 7917SOL    HW235211   0.471   2.184   8.087  1.6360 -0.9603  1.5757
 7918SOL     OW35212   2.938   3.016   1.755 -0.3938  0.5816 -0.0217
 7918SOL    HW135213   2.989   3.006   1.835  0.4815  0.3019 -0.6145
 7918SOL    HW235214   2.871   2.951   1.774 -0.6628  0.4974 -1.2412
 7919SOL     OW35215   4.301   3.316   1.842  0.3742 -0.6538  0.2493
 7919SOL    HW135216   4.207   3.296   1.842 -0.0465  1.2892  0.7223
 7919SOL    HW235217   4.299   3.404   1.804 -0.8891 -0.7354  0.1300
 7920SOL     OW35218   4.136   2.591   6.973  0.6506  0.3951 -0.3197
 7920SOL    HW135219   4.152   2.638   7.054 -0.9703  0.9782 -0.3354
 7920SOL    HW235220   4.131   2.501   7.005 -1.6133  0.5649 -0.1583
 7921SOL     OW35221   4.482   2.324   6.460  0.2222  0.0544  0.0336
 7921SOL    HW135222   4.484   2.283   6.374  0.4015 -0.9200  0.5008
 7921SOL    HW235223   4.566   2.369   6.464 -0.0292  0.5209  0.0158
 7922SOL     OW35224   1.765   3.592  11.602  0.1520  0.3184  0.3913
 7922SOL    HW135225   1.773   3.654  11.530  1.6989 -1.5780 -1.0685
 7922SOL    HW235226   1.670   3.593  11.619  0.4802 -2.0650  2.5264
 7923SOL     OW35227   2.069   1.126   4.363  0.3186  0.2361  0.3515
 7923SOL    HW135228   2.026   1.102   4.281  0.8246  1.1868 -0.1892
 7923SOL    HW235229   2.013   1.078   4.424 -2.1191  4.0288  1.1203
 7924SOL     OW35230   2.452   0.867  14.564  0.0763  0.2158 -0.2182
 7924SOL    HW135231   2.512   0.938  14.543 -1.1184  1.4285  0.4391
 7924SOL    HW235232   2.410   0.858  14.479  0.5555 -3.6896 -0.0494
 7925SOL     OW35233   0.123   4.484   8.356  0.4228  0.7503  0.1590
 7925SOL    HW135234   0.172   4.508   8.434  0.3376 -1.3607  0.8606
 7925SOL    HW235235   0.178   4.410   8.330  0.4742  1.4118 -1.5926
 7926SOL     OW35236   1.299   1.059  11.400  0.2793  0.0831  0.4879
 7926SOL    HW135237   1.214   1.042  11.441  0.7066  1.3516  1.8630
 7926SOL    HW235238   1.301   0.969  11.367  0.4683  1.0388 -2.1401
 7927SOL     OW35239   3.308   1.093  11.171 -0.5210 -0.3435 -0.2590
 7927SOL    HW135240   3.240   1.027  11.181 -1.1089  0.2117 -0.6120
 7927SOL    HW235241   3.374   1.041  11.125  0.5348  1.1831 -0.4905
 7928SOL     OW35242   4.205   0.829  11.582  0.0647  0.1759  0.0018
 7928SOL    HW135243   4.201   0.925  11.586 -0.5131  0.1770 -0.6256
 7928SOL    HW235244   4.113   0.811  11.564  0.3308 -1.9880  0.8768
 7929SOL     OW35245   3.006   3.862  10.727  0.1233  0.5050 -0.5489
 7929SOL    HW135246   2.991   3.861  10.822  0.1698 -1.3040 -0.5566
 7929SOL    HW235247   2.955   3.941  10.709 -0.7382 -0.3157 -1.6808
 7930SOL     OW35248   2.084   2.780  10.953  0.3255 -0.2314  0.3742
 7930SOL    HW135249   2.149   2.727  10.908 -0.5900  0.6721 -2.0216
 7930SOL    HW235250   2.109   2.780  11.046 -0.4137 -1.1831  0.5732
 7931SOL     OW35251   3.959   3.315   6.246 -0.1434  0.5404 -0.0625
 7931SOL    HW135252   3.978   3.331   6.338 -1.0597 -0.1804  0.2482
 7931SOL    HW235253   4.031   3.255   6.225  0.3450  1.0365  0.1851
 7932SOL     OW35254   3.420   0.177   6.478  0.2852 -0.3700 -0.3216
 7932SOL    HW135255   3.368   0.203   6.554 -2.7725 -1.0538 -2.1800
 7932SOL    HW235256   3.481   0.251   6.479  0.5416 -0.6050  1.0557
 7933SOL     OW35257   1.455   1.671   5.124  0.2476 -0.2932  0.2654
 7933SOL    HW135258   1.409   1.592   5.096  0.2049 -0.4518  0.7798
 7933SOL    HW235259   1.385   1.736   5.112  0.4759  0.1153  1.1707
 7934SOL     OW35260   0.092   2.588   7.470 -0.3100  0.0859  0.2970
 7934SOL    HW135261   0.086   2.673   7.514 -1.5174 -0.3865  1.0417
 7934SOL    HW235262   0.185   2.585   7.449 -0.3898 -0.1998 -0.0216
 7935SOL     OW35263   3.357   4.175   7.467  0.4606 -0.2016  0.3461
 7935SOL    HW135264   3.262   4.162   7.472  0.4177 -0.1729 -0.3657
 7935SOL    HW235265   3.382   4.108   7.531  1.0028  0.1786  0.5286
 7936SOL     OW35266   0.411   4.584  15.939 -0.7922 -0.5295  0.5972
 7936SOL    HW135267   0.355   4.613  16.011  0.3192  1.0902  0.8174
 7936SOL    HW235268   0.364   4.504  15.917  0.8533 -1.5248  0.7598
 7937SOL     OW35269   3.249   4.239   8.229  0.0129 -0.3273 -0.0658
 7937SOL    HW135270   3.224   4.240   8.322 -3.2384 -2.8247 -0.9005
 7937SOL    HW235271   3.329   4.291   8.225 -0.7992  0.9314  0.0383
 7938SOL     OW35272   0.932   4.154  10.415  0.3267 -0.2529  0.1827
 7938SOL    HW135273   0.987   4.086  10.453  2.5073  0.6195 -1.4045
 7938SOL    HW235274   0.841   4.126  10.427  0.3736 -0.8180 -0.7626
 7939SOL     OW35275   3.359   4.618   7.725  0.3381 -0.9652  0.3769
 7939SOL    HW135276   3.388   4.535   7.764 -0.5828 -2.1098 -1.3549
 7939SOL    HW235277   3.273   4.637   7.761 -1.2083 -0.5802 -3.6066
 7940SOL     OW35278   1.451   3.464  16.593  0.0902  0.1506 -0.0797
 7940SOL    HW135279   1.511   3.432  16.525  1.9813 -1.0547  2.1448
 7940SOL    HW235280   1.488   3.425  16.673 -2.1850  1.1291  1.4469
 7941SOL     OW35281   0.445   1.608   9.582  0.2808 -0.2487 -1.2255
 7941SOL    HW135282   0.360   1.646   9.604  0.4435 -1.3218  1.2943
 7941SOL    HW235283   0.496   1.688   9.572  0.2955 -0.3035 -1.5662
 7942SOL     OW35284   0.328   1.227   6.172 -0.2305 -0.1352 -0.0329
 7942SOL    HW135285   0.289   1.170   6.105  1.6208 -0.7840 -0.5418
 7942SOL    HW235286   0.413   1.187   6.154 -1.8810 -3.4174 -0.6892
 7943SOL     OW35287   2.597   1.241   6.925  0.0298 -0.3971  0.0344
 7943SOL    HW135288   2.678   1.283   6.897  0.3409 -0.5200  0.7570
 7943SOL    HW235289   2.580   1.295   7.002 -0.9529 -1.8442  0.8571
 7944SOL     OW35290   2.848   4.109  11.017  0.1874 -0.6093 -0.3780
 7944SOL    HW135291   2.849   4.020  10.982  0.2086  0.8922 -4.2486
 7944SOL    HW235292   2.936   4.142  10.998  1.0147 -1.5227  1.9276
 7945SOL     OW35293   3.791   1.703  10.230  0.3375  0.2793 -0.0680
 7945SOL    HW135294   3.753   1.632  10.282  0.5735 -0.1389 -0.4613
 7945SOL    HW235295   3.824   1.768  10.292  1.2974 -1.4170  1.2181
 7946SOL     OW35296   3.550   0.131  13.918 -0.0609 -0.2076 -0.6545
 7946SOL    HW135297   3.574   0.099  14.005  1.0151 -1.1716 -1.3023
 7946SOL    HW235298   3.535   0.225  13.923  0.1056 -0.1149 -1.9808
 7947SOL     OW35299   0.358   1.453   8.626 -0.4434  0.5360  0.3746
 7947SOL    HW135300   0.329   1.362   8.624 -1.6586  0.9203  0.0972
 7947SOL    HW235301   0.277   1.502   8.645 -0.4022  0.3326  1.0762
 7948SOL     OW35302   1.995   3.041  13.341  0.5900  0.0323  0.1237
 7948SOL    HW135303   2.029   3.094  13.414  2.8149 -0.6257 -0.4180
 7948SOL    HW235304   2.056   3.062  13.270 -0.1394  0.5671 -0.3453
 7949SOL     OW35305   1.249   1.670   7.141  0.0544 -0.5532 -0.2069
 7949SOL    HW135306   1.274   1.595   7.195 -0.5621 -1.1386 -0.7400
 7949SOL    HW235307   1.239   1.726   7.219 -0.6768  0.2467 -0.8791
 7950SOL     OW35308   4.268   2.345  11.746  0.2126 -0.1059 -0.2646
 7950SOL    HW135309   4.312   2.333  11.830  2.3281  0.2824 -1.3238
 7950SOL    HW235310   4.191   2.288  11.755 -0.1706  0.8794  2.6177
 7951SOL     OW35311   1.908   0.490   7.558  0.5412 -0.4781  0.1133
 7951SOL    HW135312   1.883   0.428   7.489  0.4836  2.0842 -2.1756
 7951SOL    HW235313   1.860   0.451   7.631  1.4976  0.9971  1.5134
 7952SOL     OW35314   4.077   4.409   9.093 -0.2864  0.3910  0.2619
 7952SOL    HW135315   4.012   4.439   9.156  1.4870  1.3544  1.6123
 7952SOL    HW235316   4.029   4.360   9.026 -1.4994  2.1871 -0.2074
 7953SOL     OW35317   1.611   0.633  15.976  0.1929 -0.4674  0.3948
 7953SOL    HW135318   1.530   0.625  15.926 -0.1412 -2.4808  1.2976
 7953SOL    HW235319   1.676   0.608  15.911  0.0181  1.9258 -0.7283
 7954SOL     OW35320   3.132   4.154   4.237 -0.8399  0.1030 -0.0095
 7954SOL    HW135321   3.145   4.245   4.263  1.2308 -0.1377 -0.2126
 7954SOL    HW235322   3.091   4.173   4.153  1.9537 -0.6034 -1.5286
 7955SOL     OW35323   3.408   3.500   3.331  0.6427  0.3510 -0.1037
 7955SOL    HW135324   3.499   3.470   3.324  0.9536  1.0290  1.2174
 7955SOL    HW235325   3.377   3.415   3.299  3.3450 -0.1192 -1.5188
 7956SOL     OW35326   3.116   1.648  15.902 -0.3173  0.0219  0.6381
 7956SOL    HW135327   3.114   1.654  15.806 -0.0888  0.5614  0.6647
 7956SOL    HW235328   3.151   1.732  15.933 -0.4564  0.1147  0.5440
 7957SOL     OW35329   0.646   1.364   7.074  0.6585 -0.0443  0.0880
 7957SOL    HW135330   0.586   1.294   7.098 -0.8429  1.2314  0.0550
 7957SOL    HW235331   0.630   1.421   7.149  0.2627 -0.4055  0.2748
 7958SOL     OW35332   0.181   0.742   3.865  0.3615  0.2743 -0.0123
 7958SOL    HW135333   0.258   0.768   3.814  0.0859 -0.2485 -0.7008
 7958SOL    HW235334   0.143   0.674   3.809 -0.1912 -0.2030  0.9423
 7959SOL     OW35335   3.512   4.203   8.533  0.2366  0.1357  0.1794
 7959SOL    HW135336   3.581   4.257   8.495  0.4101 -1.2967 -1.5556
 7959SOL    HW235337   3.430   4.248   8.511  0.7104 -0.0672 -1.9903
 7960SOL     OW35338   3.349   0.337   6.682  0.0246 -0.3583  0.2236
 7960SOL    HW135339   3.281   0.318   6.747  0.3295 -0.6246  0.4667
 7960SOL    HW235340   3.423   0.354   6.740 -1.3652  2.2149  1.2047
 7961SOL     OW35341   0.089   2.122   0.628 -0.4610 -0.3148 -0.1582
 7961SOL    HW135342   0.157   2.081   0.682 -1.3382  0.6271  1.6646
 7961SOL    HW235343   0.029   2.165   0.688 -0.5409  1.1025 -1.2562
 7962SOL     OW35344   0.175   0.719  10.261 -0.4514  0.6542 -0.3969
 7962SOL    HW135345   0.097   0.765  10.231 -1.1152 -0.5473 -0.5270
 7962SOL    HW235346   0.224   0.694  10.183 -1.0141 -1.8682  0.0399
 7963SOL     OW35347   2.389   3.587   3.245 -0.3926 -0.0733 -0.1369
 7963SOL    HW135348   2.472   3.551   3.276 -0.5363  0.4083  0.8158
 7963SOL    HW235349   2.373   3.636   3.326  0.8919  0.0432  0.0420
 7964SOL     OW35350   1.926   0.367   4.972 -0.3117 -0.0671  0.0616
 7964SOL    HW135351   1.922   0.445   4.917  0.7118 -0.1932 -0.1789
 7964SOL    HW235352   1.856   0.385   5.035  0.4245  0.6650  0.6602
 7965SOL     OW35353   3.992   3.365   6.803 -0.5855  0.3438 -0.8402
 7965SOL    HW135354   3.998   3.271   6.821  0.7287  0.1759 -2.1700
 7965SOL    HW235355   4.047   3.398   6.873 -1.4483  2.4779 -1.1620
 7966SOL     OW35356   1.841   4.332   0.825 -0.4227 -0.2477  0.5099
 7966SOL    HW135357   1.756   4.370   0.800 -0.3797 -1.0275 -0.8143
 7966SOL    HW235358   1.845   4.264   0.758  0.9006 -1.5186  1.8781
 7967SOL     OW35359   2.216   2.499   7.325  0.4079  0.0790 -0.6655
 7967SOL    HW135360   2.246   2.463   7.242  0.3395  1.1438 -1.1481
 7967SOL    HW235361   2.130   2.539   7.314  0.0654 -1.2903 -2.8239
 7968SOL     OW35362   4.508   1.704   7.807  0.6968  0.7273 -0.2343
 7968SOL    HW135363   4.505   1.660   7.891  0.5688  1.2688  0.0452
 7968SOL    HW235364   4.560   1.780   7.831  0.6366  0.1170  1.7822
 7969SOL     OW35365   4.215   1.669  12.947 -0.2303 -0.2662 -0.0195
 7969SOL    HW135366   4.221   1.669  12.851  1.2333 -1.1839  0.0679
 7969SOL    HW235367   4.129   1.629  12.961  0.5339 -2.4761 -1.7282
 7970SOL     OW35368   0.454   3.848   4.973  0.1441 -0.0024 -0.1090
 7970SOL    HW135369   0.428   3.841   5.065  0.8471  2.3733  0.2745
 7970SOL    HW235370   0.531   3.790   4.965 -0.2851 -0.8267  1.8047
 7971SOL     OW35371   2.015   2.842   5.128 -0.2878  0.0118 -0.4028
 7971SOL    HW135372   2.048   2.850   5.218  0.8147  0.1759 -0.8292
 7971SOL    HW235373   1.924   2.871   5.136 -0.3493 -1.0791  2.8524
 7972SOL     OW35374   3.459   2.199   8.930  0.7662  0.0551 -0.2798
 7972SOL    HW135375   3.534   2.207   8.988 -1.0875  0.4959  2.0684
 7972SOL    HW235376   3.503   2.186   8.846  1.7253  2.3981 -0.1467
 7973SOL     OW35377   4.266   0.384   4.945 -0.2899  0.0281 -0.0282
 7973SOL    HW135378   4.197   0.435   4.903 -1.6353 -0.0183  2.1015
 7973SOL    HW235379   4.284   0.462   4.998  0.6434  0.6328 -1.2428
 7974SOL     OW35380   2.494   1.452  15.102 -0.2640  0.0270  0.2811
 7974SOL    HW135381   2.521   1.382  15.044 -2.3139 -0.7268  0.2208
 7974SOL    HW235382   2.553   1.454  15.178 -1.2924 -0.8140  1.1103
 7975SOL     OW35383   0.822   1.487  16.035 -0.2725 -0.2824 -0.8415
 7975SOL    HW135384   0.797   1.420  16.099 -0.0048  0.0522 -0.3906
 7975SOL    HW235385   0.882   1.544  16.082 -1.1746  1.9711 -2.4346
 7976SOL     OW35386   2.737   0.747   8.233 -0.0783 -0.2450  0.2690
 7976SOL    HW135387   2.644   0.733   8.215 -0.0308 -1.4382  0.9634
 7976SOL    HW235388   2.725   0.825   8.287 -0.7101 -1.5517  2.0395
 7977SOL     OW35389   2.695   3.327   2.347  0.4352 -0.1546  0.4419
 7977SOL    HW135390   2.640   3.344   2.423 -1.5666 -2.5603 -0.4468
 7977SOL    HW235391   2.756   3.400   2.343  0.7787 -0.3912  1.4081
 7978SOL     OW35392   2.260   2.430  14.323 -0.3072  0.1986  0.4772
 7978SOL    HW135393   2.337   2.458  14.372  0.6992  0.2739 -1.1330
 7978SOL    HW235394   2.305   2.373  14.261 -1.4594 -0.2228  0.0292
 7979SOL     OW35395   3.766   3.279   2.607 -0.5807 -0.0442 -0.6331
 7979SOL    HW135396   3.704   3.298   2.537 -0.2354  0.6681 -0.7464
 7979SOL    HW235397   3.734   3.314   2.691 -1.3663 -2.3915  0.0586
 7980SOL     OW35398   0.887   4.200  12.280 -0.2836 -0.1801  0.1153
 7980SOL    HW135399   0.938   4.238  12.351  0.3174  0.3908 -0.6344
 7980SOL    HW235400   0.951   4.152  12.226 -0.5950 -0.6051  0.1165
 7981SOL     OW35401   1.836   2.419   3.842 -0.2143 -0.0114 -0.3780
 7981SOL    HW135402   1.899   2.356   3.808 -0.8364  0.1738 -1.8743
 7981SOL    HW235403   1.895   2.476   3.892 -0.3229  0.2926 -0.5892
 7982SOL     OW35404   2.547   0.180   6.092  0.4489  0.2611 -0.1210
 7982SOL    HW135405   2.599   0.104   6.118  0.0178 -0.2988 -0.9033
 7982SOL    HW235406   2.501   0.205   6.171  1.1540 -1.2398  0.7768
 7983SOL     OW35407   3.608   2.359   3.321 -0.2046  0.4412 -0.0269
 7983SOL    HW135408   3.529   2.336   3.272 -0.4407  0.7516  0.2024
 7983SOL    HW235409   3.680   2.322   3.271  0.1936  1.0944  0.0565
 7984SOL     OW35410   1.383   0.784  13.144 -0.3038  0.7883 -0.3888
 7984SOL    HW135411   1.432   0.764  13.224  1.4904  1.1026 -1.4139
 7984SOL    HW235412   1.362   0.873  13.171  1.2697  0.2247  2.5974
 7985SOL     OW35413   2.705   0.609  15.164  0.1520  0.2021 -0.0015
 7985SOL    HW135414   2.669   0.686  15.208  0.5337 -0.5722  1.6581
 7985SOL    HW235415   2.724   0.654  15.082  0.5869  1.0235  0.5547
 7986SOL     OW35416   3.106   3.838   3.628 -0.5399 -0.0027 -0.0542
 7986SOL    HW135417   3.147   3.765   3.581 -1.2656  0.8789 -2.0640
 7986SOL    HW235418   3.178   3.848   3.690  0.6178  1.8393 -1.7112
 7987SOL     OW35419   2.958   0.506   7.877 -0.1794 -0.3307 -0.4059
 7987SOL    HW135420   2.968   0.500   7.782  0.3958  1.5650 -0.4692
 7987SOL    HW235421   2.948   0.414   7.903  0.7201  0.2036  1.8474
 7988SOL     OW35422   2.144   0.874   5.345  0.3276  0.6114 -0.2730
 7988SOL    HW135423   2.082   0.801   5.346 -0.1958  1.0666  0.6215
 7988SOL    HW235424   2.152   0.890   5.439  0.5387 -0.6222 -0.0731
 7989SOL     OW35425   3.875   1.723   4.321 -0.4277  0.1695 -0.0457
 7989SOL    HW135426   3.956   1.689   4.360 -0.0437 -0.0495 -1.0317
 7989SOL    HW235427   3.897   1.726   4.228  2.4110 -0.6147  0.5840
 7990SOL     OW35428   3.130   1.226   9.538 -0.6376 -0.3665 -0.1417
 7990SOL    HW135429   3.066   1.225   9.608  0.6949  1.0550  1.1202
 7990SOL    HW235430   3.214   1.218   9.584 -0.4660  1.5497 -0.0892
 7991SOL     OW35431   2.831   2.472   1.850  0.1563  0.9114  0.0117
 7991SOL    HW135432   2.849   2.476   1.756  1.5127 -1.4270  0.1607
 7991SOL    HW235433   2.875   2.546   1.890  2.5016 -0.1752 -0.5335
 7992SOL     OW35434   3.314   0.070   8.272 -0.4106  0.1241 -0.4628
 7992SOL    HW135435   3.378   0.047   8.204 -1.0044 -0.9323 -0.6550
 7992SOL    HW235436   3.370   0.064   8.349 -2.2227 -1.9213  0.6797
 7993SOL     OW35437   4.346   2.930   4.919 -0.3420  0.1359 -0.0953
 7993SOL    HW135438   4.292   2.877   4.977  0.8024 -2.0859 -1.0495
 7993SOL    HW235439   4.299   2.928   4.835 -3.2120  0.1003  1.5269
 7994SOL     OW35440   3.140   4.234  11.219  0.2791  0.4547  0.1860
 7994SOL    HW135441   3.210   4.173  11.241 -0.3823 -0.7623 -1.0445
 7994SOL    HW235442   3.131   4.211  11.127 -1.4464 -0.4832  0.5919
 7995SOL     OW35443   2.355   1.340  11.824 -0.4175  0.4739  0.1828
 7995SOL    HW135444   2.307   1.385  11.755  2.1933  3.1395  0.1244
 7995SOL    HW235445   2.334   1.392  11.901  0.7254  0.5542  0.4445
 7996SOL     OW35446   1.407   2.085   0.729 -0.1069  0.0075 -0.0958
 7996SOL    HW135447   1.485   2.139   0.721  0.5240 -1.1188 -1.4328
 7996SOL    HW235448   1.444   1.998   0.713 -0.1344 -0.0894  0.3457
 7997SOL     OW35449   2.161   4.313   0.216  0.0749 -0.2310  0.8409
 7997SOL    HW135450   2.150   4.282   0.126 -0.6637 -0.4672  1.0125
 7997SOL    HW235451   2.252   4.290   0.236 -0.1643 -0.9637  1.0829
 7998SOL     OW35452   2.901   4.679   9.004 -0.0982 -0.1210 -0.0412
 7998SOL    HW135453   2.817   4.633   9.008 -0.3468  0.2272 -1.3576
 7998SOL    HW235454   2.941   4.637   9.080  0.1164  1.3093  0.6163
 7999SOL     OW35455   2.471   0.526   1.581 -0.2077  0.7497  0.1368
 7999SOL    HW135456   2.470   0.528   1.676 -0.2014 -0.0225  0.1563
 7999SOL    HW235457   2.459   0.433   1.559 -0.5847  0.9470 -0.4862
 8000SOL     OW35458   1.671   2.200   9.851  0.1913 -0.3736  0.4671
 8000SOL    HW135459   1.584   2.161   9.849 -1.2644  2.8177  1.4032
 8000SOL    HW235460   1.666   2.281   9.801  2.0241 -0.6465 -0.1383
 8001SOL     OW35461   1.750   2.657   1.691 -0.0116 -0.9279 -0.3412
 8001SOL    HW135462   1.754   2.571   1.732  1.4387 -0.7654 -0.1665
 8001SOL    HW235463   1.791   2.652   1.605 -0.6357  2.1585 -0.8120
 8002SOL     OW35464   0.124   2.640   4.458 -0.0834  0.0228  0.2897
 8002SOL    HW135465   0.213   2.636   4.492 -0.1269  0.1740  0.4173
 8002SOL    HW235466   0.096   2.719   4.504 -1.7598 -0.6724  0.4914
 8003SOL     OW35467   1.445   0.711   3.046  0.2836  0.5181 -0.4091
 8003SOL    HW135468   1.515   0.738   3.106 -0.4738  0.9284  0.2808
 8003SOL    HW235469   1.436   0.789   2.991 -2.0087 -0.6832 -1.7139
 8004SOL     OW35470   3.369   3.229   9.346 -0.0678 -0.5060 -0.6025
 8004SOL    HW135471   3.440   3.188   9.297  0.9132  1.1070 -0.5447
 8004SOL    HW235472   3.350   3.154   9.403  1.7819 -0.7583 -0.3076
 8005SOL     OW35473   1.702   1.157   1.771  0.1809  0.1093 -0.1146
 8005SOL    HW135474   1.671   1.124   1.687  2.4957 -2.5306  0.0775
 8005SOL    HW235475   1.743   1.241   1.752  1.3048 -0.0175  1.7527
 8006SOL     OW35476   4.503   3.908   6.130  0.5010  0.3028  0.4679
 8006SOL    HW135477   4.514   3.818   6.160  0.5680 -0.1817 -1.0213
 8006SOL    HW235478   4.553   3.950   6.200  2.0796  1.4302 -1.3345
 8007SOL     OW35479   3.416   3.841  10.747  0.6761  0.1197 -0.4741
 8007SOL    HW135480   3.356   3.780  10.704 -0.4260  0.5256  0.4939
 8007SOL    HW235481   3.501   3.803  10.723 -0.8426 -2.9941 -0.7804
 8008SOL     OW35482   2.457   1.091  11.796 -0.4847 -0.6548 -0.1973
 8008SOL    HW135483   2.553   1.092  11.792 -0.5272  0.2599 -1.0272
 8008SOL    HW235484   2.438   1.185  11.789 -0.5211 -0.7816 -1.8040
 8009SOL     OW35485   4.484   3.699   8.943  0.0603 -0.6843  0.1384
 8009SOL    HW135486   4.552   3.666   9.002  0.8336  0.8108  0.0873
 8009SOL    HW235487   4.426   3.624   8.952  0.3478 -1.0040 -0.6829
 8010SOL     OW35488   0.851   2.252   2.587  0.4013 -0.3230 -0.7742
 8010SOL    HW135489   0.775   2.233   2.531 -0.2536  0.5431 -0.1731
 8010SOL    HW235490   0.883   2.166   2.617 -0.9892  0.5137  3.1459
 8011SOL     OW35491   2.566   2.133   3.658  0.0174 -0.3907  0.4460
 8011SOL    HW135492   2.588   2.101   3.571 -0.3230 -0.6182  0.4436
 8011SOL    HW235493   2.471   2.138   3.652  0.0716 -0.1050 -0.1370
 8012SOL     OW35494   1.353   3.760  15.260  0.1845 -0.0345  0.2289
 8012SOL    HW135495   1.435   3.805  15.280 -0.4801  0.6999  1.2846
 8012SOL    HW235496   1.384   3.676  15.226 -1.7992  0.4965 -2.9467
 8013SOL     OW35497   3.292   2.148   6.801 -0.5698 -0.1240  0.1202
 8013SOL    HW135498   3.334   2.074   6.757 -2.4643  0.1568 -2.1363
 8013SOL    HW235499   3.317   2.128   6.892  0.2175  2.7997  0.5706
 8014SOL     OW35500   4.501   2.817   7.178  0.5708 -1.1035  0.4307
 8014SOL    HW135501   4.527   2.729   7.206  1.8295 -0.2067  2.1470
 8014SOL    HW235502   4.457   2.802   7.095 -0.4704 -0.5696  0.8852
 8015SOL     OW35503   0.674   3.216   2.649 -0.2933  0.0540 -0.2386
 8015SOL    HW135504   0.659   3.204   2.556  1.3228  0.9888 -0.6216
 8015SOL    HW235505   0.756   3.265   2.655  1.1395 -2.3046 -0.5059
 8016SOL     OW35506   0.544   1.787   0.870 -0.1035  0.2276  0.4211
 8016SOL    HW135507   0.543   1.771   0.964 -0.1243 -1.4644  0.1301
 8016SOL    HW235508   0.476   1.724   0.845  1.0450 -0.4136 -1.0643
 8017SOL     OW35509   1.194   2.028  13.598  0.3903  0.2198  0.8868
 8017SOL    HW135510   1.220   1.936  13.604 -1.4535 -0.4071 -0.6260
 8017SOL    HW235511   1.271   2.066  13.556 -0.6636  1.5383  0.1095
 8018SOL     OW35512   0.503   1.529   8.400 -0.5897 -0.5518  0.3438
 8018SOL    HW135513   0.465   1.500   8.483 -1.1493 -3.7848 -1.0398
 8018SOL    HW235514   0.421   1.564   8.363  0.4739  1.7613  0.1775
 8019SOL     OW35515   2.545   3.232   1.074  0.3117 -0.0038  0.1367
 8019SOL    HW135516   2.589   3.239   1.159 -0.9846 -1.6617  0.9538
 8019SOL    HW235517   2.590   3.296   1.020 -0.1665  0.8080  0.6889
 8020SOL     OW35518   0.474   1.091   8.375 -0.5445 -0.0509  0.0978
 8020SOL    HW135519   0.530   1.154   8.421 -0.0116 -1.2780  1.1445
 8020SOL    HW235520   0.523   1.012   8.398  1.2985  0.8769 -0.6529
 8021SOL     OW35521   3.695   4.615  14.650 -0.1249  0.5185  0.1388
 8021SOL    HW135522   3.654   4.555  14.587  2.1277 -2.0219  1.1012
 8021SOL    HW235523   3.652   4.597  14.733 -0.3417 -0.0566 -0.0948
 8022SOL     OW35524   3.892   1.100  13.865  0.0819 -0.0323 -0.0992
 8022SOL    HW135525   3.899   1.193  13.841 -0.5513 -0.2013 -0.9250
 8022SOL    HW235526   3.892   1.100  13.961 -0.9896  1.8018 -0.0806
 8023SOL     OW35527   0.762   4.506  13.125 -0.3480 -0.1289  0.6826
 8023SOL    HW135528   0.840   4.523  13.178 -0.9727  0.5741  1.3654
 8023SOL    HW235529   0.742   4.415  13.146  1.6160 -0.9923 -1.1259
 8024SOL     OW35530   0.738   1.060   2.221 -0.3606  0.0896 -0.3266
 8024SOL    HW135531   0.702   1.022   2.301 -0.5312  3.6225  1.2350
 8024SOL    HW235532   0.795   0.985   2.202 -0.9101  0.1737 -2.3432
 8025SOL     OW35533   3.562   0.556  13.737 -0.1983  0.8774 -0.7888
 8025SOL    HW135534   3.602   0.591  13.816 -0.1312  0.0297 -0.4556
 8025SOL    HW235535   3.493   0.501  13.775  0.9027  0.7614  1.0133
 8026SOL     OW35536   0.821   3.765  10.662 -0.0996 -0.2915  0.0096
 8026SOL    HW135537   0.853   3.780  10.573  1.5869 -2.3280  0.2808
 8026SOL    HW235538   0.840   3.847  10.707  1.5303 -0.2783 -0.6986
 8027SOL     OW35539   3.823   3.904  16.469  0.1082 -0.6054  0.6122
 8027SOL    HW135540   3.815   3.822  16.422 -1.5966  0.2656 -0.6271
 8027SOL    HW235541   3.790   3.880  16.556  0.7965 -1.6544  0.5871
 8028SOL     OW35542   2.852   2.871   9.884 -0.1868  0.2871  0.1108
 8028SOL    HW135543   2.863   2.813   9.810  0.3619 -0.5143  0.8230
 8028SOL    HW235544   2.784   2.931   9.854  1.4791  2.3214  0.3984
 8029SOL     OW35545   0.202   3.774   2.760 -0.2650  0.2588  0.0979
 8029SOL    HW135546   0.203   3.750   2.853  2.0183  0.3432  0.0731
 8029SOL    HW235547   0.259   3.711   2.717 -1.0490 -0.6692  0.4032
 8030SOL     OW35548   0.595   1.433  10.247  0.0229  0.2935  0.0422
 8030SOL    HW135549   0.619   1.390  10.328 -2.3463 -2.5313 -0.7775
 8030SOL    HW235550   0.526   1.498  10.263 -0.0443 -0.1187  1.3594
 8031SOL     OW35551   3.938   0.541  17.652 -0.4152 -0.3334  0.2187
 8031SOL    HW135552   3.968   0.489   0.044 -1.6029 -0.3257  0.7012
 8031SOL    HW235553   3.845   0.519  17.658 -0.3917 -0.9000 -1.5773
 8032SOL     OW35554   1.539   2.118  13.256 -0.2347  0.1979 -0.2462
 8032SOL    HW135555   1.468   2.073  13.211 -1.1425  0.1889  1.2079
 8032SOL    HW235556   1.621   2.097  13.211 -1.4227 -4.0045 -0.3898
 8033SOL     OW35557   1.652   3.229   7.457  0.0040  0.4495  0.0043
 8033SOL    HW135558   1.726   3.190   7.411 -0.2629  2.5597 -2.2009
 8033SOL    HW235559   1.618   3.150   7.499  0.3598  0.4841  0.3620
 8034SOL     OW35560   3.422   3.233   7.627  0.2227 -0.3886 -0.7426
 8034SOL    HW135561   3.349   3.277   7.670 -0.2379 -2.0957  0.2214
 8034SOL    HW235562   3.416   3.258   7.535  1.1436 -1.4079 -1.0919
 8035SOL     OW35563   2.407   1.709   2.579  0.2221  0.7297 -0.1114
 8035SOL    HW135564   2.400   1.676   2.668 -1.4603  1.0478 -0.1274
 8035SOL    HW235565   2.314   1.720   2.559  1.1018  2.1798 -3.3681
 8036SOL     OW35566   1.455   0.525  15.601 -0.2445 -0.0423  0.0445
 8036SOL    HW135567   1.515   0.471  15.654  1.3627  0.2015 -1.5133
 8036SOL    HW235568   1.470   0.493  15.512 -0.1592  1.3814 -0.4529
 8037SOL     OW35569   0.461   1.588   8.844  0.3068  0.3153 -0.6442
 8037SOL    HW135570   0.488   1.508   8.890  2.0970  2.4737  2.0082
 8037SOL    HW235571   0.439   1.553   8.758  1.2854 -3.3951  0.5871
 8038SOL     OW35572   4.176   2.885  15.953  0.1997 -0.6319  1.3603
 8038SOL    HW135573   4.269   2.878  15.931 -0.0237 -0.4184  0.3351
 8038SOL    HW235574   4.167   2.975  15.986  0.5767  0.1042 -0.5118
 8039SOL     OW35575   2.542   1.681   1.890 -0.1641  0.0883 -0.4526
 8039SOL    HW135576   2.633   1.708   1.902  0.4569 -1.5713 -1.3917
 8039SOL    HW235577   2.556   1.593   1.857 -0.4396  0.4455 -1.5384
 8040SOL     OW35578   0.504   3.394   7.585 -0.1678  0.5754  0.1972
 8040SOL    HW135579   0.508   3.488   7.566  0.6637  0.3364 -0.7650
 8040SOL    HW235580   0.541   3.385   7.673 -0.1047  0.4096  0.1541
 8041SOL     OW35581   0.916   0.558   8.446  0.2342  0.0705 -0.0066
 8041SOL    HW135582   0.923   0.634   8.388 -2.1943 -1.2292 -2.0380
 8041SOL    HW235583   0.840   0.509   8.414 -1.4571  2.6028  0.0646
 8042SOL     OW35584   1.871   4.598   6.723 -0.3166 -0.0519 -0.1217
 8042SOL    HW135585   1.961   4.566   6.721 -0.3042 -0.0653  0.9233
 8042SOL    HW235586   1.850   4.613   6.815  0.4461 -0.4435  0.1168
 8043SOL     OW35587   0.387   0.586  14.207  0.3027 -0.1232 -0.0729
 8043SOL    HW135588   0.448   0.594  14.280  1.1223  2.0288 -0.9925
 8043SOL    HW235589   0.397   0.492  14.188 -2.6971 -0.3989 -0.2877
 8044SOL     OW35590   0.649   4.327   4.536 -0.0563 -0.7060  0.1805
 8044SOL    HW135591   0.727   4.271   4.534  1.0954  0.8576  0.9189
 8044SOL    HW235592   0.600   4.299   4.458  0.7431 -0.0407 -0.5598
 8045SOL     OW35593   3.501   0.976   4.334 -0.4055 -0.0411  0.5009
 8045SOL    HW135594   3.412   0.954   4.307 -0.9427  2.4805  0.1746
 8045SOL    HW235595   3.498   0.941   4.423  2.2947  0.7737  0.9129
 8046SOL     OW35596   3.184   1.657  17.682  0.0184  0.2216 -0.9090
 8046SOL    HW135597   3.089   1.662   0.007  0.1122  0.7685 -0.1897
 8046SOL    HW235598   3.203   1.575   0.043  2.3917  2.3904  2.0862
 8047SOL     OW35599   2.810   1.045   5.095 -0.7969  0.0566  0.1426
 8047SOL    HW135600   2.816   1.135   5.063  0.5975 -0.2599 -0.4755
 8047SOL    HW235601   2.715   1.035   5.101 -0.6630 -1.8550 -0.9680
 8048SOL     OW35602   0.934   1.445   3.583  0.0787  0.0692 -0.8067
 8048SOL    HW135603   0.902   1.492   3.505 -1.5585 -0.9378 -0.7311
 8048SOL    HW235604   0.921   1.357   3.549 -0.5026  0.4158 -1.4831
 8049SOL     OW35605   2.815   4.274   2.601 -0.2399 -0.2970 -0.4235
 8049SOL    HW135606   2.823   4.185   2.635 -0.5598  0.3216  1.2868
 8049SOL    HW235607   2.910   4.286   2.592 -0.2108 -0.1598  0.0374
 8050SOL     OW35608   3.798   2.002  10.063  0.7673  0.3418  0.3259
 8050SOL    HW135609   3.867   2.019  10.127  1.2592 -2.8379  0.6118
 8050SOL    HW235610   3.846   1.967   9.988  0.4740  0.4032  0.1078
 8051SOL     OW35611   2.515   3.831   0.114 -0.0810  0.3472 -0.1944
 8051SOL    HW135612   2.528   3.863   0.025  0.2375  5.2165  1.6069
 8051SOL    HW235613   2.428   3.864   0.136 -0.0091  0.1313  0.4155
 8052SOL     OW35614   4.223   0.111   5.394 -0.7108 -0.2207 -0.5347
 8052SOL    HW135615   4.298   0.141   5.445 -1.5286  0.8474  0.0399
 8052SOL    HW235616   4.249   0.140   5.306  0.2170 -1.6323 -0.7279
 8053SOL     OW35617   3.155   3.986   2.723  0.1476  0.4217  0.1521
 8053SOL    HW135618   3.216   4.017   2.790  0.2261  1.7438 -0.5212
 8053SOL    HW235619   3.208   4.030   2.656  1.4589 -0.9242  0.2982
 8054SOL     OW35620   1.004   0.856  16.156  0.1547  0.0219  0.0827
 8054SOL    HW135621   1.087   0.878  16.113 -0.0354 -1.7031 -1.1374
 8054SOL    HW235622   1.021   0.873  16.248 -0.3419 -0.5405  0.2768
 8055SOL     OW35623   1.977   2.105   5.947 -0.1694  0.3684  0.1881
 8055SOL    HW135624   1.887   2.092   5.917  0.1327 -1.2502 -0.0283
 8055SOL    HW235625   1.979   2.023   5.997  1.1783  0.2496 -0.0611
 8056SOL     OW35626   1.422   1.072   2.086  0.6909 -0.1683 -0.6605
 8056SOL    HW135627   1.440   1.163   2.111 -2.2675 -0.2270  1.7043
 8056SOL    HW235628   1.505   1.026   2.095 -0.0613 -0.7331  3.1401
 8057SOL     OW35629   4.060   2.431   6.173 -0.1071 -0.2837 -0.4133
 8057SOL    HW135630   4.066   2.525   6.191  0.7192 -0.2173 -1.0538
 8057SOL    HW235631   4.085   2.404   6.261  1.6019 -1.1538 -1.1712
 8058SOL     OW35632   2.130   4.591  12.480  0.1788 -0.1646  0.0536
 8058SOL    HW135633   2.161   4.504  12.506  0.6238  0.1231  0.4789
 8058SOL    HW235634   2.150   4.632  12.564  0.2945 -1.2982  0.5759
 8059SOL     OW35635   3.295   1.514  15.482 -0.0733 -0.1026 -0.4223
 8059SOL    HW135636   3.345   1.590  15.451  1.4519 -1.9559 -2.5324
 8059SOL    HW235637   3.345   1.440  15.448  0.2573  1.1929 -2.7731
 8060SOL     OW35638   0.830   2.439  14.095 -0.1681  0.7042  0.1891
 8060SOL    HW135639   0.832   2.344  14.079 -0.1662  0.6474  0.5182
 8060SOL    HW235640   0.758   2.443  14.157 -2.0727 -1.1526 -1.9032
 8061SOL     OW35641   2.910   3.887   0.711  0.7834  0.4430 -0.5634
 8061SOL    HW135642   3.002   3.912   0.701  0.3156  2.1513 -0.6544
 8061SOL    HW235643   2.863   3.964   0.743  1.2711  0.6669 -0.3759
 8062SOL     OW35644   4.618   3.131   1.871  0.0007  0.2053 -0.7757
 8062SOL    HW135645   4.680   3.191   1.912  0.1574  1.0684 -2.2637
 8062SOL    HW235646   4.566   3.100   1.946 -0.7722 -1.5661 -2.0341
 8063SOL     OW35647   3.879   3.426   3.003  0.1607 -0.3549  0.0673
 8063SOL    HW135648   3.927   3.419   3.085  0.3421  1.2416  0.1057
 8063SOL    HW235649   3.950   3.419   2.940  0.1832 -0.9998  0.1725
 8064SOL     OW35650   2.063   0.352  16.800  0.2293  0.5632 -0.3524
 8064SOL    HW135651   2.081   0.259  16.814 -0.3862  0.6223  0.8265
 8064SOL    HW235652   2.138   0.392  16.842  1.3741 -2.2564  0.2631
 8065SOL     OW35653   4.539   3.868   8.181 -0.9657 -0.3428 -0.0678
 8065SOL    HW135654   4.562   3.782   8.145 -0.0788  0.3239 -1.1140
 8065SOL    HW235655   4.548   3.920   8.101  0.7063  0.6951  0.7924
 8066SOL     OW35656   3.722   1.697   0.608 -0.1318  0.1165  0.0848
 8066SOL    HW135657   3.631   1.684   0.583 -0.5690 -1.4911  2.5963
 8066SOL    HW235658   3.726   1.670   0.699  0.1862 -2.1440 -0.5958
 8067SOL     OW35659   3.700   2.633   6.489  0.3028 -0.4006  0.0839
 8067SOL    HW135660   3.672   2.619   6.580  0.6354 -2.5329 -0.1554
 8067SOL    HW235661   3.645   2.575   6.436 -0.4278  0.1865  0.1876
 8068SOL     OW35662   0.211   3.192   3.069  0.2077  0.2609  0.0758
 8068SOL    HW135663   0.128   3.158   3.102  1.4296 -3.9704 -1.1106
 8068SOL    HW235664   0.208   3.164   2.977 -0.4276 -0.1684  0.2285
 8069SOL     OW35665   0.694   1.934  11.390 -0.1470  0.3326 -0.0764
 8069SOL    HW135666   0.637   1.973  11.324  0.4723 -2.4021 -2.2157
 8069SOL    HW235667   0.762   1.903  11.331  0.5742 -0.7189  1.3173
 8070SOL     OW35668   1.002   1.550   7.012  0.3883  0.0681 -0.2040
 8070SOL    HW135669   0.988   1.539   6.918 -1.8896 -2.9119  0.4642
 8070SOL    HW235670   1.090   1.583   7.028 -0.5004  1.5672  1.6916
 8071SOL     OW35671   0.256   1.340   2.294  0.0636 -0.4833  0.3441
 8071SOL    HW135672   0.247   1.310   2.204 -1.4858  0.1596  0.2881
 8071SOL    HW235673   0.169   1.320   2.330  0.3190 -1.2295  0.5403
 8072SOL     OW35674   0.718   3.978  12.240 -0.2181 -0.2881 -0.7283
 8072SOL    HW135675   0.745   4.068  12.253 -2.2817  0.2854 -0.3955
 8072SOL    HW235676   0.624   3.987  12.258 -0.2399 -0.4879 -0.7421
 8073SOL     OW35677   3.691   3.435   6.020  0.0081 -0.5130 -0.0646
 8073SOL    HW135678   3.731   3.496   5.958  0.5624  0.7913  1.5584
 8073SOL    HW235679   3.599   3.462   6.022  0.1822  0.0327  0.6200
 8074SOL     OW35680   3.257   0.401   1.634  0.3089  0.2802 -0.3535
 8074SOL    HW135681   3.332   0.375   1.581 -0.0924  1.1068 -1.3291
 8074SOL    HW235682   3.272   0.494   1.652 -0.5481  0.4074 -0.2896
 8075SOL     OW35683   1.505   1.274  16.240  0.4687 -0.3474  0.1503
 8075SOL    HW135684   1.536   1.218  16.169  2.6078  0.4381  0.4447
 8075SOL    HW235685   1.418   1.242  16.263  0.0073  1.6514  1.0966
 8076SOL     OW35686   3.606   2.900   5.695 -0.6162 -0.8149 -0.1209
 8076SOL    HW135687   3.683   2.859   5.655  0.5161 -0.1431  1.3482
 8076SOL    HW235688   3.545   2.834   5.664 -1.5482 -0.4408  0.8986
 8077SOL     OW35689   1.542   2.019   4.731 -0.7877 -0.3612  0.3027
 8077SOL    HW135690   1.508   2.094   4.780  0.2430 -0.1342  0.6573
 8077SOL    HW235691   1.510   1.949   4.789  1.1500 -1.2289  0.3243
 8078SOL     OW35692   3.513   3.304   0.467  0.0155  0.0066  0.3108
 8078SOL    HW135693   3.455   3.273   0.536  0.5280 -0.2448  0.6276
 8078SOL    HW235694   3.447   3.370   0.446 -1.4153 -1.6261 -0.2872
 8079SOL     OW35695   1.943   3.034   9.685  0.0460 -0.2653 -0.2147
 8079SOL    HW135696   2.018   3.083   9.653  0.1474 -1.4634 -1.8080
 8079SOL    HW235697   1.942   2.966   9.618  2.3389 -1.1963  0.6817
 8080SOL     OW35698   0.461   1.449   4.641 -0.3389  0.0618  0.0992
 8080SOL    HW135699   0.390   1.511   4.626  1.4668  2.5999  1.9057
 8080SOL    HW235700   0.476   1.473   4.733 -0.0848  0.6061 -0.0802
 8081SOL     OW35701   2.591   2.285   7.718  0.1054 -0.2314 -0.2332
 8081SOL    HW135702   2.568   2.341   7.792  1.2661  1.2855 -1.0256
 8081SOL    HW235703   2.628   2.356   7.666 -1.2299 -0.7922 -1.9430
 8082SOL     OW35704   2.356   4.250   7.501 -0.1590 -0.0645  0.0251
 8082SOL    HW135705   2.426   4.314   7.512  0.5722 -0.6989 -0.9116
 8082SOL    HW235706   2.310   4.304   7.437 -2.4787 -0.5664  1.2730
 8083SOL     OW35707   3.395   1.181   9.600  0.3472 -0.9673  0.6140
 8083SOL    HW135708   3.394   1.180   9.504 -0.9595  1.1822  0.5937
 8083SOL    HW235709   3.487   1.163   9.620  0.5851 -0.4384 -0.0048
 8084SOL     OW35710   4.230   0.842   5.965 -0.1535  0.6774  0.1213
 8084SOL    HW135711   4.251   0.930   5.996  0.1505  0.4140  0.6639
 8084SOL    HW235712   4.316   0.799   5.975 -1.2094 -1.5287 -0.2979
 8085SOL     OW35713   2.156   1.091   9.051  0.0013 -0.2666  0.5175
 8085SOL    HW135714   2.128   1.182   9.044  2.5464  0.5137  0.2915
 8085SOL    HW235715   2.248   1.102   9.078  0.6807 -0.5669 -1.6489
 8086SOL     OW35716   2.536   0.496   2.493  0.5323 -0.0606 -0.3131
 8086SOL    HW135717   2.474   0.429   2.465  2.0460 -2.2543  1.6159
 8086SOL    HW235718   2.523   0.500   2.588 -0.8714 -0.1053 -0.5018
 8087SOL     OW35719   2.378   2.360  14.041 -0.2163  0.0154 -0.0576
 8087SOL    HW135720   2.376   2.327  13.951 -2.2966  0.6975 -0.2736
 8087SOL    HW235721   2.451   2.308  14.074 -0.1828 -0.2924 -0.6016
 8088SOL     OW35722   2.489   0.777  14.915 -0.0178 -0.0456 -0.4961
 8088SOL    HW135723   2.406   0.819  14.896 -0.6038 -1.0790 -0.2305
 8088SOL    HW235724   2.454   0.688  14.904 -1.9715  0.3532  2.7932
 8089SOL     OW35725   1.799   3.310   6.343 -0.1298  0.2885 -0.3879
 8089SOL    HW135726   1.710   3.289   6.316 -0.0555 -0.8821  0.2740
 8089SOL    HW235727   1.798   3.406   6.345 -2.5897  0.2849 -2.0290
 8090SOL     OW35728   0.750   1.715  10.821 -0.3077 -0.3099  0.5419
 8090SOL    HW135729   0.721   1.800  10.853 -0.5284 -0.6069  1.1276
 8090SOL    HW235730   0.665   1.671  10.826 -0.3885 -0.1797  0.3228
 8091SOL     OW35731   1.792   2.030   7.762 -0.1371 -0.1815  0.5349
 8091SOL    HW135732   1.752   2.072   7.837 -1.5532 -1.6824  0.6370
 8091SOL    HW235733   1.863   1.977   7.797 -0.5393  0.8583  2.8828
 8092SOL     OW35734   1.315   1.533  16.049 -0.2573 -0.4378  0.3095
 8092SOL    HW135735   1.311   1.539  16.144 -0.1682  2.8749  0.0978
 8092SOL    HW235736   1.263   1.609  16.022  0.6951  0.1165  0.0388
 8093SOL     OW35737   0.202   0.955   1.535 -0.0771 -0.2906 -0.5115
 8093SOL    HW135738   0.267   1.026   1.535 -0.2852 -0.1013  0.3350
 8093SOL    HW235739   0.169   0.963   1.446 -0.4330  0.5126 -0.3141
 8094SOL     OW35740   1.401   1.278   7.780  0.7280  0.2568 -0.0501
 8094SOL    HW135741   1.436   1.358   7.742 -0.0685 -0.2780 -1.9052
 8094SOL    HW235742   1.460   1.278   7.856  2.2136  1.9876 -1.2032
 8095SOL     OW35743   2.410   0.762  10.788  0.1241  0.0100 -0.0689
 8095SOL    HW135744   2.437   0.835  10.843  0.4354 -0.6848  0.6814
 8095SOL    HW235745   2.374   0.700  10.851 -1.4245 -0.4615 -1.3901
 8096SOL     OW35746   3.588   3.313   2.404 -0.7528  0.2081  0.0045
 8096SOL    HW135747   3.498   3.305   2.372 -0.7898  0.6377 -0.0058
 8096SOL    HW235748   3.647   3.276   2.338 -1.6428  0.9824 -1.2376
 8097SOL     OW35749   2.124   2.907   6.357  0.2030  0.0187 -0.4239
 8097SOL    HW135750   2.109   2.999   6.380 -0.2887 -0.1810  0.0431
 8097SOL    HW235751   2.218   2.906   6.338  0.4740  0.4029  0.8791
 8098SOL     OW35752   1.713   2.093   8.611 -0.2272 -0.0533  0.2014
 8098SOL    HW135753   1.804   2.111   8.586 -0.5939  2.3462  0.5478
 8098SOL    HW235754   1.662   2.132   8.540  0.3151 -1.2434 -0.8409
 8099SOL     OW35755   4.176   2.154   6.738 -0.0871  0.5955  0.0797
 8099SOL    HW135756   4.228   2.096   6.793  0.1626  1.3734  0.6613
 8099SOL    HW235757   4.098   2.168   6.792 -0.1754  1.9700 -0.3735
 8100SOL     OW35758   2.333   1.133   3.501  0.8788 -0.1505 -0.0285
 8100SOL    HW135759   2.420   1.105   3.528  1.0517  0.2492 -0.1655
 8100SOL    HW235760   2.292   1.052   3.472 -1.7379  1.3549 -0.5059
 8101SOL     OW35761   3.641   0.467   9.226 -0.0765 -0.1511  0.6162
 8101SOL    HW135762   3.700   0.514   9.168  0.2369 -1.0831  0.1739
 8101SOL    HW235763   3.710   0.427   9.280 -0.8688 -0.6076  1.2912
 8102SOL     OW35764   2.294   0.530   3.854  0.1387  0.2961 -0.5857
 8102SOL    HW135765   2.246   0.472   3.912  0.7589  0.7616  0.3903
 8102SOL    HW235766   2.318   0.471   3.783 -2.0323 -1.1362 -0.1075
 8103SOL     OW35767   1.086   0.387   8.938 -0.0670 -0.4165  0.3917
 8103SOL    HW135768   1.056   0.451   8.874  0.4624  0.6108  1.1621
 8103SOL    HW235769   1.157   0.433   8.984  0.2313  0.1850 -0.6836
 8104SOL     OW35770   3.708   1.646   0.866 -0.2053  0.1656 -0.5102
 8104SOL    HW135771   3.707   1.687   0.952 -2.6035 -0.5903 -0.1840
 8104SOL    HW235772   3.738   1.556   0.881 -1.2452 -0.2791 -1.0878
 8105SOL     OW35773   2.981   4.226   1.590  0.1948  0.7877  0.0045
 8105SOL    HW135774   2.902   4.173   1.600  2.0917 -2.2140 -1.0676
 8105SOL    HW235775   3.020   4.224   1.677 -2.3485 -0.2249  1.0954
 8106SOL     OW35776   2.967   3.360   2.826 -0.0286 -0.2800 -0.5434
 8106SOL    HW135777   2.983   3.266   2.839  1.0986 -0.1343 -0.9035
 8106SOL    HW235778   2.875   3.370   2.851  0.0583 -0.7778 -0.0277
 8107SOL     OW35779   4.004   3.815   3.231  0.0379 -0.5825 -0.5904
 8107SOL    HW135780   4.095   3.792   3.209  0.5765 -0.8384  1.8913
 8107SOL    HW235781   3.986   3.859   3.148 -1.0551  2.9935  1.5245
 8108SOL     OW35782   1.342   3.112  13.747 -0.2546 -0.0277 -0.2242
 8108SOL    HW135783   1.345   3.156  13.832  0.1854 -2.0004  0.7858
 8108SOL    HW235784   1.396   3.176  13.701  0.1481  0.9166  1.5652
 8109SOL     OW35785   3.695   2.492  13.598  0.6998  0.2587 -0.7165
 8109SOL    HW135786   3.626   2.550  13.566 -0.6565 -0.1596  1.4332
 8109SOL    HW235787   3.681   2.486  13.693  0.7086  1.2970 -0.6504
 8110SOL     OW35788   3.085   3.342   9.116  0.4565  0.1343 -0.0213
 8110SOL    HW135789   3.066   3.430   9.084  1.0920 -0.1331 -1.1649
 8110SOL    HW235790   3.083   3.286   9.038 -0.1237 -2.1127  1.6220
 8111SOL     OW35791   0.608   2.451  14.813  0.1752  0.1748 -0.0666
 8111SOL    HW135792   0.661   2.417  14.886 -1.7672  0.5696  1.5043
 8111SOL    HW235793   0.669   2.449  14.739 -1.2512  0.4626 -1.2453
 8112SOL     OW35794   3.736   2.612   3.662  0.0208 -0.4867  0.3572
 8112SOL    HW135795   3.750   2.611   3.568 -1.5573 -1.0589  0.1345
 8112SOL    HW235796   3.678   2.536   3.666  0.5788 -1.0304 -1.9369
 8113SOL     OW35797   0.777   4.569   5.666 -0.2323 -0.2856  0.9484
 8113SOL    HW135798   0.861   4.585   5.624 -1.6612  1.6694 -1.1443
 8113SOL    HW235799   0.760   4.476   5.648  0.4543  0.4187 -3.2610
 8114SOL     OW35800   0.337   0.134  10.648 -0.0653  0.0152  0.0841
 8114SOL    HW135801   0.344   0.090  10.564  1.5776  0.4527 -0.0180
 8114SOL    HW235802   0.283   0.212  10.634 -0.4679 -0.5014 -1.2119
 8115SOL     OW35803   2.616   1.127   6.473 -0.2838 -0.4915 -0.2714
 8115SOL    HW135804   2.609   1.065   6.401  1.2680  1.2990 -1.9595
 8115SOL    HW235805   2.543   1.189   6.466  0.0311 -0.1626 -0.6671
 8116SOL     OW35806   1.840   1.286  10.443  0.4198 -0.3147 -0.0183
 8116SOL    HW135807   1.885   1.327  10.369 -0.5769 -0.3560 -0.6493
 8116SOL    HW235808   1.772   1.349  10.463  0.4110 -0.0698 -0.7894
 8117SOL     OW35809   2.341   3.102   1.408 -0.2535  0.0042 -0.7802
 8117SOL    HW135810   2.318   3.192   1.427 -2.1508 -0.6339 -0.0867
 8117SOL    HW235811   2.277   3.048   1.453  1.2511 -2.1203 -1.1549
 8118SOL     OW35812   3.709   4.561   2.901 -0.0728  0.0956  0.2920
 8118SOL    HW135813   3.749   4.486   2.945 -0.4816 -0.0813  0.3521
 8118SOL    HW235814   3.685   4.541   2.810  1.2137  2.4302 -0.5778
 8119SOL     OW35815   3.206   1.321   4.413 -0.1747 -0.2200 -0.7773
 8119SOL    HW135816   3.219   1.227   4.421 -0.4854 -0.0261  2.2959
 8119SOL    HW235817   3.176   1.327   4.323 -2.0296 -0.5033 -0.1867
 8120SOL     OW35818   2.499   1.066   7.519  0.3936 -0.4596  0.4142
 8120SOL    HW135819   2.555   1.064   7.442 -0.4797  1.4645 -0.2890
 8120SOL    HW235820   2.419   1.026   7.485  0.0188  1.2410 -0.7339
 8121SOL     OW35821   2.108   2.287   3.475  0.9222 -0.7339 -0.1860
 8121SOL    HW135822   2.151   2.372   3.477  2.0195 -1.3911  3.3602
 8121SOL    HW235823   2.095   2.280   3.380  2.4482 -0.7202 -0.3886
 8122SOL     OW35824   0.806   3.152  16.589  0.1697 -0.5701 -0.0867
 8122SOL    HW135825   0.817   3.242  16.559 -0.5088 -0.8448 -1.1195
 8122SOL    HW235826   0.737   3.124  16.530  0.1846 -0.1358 -0.3151
 8123SOL     OW35827   3.214   4.109   3.466  0.0164  0.1338  0.0106
 8123SOL    HW135828   3.176   4.032   3.509  1.0194  0.7300  1.9954
 8123SOL    HW235829   3.144   4.133   3.406 -1.4483  0.0364  1.6771
 8124SOL     OW35830   2.805   2.842   9.029  0.3822  0.2854  0.2830
 8124SOL    HW135831   2.717   2.821   9.061  0.7719 -1.1160  0.4724
 8124SOL    HW235832   2.841   2.756   9.007  1.3180  0.7388  0.0801
 8125SOL     OW35833   1.092   2.538   7.687 -0.5999  0.3556 -0.2353
 8125SOL    HW135834   1.009   2.491   7.674  0.3322 -1.1315 -0.7624
 8125SOL    HW235835   1.149   2.475   7.731  0.0960  1.5198  0.5367
 8126SOL     OW35836   0.079   4.589   9.575 -0.0863  0.1649 -0.3621
 8126SOL    HW135837   4.710   4.568   9.547  0.5909 -0.7812 -1.7828
 8126SOL    HW235838   0.133   4.532   9.520  1.1035  0.2518  0.7183
 8127SOL     OW35839   2.142   3.170  13.138  0.5146  0.2385 -0.0922
 8127SOL    HW135840   2.176   3.231  13.203  0.7666 -1.2333  1.1359
 8127SOL    HW235841   2.055   3.208  13.123  0.9668  1.4407  0.3454
 8128SOL     OW35842   1.611   2.401  11.570  0.1773 -0.1672  0.0830
 8128SOL    HW135843   1.569   2.486  11.580  0.9641  0.2298 -0.0337
 8128SOL    HW235844   1.679   2.411  11.636 -0.4787 -2.0871  1.0704
 8129SOL     OW35845   2.908   1.176   5.864  0.3422  0.1780  0.3421
 8129SOL    HW135846   2.817   1.205   5.865  0.6021  0.8541  5.1421
 8129SOL    HW235847   2.895   1.081   5.856  0.1060  0.2007  0.4451
 8130SOL     OW35848   1.654   1.570   3.048  0.0286 -0.0631 -0.4754
 8130SOL    HW135849   1.569   1.613   3.035 -0.2671 -0.0465  1.4695
 8130SOL    HW235850   1.719   1.639   3.066 -0.2413  0.1204 -0.2004
 8131SOL     OW35851   3.570   3.347   9.796 -0.3053  0.7429 -0.7380
 8131SOL    HW135852   3.601   3.431   9.829  0.2861 -0.5455  2.0056
 8131SOL    HW235853   3.645   3.309   9.749 -0.5638  0.5865 -1.0194
 8132SOL     OW35854   4.412   1.393  16.158 -0.5321 -0.2332 -0.3872
 8132SOL    HW135855   4.336   1.428  16.112 -0.7039  0.7587  0.6506
 8132SOL    HW235856   4.436   1.332  16.088  0.5622 -0.7637  0.4574
 8133SOL     OW35857   1.917   2.376   1.724  0.4100  0.5333 -0.4855
 8133SOL    HW135858   1.914   2.367   1.629  0.3827  0.5871 -0.4900
 8133SOL    HW235859   2.008   2.363   1.752  0.2123 -1.0269 -0.5877
 8134SOL     OW35860   0.565   0.914  17.124 -0.4067  0.1643  0.5777
 8134SOL    HW135861   0.528   0.964  17.052 -1.5206  1.2299  1.9199
 8134SOL    HW235862   0.496   0.919  17.189 -0.0365  2.9702  0.7180
 8135SOL     OW35863   3.501   3.110  10.846 -0.1800  0.2042  0.3039
 8135SOL    HW135864   3.412   3.145  10.856 -0.0040  0.3510  1.4425
 8135SOL    HW235865   3.544   3.178  10.898  0.5572  0.5010 -0.6960
 8136SOL     OW35866   2.795   3.060   2.311  0.1808  0.6821  0.0209
 8136SOL    HW135867   2.789   3.152   2.339  1.1439  1.0513 -1.0407
 8136SOL    HW235868   2.885   3.051   2.282  0.7768 -0.5593  2.2727
 8137SOL     OW35869   2.051   3.344   0.549 -0.4808  0.1820 -0.5513
 8137SOL    HW135870   2.038   3.404   0.623 -1.3426 -2.1030  1.1433
 8137SOL    HW235871   2.108   3.275   0.584  2.0403  1.7720 -1.5260
 8138SOL     OW35872   4.304   2.032   6.161 -0.1255  0.8838 -0.6258
 8138SOL    HW135873   4.366   2.103   6.174  1.2605 -0.0734 -1.8425
 8138SOL    HW235874   4.303   1.995   6.249  2.8574  3.7453  0.5973
 8139SOL     OW35875   2.055   2.272   3.741  0.0179  0.0531  0.1179
 8139SOL    HW135876   2.047   2.179   3.721 -0.0531 -0.1550  1.1047
 8139SOL    HW235877   2.060   2.306   3.652 -0.3715  1.1090  0.5005
 8140SOL     OW35878   0.204   4.669  16.090  0.2333  0.2970  0.2403
 8140SOL    HW135879   0.116   4.640  16.116  0.3502  1.6355  2.0906
 8140SOL    HW235880   0.195   0.040  16.061 -0.5707  0.4836  1.0942
 8141SOL     OW35881   3.393   4.317   6.820 -0.8021  0.2117 -0.0639
 8141SOL    HW135882   3.300   4.322   6.800 -0.9332  0.2926  0.5762
 8141SOL    HW235883   3.418   4.286   6.733  0.4248 -0.1069  0.4066
 8142SOL     OW35884   1.695   2.564   6.389 -0.0972  0.1493  0.1689
 8142SOL    HW135885   1.680   2.527   6.476  0.5525  1.5204  0.8639
 8142SOL    HW235886   1.712   2.657   6.406 -2.6645  1.4711 -4.5135
 8143SOL     OW35887   3.926   2.124   4.606 -0.4307  0.3921 -0.0392
 8143SOL    HW135888   3.985   2.128   4.531  0.4804  1.0401  0.7271
 8143SOL    HW235889   3.845   2.123   4.554 -0.2659  0.9732 -0.3075
 8144SOL     OW35890   4.148   3.565   6.941  0.7258  0.0545  0.9244
 8144SOL    HW135891   4.084   3.629   6.973 -0.1755 -1.4757  2.1598
 8144SOL    HW235892   4.174   3.596   6.854  0.7168  1.5530  1.4449
 8145SOL     OW35893   3.418   3.500   8.942  0.1593  0.2084  0.1574
 8145SOL    HW135894   3.477   3.540   9.005 -2.2326  1.6850  1.4352
 8145SOL    HW235895   3.471   3.517   8.863  2.3071  0.8870  1.7565
 8146SOL     OW35896   4.395   2.402   3.640 -0.4164  0.0453  0.2118
 8146SOL    HW135897   4.356   2.457   3.708  1.6046  3.2059 -1.1795
 8146SOL    HW235898   4.415   2.469   3.575  1.5817 -0.9544 -0.2152
 8147SOL     OW35899   4.579   4.109   4.471  0.2834 -0.0058  0.0629
 8147SOL    HW135900   4.667   4.128   4.437  0.7835 -1.7955  0.3502
 8147SOL    HW235901   4.556   4.059   4.392 -0.4592  1.2052 -0.4939
 8148SOL     OW35902   1.565   2.276   2.002  0.4668 -0.0345  0.1977
 8148SOL    HW135903   1.473   2.278   1.978  0.7986 -0.0385 -1.0407
 8148SOL    HW235904   1.566   2.281   2.098 -0.3931 -0.8707  0.2501
 8149SOL     OW35905   3.172   4.444   4.289 -0.3906 -0.0739 -0.2392
 8149SOL    HW135906   3.153   4.532   4.259 -1.8685 -0.0985  0.6121
 8149SOL    HW235907   3.099   4.427   4.349 -2.0710 -0.9870 -2.5140
 8150SOL     OW35908   0.195   3.682   1.544 -0.2240 -0.4499 -0.0787
 8150SOL    HW135909   0.164   3.656   1.631  1.8390 -2.0194  0.1855
 8150SOL    HW235910   0.117   3.727   1.514 -3.0610 -3.3863  2.8136
 8151SOL     OW35911   3.328   0.714   8.100 -0.3837  0.0880  0.4097
 8151SOL    HW135912   3.239   0.737   8.075  0.4390 -0.9201 -3.4902
 8151SOL    HW235913   3.359   0.642   8.045 -0.2189  2.1392 -2.1529
 8152SOL     OW35914   4.708   4.320   6.288  0.2373 -0.6347  0.0549
 8152SOL    HW135915   0.052   4.348   6.353  0.2984 -1.7350  0.4590
 8152SOL    HW235916   0.047   4.321   6.213 -0.1642 -3.4248 -0.2717
 8153SOL     OW35917   1.920   0.022   7.074  0.0157  0.1807  0.6617
 8153SOL    HW135918   1.894   0.043   7.163  0.2767  0.5235  0.6566
 8153SOL    HW235919   1.937   4.648   7.080 -0.4282 -0.0268 -1.3525
 8154SOL     OW35920   1.416   2.722   8.609  0.1015  0.1766 -0.0694
 8154SOL    HW135921   1.412   2.633   8.574  1.9158 -0.6804  1.9484
 8154SOL    HW235922   1.388   2.709   8.699 -2.4489 -0.3755 -0.9394
 8155SOL     OW35923   1.498   1.969   0.981  0.4899 -0.1407  0.0790
 8155SOL    HW135924   1.562   1.946   1.047  0.6212 -1.7669 -0.6182
 8155SOL    HW235925   1.547   1.925   0.911  0.3192  1.5611 -1.1172
 8156SOL     OW35926   3.566   3.018   0.525 -0.4424 -0.4171 -1.1215
 8156SOL    HW135927   3.548   3.058   0.440 -0.3088 -0.0433 -0.9742
 8156SOL    HW235928   3.478   3.041   0.556  0.4489  0.8035  0.5035
 8157SOL     OW35929   3.235   0.548  13.231 -0.3110  0.2192  0.1714
 8157SOL    HW135930   3.183   0.530  13.310  0.9786 -0.4545  0.8673
 8157SOL    HW235931   3.199   0.634  13.208 -2.3809 -0.6701  0.0239
 8158SOL     OW35932   3.466   2.139   4.842  0.1998 -0.2225 -0.2877
 8158SOL    HW135933   3.442   2.205   4.907 -1.9766 -2.5858  1.2770
 8158SOL    HW235934   3.376   2.109   4.832 -0.0358 -0.0052  1.1685
 8159SOL     OW35935   0.581   0.717   6.493  0.1601  0.5212 -0.2804
 8159SOL    HW135936   0.619   0.671   6.419  0.5489  1.5786 -0.7398
 8159SOL    HW235937   0.494   0.737   6.460 -0.1428  1.7562  1.2555
 8160SOL     OW35938   2.453   4.194   0.286 -0.2189 -0.0818 -0.2678
 8160SOL    HW135939   2.448   4.116   0.230  1.6419  0.9824 -1.9030
 8160SOL    HW235940   2.405   4.167   0.365 -1.2193 -1.2707 -1.2607
 8161SOL     OW35941   0.835   2.553   0.385 -0.2025 -0.2204 -0.1046
 8161SOL    HW135942   0.787   2.472   0.366  0.8067 -0.4861 -1.5177
 8161SOL    HW235943   0.882   2.555   0.302 -0.0844 -0.0917 -0.0336
 8162SOL     OW35944   1.220   2.058   8.020  0.1602  0.2783 -0.3616
 8162SOL    HW135945   1.176   1.979   8.049 -0.2444 -0.3990 -2.8202
 8162SOL    HW235946   1.151   2.124   8.029 -0.1104  0.1248 -1.3353
 8163SOL     OW35947   0.678   2.969  11.893 -0.8990  0.2074  0.2324
 8163SOL    HW135948   0.757   2.957  11.946 -0.3756 -1.5610 -0.9229
 8163SOL    HW235949   0.718   3.008  11.815  2.8798 -0.9039  1.6158
 8164SOL     OW35950   1.648   3.342   2.958  0.0825  0.0516  0.0683
 8164SOL    HW135951   1.566   3.350   2.909  0.1179 -1.5686 -0.2725
 8164SOL    HW235952   1.627   3.270   3.018  0.9835  0.9177  1.4007
 8165SOL     OW35953   2.987   3.870   8.343  0.1913  0.1062 -0.3033
 8165SOL    HW135954   2.942   3.949   8.313  0.6569  0.4718 -0.0447
 8165SOL    HW235955   3.004   3.832   8.257 -1.4571 -1.1503 -0.0665
 8166SOL     OW35956   1.278   0.013   6.820  0.0859 -0.0847  0.0274
 8166SOL    HW135957   1.325   0.087   6.859 -1.0524 -0.1832  1.6207
 8166SOL    HW235958   1.218   4.712   6.892  0.5203  1.7825  0.9453
 8167SOL     OW35959   0.398   0.795   4.545 -0.4133  0.4015  0.2623
 8167SOL    HW135960   0.320   0.819   4.594 -0.2223  1.0200  0.2601
 8167SOL    HW235961   0.402   0.699   4.550  4.3546  0.4170 -2.9047
 8168SOL     OW35962   4.003   0.308   2.034 -0.1260  0.1856 -0.1875
 8168SOL    HW135963   3.996   0.218   2.068 -1.2156 -0.1135 -1.2061
 8168SOL    HW235964   4.062   0.351   2.095  1.2091  0.0474 -1.4013
 8169SOL     OW35965   0.939   4.593  11.849  0.1406  0.4982 -0.7582
 8169SOL    HW135966   0.929   4.618  11.757 -3.2604 -0.0254 -0.5350
 8169SOL    HW235967   0.929   4.498  11.839  2.0053  0.0284  1.9508
 8170SOL     OW35968   3.468   2.797   6.364  0.0967  0.0910 -0.3229
 8170SOL    HW135969   3.547   2.746   6.383  0.6573  0.9673 -0.3119
 8170SOL    HW235970   3.402   2.727   6.361 -0.4338  0.5767 -0.1030
 8171SOL     OW35971   4.398   1.213   1.074 -0.2013 -0.4971  0.1535
 8171SOL    HW135972   4.421   1.120   1.082 -2.1598 -0.9150  0.9064
 8171SOL    HW235973   4.454   1.249   1.005 -0.8306 -0.2862 -0.2488
 8172SOL     OW35974   2.280   1.933   3.805  0.1651 -0.3313 -0.6467
 8172SOL    HW135975   2.274   1.856   3.748 -0.9210 -0.3513 -0.4887
 8172SOL    HW235976   2.261   2.003   3.742 -2.5464 -0.2498  0.3008
 8173SOL     OW35977   0.388   2.220  11.038 -0.1115  0.3043  0.3127
 8173SOL    HW135978   0.331   2.261  10.973  1.0963  0.9364 -0.3713
 8173SOL    HW235979   0.376   2.269  11.120  1.8533  0.4036  0.5476
 8174SOL     OW35980   1.925   2.192  14.114  0.1878 -0.2592 -0.0549
 8174SOL    HW135981   1.940   2.242  14.033  0.8061 -1.8237 -0.8966
 8174SOL    HW235982   1.861   2.132  14.077 -1.0844  0.7615  0.4934
 8175SOL     OW35983   3.199   1.313   7.042 -0.3536  0.1137 -0.2849
 8175SOL    HW135984   3.209   1.353   7.129  0.8238  0.3546 -0.5242
 8175SOL    HW235985   3.201   1.220   7.062 -1.4206 -0.0925 -1.1463
 8176SOL     OW35986   4.107   2.764  17.531 -0.4852 -0.1147  0.1317
 8176SOL    HW135987   4.047   2.826  17.572 -1.0239 -1.2459  1.0702
 8176SOL    HW235988   4.039   2.698  17.518 -1.5682  0.6779  1.7460
 8177SOL     OW35989   1.762   3.473  12.131  0.0835  0.3416  0.3336
 8177SOL    HW135990   1.686   3.457  12.187 -0.7746  0.0138 -0.9124
 8177SOL    HW235991   1.787   3.560  12.159 -1.5119  1.0497 -0.4293
 8178SOL     OW35992   3.975   1.468   2.642  0.2135 -0.1999  0.3291
 8178SOL    HW135993   3.998   1.504   2.728  1.7681  2.0021 -0.9985
 8178SOL    HW235994   3.892   1.422   2.653  1.0852 -1.4170  1.7953
 8179SOL     OW35995   2.769   1.723   6.392 -0.0130 -0.0022 -0.4539
 8179SOL    HW135996   2.769   1.736   6.487 -0.5966  0.9064 -0.5766
 8179SOL    HW235997   2.853   1.683   6.368 -0.2515 -0.9614  0.2739
 8180SOL     OW35998   1.708   3.428   3.277 -0.2939  0.7274  0.3553
 8180SOL    HW135999   1.690   3.343   3.236 -2.4593  0.9184  0.9179
 8180SOL    HW236000   1.670   3.481   3.207 -0.5241  2.0950  1.5169
 8181SOL     OW36001   1.436   3.322  10.585 -0.1225  0.0807  0.1649
 8181SOL    HW136002   1.416   3.388  10.651  0.6184  1.7478 -1.2715
 8181SOL    HW236003   1.473   3.254  10.641  0.1571 -1.4313 -1.8420
 8182SOL     OW36004   3.265   4.322   9.334 -0.3368  0.3404  0.0166
 8182SOL    HW136005   3.352   4.311   9.294 -0.2574  1.7447 -0.1829
 8182SOL    HW236006   3.277   4.267   9.412  2.8254 -1.9735 -2.1023
 8183SOL     OW36007   1.160   1.889   2.343  0.2082 -0.3849 -0.3474
 8183SOL    HW136008   1.230   1.854   2.398  1.0896 -0.5336 -1.5714
 8183SOL    HW236009   1.205   1.961   2.298  0.7341 -0.1785  0.5213
 8184SOL     OW36010   4.275   1.847   7.348 -0.1200  0.2569  0.2731
 8184SOL    HW136011   4.286   1.821   7.440  0.1198  0.3554  0.2727
 8184SOL    HW236012   4.235   1.771   7.305  1.8142  0.9364 -2.7323
 8185SOL     OW36013   1.677   3.622   2.983  0.0902  0.1310 -0.1313
 8185SOL    HW136014   1.690   3.656   2.894  1.0430 -0.3279 -0.1671
 8185SOL    HW236015   1.702   3.530   2.985 -1.0423 -0.1494  0.3632
 8186SOL     OW36016   2.069   2.568   6.250  0.4708  0.1098  0.0412
 8186SOL    HW136017   2.120   2.606   6.322 -0.1805  1.8379 -0.3963
 8186SOL    HW236018   2.019   2.497   6.289  1.0083 -0.1678  0.2219
 8187SOL     OW36019   1.368   2.890   7.899 -0.0067  0.4625  0.1466
 8187SOL    HW136020   1.407   2.926   7.979 -1.1092 -1.0395  1.3285
 8187SOL    HW236021   1.275   2.907   7.910 -0.4640 -0.7416 -1.8258
 8188SOL     OW36022   1.696   2.460  13.200 -0.1729 -0.4187  0.0483
 8188SOL    HW136023   1.695   2.447  13.105  0.9301  0.0091 -0.0176
 8188SOL    HW236024   1.771   2.519  13.208 -0.0344 -0.5609 -0.2063
 8189SOL     OW36025   2.005   2.971  17.218 -0.0322 -0.0163  0.4714
 8189SOL    HW136026   2.008   2.920  17.137  0.1202  1.3734 -0.3927
 8189SOL    HW236027   1.919   2.941  17.248  0.0745  0.9967  1.7532
 8190SOL     OW36028   1.406   1.228  14.744 -0.1057  0.0847  0.2031
 8190SOL    HW136029   1.386   1.290  14.674  0.8167  2.5461  2.1015
 8190SOL    HW236030   1.432   1.155  14.689 -0.2049  0.1968  0.0073
 8191SOL     OW36031   3.088   3.459   3.141  0.3553  0.1809 -0.8830
 8191SOL    HW136032   3.139   3.411   3.076 -1.2192  1.0965 -2.8047
 8191SOL    HW236033   3.095   3.390   3.207  0.3343  1.8107  0.8195
 8192SOL     OW36034   2.176   3.863   6.582  0.0066  0.0172 -0.2615
 8192SOL    HW136035   2.228   3.801   6.633 -0.8700 -1.1487 -0.7730
 8192SOL    HW236036   2.132   3.800   6.524 -1.5024  1.0150 -0.1879
 8193SOL     OW36037   4.364   1.326  15.084  0.0260  0.2508  0.3794
 8193SOL    HW136038   4.342   1.315  15.177 -0.0963  0.3402  0.3614
 8193SOL    HW236039   4.274   1.311  15.054 -0.5468  1.0865  1.6218
 8194SOL     OW36040   4.336   0.790  15.464 -0.4082  0.6735 -0.1012
 8194SOL    HW136041   4.298   0.703  15.450 -0.7881  0.7472  0.4698
 8194SOL    HW236042   4.430   0.776  15.449 -0.9931 -1.6439 -1.6205
 8195SOL     OW36043   1.592   4.616   6.411 -0.2712  0.2818  0.0605
 8195SOL    HW136044   1.687   4.605   6.412 -0.1542  1.3146  0.4461
 8195SOL    HW236045   1.569   4.555   6.481 -0.5517  2.0775  1.5409
 8196SOL     OW36046   2.192   3.280   5.923  0.2596 -0.4339 -0.3381
 8196SOL    HW136047   2.167   3.189   5.907  0.0935 -0.5565  0.6129
 8196SOL    HW236048   2.128   3.301   5.991  1.1775  2.2714 -0.2929
 8197SOL     OW36049   3.442   1.706  15.372  0.2947  0.3525 -0.2112
 8197SOL    HW136050   3.458   1.798  15.389 -0.8093  0.4698  0.1808
 8197SOL    HW236051   3.517   1.686  15.316  1.4703 -0.5236  1.6999
 8198SOL     OW36052   3.350   4.640   3.232 -0.5573  0.0157 -0.3937
 8198SOL    HW136053   3.342   4.563   3.175 -0.8014  0.1648 -0.5631
 8198SOL    HW236054   3.292   4.620   3.305 -0.7607 -0.0883 -0.5829
 8199SOL     OW36055   1.989   4.392   3.226 -0.2090  0.3313  0.8938
 8199SOL    HW136056   1.991   4.297   3.222  1.9461  0.3891  0.6973
 8199SOL    HW236057   1.992   4.407   3.131  0.3356 -0.6027  0.7677
 8200SOL     OW36058   1.454   4.010   1.870 -0.7888 -0.4946  0.3354
 8200SOL    HW136059   1.484   3.926   1.904  2.1700 -0.3159 -1.8584
 8200SOL    HW236060   1.430   4.048   1.955 -0.6560 -0.0978  0.1939
 8201SOL     OW36061   4.083   2.267   8.748 -0.4552 -0.2083  0.2770
 8201SOL    HW136062   4.127   2.351   8.759  0.2599 -0.6465  0.8205
 8201SOL    HW236063   4.007   2.287   8.693 -0.5877 -0.4970  0.3566
 8202SOL     OW36064   3.418   1.729   3.309  0.0296 -0.1078  0.0532
 8202SOL    HW136065   3.355   1.699   3.375 -0.0650 -0.3596 -0.1503
 8202SOL    HW236066   3.498   1.757   3.354 -0.6500  0.3873  0.9487
 8203SOL     OW36067   3.444   0.703  16.968  0.0458  0.0583  0.0551
 8203SOL    HW136068   3.452   0.722  17.061 -0.4215 -1.0950  0.3310
 8203SOL    HW236069   3.349   0.697  16.955 -0.0228  0.5900  0.2901
 8204SOL     OW36070   2.874   1.069   6.191 -0.4445  0.2643 -0.0912
 8204SOL    HW136071   2.912   0.984   6.211  0.9381 -0.0651 -4.0686
 8204SOL    HW236072   2.795   1.038   6.148  0.3709 -0.5861 -0.9737
 8205SOL     OW36073   3.923   0.380   7.775  0.1418 -0.4955 -0.0136
 8205SOL    HW136074   4.010   0.418   7.790  0.2534 -1.1441  0.9991
 8205SOL    HW236075   3.958   0.304   7.728 -0.3498 -0.5873 -0.2263
 8206SOL     OW36076   2.782   2.733   3.736 -0.1572  0.3837 -0.1140
 8206SOL    HW136077   2.850   2.669   3.757 -1.3167 -1.5520 -2.3006
 8206SOL    HW236078   2.737   2.700   3.659 -0.0884  0.1534 -0.0546
 8207SOL     OW36079   3.941   2.233   6.887  0.4135  0.0339 -0.4033
 8207SOL    HW136080   3.884   2.307   6.906  0.6647  0.1164  0.0247
 8207SOL    HW236081   3.901   2.164   6.940  0.5250  0.9357  0.8285
 8208SOL     OW36082   3.157   2.754   3.293  0.8772 -0.2804 -0.6448
 8208SOL    HW136083   3.235   2.765   3.348 -0.4403  1.5208  0.8822
 8208SOL    HW236084   3.087   2.750   3.359  1.1846 -4.3901 -0.5466
 8209SOL     OW36085   2.618   4.432   0.389  0.2974 -0.3678  0.1201
 8209SOL    HW136086   2.525   4.443   0.412 -0.4394 -2.1443 -2.0200
 8209SOL    HW236087   2.623   4.501   0.323 -3.0422 -0.2547 -0.0277
 8210SOL     OW36088   0.138   1.555   8.690  0.1844  0.1248 -0.7890
 8210SOL    HW136089   0.119   1.589   8.777  0.3347 -1.0163 -0.3145
 8210SOL    HW236090   0.059   1.504   8.673  0.4618 -0.7279  0.4594
 8211SOL     OW36091   1.431   4.386  11.718  0.2912 -0.3667  0.3458
 8211SOL    HW136092   1.444   4.293  11.699 -0.6511 -0.5224  0.4852
 8211SOL    HW236093   1.375   4.404  11.642  0.4970  2.9100  0.9630
 8212SOL     OW36094   4.271   0.763  12.473 -0.0215 -0.8216  0.4365
 8212SOL    HW136095   4.278   0.825  12.400 -1.7382 -2.0924 -0.7861
 8212SOL    HW236096   4.302   0.812  12.550  0.8895  3.2252 -2.4787
 8213SOL     OW36097   3.594   2.017   6.993  0.2714 -0.2134  0.3349
 8213SOL    HW136098   3.577   1.930   6.958  1.1392  0.3627 -1.5402
 8213SOL    HW236099   3.570   2.010   7.086 -2.3397 -0.6753 -0.3665
 8214SOL     OW36100   1.569   1.326  12.826  0.5108  0.1461 -0.1135
 8214SOL    HW136101   1.585   1.331  12.731 -0.4076  0.0792 -0.2730
 8214SOL    HW236102   1.474   1.314  12.829  0.5201 -0.3305 -1.4985
 8215SOL     OW36103   3.210   1.508  17.065 -0.2811 -0.4975  0.1545
 8215SOL    HW136104   3.203   1.468  16.979  0.9608 -0.0267 -0.1584
 8215SOL    HW236105   3.194   1.598  17.036  1.2996  0.1380  1.2219
 8216SOL     OW36106   1.710   2.359   6.166  0.3514 -0.4310 -0.6829
 8216SOL    HW136107   1.754   2.427   6.218  0.0204  1.4673 -2.8783
 8216SOL    HW236108   1.654   2.326   6.236  0.0938 -0.4036 -0.8758
 8217SOL     OW36109   0.998   1.442   3.852  0.2002 -0.3869  0.0201
 8217SOL    HW136110   0.987   1.438   3.757  0.3029 -1.4266  0.0535
 8217SOL    HW236111   0.921   1.396   3.884 -0.6042  1.0741  0.1983
 8218SOL     OW36112   4.141   1.001   4.211  0.2788 -0.3067 -0.1517
 8218SOL    HW136113   4.053   0.964   4.217 -0.2944  1.0107 -0.4512
 8218SOL    HW236114   4.132   1.082   4.262  0.6780 -0.2392 -0.1883
 8219SOL     OW36115   0.240   3.743   7.274  0.7281  0.1969 -0.0291
 8219SOL    HW136116   0.293   3.664   7.264  1.6316  0.6703  0.9332
 8219SOL    HW236117   0.189   3.709   7.348 -0.1199  3.0486  0.7241
 8220SOL     OW36118   1.136   1.123   0.356  0.1968 -0.6704 -0.2325
 8220SOL    HW136119   1.201   1.143   0.289  0.8285 -0.7346  0.3638
 8220SOL    HW236120   1.063   1.086   0.306  1.1876  0.2918 -2.3851
 8221SOL     OW36121   1.436   1.200  12.169  0.8325 -0.0383 -0.0111
 8221SOL    HW136122   1.406   1.161  12.087  2.2098  0.0876 -0.5733
 8221SOL    HW236123   1.502   1.139  12.204 -0.6026 -1.9533 -0.6452
 8222SOL     OW36124   0.891   3.957   9.351 -0.4899 -0.5615  0.3125
 8222SOL    HW136125   0.848   4.021   9.409 -0.3876  1.5889 -1.9756
 8222SOL    HW236126   0.979   3.993   9.360 -0.5820  0.0239 -1.0962
 8223SOL     OW36127   2.001   1.985   1.871  0.0952  0.6914 -0.3324
 8223SOL    HW136128   2.037   1.932   1.942  1.9857  3.3657  0.7495
 8223SOL    HW236129   1.963   1.913   1.821  1.7639 -1.8574  2.1025
 8224SOL     OW36130   1.147   0.063   3.926 -0.2157 -0.1593 -0.1135
 8224SOL    HW136131   1.068   0.009   3.932 -0.7082  0.5599 -0.0831
 8224SOL    HW236132   1.134   0.105   3.841 -0.7944 -1.6068 -0.7463
 8225SOL     OW36133   2.860   4.247   0.539  0.5552  0.9472  0.4919
 8225SOL    HW136134   2.947   4.280   0.516  0.5882  1.0224  0.7267
 8225SOL    HW236135   2.879   4.153   0.532  0.7284  1.2430 -3.4107
 8226SOL     OW36136   2.555   1.087   7.247 -0.4046  0.5807  0.2220
 8226SOL    HW136137   2.462   1.097   7.228 -0.4131  1.4083  0.7123
 8226SOL    HW236138   2.585   1.176   7.230 -0.8390  0.8933  1.0954
 8227SOL     OW36139   3.225   0.508   4.111  0.1240 -0.5324  0.0511
 8227SOL    HW136140   3.285   0.474   4.045  0.9961  0.6655  0.2215
 8227SOL    HW236141   3.264   0.595   4.123 -0.5694 -0.0713 -1.0570
 8228SOL     OW36142   2.297   2.242  16.886  0.2381 -0.4183 -0.3812
 8228SOL    HW136143   2.308   2.337  16.881  1.0039 -0.5782 -1.6953
 8228SOL    HW236144   2.215   2.233  16.936 -0.7441  0.7443 -1.7803
 8229SOL     OW36145   3.867   0.562   9.071 -0.6070 -0.3881  0.2950
 8229SOL    HW136146   3.958   0.544   9.096  0.3243 -0.0980 -2.9606
 8229SOL    HW236147   3.871   0.636   9.010  0.3422 -0.0897  0.7022
 8230SOL     OW36148   0.801   4.476  13.819 -0.3291 -0.5495 -0.3583
 8230SOL    HW136149   0.842   4.432  13.744 -0.3144 -0.0801 -0.6253
 8230SOL    HW236150   0.801   4.409  13.887 -0.6556 -2.1726 -1.9452
 8231SOL     OW36151   1.362   2.654  15.130 -0.0593 -0.1810  0.7813
 8231SOL    HW136152   1.391   2.675  15.041 -0.7113  0.6702  0.7663
 8231SOL    HW236153   1.278   2.701  15.134 -1.0747 -1.9371 -0.1895
 8232SOL     OW36154   1.872   4.083   2.005  0.2285 -0.2794  0.1392
 8232SOL    HW136155   1.923   4.028   2.065 -0.1252 -2.5589 -1.6613
 8232SOL    HW236156   1.897   4.170   2.036  2.0531 -0.6175 -0.3441
 8233SOL     OW36157   3.475   0.312   8.086 -0.3671  0.0517 -0.0969
 8233SOL    HW136158   3.506   0.338   8.000  1.5266 -1.3975  0.1356
 8233SOL    HW236159   3.382   0.327   8.067 -0.1710  0.2034 -0.9110
 8234SOL     OW36160   0.161   0.321   5.910  0.3914  0.1550  0.2442
 8234SOL    HW136161   0.115   0.321   5.826  0.9362  0.6961 -0.0505
 8234SOL    HW236162   0.108   0.275   5.975 -1.5008  1.1258 -0.6360
 8235SOL     OW36163   3.885   3.653   1.332  0.2064 -0.8831  0.2135
 8235SOL    HW136164   3.979   3.662   1.316 -0.0123  0.7269 -0.2363
 8235SOL    HW236165   3.839   3.711   1.271 -1.5759 -4.9119 -2.2084
 8236SOL     OW36166   2.720   4.686   2.888 -0.2529 -0.5671 -0.1381
 8236SOL    HW136167   2.641   4.630   2.887  0.5234 -1.7612  3.4534
 8236SOL    HW236168   2.791   4.628   2.917  1.0295  0.3901 -1.4030
 8237SOL     OW36169   4.458   1.909   3.450  0.0438  0.3706  0.6183
 8237SOL    HW136170   4.476   1.953   3.534 -5.0465  1.5765  1.0685
 8237SOL    HW236171   4.524   1.942   3.389  1.8285 -0.7179  1.9378
 8238SOL     OW36172   3.564   1.204   2.359 -0.5016  0.6446 -0.5316
 8238SOL    HW136173   3.566   1.192   2.454 -3.4244  0.8374 -0.4617
 8238SOL    HW236174   3.471   1.205   2.339 -0.0391 -3.4391 -2.9164
 8239SOL     OW36175   2.148   0.913   6.554  0.2152 -0.1792  0.8399
 8239SOL    HW136176   2.153   0.908   6.649 -1.7097  1.1160  1.0011
 8239SOL    HW236177   2.105   0.997   6.537  0.7923 -0.0341  0.0497
 8240SOL     OW36178   0.559   1.344   8.981  0.1878  0.2153  0.8642
 8240SOL    HW136179   0.620   1.393   9.036  1.4878  0.2076 -0.5933
 8240SOL    HW236180   0.487   1.339   9.045 -1.2306 -1.9682 -0.9104
 8241SOL     OW36181   3.306   4.623  17.561 -0.7402  0.0787  0.2577
 8241SOL    HW136182   3.266   4.615  17.648  0.0546  0.7703  0.6910
 8241SOL    HW236183   3.345   4.711  17.565  0.0142 -0.2290 -0.3674
 8242SOL     OW36184   1.593   2.526  14.718 -0.3176  0.2208  0.1786
 8242SOL    HW136185   1.684   2.517  14.745 -0.6265 -0.5257  0.9658
 8242SOL    HW236186   1.577   2.443  14.673 -0.1555  0.2363  0.0934
 8243SOL     OW36187   1.751   0.209   3.190 -0.0482  0.2654  0.0190
 8243SOL    HW136188   1.692   0.214   3.115 -0.1462 -1.1167 -0.0027
 8243SOL    HW236189   1.823   0.149   3.171 -0.6945 -1.3856  2.8036
 8244SOL     OW36190   4.640   4.297   8.441  0.0273  0.3897  0.0174
 8244SOL    HW136191   4.701   4.367   8.418  0.0637  0.0458 -0.9276
 8244SOL    HW236192   4.686   4.214   8.436  0.6149  0.6115  1.9059
 8245SOL     OW36193   1.060   1.348   5.202 -0.2037  0.8070 -0.1258
 8245SOL    HW136194   1.043   1.256   5.222  2.0376  0.7324  1.3925
 8245SOL    HW236195   1.004   1.393   5.264 -0.9424 -1.0183  0.5400
 8246SOL     OW36196   3.004   3.522   9.710  0.1845 -0.0417  0.2824
 8246SOL    HW136197   2.921   3.565   9.691  0.1121 -0.3901 -0.1813
 8246SOL    HW236198   2.979   3.460   9.778 -0.6367  1.8321  1.6824
 8247SOL     OW36199   0.124   3.735   3.810  0.0648 -0.4649 -0.2033
 8247SOL    HW136200   0.142   3.742   3.904 -2.1335 -1.1486  0.2646
 8247SOL    HW236201   0.154   3.821   3.780  0.7246 -0.2586  1.0422
 8248SOL     OW36202   2.164   4.217  13.321  0.0807 -0.1351 -0.4988
 8248SOL    HW136203   2.200   4.306  13.325 -1.3271  0.4338 -0.2081
 8248SOL    HW236204   2.070   4.231  13.336  0.4732  0.2106  1.6989
 8249SOL     OW36205   3.418   2.215  16.079 -0.1659  0.2063  0.5384
 8249SOL    HW136206   3.444   2.302  16.108 -0.1209  0.2475  0.3764
 8249SOL    HW236207   3.330   2.220  16.041 -0.2025  0.5891  0.6801
 8250SOL     OW36208   1.810   1.072   2.276 -0.7773 -0.1429  0.1328
 8250SOL    HW136209   1.891   1.022   2.268 -1.9068 -1.4789 -2.7930
 8250SOL    HW236210   1.820   1.095   2.369  2.1908 -1.3342  0.0998
 8251SOL     OW36211   4.668   2.096   2.235 -0.4630 -0.4807 -0.1813
 8251SOL    HW136212   0.023   2.045   2.205  0.8694  1.2705  0.1191
 8251SOL    HW236213   4.705   2.170   2.284  1.8327 -0.4325 -1.9965
 8252SOL     OW36214   3.753   1.338  17.433  0.2586  0.5023 -0.3921
 8252SOL    HW136215   3.821   1.334  17.365 -0.8910 -0.8551 -1.4620
 8252SOL    HW236216   3.731   1.245  17.445  1.2930  0.5078  1.6370
 8253SOL     OW36217   3.152   3.526   7.386 -0.1768 -0.0319  0.0446
 8253SOL    HW136218   3.214   3.486   7.325  1.2056 -0.5467  1.7955
 8253SOL    HW236219   3.078   3.474   7.357 -1.0229  1.2206 -0.0387
 8254SOL     OW36220   4.134   4.492   7.633 -0.1144 -0.0738 -0.3302
 8254SOL    HW136221   4.120   4.532   7.719 -3.0194  1.5952 -1.5778
 8254SOL    HW236222   4.043   4.472   7.613 -0.5618  2.1957 -0.5710
 8255SOL     OW36223   2.749   3.973   0.473 -0.2576  0.5463  0.1428
 8255SOL    HW136224   2.778   3.929   0.552  0.4792  0.0008 -0.4356
 8255SOL    HW236225   2.701   3.904   0.428  0.5534  0.5493 -0.7259
 8256SOL     OW36226   0.380   1.319  10.507  0.3515 -0.3938  0.0230
 8256SOL    HW136227   0.371   1.224  10.513 -0.7238 -0.2653  0.3803
 8256SOL    HW236228   0.292   1.341  10.537  0.6856 -0.1455  0.8200
 8257SOL     OW36229   0.302   2.808  16.799 -0.0228 -0.6950  0.9175
 8257SOL    HW136230   0.237   2.805  16.728  1.6661 -2.4622 -0.5354
 8257SOL    HW236231   0.379   2.822  16.744 -0.5310  0.3508  0.4671
 8258SOL     OW36232   1.124   3.690  10.761 -0.2386  0.4329  0.3203
 8258SOL    HW136233   1.131   3.667  10.854 -1.2407 -0.5244  0.1479
 8258SOL    HW236234   1.127   3.608  10.713 -0.5007 -0.4755  1.8401
 8259SOL     OW36235   3.070   2.322  16.910  0.5979 -0.6346 -0.3055
 8259SOL    HW136236   3.107   2.351  16.826  0.4471 -0.3317 -0.2706
 8259SOL    HW236237   3.007   2.252  16.891 -0.4878  0.2811 -0.1009
 8260SOL     OW36238   4.718   2.062   0.170 -0.3445  0.0032 -0.0939
 8260SOL    HW136239   4.683   2.123   0.105  1.3177 -0.4583 -1.4400
 8260SOL    HW236240   0.049   1.998   0.122  0.1456 -1.5182  2.4772
 8261SOL     OW36241   4.176   0.715   6.209  0.0652  0.2471  1.0081
 8261SOL    HW136242   4.173   0.714   6.114  1.3899  0.9432  0.9546
 8261SOL    HW236243   4.184   0.807   6.232  0.6942  0.2484  0.7903
 8262SOL     OW36244   2.924   3.488   2.561  0.1138  0.1609  0.3552
 8262SOL    HW136245   2.941   3.444   2.644 -2.3006  2.2741  1.9667
 8262SOL    HW236246   2.832   3.505   2.581  0.2407  1.5907 -0.2948
 8263SOL     OW36247   4.440   2.126  11.245 -0.3113  0.4365 -0.0446
 8263SOL    HW136248   4.374   2.193  11.230  0.8367  1.1059 -2.0489
 8263SOL    HW236249   4.391   2.045  11.251 -0.9997  1.0688  2.9859
 8264SOL     OW36250   0.802   1.934  13.973  0.1693  0.6614 -0.5711
 8264SOL    HW136251   0.832   1.843  13.985 -2.2949 -0.3865 -2.3714
 8264SOL    HW236252   0.726   1.927  13.915  0.1736  0.8454 -0.5996
 8265SOL     OW36253   0.675   2.442  13.215 -0.2613  0.7911 -0.3240
 8265SOL    HW136254   0.756   2.424  13.261  0.0949  1.7909 -0.5665
 8265SOL    HW236255   0.615   2.453  13.289 -0.9888 -0.5028 -0.7218
 8266SOL     OW36256   3.659   4.634   8.303  0.5240 -0.1055  0.4829
 8266SOL    HW136257   3.735   4.678   8.266 -0.2737  1.1765  0.3840
 8266SOL    HW236258   3.700   4.620   8.389 -0.7818 -0.3335  1.0625
 8267SOL     OW36259   2.432   2.625   4.568 -0.0947 -0.2417 -0.0768
 8267SOL    HW136260   2.394   2.557   4.513 -0.0407  0.0088 -0.4254
 8267SOL    HW236261   2.472   2.569   4.635  0.5043  0.8830  0.5054
 8268SOL     OW36262   0.704   3.302   6.729  0.3137  0.2670  0.1636
 8268SOL    HW136263   0.754   3.364   6.781  0.4994  0.0408  0.2525
 8268SOL    HW236264   0.775   3.241   6.713  0.8979  1.1772 -0.7003
 8269SOL     OW36265   2.452   1.953   2.363 -0.2879 -0.6160  0.5272
 8269SOL    HW136266   2.498   1.899   2.427 -0.5876 -1.0780  0.3524
 8269SOL    HW236267   2.410   1.888   2.307 -0.6317  0.4035 -0.4009
 8270SOL     OW36268   3.170   0.675  16.787 -0.3013 -0.4278 -0.1644
 8270SOL    HW136269   3.136   0.753  16.832  0.3244 -0.5982  0.6051
 8270SOL    HW236270   3.171   0.703  16.695 -0.6005 -0.4452 -0.1725
 8271SOL     OW36271   3.199   1.387   6.402  0.1157 -0.3180  0.2274
 8271SOL    HW136272   3.274   1.443   6.382 -1.0044  1.0798 -0.0516
 8271SOL    HW236273   3.229   1.297   6.393 -1.0120 -0.5181 -1.5847
 8272SOL     OW36274   3.877   4.505  15.989  0.8016 -0.3580  0.2882
 8272SOL    HW136275   3.826   4.473  16.063  0.6645  1.8788  1.1676
 8272SOL    HW236276   3.951   4.446  15.979  0.3008 -0.8752 -0.3304
 8273SOL     OW36277   1.053   0.230   9.611  0.0694 -0.0659 -0.9729
 8273SOL    HW136278   1.045   0.325   9.617  1.1704 -0.0741  0.7708
 8273SOL    HW236279   0.959   0.212   9.611  0.7082 -3.3527  0.5433
 8274SOL     OW36280   2.031   0.733  17.580  0.0432 -0.0340 -0.4955
 8274SOL    HW136281   1.980   0.810  17.606 -1.0387 -0.6018 -0.9270
 8274SOL    HW236282   2.104   0.770  17.531 -0.6576 -0.3410 -1.7915
 8275SOL     OW36283   2.876   0.420   1.813 -0.3005 -0.0430  0.0835
 8275SOL    HW136284   2.948   0.386   1.760  0.1119  0.8098  0.1091
 8275SOL    HW236285   2.837   0.488   1.758 -0.9315 -0.9480 -0.5907
 8276SOL     OW36286   3.298   0.984   3.495  0.2322 -0.2427 -0.3809
 8276SOL    HW136287   3.280   0.894   3.468 -0.5162 -0.0635 -0.4743
 8276SOL    HW236288   3.383   1.002   3.455  0.3437 -0.2978 -0.1744
 8277SOL     OW36289   2.968   1.436  16.023 -0.1333  0.3687  0.3358
 8277SOL    HW136290   2.933   1.430  15.934  0.0699 -1.5733  0.3934
 8277SOL    HW236291   3.042   1.493  16.002 -0.0224  0.4280  0.8862
 8278SOL     OW36292   3.251   3.990   4.439  0.1488  0.3668 -0.3649
 8278SOL    HW136293   3.182   4.007   4.504 -1.4574 -3.6045 -1.0187
 8278SOL    HW236294   3.212   4.051   4.376 -1.5468 -1.6565 -1.2713
 8279SOL     OW36295   3.544   3.585   8.674  0.0369 -0.0435  0.1256
 8279SOL    HW136296   3.482   3.595   8.601  0.9928  1.4297 -0.4845
 8279SOL    HW236297   3.601   3.519   8.634 -1.3030 -1.5271  0.6145
 8280SOL     OW36298   2.893   1.200  12.783  0.0404 -0.2329 -0.7246
 8280SOL    HW136299   2.863   1.286  12.753 -0.0117 -0.9024 -2.5831
 8280SOL    HW236300   2.966   1.224  12.840 -0.3398  2.0568 -1.2171
 8281SOL     OW36301   2.633   1.430   8.769 -0.0161 -0.2224  0.7838
 8281SOL    HW136302   2.616   1.368   8.699  0.7644 -0.6642  0.9807
 8281SOL    HW236303   2.620   1.510   8.718  0.1797 -0.3179  0.5869
 8282SOL     OW36304   4.624   3.598  15.106 -0.3179  0.3666  0.1560
 8282SOL    HW136305   4.617   3.503  15.091 -1.3929  0.8040 -2.2079
 8282SOL    HW236306   4.685   3.608  15.033 -0.1070  0.8065  0.3972
 8283SOL     OW36307   2.091   1.989   8.313  0.0578 -0.3651  0.1532
 8283SOL    HW136308   2.021   1.925   8.307 -1.0684  0.7571  1.3600
 8283SOL    HW236309   2.161   1.954   8.258 -0.3348 -1.4040  0.3291
 8284SOL     OW36310   4.557   0.959   1.197 -0.2608  0.0585 -0.7488
 8284SOL    HW136311   4.472   0.927   1.168 -0.0272  1.9538 -3.5103
 8284SOL    HW236312   4.544   0.977   1.290 -0.1584  2.5079 -1.2018
 8285SOL     OW36313   2.510   0.011   1.380  0.3709  0.4160 -0.3022
 8285SOL    HW136314   2.536   4.660   1.439  1.0672  1.2272  0.3678
 8285SOL    HW236315   2.434   4.690   1.338 -0.1536  2.1349 -1.0338
 8286SOL     OW36316   3.357   2.599   2.688  0.2147  0.6435  0.4915
 8286SOL    HW136317   3.451   2.582   2.691  0.8256  3.6278 -1.8258
 8286SOL    HW236318   3.330   2.584   2.598  1.5713  0.3816  0.1214
 8287SOL     OW36319   2.090   0.794   9.269  0.0583 -0.2779 -0.3924
 8287SOL    HW136320   2.040   0.811   9.188 -0.2286  2.7041  0.4319
 8287SOL    HW236321   2.129   0.878   9.290 -0.7889  0.0525 -0.1568
 8288SOL     OW36322   2.040   4.257   1.211  0.6280  0.1146 -0.3184
 8288SOL    HW136323   2.037   4.294   1.300  1.1595 -0.5452 -0.0337
 8288SOL    HW236324   1.965   4.303   1.172  0.5796  1.0245  0.8381
 8289SOL     OW36325   2.495   1.286  13.742  0.3095 -0.6442  0.4206
 8289SOL    HW136326   2.577   1.292  13.694  0.6517  1.2701  1.2557
 8289SOL    HW236327   2.426   1.295  13.676  0.1714 -2.3714  0.3252
 8290SOL     OW36328   1.509   0.547   1.588 -0.7492  0.0548  0.4575
 8290SOL    HW136329   1.469   0.627   1.623  0.6790  0.5832  0.8925
 8290SOL    HW236330   1.493   0.571   1.497 -0.9701  0.3340  0.5691
 8291SOL     OW36331   3.148   2.395  12.553  0.0448  0.2479  0.3209
 8291SOL    HW136332   3.132   2.392  12.647  1.7379 -2.1416  0.5208
 8291SOL    HW236333   3.122   2.305  12.531  1.6206 -0.6649  2.1463
 8292SOL     OW36334   1.765   2.526  12.657  0.4950 -0.2860 -0.0845
 8292SOL    HW136335   1.829   2.588  12.621 -1.7385  1.9559 -0.1108
 8292SOL    HW236336   1.776   2.450  12.599 -2.1323  1.2425 -2.5685
 8293SOL     OW36337   2.483   2.893   4.525  0.2516 -0.2766  0.4651
 8293SOL    HW136338   2.471   2.798   4.527  0.2045 -0.2588  1.1281
 8293SOL    HW236339   2.436   2.915   4.605  1.2816  1.5546  0.5546
 8294SOL     OW36340   2.916   2.466   4.816  0.2072 -0.0304 -0.1206
 8294SOL    HW136341   2.826   2.477   4.784  0.4146 -0.3171 -0.8154
 8294SOL    HW236342   2.957   2.396   4.764 -1.7132 -2.8967  2.1897
 8295SOL     OW36343   4.176   2.712   7.615 -0.2741  0.0772  0.3846
 8295SOL    HW136344   4.184   2.768   7.537  0.5170  1.1425  1.2294
 8295SOL    HW236345   4.207   2.772   7.682 -0.5343 -1.6722  2.0686
 8296SOL     OW36346   1.400   1.856   6.997 -0.2871 -0.6681 -0.0995
 8296SOL    HW136347   1.331   1.791   7.008 -2.4869  1.6758  0.1427
 8296SOL    HW236348   1.467   1.794   6.968 -0.0596 -0.5037  0.0763
 8297SOL     OW36349   2.152   0.895   5.602  0.4803 -0.0840 -0.1592
 8297SOL    HW136350   2.121   0.819   5.653 -2.3504  1.5340  0.5509
 8297SOL    HW236351   2.230   0.929   5.645  0.9106 -1.3355  0.0543
 8298SOL     OW36352   4.588   0.746  15.140 -0.0675 -0.1862  0.0960
 8298SOL    HW136353   4.502   0.788  15.135  1.5535  2.8509 -2.6239
 8298SOL    HW236354   4.633   0.799  15.206 -0.0866 -1.3627  1.0515
 8299SOL     OW36355   4.344   2.870   6.908  0.2035 -0.2122 -0.3693
 8299SOL    HW136356   4.422   2.883   6.854  0.4066  1.1674  0.2348
 8299SOL    HW236357   4.315   2.780   6.898 -2.2088  0.1403  3.6199
 8300SOL     OW36358   0.712   0.478   0.544 -0.1970 -0.1344  0.2666
 8300SOL    HW136359   0.743   0.403   0.494 -0.2276  0.8401 -1.1913
 8300SOL    HW236360   0.738   0.551   0.488 -0.5564 -0.3561 -0.1895
 8301SOL     OW36361   2.893   0.542  15.538  0.2258  0.1204  0.1521
 8301SOL    HW136362   2.868   0.631  15.560  1.1625  0.7112 -1.1976
 8301SOL    HW236363   2.818   0.488  15.567  0.4415 -0.3141 -0.0885
 8302SOL     OW36364   0.149   0.741  12.627  1.0056  0.1365  0.5130
 8302SOL    HW136365   0.158   0.653  12.590 -1.6407  0.2933 -0.5433
 8302SOL    HW236366   0.190   0.789  12.555  0.2996 -1.4285 -0.9335
 8303SOL     OW36367   1.059   0.728  11.636  0.1426  0.3892 -0.0636
 8303SOL    HW136368   1.053   0.647  11.687  0.3582 -0.9395 -2.1458
 8303SOL    HW236369   1.069   0.697  11.545 -0.4622 -1.8108  0.6149
 8304SOL     OW36370   1.292   1.508  12.532  0.8297 -0.2916 -0.0698
 8304SOL    HW136371   1.363   1.452  12.563  1.0273 -0.7857 -1.4305
 8304SOL    HW236372   1.304   1.589  12.582  2.5779  0.7497 -2.1897
 8305SOL     OW36373   0.728   1.307   3.325 -0.2371  0.0755  0.5602
 8305SOL    HW136374   0.634   1.289   3.321 -0.5000  1.7785 -0.7683
 8305SOL    HW236375   0.731   1.401   3.344 -2.9181  0.3529 -0.4930
 8306SOL     OW36376   4.430   1.210  15.949 -0.0553 -0.1110 -0.4334
 8306SOL    HW136377   4.444   1.115  15.944 -0.2404 -0.1175 -0.8135
 8306SOL    HW236378   4.406   1.241  15.861  0.7770 -3.0712 -1.7159
 8307SOL     OW36379   0.689   1.359   6.326 -0.2458  0.5354 -0.1638
 8307SOL    HW136380   0.768   1.398   6.363  0.1371  0.4950 -0.9320
 8307SOL    HW236381   0.637   1.346   6.405  1.2585  0.1035  0.7495
 8308SOL     OW36382   2.980   2.628   7.655 -0.4497 -0.4002  0.0605
 8308SOL    HW136383   2.929   2.635   7.575  1.3553  1.3557 -0.9443
 8308SOL    HW236384   2.956   2.713   7.693 -2.1004 -0.3011 -1.2190
 8309SOL     OW36385   1.401   4.451   0.441 -0.0811  0.2783  0.5554
 8309SOL    HW136386   1.379   4.492   0.525 -0.7764 -0.4919  0.7447
 8309SOL    HW236387   1.438   4.522   0.388 -0.8949  0.4285  0.1874
 8310SOL     OW36388   3.106   3.935  15.727  0.0417  0.1812  1.2024
 8310SOL    HW136389   3.081   3.930  15.819  1.0181  0.0502  1.4604
 8310SOL    HW236390   3.021   3.933  15.685 -0.3220  1.1495  1.8978
 8311SOL     OW36391   3.275   0.147  12.272 -0.1822  0.5114 -0.0056
 8311SOL    HW136392   3.261   0.241  12.259 -0.6452  0.5076  0.4906
 8311SOL    HW236393   3.298   0.164  12.363 -0.3571 -1.9006  0.4913
 8312SOL     OW36394   4.155   1.242   4.370 -0.6007  0.9023  0.0358
 8312SOL    HW136395   4.218   1.304   4.333 -0.5971 -0.3517 -2.0348
 8312SOL    HW236396   4.074   1.294   4.368 -0.0162  1.8090 -0.5093
 8313SOL     OW36397   3.418   3.858  16.719  0.4763  0.0010 -0.0944
 8313SOL    HW136398   3.379   3.799  16.654 -1.6121  1.4252 -0.1421
 8313SOL    HW236399   3.377   3.941  16.694 -1.8398 -2.1755 -3.4097
 8314SOL     OW36400   4.681   3.766   8.623  0.1252 -0.4670 -0.7173
 8314SOL    HW136401   4.647   3.703   8.687 -0.5963 -0.0738 -0.7161
 8314SOL    HW236402   0.051   3.773   8.656 -0.0725 -1.0148 -0.0614
 8315SOL     OW36403   2.251   3.354   2.285  0.1554 -0.2529  0.3228
 8315SOL    HW136404   2.327   3.306   2.316 -1.2245 -1.1372  2.3922
 8315SOL    HW236405   2.219   3.290   2.221  0.5517 -1.3885  1.2667
 8316SOL     OW36406   4.409   3.273  13.270  0.1725 -0.0690 -0.5272
 8316SOL    HW136407   4.411   3.178  13.256  0.4317 -0.4733  2.2749
 8316SOL    HW236408   4.414   3.277  13.365  1.0325 -0.4561 -0.5541
 8317SOL     OW36409   0.329   3.642   3.454  0.3234 -0.5305  0.2207
 8317SOL    HW136410   0.309   3.549   3.438 -0.8119 -0.6635  2.2844
 8317SOL    HW236411   0.371   3.654   3.540  0.5513 -0.4100  0.0920
 8318SOL     OW36412   0.831   1.334   6.703  0.1540 -0.1549 -0.2132
 8318SOL    HW136413   0.745   1.306   6.737  0.6927 -0.7600  0.6491
 8318SOL    HW236414   0.886   1.288   6.765  0.1203 -1.3019 -1.0294
 8319SOL     OW36415   0.642   0.623  11.267 -0.0491  0.4446 -0.0925
 8319SOL    HW136416   0.576   0.679  11.226  1.2004  0.6200 -1.8825
 8319SOL    HW236417   0.686   0.581  11.194 -0.5940  2.9073 -1.8470
 8320SOL     OW36418   0.317   4.071  17.268  0.4780 -0.3305 -0.5046
 8320SOL    HW136419   0.234   4.023  17.266  0.2340 -0.0528  2.4356
 8320SOL    HW236420   0.373   4.002  17.233  1.4553  0.1979 -0.0046
 8321SOL     OW36421   1.796   3.279   6.956  0.2153 -0.3541  0.1380
 8321SOL    HW136422   1.821   3.272   6.864  0.8331 -1.3909  0.3825
 8321SOL    HW236423   1.703   3.295   6.947  0.4543  0.5841 -0.6263
 8322SOL     OW36424   0.124   4.259   3.457 -0.3781 -0.1758 -0.0340
 8322SOL    HW136425   0.135   4.213   3.374  0.4520 -1.6863  0.9125
 8322SOL    HW236426   0.045   4.217   3.493 -0.7599  1.3790  0.9150
 8323SOL     OW36427   3.134   4.058   4.727 -0.9928  0.3961 -0.0106
 8323SOL    HW136428   3.053   4.007   4.721  0.6443 -2.0545 -1.4403
 8323SOL    HW236429   3.101   4.140   4.764  1.0433  2.1654 -2.0828
 8324SOL     OW36430   4.209   2.315   0.494 -0.0154  0.2934  0.2105
 8324SOL    HW136431   4.124   2.276   0.511 -0.3978  0.4514 -1.3474
 8324SOL    HW236432   4.207   2.336   0.401 -0.4268  0.3278  0.2286
 8325SOL     OW36433   4.099   2.222   3.180  0.0573  0.5680  0.4151
 8325SOL    HW136434   4.154   2.183   3.247  0.3015  0.2115  0.0055
 8325SOL    HW236435   4.088   2.154   3.114 -1.1116  0.9797  0.1758
 8326SOL     OW36436   1.758   3.179   4.026  0.4403 -0.3715 -0.0361
 8326SOL    HW136437   1.663   3.170   4.016  0.6113 -2.0934 -0.0311
 8326SOL    HW236438   1.755   3.192   4.121  1.1704  0.8300 -0.1709
 8327SOL     OW36439   1.352   0.247   8.649 -0.0056 -0.4749  0.1403
 8327SOL    HW136440   1.289   0.314   8.626 -0.7852 -0.8467  1.1825
 8327SOL    HW236441   1.311   0.201   8.722  0.0308  1.0670  1.1180
 8328SOL     OW36442   3.266   3.521   7.960  0.3802 -0.3033  0.2900
 8328SOL    HW136443   3.264   3.561   8.047  1.1882 -1.7357  0.9604
 8328SOL    HW236444   3.292   3.432   7.985  2.4484 -0.1912 -1.5514
 8329SOL     OW36445   1.442   2.306  15.518 -0.4590  0.0834 -0.7131
 8329SOL    HW136446   1.497   2.241  15.474 -0.5040  0.6829 -1.6575
 8329SOL    HW236447   1.431   2.373  15.450 -0.7584  1.1565  0.3927
 8330SOL     OW36448   4.661   0.449   1.364  0.2276 -0.2776  0.5230
 8330SOL    HW136449   4.615   0.530   1.387 -0.0518 -0.2307 -0.2311
 8330SOL    HW236450   4.594   0.381   1.367  0.1379 -0.2200 -0.2698
 8331SOL     OW36451   2.031   4.662  14.851  0.5147  0.0052 -0.2009
 8331SOL    HW136452   1.971   4.707  14.791  0.7394 -1.9097 -1.8779
 8331SOL    HW236453   2.061   4.593  14.791 -0.2962  1.4311 -2.2394
 8332SOL     OW36454   2.318   0.482   3.556 -0.0483 -0.5967 -0.3127
 8332SOL    HW136455   2.353   0.560   3.513  0.6763 -1.2232 -0.8443
 8332SOL    HW236456   2.267   0.437   3.489 -1.2022  0.3528 -0.0760
 8333SOL     OW36457   0.201   3.881   0.385  0.0292  0.5987  0.1859
 8333SOL    HW136458   0.261   3.955   0.387 -0.2620  0.8327  0.3995
 8333SOL    HW236459   0.256   3.806   0.407  0.4644  0.9493  0.2982
 8334SOL     OW36460   2.510   4.681   7.090  0.1652  0.2401 -0.4352
 8334SOL    HW136461   2.427   4.685   7.043  0.5826  0.0522 -1.1825
 8334SOL    HW236462   2.553   0.032   7.043  1.3466  0.2118  0.5851
 8335SOL     OW36463   1.004   4.097   4.783 -0.3427  0.4424  0.0739
 8335SOL    HW136464   1.073   4.149   4.824 -0.1288  0.5228 -0.3950
 8335SOL    HW236465   0.958   4.149   4.717  1.2903 -0.0128 -1.4243
 8336SOL     OW36466   3.822   2.412   6.597 -0.6557 -0.1173  0.4699
 8336SOL    HW136467   3.826   2.492   6.545  0.3499  0.4338  1.3709
 8336SOL    HW236468   3.793   2.446   6.682 -1.2386 -2.0744  1.0595
 8337SOL     OW36469   3.004   3.011   3.965 -0.4913  0.1649  0.3774
 8337SOL    HW136470   3.026   2.936   4.021  0.9351  0.0338 -0.3434
 8337SOL    HW236471   2.988   3.078   4.032 -0.2564  0.1930  0.4081
 8338SOL     OW36472   3.738   1.008   2.249 -0.2318  0.0688 -0.3065
 8338SOL    HW136473   3.691   1.083   2.286  0.4001 -0.6042  1.8567
 8338SOL    HW236474   3.804   0.991   2.316 -0.1647 -0.9764 -0.6343
 8339SOL     OW36475   2.702   0.100   1.864  0.7012  0.1044  0.2714
 8339SOL    HW136476   2.640   0.058   1.923 -1.6270  0.4097 -1.9819
 8339SOL    HW236477   2.676   0.192   1.864 -0.3182 -0.1932  1.2684
 8340SOL     OW36478   0.576   3.959   5.419 -0.9188 -0.0838  0.0218
 8340SOL    HW136479   0.532   4.031   5.463 -1.5916 -1.1375  1.0841
 8340SOL    HW236480   0.625   3.927   5.495 -0.8179  1.2083  0.4899
 8341SOL     OW36481   2.524   1.649   8.095  0.0036 -0.3222  0.0272
 8341SOL    HW136482   2.603   1.614   8.054  1.1139  2.1152  0.0808
 8341SOL    HW236483   2.555   1.700   8.170 -2.0539  0.6257  0.2221
 8342SOL     OW36484   0.199   0.357   9.324 -0.1462  0.0361  0.6223
 8342SOL    HW136485   0.110   0.326   9.308 -0.1695 -0.6773  2.1586
 8342SOL    HW236486   0.245   0.318   9.250 -0.9977 -0.1828  0.2095
 8343SOL     OW36487   3.202   0.356   8.037 -0.4366 -0.3593  0.5638
 8343SOL    HW136488   3.233   0.418   7.971  0.5250 -0.1357  1.2241
 8343SOL    HW236489   3.119   0.396   8.063 -0.1430  0.7149 -0.1449
 8344SOL     OW36490   3.797   1.125   8.316 -0.2331 -0.2778  0.9348
 8344SOL    HW136491   3.815   1.095   8.226 -0.2679 -0.4270  0.9777
 8344SOL    HW236492   3.834   1.212   8.305 -0.8005 -0.0207  1.0633
 8345SOL     OW36493   3.435   2.618   3.827  0.7480  0.4384 -0.5747
 8345SOL    HW136494   3.469   2.563   3.756  0.4042 -0.5393  0.0180
 8345SOL    HW236495   3.492   2.694   3.834  0.4831  0.6328 -0.5008
 8346SOL     OW36496   1.568   4.078  10.514  0.5749 -0.0886 -0.6452
 8346SOL    HW136497   1.488   4.034  10.487  0.4803  0.8690 -1.9181
 8346SOL    HW236498   1.584   4.126  10.433 -0.9844 -1.5055 -1.8097
 8347SOL     OW36499   3.575   4.705   5.698  0.5704  0.3712  0.1908
 8347SOL    HW136500   3.662   4.664   5.705  0.9668  0.7982 -2.3097
 8347SOL    HW236501   3.597   0.078   5.688 -1.4722  1.0117  1.4973
 8348SOL     OW36502   2.415   2.592   5.673 -0.5394  0.3561  0.1041
 8348SOL    HW136503   2.470   2.530   5.626 -1.9377 -0.5879 -0.2816
 8348SOL    HW236504   2.342   2.537   5.700 -1.4473  2.1851  1.3958
 8349SOL     OW36505   2.794   3.942   5.497 -0.3524  0.4114 -0.3502
 8349SOL    HW136506   2.795   3.939   5.401 -0.3624  1.6363 -0.3893
 8349SOL    HW236507   2.757   4.030   5.504 -0.2578  0.4864 -0.7894
 8350SOL     OW36508   0.506   2.496   5.460  0.0307  0.2598  0.4754
 8350SOL    HW136509   0.572   2.546   5.509  0.3383 -0.8620  1.2096
 8350SOL    HW236510   0.563   2.457   5.393 -1.0629 -1.7211  0.7147
 8351SOL     OW36511   3.336   2.792   4.465 -0.0228 -0.3114  0.3904
 8351SOL    HW136512   3.395   2.855   4.506 -0.2285  1.0862 -1.4811
 8351SOL    HW236513   3.404   2.732   4.434 -0.3356 -0.2550 -0.4009
 8352SOL     OW36514   0.603   0.161   7.932 -0.3799 -0.5452 -0.1985
 8352SOL    HW136515   0.530   0.099   7.932 -2.5859  2.0589 -0.8823
 8352SOL    HW236516   0.599   0.206   7.848 -3.3372 -2.8128 -1.2690
 8353SOL     OW36517   1.043   1.929  10.381 -0.3898 -0.0000 -0.3044
 8353SOL    HW136518   1.050   1.968  10.294 -1.1643  1.2186  0.1788
 8353SOL    HW236519   0.950   1.910  10.392 -0.7034  1.5324 -0.2729
 8354SOL     OW36520   3.523   4.427   6.294  0.2663  0.4560  0.3858
 8354SOL    HW136521   3.552   4.343   6.259 -0.1130  0.4833  0.0101
 8354SOL    HW236522   3.592   4.463   6.349 -0.4574  0.5682  1.2256
 8355SOL     OW36523   0.570   1.261   3.717 -0.3136  0.1355  0.0851
 8355SOL    HW136524   0.601   1.171   3.709  1.6601  0.8068  0.0209
 8355SOL    HW236525   0.477   1.258   3.737 -0.0655 -0.5898  1.1343
 8356SOL     OW36526   4.022   0.658   3.292  0.3573 -0.0310  0.7557
 8356SOL    HW136527   3.990   0.658   3.202  1.0084  2.2316  0.5223
 8356SOL    HW236528   4.102   0.606   3.279 -0.1802 -1.0376  1.4448
 8357SOL     OW36529   2.981   0.083   1.858 -0.1862  0.6602 -0.2769
 8357SOL    HW136530   2.885   0.084   1.862 -0.2948 -0.9762 -2.3504
 8357SOL    HW236531   3.012   0.146   1.793  1.2557  1.2524  0.9659
 8358SOL     OW36532   2.380   2.242  11.369  0.8648 -0.2845 -0.0282
 8358SOL    HW136533   2.351   2.177  11.306 -1.5674  2.5071 -1.7873
 8358SOL    HW236534   2.457   2.266  11.317  2.2086  2.4921  3.2604
 8359SOL     OW36535   0.014   2.982   3.071  0.1174 -0.1817 -0.2148
 8359SOL    HW136536   4.679   2.907   3.094  2.0217 -1.7922 -0.9349
 8359SOL    HW236537   0.076   2.944   3.010 -0.0110 -1.2251  0.3177
 8360SOL     OW36538   2.144   1.473  11.676  0.9973 -0.0924  0.2165
 8360SOL    HW136539   2.070   1.471  11.615 -0.0665  0.8774  1.4716
 8360SOL    HW236540   2.094   1.487  11.756 -0.9467 -0.5201 -0.9393
 8361SOL     OW36541   3.449   4.158   9.466  0.1641 -0.6527  0.3293
 8361SOL    HW136542   3.502   4.079   9.473 -0.3291 -0.8658  1.5619
 8361SOL    HW236543   3.520   4.217   9.440 -0.2084 -0.3555 -0.0148
 8362SOL     OW36544   0.323   0.715   1.980 -0.1730 -0.2946 -0.3373
 8362SOL    HW136545   0.285   0.795   1.944 -0.2541  0.1104  0.6543
 8362SOL    HW236546   0.242   0.674   2.010 -0.6391 -1.3733 -3.1135
 8363SOL     OW36547   0.775   0.360   6.489  0.1515 -0.2427  0.2548
 8363SOL    HW136548   0.848   0.422   6.496  0.5799 -0.4876 -2.0562
 8363SOL    HW236549   0.698   0.416   6.485  0.8847  0.7860  0.2999
 8364SOL     OW36550   2.845   1.510  17.563  0.3019 -0.0466  0.3237
 8364SOL    HW136551   2.903   1.476  17.495  0.4641 -1.4140  1.1393
 8364SOL    HW236552   2.822   1.424  17.600 -2.1764  1.2819  1.9098
 8365SOL     OW36553   0.866   0.651   9.429 -0.0341 -0.3206  0.0815
 8365SOL    HW136554   0.875   0.641   9.334  1.5227 -2.1580  0.4357
 8365SOL    HW236555   0.771   0.643   9.431  0.0465 -1.0930  0.6345
 8366SOL     OW36556   2.524   1.927   4.796 -0.7278  0.7438  0.0124
 8366SOL    HW136557   2.540   1.833   4.798  0.6278  0.9995  0.8061
 8366SOL    HW236558   2.460   1.935   4.724  0.3419  1.7414 -0.8225
 8367SOL     OW36559   0.590   0.239   7.675  0.0976 -0.5309 -0.7442
 8367SOL    HW136560   0.683   0.255   7.689 -0.1330 -0.0228  0.1883
 8367SOL    HW236561   0.569   0.310   7.614 -3.0636  0.7879  1.8298
 8368SOL     OW36562   3.156   2.751   7.994  0.0498  0.7580  0.3470
 8368SOL    HW136563   3.219   2.780   7.928 -0.5912  0.7820 -0.2567
 8368SOL    HW236564   3.079   2.800   7.963 -1.1190 -1.2084  0.1573
 8369SOL     OW36565   2.535   1.209   4.592  0.1833  0.0762  0.2336
 8369SOL    HW136566   2.565   1.219   4.682  0.1826  0.5872  0.1774
 8369SOL    HW236567   2.608   1.160   4.554 -2.7711 -1.9243 -2.9405
 8370SOL     OW36568   3.437   1.777   5.077  0.3588  1.1483  0.4662
 8370SOL    HW136569   3.432   1.754   4.985  4.2137  0.3799  0.4494
 8370SOL    HW236570   3.440   1.871   5.057 -2.9659  1.4233  1.2284
 8371SOL     OW36571   1.709   1.191  13.038  0.4119 -0.5003  0.1139
 8371SOL    HW136572   1.676   1.244  12.967  1.8983 -1.6067 -1.4028
 8371SOL    HW236573   1.621   1.160  13.059  0.2556 -0.0437  0.1278
 8372SOL     OW36574   0.270   0.063   8.366 -0.5468 -0.6866 -0.5173
 8372SOL    HW136575   0.261   0.114   8.447 -2.3009 -0.8574 -0.6047
 8372SOL    HW236576   0.266   4.694   8.400  2.0488 -0.6770 -0.1398
 8373SOL     OW36577   3.996   3.362   3.229  0.2313 -0.0314 -0.7977
 8373SOL    HW136578   4.063   3.396   3.288 -0.2583 -0.0470 -0.2383
 8373SOL    HW236579   3.916   3.371   3.281  0.7683  2.2274 -0.3907
 8374SOL     OW36580   1.804   0.243  11.703  0.0922 -0.0536 -0.7336
 8374SOL    HW136581   1.747   0.315  11.731  0.1051 -1.6215  3.3293
 8374SOL    HW236582   1.890   0.282  11.720  0.5538 -0.0237 -3.2346
 8375SOL     OW36583   3.282   2.576   6.402  0.7206  0.0797 -0.0943
 8375SOL    HW136584   3.203   2.562   6.350  0.3359 -1.0850  0.8273
 8375SOL    HW236585   3.330   2.496   6.381  1.3563 -0.0660  1.9711
 8376SOL     OW36586   1.390   3.679   5.529 -0.7006  0.1317  0.5011
 8376SOL    HW136587   1.308   3.649   5.568 -0.3785  0.4180  1.3981
 8376SOL    HW236588   1.355   3.708   5.444  2.1114 -0.3481 -0.8416
 8377SOL     OW36589   2.653   3.934   5.193 -0.5175  0.0532  0.4046
 8377SOL    HW136590   2.741   3.961   5.167 -0.2166  0.0122  1.3544
 8377SOL    HW236591   2.605   3.950   5.112  1.2108  1.1030 -0.4079
 8378SOL     OW36592   0.364   3.513  17.458 -0.8874  0.2123 -0.7864
 8378SOL    HW136593   0.364   3.440  17.395  0.4740 -0.8996  0.4887
 8378SOL    HW236594   0.310   3.477  17.528 -3.6721 -0.4122 -3.2444
 8379SOL     OW36595   2.760   3.251   8.112 -1.0373  0.2101 -0.1735
 8379SOL    HW136596   2.775   3.240   8.206  2.7080 -0.9171 -0.9104
 8379SOL    HW236597   2.845   3.274   8.077 -0.2331 -1.9357  0.3747
 8380SOL     OW36598   0.909   4.604   4.001 -0.4880  0.6077 -0.5337
 8380SOL    HW136599   0.817   4.622   3.982 -0.5899 -0.7263 -1.3603
 8380SOL    HW236600   0.908   4.612   4.096  1.2032 -1.5922 -0.3266
 8381SOL     OW36601   3.963   4.006  17.069 -0.3739 -0.5965  0.3011
 8381SOL    HW136602   4.016   3.949  17.013  1.1311  1.3712 -0.2409
 8381SOL    HW236603   3.929   3.932  17.119 -0.4948 -0.7673 -0.0291
 8382SOL     OW36604   4.253   1.341   6.141  0.2638  0.3996 -0.2267
 8382SOL    HW136605   4.234   1.363   6.232  0.1092 -2.4247  0.4446
 8382SOL    HW236606   4.301   1.416   6.108  1.3211  0.6424  1.9031
 8383SOL     OW36607   0.723   3.036   0.914 -0.2993  0.5222  0.0278
 8383SOL    HW136608   0.664   3.044   0.989  1.4083  0.4638  1.3597
 8383SOL    HW236609   0.806   3.035   0.961 -1.0026  0.2522  1.2690
 8384SOL     OW36610   0.986   1.425   6.294  0.4995 -0.4603  0.0900
 8384SOL    HW136611   0.997   1.501   6.352 -0.3880 -0.7609  0.6639
 8384SOL    HW236612   1.011   1.353   6.351 -1.9255 -1.3061  0.1054
 8385SOL     OW36613   4.649   1.508   5.993 -0.4854  0.5499 -0.0528
 8385SOL    HW136614   4.670   1.599   5.972  1.4979 -0.2912 -1.7126
 8385SOL    HW236615   0.012   1.467   6.016 -0.9349 -0.8441 -0.9159
 8386SOL     OW36616   4.557   0.895  16.402 -0.2533  0.3201  0.4488
 8386SOL    HW136617   4.488   0.855  16.454 -0.7191  1.3049  0.5995
 8386SOL    HW236618   4.542   0.990  16.406 -1.5539  0.0130  2.4548
 8387SOL     OW36619   2.166   3.432   6.978 -0.0143  0.3062  0.0819
 8387SOL    HW136620   2.149   3.417   6.885  1.5678 -0.9706 -0.0074
 8387SOL    HW236621   2.082   3.469   7.006 -1.6968 -1.7335 -2.2407
 8388SOL     OW36622   2.047   4.039   6.782  0.1695 -0.0578  0.3845
 8388SOL    HW136623   2.095   3.997   6.712 -1.5565 -0.2744 -0.6757
 8388SOL    HW236624   2.062   3.977   6.853  4.7667 -0.0859 -0.6297
 8389SOL     OW36625   3.733   4.595   5.384 -0.2153  0.3950 -0.1635
 8389SOL    HW136626   3.783   4.657   5.438  1.6164 -1.8588  0.6857
 8389SOL    HW236627   3.645   4.615   5.417  0.3663 -1.0845  2.2497
 8390SOL     OW36628   2.487   3.471  15.352 -0.0296 -1.1801  0.4908
 8390SOL    HW136629   2.480   3.564  15.331  0.9132 -0.9268  1.3007
 8390SOL    HW236630   2.398   3.440  15.367 -0.7901  1.1107  0.8115
 8391SOL     OW36631   1.692   4.412   2.397  0.3059 -0.0565 -0.0389
 8391SOL    HW136632   1.601   4.426   2.371 -0.1349 -2.1335  0.4185
 8391SOL    HW236633   1.735   4.484   2.350 -1.8558  0.9843 -0.4245
 8392SOL     OW36634   2.339   2.986  11.930 -0.1779 -0.6211  0.1239
 8392SOL    HW136635   2.367   3.006  12.019 -0.5022  0.0102  0.0841
 8392SOL    HW236636   2.250   3.020  11.938 -0.2721 -1.0676  0.9205
 8393SOL     OW36637   2.311   1.555  12.022 -0.0627 -0.2646  0.2552
 8393SOL    HW136638   2.290   1.621  11.956 -0.1131 -2.3363 -1.7933
 8393SOL    HW236639   2.287   1.598  12.104 -1.9450 -0.9889  0.0843
 8394SOL     OW36640   0.496   1.972   4.023  0.1875 -0.3434  0.0708
 8394SOL    HW136641   0.461   2.061   4.028 -1.0218 -0.7325 -1.5174
 8394SOL    HW236642   0.439   1.927   4.085  1.1424 -0.7140  0.6664
 8395SOL     OW36643   2.838   0.595   9.553 -0.2489 -0.4420  0.2214
 8395SOL    HW136644   2.872   0.546   9.479  1.1927 -1.0151  1.2602
 8395SOL    HW236645   2.775   0.655   9.513  3.2681  3.7244  0.9156
 8396SOL     OW36646   3.552   3.013   9.283 -0.5796  0.2788 -0.2118
 8396SOL    HW136647   3.648   3.013   9.288 -0.6037 -4.4618  0.7026
 8396SOL    HW236648   3.537   2.932   9.234  0.6946 -0.4295  0.5394
 8397SOL     OW36649   1.097   1.783  17.400 -0.5350 -0.0024  0.4661
 8397SOL    HW136650   1.062   1.764  17.487 -2.1535  0.8648 -0.0055
 8397SOL    HW236651   1.077   1.696  17.365 -1.1761  0.4524 -0.2807
 8398SOL     OW36652   2.101   0.166  14.380 -0.6501  0.2175  0.0071
 8398SOL    HW136653   2.049   0.241  14.352 -4.8591 -2.8547 -0.4259
 8398SOL    HW236654   2.185   0.185  14.340 -1.9688  1.5695 -2.0880
 8399SOL     OW36655   3.732   3.083   4.971 -0.1448  0.2321 -0.0755
 8399SOL    HW136656   3.782   3.002   4.955 -1.8019 -0.6950 -0.5070
 8399SOL    HW236657   3.747   3.127   4.887  1.2607 -0.2111 -0.0633
 8400SOL     OW36658   1.396   0.326  13.304  0.0351  0.1578 -0.4567
 8400SOL    HW136659   1.459   0.389  13.269  1.4127 -0.8294  0.2351
 8400SOL    HW236660   1.428   0.323  13.394 -0.2483 -1.2583 -0.3964
 8401SOL     OW36661   2.665   1.040  14.558  0.0790  0.4651  0.1994
 8401SOL    HW136662   2.747   1.038  14.608 -0.5331  2.8090  1.2922
 8401SOL    HW236663   2.618   1.122  14.572  0.3872  0.4844  1.1115
 8402SOL     OW36664   2.484   1.979   2.936 -0.1183  0.5405  0.3740
 8402SOL    HW136665   2.524   1.957   3.020  1.2868 -0.2166 -0.4808
 8402SOL    HW236666   2.400   1.933   2.934 -0.3716  1.1141 -3.4900
 8403SOL     OW36667   4.433   1.619  15.794  0.2318  0.2196 -0.4494
 8403SOL    HW136668   4.525   1.622  15.822  0.8664  4.3632 -3.0090
 8403SOL    HW236669   4.450   1.642  15.702 -2.0126  1.3449 -0.5665
 8404SOL     OW36670   1.940   2.519   2.616 -0.7418  0.0489 -0.5239
 8404SOL    HW136671   1.966   2.602   2.658 -0.6021 -0.0161 -0.4810
 8404SOL    HW236672   1.860   2.542   2.569 -1.6742 -0.1971  0.9278
 8405SOL     OW36673   1.394   4.043   8.800  0.2095  0.2855  0.6490
 8405SOL    HW136674   1.301   4.021   8.812  0.4524 -0.1683  1.6424
 8405SOL    HW236675   1.428   3.955   8.782 -0.3537 -0.0535  1.2374
 8406SOL     OW36676   3.781   2.513   4.341 -0.1489 -0.3870  0.3432
 8406SOL    HW136677   3.845   2.493   4.409  0.1175 -2.0301 -0.3846
 8406SOL    HW236678   3.825   2.481   4.263  1.7207 -1.3180  1.7683
 8407SOL     OW36679   4.083   1.030  13.615  0.0467  0.2696 -0.9138
 8407SOL    HW136680   4.168   1.057  13.580  0.8527 -2.6004 -1.1572
 8407SOL    HW236681   4.056   1.111  13.658  0.2645 -1.1958  1.9761
 8408SOL     OW36682   1.438   4.300   3.086  0.2767 -0.3179 -0.2114
 8408SOL    HW136683   1.354   4.296   3.133  0.0104 -1.1722 -0.7676
 8408SOL    HW236684   1.438   4.216   3.042  2.1833  0.4898 -1.7506
 8409SOL     OW36685   3.215   4.129  13.293 -0.5064 -0.0542 -0.1455
 8409SOL    HW136686   3.300   4.151  13.254  0.4891 -1.9455  0.9523
 8409SOL    HW236687   3.216   4.033  13.298 -0.9393  0.0265  1.3993
 8410SOL     OW36688   3.009   3.882   7.023  0.1731  0.4827 -0.5304
 8410SOL    HW136689   2.996   3.837   7.107  0.1045 -1.4168 -1.5578
 8410SOL    HW236690   3.100   3.911   7.019  0.0665  0.8783 -0.1181
 8411SOL     OW36691   4.435   3.202   8.464 -0.1159 -0.0896  0.1633
 8411SOL    HW136692   4.389   3.286   8.461  1.3729  0.7752  1.6015
 8411SOL    HW236693   4.524   3.229   8.486  0.8731 -0.8033 -2.8834
 8412SOL     OW36694   3.292   3.679   9.246  0.5578 -0.1080  0.8080
 8412SOL    HW136695   3.265   3.642   9.330 -0.0373 -0.7350  0.3286
 8412SOL    HW236696   3.386   3.662   9.244  0.5384 -0.6776  3.9004
 8413SOL     OW36697   1.485   3.761   9.028  0.0244 -0.0407 -0.7223
 8413SOL    HW136698   1.417   3.816   9.068 -0.7285 -3.1375  2.2992
 8413SOL    HW236699   1.502   3.816   8.952  3.8874 -1.4095 -0.8412
 8414SOL     OW36700   4.388   2.377  13.041  0.4761  0.0023  0.7662
 8414SOL    HW136701   4.479   2.402  13.025  1.1531 -1.5503  2.1670
 8414SOL    HW236702   4.360   2.358  12.952 -0.1644  1.7568  0.5877
 8415SOL     OW36703   1.178   1.939   4.540 -0.1691 -0.2313  0.0664
 8415SOL    HW136704   1.089   1.961   4.513 -0.3616 -0.3282  0.6238
 8415SOL    HW236705   1.232   2.017   4.530 -0.0770 -0.2554  0.3701
 8416SOL     OW36706   1.463   3.166   2.650  0.5605  0.3292 -0.5676
 8416SOL    HW136707   1.530   3.180   2.716  0.5455 -0.8279 -0.3044
 8416SOL    HW236708   1.384   3.172   2.704  1.4811 -2.2083  1.0614
 8417SOL     OW36709   0.006   3.310   3.520  0.0838  0.2882  0.3294
 8417SOL    HW136710   0.028   3.300   3.612  2.4610  0.4792 -0.2143
 8417SOL    HW236711   4.632   3.323   3.521 -0.1607 -1.5018  0.5826
 8418SOL     OW36712   0.611   3.053   3.163  0.3783  0.5748 -0.3414
 8418SOL    HW136713   0.567   3.005   3.093 -2.8281  0.4780  1.7325
 8418SOL    HW236714   0.675   2.990   3.195 -0.4975  0.0364  0.3654
 8419SOL     OW36715   0.058   3.278   5.395 -0.1627 -0.0445 -0.7765
 8419SOL    HW136716   0.111   3.198   5.400  0.9748  0.9066  2.1610
 8419SOL    HW236717   4.689   3.248   5.379 -0.3743  0.4301 -0.5059
 8420SOL     OW36718   2.577   3.838  11.798 -0.4452  0.1808  0.0943
 8420SOL    HW136719   2.574   3.783  11.876  1.5459 -0.7034 -0.4469
 8420SOL    HW236720   2.484   3.858  11.791  0.1146  2.2323 -1.3863
 8421SOL     OW36721   2.076   1.748  11.650 -0.3672 -0.3251 -0.5458
 8421SOL    HW136722   2.139   1.812  11.617 -0.4596 -0.5162 -1.0835
 8421SOL    HW236723   2.010   1.801  11.695  0.7938  0.2948  0.4260
 8422SOL     OW36724   2.676   1.970  11.557  0.3361 -0.0706  0.5175
 8422SOL    HW136725   2.699   1.948  11.467 -2.2699  0.7443 -0.3592
 8422SOL    HW236726   2.581   1.983  11.559  0.2354 -0.6373 -1.1626
 8423SOL     OW36727   0.309   2.694   2.671 -0.3008  0.1931 -0.1259
 8423SOL    HW136728   0.392   2.676   2.715  1.1911  1.5038 -2.3813
 8423SOL    HW236729   0.332   2.728   2.585 -1.0143  0.1219 -0.3416
 8424SOL     OW36730   4.600   3.201   7.360  0.5123 -0.4111  0.1006
 8424SOL    HW136731   4.680   3.251   7.343 -0.8681  1.0227 -2.1146
 8424SOL    HW236732   4.620   3.135   7.293  1.2985  0.4265 -0.5029
 8425SOL     OW36733   0.317   0.529  15.985  0.0748  0.2891 -0.5240
 8425SOL    HW136734   0.407   0.538  16.015 -0.0336 -1.2484  0.2584
 8425SOL    HW236735   0.270   0.518  16.067  0.5674 -0.7516 -0.3755
 8426SOL     OW36736   0.835   1.929  16.240  0.5557 -0.0421 -0.1657
 8426SOL    HW136737   0.763   1.900  16.295 -1.1151 -0.1648 -2.4186
 8426SOL    HW236738   0.895   1.976  16.298 -0.0576  1.2907 -0.5912
 8427SOL     OW36739   4.233   1.922   1.304 -0.6982 -0.1654 -0.1003
 8427SOL    HW136740   4.317   1.915   1.349 -0.7125  0.1662 -0.0256
 8427SOL    HW236741   4.257   1.871   1.227  2.2717  0.8321  0.2079
 8428SOL     OW36742   1.861   3.194  11.310 -0.1571 -0.1823  0.1479
 8428SOL    HW136743   1.881   3.262  11.245 -0.4810 -0.8925 -0.7039
 8428SOL    HW236744   1.810   3.133  11.257 -0.5700 -0.2491  0.6303
 8429SOL     OW36745   1.958   2.164   8.514 -0.4219  0.6896 -0.0089
 8429SOL    HW136746   2.019   2.107   8.468 -1.1966  0.0417 -0.2332
 8429SOL    HW236747   2.024   2.231   8.530 -0.5592  0.7373  0.3649
 8430SOL     OW36748   0.555   3.064  13.745  0.0460 -0.5931 -0.2938
 8430SOL    HW136749   0.581   3.144  13.791  1.5105  0.3378 -2.7378
 8430SOL    HW236750   0.463   3.052  13.768  0.3333 -0.5079  0.8973
 8431SOL     OW36751   1.480   0.317   2.957  0.0152  0.1253  0.4086
 8431SOL    HW136752   1.558   0.264   2.939  0.5840  0.6433  1.3082
 8431SOL    HW236753   1.413   0.260   2.921  0.7965 -1.4804  1.4706
 8432SOL     OW36754   0.104   4.045  10.992  0.3565 -0.1354 -0.5295
 8432SOL    HW136755   0.173   4.086  10.940  2.0315  0.9977  2.5716
 8432SOL    HW236756   0.137   3.955  11.000  0.3037  0.1687  3.0872
 8433SOL     OW36757   1.134   2.835  15.118  0.3776  0.4700 -0.5917
 8433SOL    HW136758   1.157   2.920  15.078 -0.1587  0.3542 -1.1574
 8433SOL    HW236759   1.055   2.858  15.167 -0.9099 -3.7175 -0.7672
 8434SOL     OW36760   4.326   0.686  16.359 -0.3113  0.1213 -0.0140
 8434SOL    HW136761   4.272   0.607  16.361 -0.4400  0.1626 -1.5098
 8434SOL    HW236762   4.332   0.711  16.267  0.8237 -0.5881 -0.1336
 8435SOL     OW36763   2.147   3.197   0.981 -0.3774 -0.2227 -0.5580
 8435SOL    HW136764   2.228   3.152   1.004 -0.9206 -0.7303  0.3811
 8435SOL    HW236765   2.137   3.158   0.895 -0.5355 -0.0655 -0.6126
 8436SOL     OW36766   1.564   2.624   4.045  0.3577 -0.5110 -0.1313
 8436SOL    HW136767   1.585   2.538   4.080  0.0434 -0.4031  0.3265
 8436SOL    HW236768   1.526   2.662   4.124 -0.7783  0.4027 -1.1058
 8437SOL     OW36769   0.284   1.647   3.107 -0.5399 -0.4178 -0.0411
 8437SOL    HW136770   0.312   1.628   3.197 -0.6148 -1.3701 -0.2224
 8437SOL    HW236771   0.223   1.715   3.136  0.9930  1.1306 -0.4258
 8438SOL     OW36772   0.849   3.750  12.772  0.1453 -0.0826  0.4162
 8438SOL    HW136773   0.847   3.658  12.799 -2.7573 -0.6363 -1.6866
 8438SOL    HW236774   0.942   3.763  12.788  0.3777  1.6003 -2.4063
 8439SOL     OW36775   3.906   2.436   3.443  0.2315  0.1408 -0.2227
 8439SOL    HW136776   3.965   2.466   3.374 -0.1840 -0.5044 -0.8503
 8439SOL    HW236777   3.848   2.377   3.396 -2.9082  3.0934 -0.0371
 8440SOL     OW36778   4.392   0.310   6.821  0.0838 -0.1614 -0.0379
 8440SOL    HW136779   4.372   0.288   6.730 -0.0165  1.4178 -0.4083
 8440SOL    HW236780   4.414   0.403   6.819 -3.2824  0.6305  0.3087
 8441SOL     OW36781   3.895   3.498   2.323  0.3721 -0.3353  0.2275
 8441SOL    HW136782   3.843   3.418   2.311 -0.6617 -0.2553  4.1083
 8441SOL    HW236783   3.895   3.538   2.236 -1.1833 -2.2873 -0.6880
 8442SOL     OW36784   3.453   1.299   1.834 -0.4932 -0.6579  0.4791
 8442SOL    HW136785   3.526   1.352   1.865 -1.0887 -0.9805  2.4200
 8442SOL    HW236786   3.386   1.365   1.847  0.0729 -0.5970  3.0145
 8443SOL     OW36787   2.702   4.400  14.646 -0.1119 -0.1788 -0.1391
 8443SOL    HW136788   2.715   4.339  14.718  0.4299  1.2815  1.0196
 8443SOL    HW236789   2.758   4.469  14.683 -0.7240 -0.4517  1.2786
 8444SOL     OW36790   1.062   1.172   6.122 -0.1086  0.5620 -0.0614
 8444SOL    HW136791   1.068   1.086   6.081  2.1023  1.8144 -2.3832
 8444SOL    HW236792   0.967   1.179   6.131 -0.0760 -0.9489  1.5349
 8445SOL     OW36793   3.922   2.747  14.568 -0.0751  0.5999  0.2062
 8445SOL    HW136794   4.016   2.738  14.552  0.4978  4.4565  1.4016
 8445SOL    HW236795   3.911   2.678  14.633 -2.7560  0.1344 -0.7381
 8446SOL     OW36796   2.015   0.297   9.139  0.0863 -0.8029  0.6583
 8446SOL    HW136797   1.959   0.294   9.061  1.5548  1.7308 -0.4623
 8446SOL    HW236798   2.016   0.204   9.164  1.8104 -1.2749 -1.2479
 8447SOL     OW36799   2.380   0.068  14.631  0.0198  0.0769 -0.2150
 8447SOL    HW136800   2.388   0.153  14.588 -1.1328  0.0017 -0.5711
 8447SOL    HW236801   2.297   0.032  14.601 -0.6922  0.5577  1.1547
 8448SOL     OW36802   0.851   1.273   1.236  0.0609  0.0958  0.2630
 8448SOL    HW136803   0.885   1.317   1.314  0.2372  0.1058  0.1799
 8448SOL    HW236804   0.934   1.257   1.191  0.2807  0.5382  0.5142
 8449SOL     OW36805   2.293   1.874   2.016 -0.1177 -0.2739 -0.0552
 8449SOL    HW136806   2.286   1.860   1.921  3.0499  2.7366 -0.7536
 8449SOL    HW236807   2.284   1.784   2.044 -2.8643  0.0128 -0.0360
 8450SOL     OW36808   4.452   3.665  11.629 -0.8269 -0.6076 -0.5016
 8450SOL    HW136809   4.502   3.645  11.708  1.0532 -1.3177 -1.8593
 8450SOL    HW236810   4.477   3.752  11.598 -0.8435  0.0421  1.3002
 8451SOL     OW36811   4.651   1.199  16.225  0.3140 -0.3686 -0.0179
 8451SOL    HW136812   4.565   1.199  16.267 -0.1841 -1.4092 -1.0619
 8451SOL    HW236813   4.702   1.154  16.293 -1.5539 -0.2494  1.4345
 8452SOL     OW36814   3.796   0.396   7.353 -0.1381 -0.0499  0.5962
 8452SOL    HW136815   3.705   0.408   7.326  0.4412  1.2497 -0.8082
 8452SOL    HW236816   3.827   0.335   7.286 -1.7549 -0.8465  0.5843
 8453SOL     OW36817   4.382   0.741  10.264  0.1750  0.8849  0.0179
 8453SOL    HW136818   4.439   0.816  10.281 -0.3802  1.6967 -1.6693
 8453SOL    HW236819   4.366   0.714  10.354 -2.4084  1.9671 -0.0938
 8454SOL     OW36820   4.617   3.103   3.275 -0.5577  0.2419 -0.5546
 8454SOL    HW136821   4.631   3.041   3.204 -1.6395  1.4111 -1.7935
 8454SOL    HW236822   4.569   3.169   3.225 -0.3137 -0.3592 -1.5637
 8455SOL     OW36823   1.063   1.633   6.482 -0.0001  0.4343  0.0773
 8455SOL    HW136824   1.039   1.711   6.432  1.5242  1.9320  1.6796
 8455SOL    HW236825   1.158   1.634   6.493 -0.1740 -1.9737  1.8578
 8456SOL     OW36826   3.606   3.417  10.325 -0.7395 -0.8807  0.5118
 8456SOL    HW136827   3.592   3.457  10.411 -0.1803  0.5781 -0.0868
 8456SOL    HW236828   3.677   3.356  10.344 -0.2387 -0.6509 -0.6135
 8457SOL     OW36829   1.483   2.062   3.135  0.0639 -0.0524  0.4182
 8457SOL    HW136830   1.576   2.042   3.148  0.0949 -0.0252  0.2417
 8457SOL    HW236831   1.445   2.002   3.200 -0.4562 -1.2155 -0.9522
 8458SOL     OW36832   1.868   0.210  14.591 -0.6460  1.0919  0.3414
 8458SOL    HW136833   1.942   0.164  14.552  0.3754  1.3117  2.0295
 8458SOL    HW236834   1.799   0.147  14.571 -0.0406  1.0150 -1.5368
 8459SOL     OW36835   2.750   1.773   6.669 -0.1285 -0.7017  0.2414
 8459SOL    HW136836   2.707   1.690   6.688 -0.4693 -0.6110 -0.1516
 8459SOL    HW236837   2.681   1.830   6.704 -0.6657 -0.5839 -1.0311
 8460SOL     OW36838   2.353   0.488   6.653  0.2114 -0.1954  0.4318
 8460SOL    HW136839   2.274   0.540   6.663  0.8453  0.8828 -0.1448
 8460SOL    HW236840   2.327   0.396   6.643  0.3887 -0.2418  0.3901
 8461SOL     OW36841   0.911   3.608   0.907 -0.2211 -0.3265 -0.3263
 8461SOL    HW136842   0.919   3.642   0.818  0.1257  0.0925 -0.1408
 8461SOL    HW236843   0.872   3.522   0.896 -0.1263 -0.6153  1.5493
 8462SOL     OW36844   1.407   0.646   4.863 -0.1138  0.1469 -0.1465
 8462SOL    HW136845   1.322   0.665   4.903 -0.6993 -1.5719 -0.6262
 8462SOL    HW236846   1.462   0.665   4.939 -0.1778  2.4880 -0.6839
 8463SOL     OW36847   0.427   3.057   5.744  0.3171 -0.6872 -0.1410
 8463SOL    HW136848   0.503   3.013   5.782 -0.2534 -2.2788 -0.8074
 8463SOL    HW236849   0.459   3.095   5.663  1.4797 -0.0852  0.5943
 8464SOL     OW36850   4.594   0.328   4.833  0.0346  0.2519 -0.1201
 8464SOL    HW136851   4.588   0.292   4.745 -0.4984  1.0197 -0.3980
 8464SOL    HW236852   4.508   0.369   4.841 -0.7919 -1.2364 -1.4954
 8465SOL     OW36853   1.086   0.092  11.843 -0.0595 -0.1420 -0.3353
 8465SOL    HW136854   1.036   0.014  11.867  1.0210 -0.4392  0.9831
 8465SOL    HW236855   1.142   0.071  11.768 -0.9807 -2.6183 -0.3203
 8466SOL     OW36856   2.120   0.650   7.626 -0.2445  0.1604 -1.0353
 8466SOL    HW136857   2.041   0.599   7.608 -0.3131 -0.5127  1.1750
 8466SOL    HW236858   2.184   0.588   7.660 -3.1350 -0.9855  2.2774
 8467SOL     OW36859   4.024   3.562   8.345 -0.4002 -0.1645 -0.8103
 8467SOL    HW136860   3.950   3.541   8.288 -0.7987 -1.5439  0.2177
 8467SOL    HW236861   3.976   3.574   8.427  1.1762 -0.1001  0.0983
 8468SOL     OW36862   4.510   1.944  13.371  0.0873 -0.5607 -0.0968
 8468SOL    HW136863   4.503   1.885  13.296  0.7595 -0.4455 -0.2529
 8468SOL    HW236864   4.603   1.933  13.394 -0.0996 -0.6707  0.6211
 8469SOL     OW36865   0.346   1.995   6.655 -0.0675  0.3927 -0.2949
 8469SOL    HW136866   0.275   2.015   6.716 -0.3179 -1.2263 -0.0553
 8469SOL    HW236867   0.357   2.081   6.614  2.6117  0.3390  0.3513
 8470SOL     OW36868   4.484   1.331   7.182  0.6834 -0.4163 -0.5510
 8470SOL    HW136869   4.568   1.306   7.145  2.7196  2.6255  2.0896
 8470SOL    HW236870   4.429   1.256   7.159  0.0619 -0.4780  1.1199
 8471SOL     OW36871   2.685   1.761   6.039  0.0688  0.1392  1.1546
 8471SOL    HW136872   2.639   1.722   5.965  1.6191  2.4750 -1.0268
 8471SOL    HW236873   2.767   1.713   6.048 -0.2392 -0.7573 -0.8053
 8472SOL     OW36874   0.025   3.465   8.272  0.3748  0.5239 -0.4622
 8472SOL    HW136875   0.062   3.523   8.340  1.2415  2.1304 -2.3178
 8472SOL    HW236876   4.695   3.404   8.325 -1.4078  3.0791  0.7708
 8473SOL     OW36877   0.384   1.190   4.786  0.6182 -0.1113  0.0702
 8473SOL    HW136878   0.476   1.203   4.764  0.6734 -0.2545  0.2153
 8473SOL    HW236879   0.373   1.097   4.767 -1.0413  0.3632 -1.2409
 8474SOL     OW36880   2.770   2.845   4.013  0.0774  0.2196 -0.6237
 8474SOL    HW136881   2.810   2.826   3.928 -1.1951  0.3537 -1.2498
 8474SOL    HW236882   2.794   2.776   4.074  2.0085  0.4426 -1.1391
 8475SOL     OW36883   4.592   3.943   3.289 -0.0751 -0.1930  0.2732
 8475SOL    HW136884   4.587   3.851   3.262  0.1663 -0.3637  0.7937
 8475SOL    HW236885   4.515   3.979   3.246  0.8701  1.7691  0.2297
 8476SOL     OW36886   2.834   0.421   2.796  0.4066 -0.3758 -0.1404
 8476SOL    HW136887   2.911   0.436   2.742  0.3810 -0.1022 -0.0965
 8476SOL    HW236888   2.878   0.423   2.881  0.8328 -0.3772 -0.3615
 8477SOL     OW36889   1.842   0.270   2.108  0.0916 -0.2887 -0.3847
 8477SOL    HW136890   1.910   0.205   2.088  1.1999  0.3440  1.3082
 8477SOL    HW236891   1.843   0.344   2.047 -1.0779  0.2402  0.2464
 8478SOL     OW36892   0.859   1.792   3.221  0.2970 -0.3698  0.2427
 8478SOL    HW136893   0.783   1.806   3.164  1.8590  1.6186 -1.3490
 8478SOL    HW236894   0.853   1.868   3.278  0.8261 -1.8281  2.2542
 8479SOL     OW36895   2.748   4.105   0.767  0.1410  0.5333 -0.0434
 8479SOL    HW136896   2.780   4.193   0.750  0.5390  0.4788  0.4550
 8479SOL    HW236897   2.677   4.108   0.702 -2.5980 -3.5036  2.7599
 8480SOL     OW36898   3.724   4.491   6.473  0.0709  0.2227  0.2268
 8480SOL    HW136899   3.760   4.497   6.562 -0.5593 -1.5312  0.6160
 8480SOL    HW236900   3.722   4.580   6.439 -3.3249  0.1015  0.1782
 8481SOL     OW36901   0.027   2.107  13.085  0.2187 -0.6673 -0.5367
 8481SOL    HW136902   4.706   2.116  13.000 -2.1922  0.1042  0.7261
 8481SOL    HW236903   4.680   2.122  13.151  0.3076  0.4276 -0.7018
 8482SOL     OW36904   0.233   2.144   4.542 -0.3044  0.2329 -1.0672
 8482SOL    HW136905   0.261   2.210   4.478 -1.0031  1.0275 -0.5553
 8482SOL    HW236906   0.153   2.189   4.570  0.2434  1.7782 -2.0214
 8483SOL     OW36907   0.077   0.324  17.059  0.3971 -0.3141  0.0839
 8483SOL    HW136908   0.047   0.414  17.064 -1.6779 -0.9761 -0.4654
 8483SOL    HW236909   4.712   0.287  17.036  1.8885 -2.3190 -2.1797
 8484SOL     OW36910   1.705   1.002   3.485 -0.2589  0.4281  0.2630
 8484SOL    HW136911   1.765   1.063   3.441 -0.7045  1.8236  1.5749
 8484SOL    HW236912   1.751   0.918   3.484  1.9389  1.6213 -0.7304
 8485SOL     OW36913   3.455   3.189   6.561  0.1962  0.0617 -0.7029
 8485SOL    HW136914   3.492   3.154   6.480  0.0111  0.1217 -0.8125
 8485SOL    HW236915   3.364   3.167   6.542 -0.6795  4.1099 -1.0917
 8486SOL     OW36916   1.041   0.894  12.029  0.2300  0.1150 -0.4448
 8486SOL    HW136917   0.999   0.896  11.942  0.0125 -0.8684 -0.3657
 8486SOL    HW236918   1.031   0.987  12.048  2.1693  0.2964 -0.3349
 8487SOL     OW36919   1.283   3.613   8.320  0.1877 -0.0665 -0.1677
 8487SOL    HW136920   1.276   3.530   8.368 -3.7701 -0.4956 -1.4195
 8487SOL    HW236921   1.335   3.589   8.243 -0.1084 -3.1646  0.5776
 8488SOL     OW36922   0.459   3.332  11.151 -0.6922 -0.4942 -0.2518
 8488SOL    HW136923   0.428   3.284  11.227 -0.6736  1.2152  0.8342
 8488SOL    HW236924   0.420   3.419  11.164 -0.0117 -0.0165 -1.3718
 8489SOL     OW36925   4.043   1.985  15.485 -0.2569  0.3354  0.5751
 8489SOL    HW136926   4.087   1.933  15.552  0.3974  1.3955  0.9822
 8489SOL    HW236927   4.044   2.072  15.526 -1.3662 -0.1418  1.5818
 8490SOL     OW36928   1.398   0.710  10.493 -0.2535 -0.2015  0.2968
 8490SOL    HW136929   1.479   0.700  10.542 -0.1234 -0.8274 -0.0409
 8490SOL    HW236930   1.380   0.801  10.516  0.8017  0.1101 -0.1392
 8491SOL     OW36931   2.964   3.687  16.892  0.3293 -0.3121 -0.1740
 8491SOL    HW136932   3.017   3.631  16.948  1.1947 -0.2978 -0.9812
 8491SOL    HW236933   2.978   3.660  16.801  1.3355 -0.0020 -0.1008
 8492SOL     OW36934   1.278   0.464  13.703 -0.0985  0.1293 -0.2292
 8492SOL    HW136935   1.211   0.428  13.646  2.0092  0.4256 -2.9530
 8492SOL    HW236936   1.358   0.434  13.659 -0.4479  1.0013 -1.4550
 8493SOL     OW36937   1.066   2.742   5.621  0.0313  0.0650  0.7674
 8493SOL    HW136938   1.102   2.829   5.637 -2.1169  1.2695 -0.8497
 8493SOL    HW236939   1.087   2.708   5.708  0.1679  0.3355  0.8410
 8494SOL     OW36940   4.130   4.371   3.114  0.0251  0.2366 -0.5676
 8494SOL    HW136941   4.041   4.351   3.085 -1.1099 -0.4712  3.3476
 8494SOL    HW236942   4.186   4.316   3.059 -0.5362  0.8935 -1.7774
 8495SOL     OW36943   3.576   1.197   1.093 -0.6962  0.4999 -0.0074
 8495SOL    HW136944   3.561   1.105   1.115 -0.4777  0.3558 -0.4558
 8495SOL    HW236945   3.487   1.229   1.082 -1.6345 -0.6991  4.1093
 8496SOL     OW36946   3.983   3.737  16.190  0.0023 -0.5733 -0.2195
 8496SOL    HW136947   3.922   3.772  16.125  3.6312  4.8541 -0.7479
 8496SOL    HW236948   3.964   3.644  16.192 -2.2301 -0.0661  1.0150
 8497SOL     OW36949   2.577   3.957  10.822  0.6820 -0.6553 -0.2356
 8497SOL    HW136950   2.537   3.892  10.880 -1.9255  2.3109  1.2443
 8497SOL    HW236951   2.612   4.018  10.887  1.0102 -1.1905  0.0955
 8498SOL     OW36952   0.226   4.691   3.548  1.2241 -0.0173  0.9345
 8498SOL    HW136953   0.148   4.639   3.569  2.8082 -3.2582 -1.2499
 8498SOL    HW236954   0.207   4.717   3.458  1.3396  0.5030  1.0628
 8499SOL     OW36955   2.865   0.174   8.119  0.7566  0.0880  0.4074
 8499SOL    HW136956   2.938   0.118   8.146  0.4633 -0.3135  0.3665
 8499SOL    HW236957   2.825   0.124   8.048 -1.0203  0.3330  1.2374
 8500SOL     OW36958   3.698   2.562   7.740  0.0104 -0.5797  1.1062
 8500SOL    HW136959   3.726   2.654   7.741  1.0159 -0.8729 -1.0886
 8500SOL    HW236960   3.644   2.572   7.818 -1.2982  0.1203  0.1136
 8501SOL     OW36961   3.218   0.051   7.094 -0.2314 -0.6940  0.3317
 8501SOL    HW136962   3.140   0.055   7.149 -1.0026 -3.0858 -0.6048
 8501SOL    HW236963   3.217   4.676   7.104 -1.6256 -0.5309  1.8458
 8502SOL     OW36964   1.217   3.617   0.026 -0.4495 -0.3710  0.0834
 8502SOL    HW136965   1.174   3.535   0.050  0.2246 -0.7342  0.0681
 8502SOL    HW236966   1.168   3.686   0.071  0.2761  0.5802 -0.5710
 8503SOL     OW36967   2.060   2.026   9.904  0.1286 -0.0662 -0.1974
 8503SOL    HW136968   2.061   1.976   9.823  2.0598  2.2291 -1.5774
 8503SOL    HW236969   2.152   2.011   9.929 -0.0324  1.2386  1.1950
 8504SOL     OW36970   4.597   0.602   2.964 -0.0081 -0.3749 -0.1489
 8504SOL    HW136971   4.560   0.670   2.908 -0.7864 -0.9818 -0.3758
 8504SOL    HW236972   4.663   0.556   2.912  0.5567  1.8247 -1.3713
 8505SOL     OW36973   1.552   1.327  15.900  0.2288  0.0644  0.6604
 8505SOL    HW136974   1.623   1.274  15.863 -1.2660 -1.2384 -0.3501
 8505SOL    HW236975   1.504   1.271  15.961  2.2542 -0.7411  1.5340
 8506SOL     OW36976   0.018   1.089  15.998  0.0514  0.5613 -0.0955
 8506SOL    HW136977   0.096   1.071  16.051  0.3424  0.8797 -0.4163
 8506SOL    HW236978   4.696   1.146  16.063 -1.4703  0.4987 -1.0356
 8507SOL     OW36979   0.158   4.103   3.227  0.2916  0.1906 -0.7760
 8507SOL    HW136980   0.096   4.034   3.252  1.3842 -0.1021  1.0933
 8507SOL    HW236981   0.143   4.116   3.133 -1.1938 -1.6327 -0.7946
 8508SOL     OW36982   2.906   2.699   9.664 -0.7380  0.3891 -0.3866
 8508SOL    HW136983   2.989   2.663   9.695 -1.0405  0.1078  0.0891
 8508SOL    HW236984   2.912   2.692   9.568  3.0808 -1.9722 -0.0183
 8509SOL     OW36985   4.321   3.750   4.899 -0.2941 -0.0495 -0.4710
 8509SOL    HW136986   4.289   3.769   4.987 -0.2713  1.4689 -0.7986
 8509SOL    HW236987   4.261   3.806   4.851 -0.0211  0.8961  0.2935
 8510SOL     OW36988   1.076   2.747   8.393  0.4137  0.1406  0.5085
 8510SOL    HW136989   1.031   2.677   8.345  0.2227 -0.0632  0.9843
 8510SOL    HW236990   1.015   2.818   8.374 -1.2403 -0.9056  1.8144
 8511SOL     OW36991   4.193   1.657   0.589 -0.2994 -0.2037  0.1608
 8511SOL    HW136992   4.225   1.679   0.501 -0.6216 -1.6550 -0.3136
 8511SOL    HW236993   4.123   1.595   0.570 -0.9077 -0.2797  2.6669
 8512SOL     OW36994   4.668   0.557   3.801 -0.0525  0.4074  0.4765
 8512SOL    HW136995   4.625   0.509   3.872  1.8750  0.6762  1.8367
 8512SOL    HW236996   4.642   0.512   3.720  3.8599  1.8662 -1.5913
 8513SOL     OW36997   0.116   0.840   1.807 -0.2694 -0.1074  0.0591
 8513SOL    HW136998   0.147   0.770   1.750  0.3658 -1.6156  2.2809
 8513SOL    HW236999   0.079   0.899   1.741  1.0643  0.5362 -0.1035
 8514SOL     OW37000   2.812   0.990   7.351 -0.6781 -0.5199  0.1630
 8514SOL    HW137001   2.864   0.927   7.300  2.4240  1.1445  1.3548
 8514SOL    HW237002   2.730   0.985   7.301 -0.0887 -0.6420 -0.8053
 8515SOL     OW37003   1.019   4.386   2.049 -0.7723 -0.4791  0.3731
 8515SOL    HW137004   0.997   4.294   2.031 -1.8308 -0.0721 -0.3888
 8515SOL    HW237005   0.949   4.431   2.002 -2.3714 -0.3482  2.8592
 8516SOL     OW37006   4.411   4.596   2.393 -0.2249  0.0703 -0.3041
 8516SOL    HW137007   4.326   4.562   2.365  0.1186 -0.8398 -0.2435
 8516SOL    HW237008   4.426   4.543   2.471  2.7111  1.4462  0.0606
 8517SOL     OW37009   3.740   2.228   2.250 -0.3324  0.2115  0.5303
 8517SOL    HW137010   3.674   2.197   2.188  0.8334 -1.0142 -0.0931
 8517SOL    HW237011   3.718   2.169   2.323 -2.2877 -1.9214 -1.7513
 8518SOL     OW37012   2.652   1.165   3.009 -0.2947  0.1397  0.0808
 8518SOL    HW137013   2.738   1.134   3.038 -0.0295 -0.4326 -1.3254
 8518SOL    HW237014   2.603   1.157   3.091  1.9883  2.0513  1.6170
 8519SOL     OW37015   3.048   0.122   9.347 -0.6797 -0.1381 -0.0279
 8519SOL    HW137016   3.022   0.190   9.285  2.9112  1.7710  0.5670
 8519SOL    HW237017   3.010   0.164   9.424  0.2963  3.0113 -1.2577
 8520SOL     OW37018   0.759   0.704  15.362 -0.4074  0.4593  0.1908
 8520SOL    HW137019   0.742   0.682  15.270  0.7517 -0.9061  0.3023
 8520SOL    HW237020   0.688   0.763  15.385 -0.8784  0.2122 -0.6075
 8521SOL     OW37021   1.497   0.345  13.563 -0.1771 -0.5536  0.2009
 8521SOL    HW137022   1.589   0.349  13.587 -0.0991 -0.5649 -0.0916
 8521SOL    HW237023   1.478   0.262  13.606 -4.1837  0.3509  0.1721
 8522SOL     OW37024   2.358   1.529   7.030  0.1887 -0.1534 -0.0088
 8522SOL    HW137025   2.422   1.575   6.975 -0.1199  1.8881  1.3434
 8522SOL    HW237026   2.339   1.595   7.097  1.1512 -1.5736  1.6400
 8523SOL     OW37027   2.167   0.691   7.347 -0.5468 -0.1187 -0.5599
 8523SOL    HW137028   2.240   0.629   7.348  1.6376  2.4948 -0.4956
 8523SOL    HW237029   2.119   0.666   7.426  0.4913  0.2978  0.1987
 8524SOL     OW37030   4.149   2.543  13.178  0.1624  0.2785  0.1201
 8524SOL    HW137031   4.233   2.502  13.158 -0.1528 -0.6751  0.7847
 8524SOL    HW237032   4.102   2.470  13.216 -0.6658  1.0502  0.5794
 8525SOL     OW37033   0.424   1.541   2.906 -0.0834  0.3345  0.2412
 8525SOL    HW137034   0.378   1.552   2.822  0.5351  0.1093 -0.1319
 8525SOL    HW237035   0.371   1.576   2.977 -0.8915  0.6920 -0.5284
 8526SOL     OW37036   3.436   2.456   2.979 -0.4363  0.3240  0.5565
 8526SOL    HW137037   3.506   2.411   2.932 -0.0412  0.9108  0.5870
 8526SOL    HW237038   3.493   2.477   3.053  0.5019 -0.9516  0.1897
 8527SOL     OW37039   0.484   1.546   6.261 -0.0379  0.1056 -0.1512
 8527SOL    HW137040   0.482   1.545   6.356 -0.2702  1.1804 -0.1420
 8527SOL    HW237041   0.556   1.484   6.256 -1.2457 -1.3002 -0.2596
 8528SOL     OW37042   0.401   3.721  15.474 -0.0628 -0.5798  0.6179
 8528SOL    HW137043   0.483   3.763  15.446 -1.9948  0.1516 -3.9993
 8528SOL    HW237044   0.365   3.774  15.545  1.2901  1.3930 -0.1649
 8529SOL     OW37045   1.831   3.637   6.807 -0.3650  0.1118 -0.4496
 8529SOL    HW137046   1.736   3.634   6.817 -0.6120  1.5018 -2.4429
 8529SOL    HW237047   1.864   3.627   6.897 -0.1195  0.2483 -0.5262
 8530SOL     OW37048   4.439   0.168   5.525  0.4687  0.0330 -0.4720
 8530SOL    HW137049   4.492   0.105   5.574  0.8446  0.5982 -0.1555
 8530SOL    HW237050   4.437   0.245   5.582 -0.5062 -0.3928  0.0583
 8531SOL     OW37051   1.187   0.727   5.030 -0.3556 -0.0415 -0.5372
 8531SOL    HW137052   1.101   0.697   5.001 -0.2227  0.2029 -1.1823
 8531SOL    HW237053   1.187   0.712   5.125 -1.7512  2.2524 -0.1625
 8532SOL     OW37054   4.720   0.157   6.074 -0.3104  0.3743  0.0362
 8532SOL    HW137055   0.034   0.072   6.048 -0.2091  0.6670 -0.7641
 8532SOL    HW237056   4.702   0.146   6.168 -0.1309 -3.9622 -0.4499
 8533SOL     OW37057   3.695   1.512   7.147  0.1597  0.0410  0.4878
 8533SOL    HW137058   3.768   1.523   7.208  0.1320  3.5653 -0.1192
 8533SOL    HW237059   3.620   1.529   7.203 -0.5758 -3.6063  0.6151
 8534SOL     OW37060   2.136   2.865   5.390 -0.1795 -0.4496 -0.1010
 8534SOL    HW137061   2.197   2.802   5.351  1.9714  1.2593  0.5073
 8534SOL    HW237062   2.105   2.816   5.466 -0.1313  0.4677  0.5137
 8535SOL     OW37063   3.428   3.761  14.332  0.0667 -0.1087  0.4028
 8535SOL    HW137064   3.458   3.670  14.339  1.3343  0.3421  0.7117
 8535SOL    HW237065   3.394   3.751  14.243  1.0563  1.3919 -0.1267
 8536SOL     OW37066   2.386   2.966   6.015 -0.2517 -0.2476  0.0313
 8536SOL    HW137067   2.316   2.974   6.080  1.4584  0.8618  1.7290
 8536SOL    HW237068   2.376   2.883   5.968  2.5300 -0.0011 -1.0090
 8537SOL     OW37069   0.842   1.147  15.816  0.2850  0.5842 -0.6492
 8537SOL    HW137070   0.812   1.236  15.797 -0.3825  0.1783 -1.4959
 8537SOL    HW237071   0.758   1.120  15.855  1.3242 -3.0734 -0.9917
 8538SOL     OW37072   3.333   1.877   6.203  0.2708  0.2712 -0.0960
 8538SOL    HW137073   3.327   1.949   6.140 -4.3402  0.0548  0.0644
 8538SOL    HW237074   3.403   1.916   6.255 -1.3777  0.3572  2.0597
 8539SOL     OW37075   1.459   1.862   7.459  0.0167  0.2071 -0.2187
 8539SOL    HW137076   1.427   1.909   7.382  0.3190 -0.9714 -1.0527
 8539SOL    HW237077   1.482   1.932   7.521  0.0230  0.7505 -0.8321
 8540SOL     OW37078   2.126   1.725   2.516  0.1654  0.1898 -0.2032
 8540SOL    HW137079   2.034   1.724   2.490  0.9132 -0.3472 -2.8082
 8540SOL    HW237080   2.151   1.815   2.494  1.0432  0.4592  1.8338
 8541SOL     OW37081   4.385   1.419   2.276  0.2045  0.3177  0.5533
 8541SOL    HW137082   4.318   1.446   2.339 -1.3972 -4.5013  0.9885
 8541SOL    HW237083   4.394   1.326   2.298 -1.3787  0.3576  1.3534
 8542SOL     OW37084   0.214   4.040   7.011 -0.1293  0.1558 -0.3062
 8542SOL    HW137085   0.133   4.090   7.003 -0.5274 -0.8705 -2.5153
 8542SOL    HW237086   0.214   3.989   6.930  0.9745  1.2014 -0.9754
 8543SOL     OW37087   2.817   1.748   1.901  0.1059 -0.2107  0.4417
 8543SOL    HW137088   2.911   1.731   1.896  0.3078  0.3688  2.4066
 8543SOL    HW237089   2.816   1.822   1.840  0.0139 -1.6137 -1.2450
 8544SOL     OW37090   0.911   4.321  15.201 -0.6929  0.6987 -0.3577
 8544SOL    HW137091   0.944   4.266  15.130 -2.0608 -0.2764 -0.2391
 8544SOL    HW237092   0.816   4.310  15.199 -0.6162  0.0479 -0.3800
 8545SOL     OW37093   0.899   0.005   6.052  0.0530  0.0231 -0.1539
 8545SOL    HW137094   0.853   0.083   6.081  0.6183 -0.0049  0.8354
 8545SOL    HW237095   0.839   4.651   6.064 -0.8508  0.4778 -1.8831
 8546SOL     OW37096   2.214   1.438  15.152  0.2508 -0.1107  0.1312
 8546SOL    HW137097   2.309   1.446  15.144 -0.0033  0.0082 -2.8657
 8546SOL    HW237098   2.199   1.344  15.148 -0.6756 -0.0138  1.2402
 8547SOL     OW37099   2.309   1.155   2.201 -0.0621 -0.1652  0.1843
 8547SOL    HW137100   2.317   1.099   2.279 -0.9668 -2.6251 -1.5016
 8547SOL    HW237101   2.392   1.131   2.161  0.9022  0.2051  1.9852
 8548SOL     OW37102   4.205   1.586   3.734 -0.4338  0.4445 -0.4295
 8548SOL    HW137103   4.209   1.605   3.640 -0.7044  0.6006 -0.4078
 8548SOL    HW237104   4.294   1.616   3.749  0.5552 -2.3919 -0.5708
 8549SOL     OW37105   1.332   3.359   8.459  0.2851  0.5006 -0.1268
 8549SOL    HW137106   1.423   3.329   8.459  0.2864  0.5084  0.1793
 8549SOL    HW237107   1.322   3.404   8.543 -0.5331  0.8269 -0.4017
 8550SOL     OW37108   0.808   4.379   3.031  0.2707 -0.0234  0.2068
 8550SOL    HW137109   0.879   4.379   2.967 -0.2994 -0.8364 -0.4195
 8550SOL    HW237110   0.858   4.414   3.105 -0.8459  3.4085 -0.6502
 8551SOL     OW37111   1.678   0.886   1.453 -0.3320  0.4900  0.6105
 8551SOL    HW137112   1.609   0.941   1.491  0.6747  2.9042 -1.0609
 8551SOL    HW237113   1.749   0.921   1.507  0.3759  2.8348 -1.8476
 8552SOL     OW37114   4.680   4.400   7.415  0.1686  0.7912 -0.2576
 8552SOL    HW137115   4.709   4.428   7.329  0.9235 -0.9737 -0.5708
 8552SOL    HW237116   4.611   4.341   7.387 -2.0275  3.3940 -0.3818
 8553SOL     OW37117   0.098   0.701   5.196  0.3088  0.2320  0.1775
 8553SOL    HW137118   0.067   0.780   5.152 -2.9565 -0.8000  0.5639
 8553SOL    HW237119   0.181   0.730   5.233 -0.0988  0.3124  1.0364
 8554SOL     OW37120   2.830   2.061   8.510  0.2487 -0.5713  0.1365
 8554SOL    HW137121   2.845   2.070   8.416 -0.7536  1.4661  0.1647
 8554SOL    HW237122   2.884   1.984   8.525 -1.5853 -1.7169  0.8261
 8555SOL     OW37123   3.205   2.376   2.834  0.4261 -0.0094 -0.0471
 8555SOL    HW137124   3.196   2.434   2.759  0.7720  0.8027  0.5396
 8555SOL    HW237125   3.287   2.404   2.875 -0.6154  2.6891  0.2278
 8556SOL     OW37126   4.467   1.966  17.521  0.2816  0.0628  0.1374
 8556SOL    HW137127   4.453   2.013  17.439 -1.7131 -1.6706 -0.5070
 8556SOL    HW237128   4.544   1.916  17.492 -1.2581 -0.8464 -2.3758
 8557SOL     OW37129   2.133   1.025   1.849  0.0953  0.2076  0.2832
 8557SOL    HW137130   2.120   0.931   1.851  2.6390 -0.1197  1.3422
 8557SOL    HW237131   2.042   1.053   1.839 -0.1213 -0.2564  0.9368
 8558SOL     OW37132   3.658   4.602  10.612 -0.2901 -0.0448 -0.2329
 8558SOL    HW137133   3.715   4.613  10.535 -0.4822 -1.8632 -0.6338
 8558SOL    HW237134   3.725   4.619  10.679  1.2737  3.0277 -2.5511
 8559SOL     OW37135   0.075   1.708   0.189 -0.0055  0.0208  0.0337
 8559SOL    HW137136   0.025   1.752   0.257 -1.8433 -1.0902 -0.5873
 8559SOL    HW237137   0.090   1.785   0.135 -2.8417  1.6644  1.5943
 8560SOL     OW37138   0.657   3.093  10.248 -0.3470 -1.1432  0.2479
 8560SOL    HW137139   0.678   3.076  10.340 -0.0211 -1.0922  0.1829
 8560SOL    HW237140   0.564   3.075  10.258 -0.1107 -1.6778  1.5452
 8561SOL     OW37141   2.122   3.725   8.037  0.5614  0.1569 -0.0482
 8561SOL    HW137142   2.180   3.677   8.096 -0.2703 -0.4891  0.2451
 8561SOL    HW237143   2.114   3.810   8.082  0.8635  1.2407 -2.0453
 8562SOL     OW37144   0.505   0.470   2.598 -0.3646  0.5123  0.0686
 8562SOL    HW137145   0.429   0.465   2.540 -0.9548 -0.2606  0.9078
 8562SOL    HW237146   0.554   0.545   2.564  0.1570 -0.1516 -0.6289
 8563SOL     OW37147   3.435   4.136   7.168 -0.4806 -0.2049 -0.1746
 8563SOL    HW137148   3.346   4.118   7.137  0.8824 -1.6059 -3.4114
 8563SOL    HW237149   3.414   4.149   7.260  2.2279 -2.0014  0.6910
 8564SOL     OW37150   0.317   0.412  13.713 -0.0235  0.4240 -0.4636
 8564SOL    HW137151   0.364   0.336  13.747  0.3122  0.9854  0.3182
 8564SOL    HW237152   0.347   0.414  13.622 -0.6978  0.0251 -0.6928
 8565SOL     OW37153   2.393   3.640   4.335 -0.2870  0.1892  0.3112
 8565SOL    HW137154   2.488   3.629   4.329 -0.5500 -0.4016 -2.8592
 8565SOL    HW237155   2.362   3.550   4.345 -2.6937  1.1397  1.4792
 8566SOL     OW37156   1.641   0.968   5.516 -0.5526 -0.2536  0.2658
 8566SOL    HW137157   1.697   0.945   5.590 -1.9126  1.8559  1.9503
 8566SOL    HW237158   1.553   0.979   5.552 -0.5310 -0.0526  0.2558
 8567SOL     OW37159   4.114   1.832   4.681  0.0480 -0.4140  0.2975
 8567SOL    HW137160   4.188   1.808   4.737 -0.5167 -1.1171  0.7495
 8567SOL    HW237161   4.041   1.774   4.704  1.0658 -1.8369 -0.0194
 8568SOL     OW37162   1.312   1.828   1.227 -0.5558  0.3445  0.1415
 8568SOL    HW137163   1.388   1.884   1.209 -1.3107  1.1002 -0.6698
 8568SOL    HW237164   1.241   1.890   1.243 -0.0808  0.5517  1.5162
 8569SOL     OW37165   4.137   1.644   1.037  0.0241  0.3622  0.1362
 8569SOL    HW137166   4.109   1.735   1.029  0.3567  0.4468 -0.0523
 8569SOL    HW237167   4.220   1.643   0.989 -0.8492 -1.8973 -1.3244
 8570SOL     OW37168   1.466   1.749  16.280 -0.6524  0.4466 -0.6175
 8570SOL    HW137169   1.521   1.682  16.239  0.5805  0.0160  1.7027
 8570SOL    HW237170   1.436   1.806  16.210 -1.0653 -1.2966 -1.8677
 8571SOL     OW37171   0.824   2.460   8.038  0.4546 -0.0120  0.0946
 8571SOL    HW137172   0.838   2.454   7.944  1.8660 -2.3398  0.4464
 8571SOL    HW237173   0.889   2.394   8.063  1.1683  0.2344 -1.1174
 8572SOL     OW37174   0.849   0.304  14.729 -0.4283 -0.2995 -0.3960
 8572SOL    HW137175   0.755   0.319  14.724 -0.6191 -1.4184 -0.1180
 8572SOL    HW237176   0.899   0.343  14.657 -2.3558 -0.4366 -1.8277
 8573SOL     OW37177   2.514   0.953   6.665 -0.4277 -0.3625 -0.3002
 8573SOL    HW137178   2.501   0.989   6.577 -0.5546 -2.7813 -1.2858
 8573SOL    HW237179   2.607   0.975   6.657 -0.4081 -0.5779 -0.7033
 8574SOL     OW37180   2.524   2.118  10.118  0.1225  0.1051 -0.8041
 8574SOL    HW137181   2.589   2.150  10.056 -0.5474  0.7721 -1.1612
 8574SOL    HW237182   2.573   2.098  10.198  0.6279 -0.4093 -1.2419
 8575SOL     OW37183   1.605   0.077  14.489 -0.6792 -0.4626 -0.3647
 8575SOL    HW137184   1.642   0.013  14.428 -0.1482 -1.1894  0.7344
 8575SOL    HW237185   1.600   0.021  14.566 -0.5778  0.5378  0.3642
 8576SOL     OW37186   4.292   3.841   3.598  0.2127 -0.4043  0.0942
 8576SOL    HW137187   4.343   3.920   3.615 -1.6509  0.6456  0.7419
 8576SOL    HW237188   4.367   3.781   3.599  0.1289 -0.5152 -0.0964
 8577SOL     OW37189   0.378   0.444   6.205 -0.3497  0.3501  0.5050
 8577SOL    HW137190   0.363   0.353   6.178  2.4324 -0.4420  1.7010
 8577SOL    HW237191   0.391   0.431   6.298  3.0763  0.7221  0.0678
 8578SOL     OW37192   2.979   0.591  17.233 -0.1724  0.1445  0.1902
 8578SOL    HW137193   2.905   0.642  17.199 -0.0308  1.4796  1.9242
 8578SOL    HW237194   3.047   0.652  17.261  0.4159 -0.4335  0.0146
 8579SOL     OW37195   4.048   3.208   1.831 -0.8160 -0.6821 -0.1806
 8579SOL    HW137196   3.973   3.190   1.773 -1.0392 -0.3344 -0.0002
 8579SOL    HW237197   4.006   3.280   1.879 -2.7326 -1.4699 -0.6809
 8580SOL     OW37198   2.714   1.569  14.638 -0.0288 -0.2059 -0.0717
 8580SOL    HW137199   2.681   1.519  14.564  1.3963 -1.4572  0.1192
 8580SOL    HW237200   2.796   1.606  14.605  0.4592 -1.4532 -0.2445
 8581SOL     OW37201   1.456   0.700   3.543  0.4669  0.1526  0.1249
 8581SOL    HW137202   1.499   0.619   3.571 -1.8891 -0.8468  0.8650
 8581SOL    HW237203   1.521   0.766   3.567  2.0995 -0.8359 -1.6847
 8582SOL     OW37204   1.743   0.781   4.682 -0.4501  0.5167 -0.7235
 8582SOL    HW137205   1.654   0.807   4.659 -1.8249 -0.7237  3.1537
 8582SOL    HW237206   1.757   0.832   4.761  0.5677  0.2323 -0.7226
 8583SOL     OW37207   2.001   0.458  14.328  0.1832  0.5525 -0.1373
 8583SOL    HW137208   1.981   0.504  14.246  0.3576  0.2294 -0.3612
 8583SOL    HW237209   1.940   0.501  14.388  1.4984 -1.1827  2.4510
 8584SOL     OW37210   1.038   3.603  13.337  0.2939  0.3280  0.4171
 8584SOL    HW137211   1.030   3.696  13.317  2.4336  0.2398 -0.8109
 8584SOL    HW237212   1.133   3.607  13.328  0.2335 -0.7416 -0.6789
 8585SOL     OW37213   1.063   3.789   5.330 -0.1305  0.1334 -0.3358
 8585SOL    HW137214   0.980   3.837   5.329 -1.2885 -1.7856  3.5447
 8585SOL    HW237215   1.123   3.856   5.297  0.8946 -0.7890 -0.3461
 8586SOL     OW37216   0.566   2.445  17.401 -0.2638  0.2349 -0.1610
 8586SOL    HW137217   0.634   2.505  17.370 -0.4819  1.3737  1.5875
 8586SOL    HW237218   0.595   2.434  17.492  0.2863 -0.0498 -0.3744
 8587SOL     OW37219   3.167   2.552   1.910  0.4209  0.2746 -0.6296
 8587SOL    HW137220   3.215   2.618   1.961  0.4941  0.7194 -1.2752
 8587SOL    HW237221   3.205   2.469   1.940  0.5278  1.2500  1.8973
 8588SOL     OW37222   2.862   3.943   2.942  0.2533 -0.4701 -0.5886
 8588SOL    HW137223   2.811   3.970   3.018  0.4323 -1.8957  0.0376
 8588SOL    HW237224   2.949   3.959   2.978  0.1103  0.5838 -0.7195
 8589SOL     OW37225   0.851   3.764   2.308 -0.4053 -0.0700 -0.4572
 8589SOL    HW137226   0.878   3.824   2.239 -0.6629  0.7926  0.1879
 8589SOL    HW237227   0.755   3.768   2.316 -0.1261  0.0246  2.6417
 8590SOL     OW37228   2.921   3.372   7.578 -0.1134  0.2004  0.2686
 8590SOL    HW137229   2.851   3.323   7.536 -0.2087  0.5102  0.0646
 8590SOL    HW237230   2.922   3.321   7.659  0.4850  0.4964  0.4511
 8591SOL     OW37231   4.578   1.655   0.531 -0.5277  0.3113  0.2979
 8591SOL    HW137232   4.497   1.632   0.576 -0.1737 -3.4710 -0.9769
 8591SOL    HW237233   4.552   1.716   0.462 -0.9364  0.2470  0.3968
 8592SOL     OW37234   2.984   1.786   6.819 -0.3486 -0.1977  0.3916
 8592SOL    HW137235   2.922   1.784   6.745 -0.5789  2.9855  0.5076
 8592SOL    HW237236   2.977   1.881   6.831 -1.0475 -0.1326 -0.4687
 8593SOL     OW37237   2.510   3.076   4.274  0.2022 -0.6690  0.0778
 8593SOL    HW137238   2.516   3.037   4.362  1.6128  1.4175  0.9134
 8593SOL    HW237239   2.526   2.996   4.223  1.8885 -1.7706  2.3017
 8594SOL     OW37240   2.706   1.016  11.807  0.7555 -0.0733 -0.8087
 8594SOL    HW137241   2.752   0.939  11.773  0.5091 -0.3177 -0.5854
 8594SOL    HW237242   2.710   1.003  11.902 -0.8251 -0.0560 -0.7517
 8595SOL     OW37243   3.533   4.424   9.873 -0.7755  0.3073 -0.0223
 8595SOL    HW137244   3.528   4.490   9.942  1.4501 -0.4142  0.8157
 8595SOL    HW237245   3.497   4.351   9.923  1.0378  1.8833  3.6313
 8596SOL     OW37246   4.657   4.266  12.442  0.0705  0.1707  0.0462
 8596SOL    HW137247   4.692   4.201  12.503 -1.1943 -0.7055 -0.1804
 8596SOL    HW237248   4.593   4.216  12.393  2.7538 -1.6755 -1.5701
 8597SOL     OW37249   3.900   2.377   2.796 -0.4126 -0.5442  0.0520
 8597SOL    HW137250   3.893   2.463   2.754  0.3563 -0.4622  0.0852
 8597SOL    HW237251   3.961   2.399   2.867 -0.7355  0.4361  0.0287
 8598SOL     OW37252   2.402   4.308   2.451 -0.1240  0.4588 -0.5006
 8598SOL    HW137253   2.352   4.331   2.530  0.1430 -0.1335 -0.1600
 8598SOL    HW237254   2.472   4.371   2.437  1.4053 -1.2225 -0.3668
 8599SOL     OW37255   1.994   4.331  15.076 -1.1537  0.2799  0.6376
 8599SOL    HW137256   2.054   4.404  15.093 -1.3725 -0.2672  3.7746
 8599SOL    HW237257   1.949   4.363  14.998 -0.1293 -0.2657 -0.1724
 8600SOL     OW37258   1.429   3.658  16.835 -0.1620  0.3798  0.2403
 8600SOL    HW137259   1.506   3.639  16.888 -1.3234  0.4645  1.9601
 8600SOL    HW237260   1.368   3.688  16.903  1.9458  2.5655  1.1830
 8601SOL     OW37261   3.063   2.880   6.804  0.4285  0.2111  0.2372
 8601SOL    HW137262   3.133   2.832   6.759  1.6990  1.3765  0.9928
 8601SOL    HW237263   2.998   2.809   6.805  0.0926  0.5080 -0.6303
 8602SOL     OW37264   2.176   2.999   5.723 -0.2849 -0.4407 -0.5906
 8602SOL    HW137265   2.257   2.950   5.736 -1.8481 -2.0547  2.9467
 8602SOL    HW237266   2.133   3.005   5.808 -0.9028 -0.9404 -0.8641
 8603SOL     OW37267   1.052   3.810   3.513  0.0088  0.3229  0.2601
 8603SOL    HW137268   1.066   3.845   3.425 -0.3868  1.1269  0.5163
 8603SOL    HW237269   0.958   3.796   3.519  0.0994 -0.0555  0.7645
 8604SOL     OW37270   1.250   0.241  12.281  0.2617 -0.0466  0.0525
 8604SOL    HW137271   1.268   0.238  12.376  0.7778 -0.4049 -0.0566
 8604SOL    HW237272   1.190   0.315  12.279  0.9307  0.4181 -2.6695
 8605SOL     OW37273   0.808   4.551   5.339 -0.2484 -0.2918  0.2243
 8605SOL    HW137274   0.810   4.645   5.360 -1.5260 -0.2330  0.0803
 8605SOL    HW237275   0.832   4.556   5.246  0.4536  0.3592  0.4461
 8606SOL     OW37276   1.660   0.417   5.087 -0.1381  0.3526  0.2196
 8606SOL    HW137277   1.594   0.475   5.125 -0.1879  0.9767 -0.8427
 8606SOL    HW237278   1.614   0.335   5.068 -0.9423  1.0123 -0.6428
 8607SOL     OW37279   3.678   4.332   7.844 -0.3007 -0.6721 -0.4580
 8607SOL    HW137280   3.611   4.266   7.859 -0.5160 -0.0216  1.4952
 8607SOL    HW237281   3.754   4.288   7.882  0.8710  0.3470 -1.6103
 8608SOL     OW37282   2.995   1.007   5.283  0.1935  0.4477 -0.5658
 8608SOL    HW137283   2.934   1.003   5.356 -1.0366  0.8819 -1.5656
 8608SOL    HW237284   2.951   1.047   5.208 -2.6900  1.0062  1.4318
 8609SOL     OW37285   4.205   0.666  15.094  0.2887  0.1918  0.0238
 8609SOL    HW137286   4.129   0.720  15.070 -1.0301 -1.0169  1.5289
 8609SOL    HW237287   4.264   0.741  15.104  1.6314 -0.8188 -0.4070
 8610SOL     OW37288   2.396   3.834   0.976 -0.4583 -1.2067 -0.3733
 8610SOL    HW137289   2.415   3.890   0.900  1.3629 -2.0805 -0.5777
 8610SOL    HW237290   2.486   3.812   1.002  0.0973  0.1984 -1.1106
 8611SOL     OW37291   1.004   3.769   2.851  0.4637  0.4526  0.4535
 8611SOL    HW137292   0.956   3.771   2.768 -2.0610  0.4111  1.9102
 8611SOL    HW237293   0.952   3.824   2.909 -0.0954 -0.6758  1.0006
 8612SOL     OW37294   3.678   1.016   1.361  0.2804  0.1536  0.4026
 8612SOL    HW137295   3.596   0.971   1.341 -0.6420  2.9975 -2.1543
 8612SOL    HW237296   3.715   0.947   1.416  0.9277  0.4801  0.3802
 8613SOL     OW37297   3.793   2.828   4.713 -0.2801  0.3135 -0.2545
 8613SOL    HW137298   3.831   2.834   4.801  1.2766  2.3221 -1.0464
 8613SOL    HW237299   3.768   2.736   4.718  0.6891  0.1375  1.6576
 8614SOL     OW37300   3.738   2.850  12.046 -0.1073  0.2400  0.0264
 8614SOL    HW137301   3.814   2.819  12.095 -1.2165  1.2018  2.3552
 8614SOL    HW237302   3.728   2.935  12.091 -0.3961  0.8788 -1.2522
 8615SOL     OW37303   2.613   3.506  13.568 -0.6216  0.3148 -0.0346
 8615SOL    HW137304   2.643   3.540  13.652 -0.1905 -0.9910  0.3295
 8615SOL    HW237305   2.573   3.425  13.600 -0.5390  0.3296  0.1061
 8616SOL     OW37306   1.028   1.005   9.967  0.2669  0.6194 -0.1121
 8616SOL    HW137307   0.988   0.936  10.020 -1.6418 -0.2959 -2.7572
 8616SOL    HW237308   1.070   0.940   9.910  0.4087 -1.4613  2.3937
 8617SOL     OW37309   3.491   2.857   3.337  0.2813  0.0365  0.0819
 8617SOL    HW137310   3.564   2.919   3.337  1.1613 -0.9996  1.9037
 8617SOL    HW237311   3.535   2.781   3.299  1.0016 -0.0153  1.0222
 8618SOL     OW37312   3.015   3.695   9.240  0.0777  0.5671 -0.2410
 8618SOL    HW137313   3.103   3.690   9.203  0.8002  4.3653  0.9743
 8618SOL    HW237314   3.006   3.787   9.263  2.1172  0.8793 -0.6945
 8619SOL     OW37315   4.491   3.095   9.145  0.8660 -0.2292  0.1858
 8619SOL    HW137316   4.443   3.035   9.201  0.9898 -0.9216 -0.4558
 8619SOL    HW237317   4.578   3.060   9.167  0.7132 -0.8126 -0.1364
 8620SOL     OW37318   0.905   0.963   4.458 -0.1414 -0.1433  0.0344
 8620SOL    HW137319   0.979   1.002   4.505  0.2964  0.8302 -1.4511
 8620SOL    HW237320   0.952   0.899   4.404  2.4435 -0.5785  2.8078
 8621SOL     OW37321   1.306   3.812   7.673  0.1223  0.1156  0.2361
 8621SOL    HW137322   1.398   3.840   7.677 -0.0769  1.2902 -2.9086
 8621SOL    HW237323   1.309   3.734   7.617  2.0578 -1.3060  2.3082
 8622SOL     OW37324   4.627   0.802  17.506  0.6182  0.0695  0.1877
 8622SOL    HW137325   4.548   0.846  17.472 -0.2940 -2.5897 -1.1854
 8622SOL    HW237326   4.582   0.720  17.529  2.5680 -1.3111 -0.9331
 8623SOL     OW37327   1.577   3.377   2.428 -0.0112  0.2307 -0.5527
 8623SOL    HW137328   1.647   3.315   2.409  1.5989  1.5446  1.0524
 8623SOL    HW237329   1.611   3.438   2.493  2.0089 -2.3047  0.7597
 8624SOL     OW37330   1.786   3.744   2.162  0.7104  0.2878  0.4686
 8624SOL    HW137331   1.820   3.740   2.073  0.2996 -3.1657  0.4676
 8624SOL    HW237332   1.844   3.806   2.207  1.4964  0.7642 -1.2154
 8625SOL     OW37333   0.111   3.380  12.182  0.8522 -0.0867  0.0789
 8625SOL    HW137334   0.138   3.297  12.222  0.0208  0.3317  1.5246
 8625SOL    HW237335   0.125   3.364  12.089 -1.0058 -2.7150  0.2460
 8626SOL     OW37336   3.109   0.363  15.599 -0.1126 -0.0261 -0.2156
 8626SOL    HW137337   3.016   0.385  15.605 -0.1162 -0.7010  2.0083
 8626SOL    HW237338   3.120   0.392  15.508 -0.8408  0.4607 -0.1513
 8627SOL     OW37339   2.018   0.322   2.340  0.3444  0.0504 -0.2955
 8627SOL    HW137340   2.089   0.276   2.296 -0.5796 -0.6839 -1.0367
 8627SOL    HW237341   1.965   0.334   2.261  1.3058 -1.2961 -1.1356
 8628SOL     OW37342   3.247   1.396   5.693 -0.2155  0.3730  0.0133
 8628SOL    HW137343   3.303   1.338   5.640  2.4117  2.2768  0.7439
 8628SOL    HW237344   3.319   1.446   5.730  0.0937 -0.1300  0.0936
 8629SOL     OW37345   1.257   3.111   4.994  0.2095  0.2630  0.7206
 8629SOL    HW137346   1.198   3.042   4.963  1.3238 -0.1794 -0.4130
 8629SOL    HW237347   1.206   3.185   4.960  1.3679  0.9688  0.5193
 8630SOL     OW37348   0.871   0.965   6.883  0.4483  0.3206  0.5642
 8630SOL    HW137349   0.907   1.052   6.864  2.5370 -1.0707 -1.8521
 8630SOL    HW237350   0.802   0.950   6.818 -0.8832 -0.2288  2.0900
 8631SOL     OW37351   4.513   3.986   7.705 -0.0760 -0.2535 -0.0259
 8631SOL    HW137352   4.534   4.062   7.760  0.9039 -1.1230  0.8099
 8631SOL    HW237353   4.583   3.992   7.640  1.2105  3.8002  1.7644
 8632SOL     OW37354   0.796   2.128   4.662  0.0056 -0.4307  0.2457
 8632SOL    HW137355   0.845   2.095   4.737 -3.2246 -3.1067  1.2142
 8632SOL    HW237356   0.748   2.205   4.694  2.6762  1.7259 -0.9276
 8633SOL     OW37357   2.913   4.340   8.943 -0.3126 -0.2601  0.0294
 8633SOL    HW137358   2.885   4.430   8.962  0.7211  0.4274 -1.6685
 8633SOL    HW237359   3.006   4.342   8.965 -0.1565 -1.6402 -0.5004
 8634SOL     OW37360   1.123   4.173   5.607  0.4400  0.9013  0.3082
 8634SOL    HW137361   1.136   4.246   5.668 -0.0515  0.6483  0.7192
 8634SOL    HW237362   1.199   4.119   5.629  1.1074  1.4699 -0.5965
 8635SOL     OW37363   1.373   2.403   5.149 -0.4547 -0.2334  0.0880
 8635SOL    HW137364   1.411   2.489   5.131 -2.4276  0.9907  1.8414
 8635SOL    HW237365   1.435   2.370   5.213 -0.1152 -0.4205 -0.3342
 8636SOL     OW37366   0.970   1.610   8.587 -0.3061  0.5246  0.4603
 8636SOL    HW137367   1.045   1.554   8.566 -0.6986  0.1191  0.1360
 8636SOL    HW237368   0.927   1.544   8.642  2.0036  0.2566  1.9709
 8637SOL     OW37369   3.204   4.569   1.138 -0.1080  0.6494  0.0807
 8637SOL    HW137370   3.167   4.652   1.167  0.5719  0.3227  1.8704
 8637SOL    HW237371   3.137   4.507   1.168  0.5479 -0.6660 -1.2094
 8638SOL     OW37372   3.643   3.144   1.365  0.4714 -0.0360  0.2646
 8638SOL    HW137373   3.583   3.198   1.416  0.3747  0.2641 -0.1690
 8638SOL    HW237374   3.674   3.196   1.291 -0.6920  2.2810  1.3975
 8639SOL     OW37375   1.565   0.345  14.441 -0.0736 -0.1562  0.2546
 8639SOL    HW137376   1.577   0.252  14.459  0.4628  0.1414  1.4337
 8639SOL    HW237377   1.519   0.336  14.358 -1.8080  0.8904  1.1013
 8640SOL     OW37378   4.720   0.907   6.712  0.1107 -0.1349 -0.4701
 8640SOL    HW137379   4.665   0.952   6.777 -1.4314 -1.2746 -0.9627
 8640SOL    HW237380   0.016   0.986   6.661  0.6343  1.0442  1.5069
 8641SOL     OW37381   2.268   1.517   4.518  0.1445 -0.1849  0.4126
 8641SOL    HW137382   2.184   1.503   4.562 -0.2187  0.5958 -0.0372
 8641SOL    HW237383   2.243   1.554   4.434  1.7382  0.6384  0.2975
 8642SOL     OW37384   2.449   2.511  11.070  0.4313 -0.2447  0.3307
 8642SOL    HW137385   2.487   2.424  11.055  1.9169  0.6819 -1.3266
 8642SOL    HW237386   2.360   2.486  11.096  0.1745  1.1962  0.8127
 8643SOL     OW37387   3.792   1.711  15.488  0.0435  0.4313  0.0381
 8643SOL    HW137388   3.835   1.664  15.559 -0.3777 -0.6707 -0.4407
 8643SOL    HW237389   3.807   1.641  15.424  0.7536  2.7856 -2.3861
 8644SOL     OW37390   0.900   1.852  11.236 -0.1135 -0.0214 -0.1373
 8644SOL    HW137391   0.891   1.777  11.296  0.1730 -0.8985 -1.1932
 8644SOL    HW237392   0.944   1.824  11.157 -1.0274 -0.2363 -0.5718
 8645SOL     OW37393   0.336   1.153   8.835  0.0425  0.2809  0.2565
 8645SOL    HW137394   0.268   1.086   8.829  0.6750 -0.1583 -1.9972
 8645SOL    HW237395   0.326   1.189   8.923  0.9435 -1.6006  1.1307
 8646SOL     OW37396   3.112   4.286  16.412 -0.3470  0.3858 -0.5520
 8646SOL    HW137397   3.017   4.272  16.417  0.1144 -1.4462  3.1949
 8646SOL    HW237398   3.135   4.238  16.332  1.7429  0.8860 -0.2514
 8647SOL     OW37399   1.055   1.729   0.009  0.0241  0.0690  0.8378
 8647SOL    HW137400   1.150   1.727  17.683 -0.2734 -2.2832 -1.5873
 8647SOL    HW237401   1.048   1.657   0.073  2.5465 -1.3651 -0.4938
 8648SOL     OW37402   4.209   2.253   8.485 -0.1416 -0.3440 -0.0556
 8648SOL    HW137403   4.162   2.173   8.511 -0.0933 -0.6163 -0.8083
 8648SOL    HW237404   4.165   2.319   8.539  1.5768 -0.3481  1.3495
 8649SOL     OW37405   1.170   1.180   3.125 -0.1112  0.7460 -0.0443
 8649SOL    HW137406   1.193   1.096   3.164 -0.7942  1.1238  1.1631
 8649SOL    HW237407   1.075   1.171   3.119 -0.0593  1.1433 -1.4121
 8650SOL     OW37408   3.560   3.516   0.950 -0.2655  0.0898 -0.1379
 8650SOL    HW137409   3.646   3.549   0.922 -0.8876  1.2652 -0.6864
 8650SOL    HW237410   3.497   3.558   0.891  0.4444  0.6922 -0.4688
 8651SOL     OW37411   3.077   1.456   1.635  0.4929 -0.0247  0.2737
 8651SOL    HW137412   3.096   1.538   1.589  3.3698 -0.9370 -0.1813
 8651SOL    HW237413   2.995   1.426   1.595  1.5519 -2.3509 -0.1709
 8652SOL     OW37414   1.731   0.881  16.008  0.0263  0.3248 -0.3621
 8652SOL    HW137415   1.664   0.907  16.070  0.5955 -0.1018  0.4267
 8652SOL    HW237416   1.685   0.804  15.973 -0.0311  1.3019 -2.4645
 8653SOL     OW37417   3.723   0.879   7.436  0.6251  0.5948  0.3905
 8653SOL    HW137418   3.779   0.922   7.501  2.6199 -1.6996  0.1617
 8653SOL    HW237419   3.650   0.854   7.491  1.2072  1.0697  1.3777
 8654SOL     OW37420   4.651   3.681   7.691 -0.4773  0.0392  0.1121
 8654SOL    HW137421   4.643   3.730   7.609  0.1638 -1.3204 -0.7553
 8654SOL    HW237422   4.571   3.715   7.732 -0.6672 -1.5637  1.0466
 8655SOL     OW37423   4.663   2.285  13.390 -0.0484  0.2709  0.0022
 8655SOL    HW137424   4.605   2.227  13.341 -0.5485  0.7484  0.0188
 8655SOL    HW237425   4.641   2.256  13.478 -2.1436  0.7350 -0.3708
 8656SOL     OW37426   4.519   0.197   8.811 -0.0362  0.2480 -0.0058
 8656SOL    HW137427   4.516   0.292   8.802 -3.0874  0.2252  0.7887
 8656SOL    HW237428   4.486   0.171   8.725 -2.0131 -1.2531  1.1983
 8657SOL     OW37429   4.434   1.971   2.133  0.6966  0.1111 -0.1700
 8657SOL    HW137430   4.461   1.879   2.142  0.3132  0.1283  1.1548
 8657SOL    HW237431   4.494   2.010   2.197  0.0441 -0.4788  0.8069
 8658SOL     OW37432   1.138   3.218   2.819 -0.6599  0.4927  0.2664
 8658SOL    HW137433   1.060   3.243   2.868  0.3717  0.0981  2.1275
 8658SOL    HW237434   1.145   3.275   2.742  0.4973  2.2540  1.6582
 8659SOL     OW37435   1.037   2.285   8.379 -0.1399  0.0918 -0.0656
 8659SOL    HW137436   1.091   2.334   8.441  0.8509 -0.4055 -0.5242
 8659SOL    HW237437   0.947   2.312   8.395  0.3257  1.8722 -0.4235
 8660SOL     OW37438   1.804   1.731   6.194  0.2511  0.1990 -0.5651
 8660SOL    HW137439   1.875   1.784   6.160  0.5660  0.5686  0.6646
 8660SOL    HW237440   1.735   1.744   6.128  0.7181  1.9472 -0.6907
 8661SOL     OW37441   1.768   0.908   3.852  0.7072 -0.4436 -0.1400
 8661SOL    HW137442   1.727   0.824   3.832  0.3003 -0.3918  0.4899
 8661SOL    HW237443   1.708   0.977   3.824  0.2174 -1.1854 -0.9195
 8662SOL     OW37444   2.080   0.136   4.709 -0.3679  0.3393 -0.0224
 8662SOL    HW137445   2.003   0.125   4.765  0.6934  1.7204  1.7046
 8662SOL    HW237446   2.086   0.231   4.699  0.5179  0.2624 -0.1709
 8663SOL     OW37447   2.654   1.767   8.881  0.5892  0.0829 -0.2021
 8663SOL    HW137448   2.690   1.851   8.855  0.1252 -0.4797 -2.5934
 8663SOL    HW237449   2.593   1.781   8.954  1.0332 -0.7645  0.3307
 8664SOL     OW37450   4.595   4.582   3.805 -0.1811  0.6939  0.4980
 8664SOL    HW137451   4.605   4.645   3.734  0.6628 -0.9720 -0.8623
 8664SOL    HW237452   4.564   4.637   3.876 -1.7945  0.0141  0.3175
 8665SOL     OW37453   4.192   2.843   1.341 -0.0593 -0.0636 -0.0140
 8665SOL    HW137454   4.110   2.815   1.382 -0.1747  1.8358  1.0713
 8665SOL    HW237455   4.254   2.783   1.383  2.5613  1.6273 -1.4910
 8666SOL     OW37456   3.073   4.696   6.787  0.4075  0.7658 -0.1859
 8666SOL    HW137457   3.024   4.637   6.844  2.3408 -0.1575  0.5193
 8666SOL    HW237458   3.112   0.046   6.839  0.3089  0.9092 -0.3046
 8667SOL     OW37459   2.799   3.224   9.559 -0.4623  0.6520 -0.1593
 8667SOL    HW137460   2.799   3.177   9.475  2.3943  1.1173 -0.4100
 8667SOL    HW237461   2.895   3.221   9.559 -0.4777  0.2252  0.5022
 8668SOL     OW37462   0.636   1.253  10.451  0.9560  0.3195  0.4118
 8668SOL    HW137463   0.655   1.167  10.490 -0.9109  0.1579  0.9555
 8668SOL    HW237464   0.543   1.266  10.472  0.6569  0.1489 -0.8116
 8669SOL     OW37465   3.268   2.947   5.415 -0.4570  0.1024  0.4429
 8669SOL    HW137466   3.327   2.925   5.343 -1.3015 -0.0716 -0.2017
 8669SOL    HW237467   3.293   3.039   5.419 -1.8801  0.5947 -2.1966
 8670SOL     OW37468   0.418   0.586   4.277 -0.2040  0.4825  0.0771
 8670SOL    HW137469   0.459   0.671   4.267 -2.4135  1.4903 -0.3016
 8670SOL    HW237470   0.412   0.558   4.186  1.1775  2.4325 -0.6074
 8671SOL     OW37471   1.752   1.479  14.621 -0.3572  0.0990 -0.0393
 8671SOL    HW137472   1.764   1.406  14.561  0.1484  1.5842 -1.7203
 8671SOL    HW237473   1.689   1.438  14.681 -0.3466 -0.6856 -0.5726
 8672SOL     OW37474   3.031   3.872   6.710  0.2016 -0.0444  0.1736
 8672SOL    HW137475   2.982   3.802   6.753 -0.6869  0.1037 -0.6282
 8672SOL    HW237476   3.119   3.834   6.722  0.5564  1.2087  1.6313
 8673SOL     OW37477   0.667   3.916   6.870 -0.6957  0.0994  0.0056
 8673SOL    HW137478   0.716   3.857   6.813  0.4838  2.6752 -1.6773
 8673SOL    HW237479   0.710   4.001   6.858  1.6236 -0.8171  1.8858
 8674SOL     OW37480   2.179   0.855   4.866  1.2409 -0.0379 -0.8237
 8674SOL    HW137481   2.211   0.901   4.943 -1.6035  0.7705 -0.1104
 8674SOL    HW237482   2.242   0.883   4.799  0.2362 -1.2033 -2.2685
 8675SOL     OW37483   1.462   4.471   2.660  0.1729  0.3402 -0.1197
 8675SOL    HW137484   1.448   4.565   2.655 -1.5022  0.2502  2.7593
 8675SOL    HW237485   1.424   4.447   2.576  1.5475 -1.3576 -0.2696
 8676SOL     OW37486   3.287   3.581  14.563 -0.5533 -0.2553 -0.0725
 8676SOL    HW137487   3.274   3.496  14.605 -0.8217 -1.0643 -1.7918
 8676SOL    HW237488   3.316   3.636  14.636  0.0604 -1.5124  0.6408
 8677SOL     OW37489   1.549   3.815   2.034  0.0983 -0.3172 -0.3813
 8677SOL    HW137490   1.638   3.809   2.071 -0.3305  1.0223  0.8415
 8677SOL    HW237491   1.508   3.763   2.103 -1.5628  0.9349 -0.4311
 8678SOL     OW37492   3.853   2.743   7.479 -0.3344  0.0067  0.3305
 8678SOL    HW137493   3.831   2.792   7.558 -0.9655 -0.1697  0.2659
 8678SOL    HW237494   3.809   2.659   7.489  1.3041 -0.9410 -0.4079
 8679SOL     OW37495   2.539   3.666   9.006  0.4195 -0.1499  0.3052
 8679SOL    HW137496   2.506   3.728   8.941  1.9245  0.3576  0.0315
 8679SOL    HW237497   2.584   3.732   9.059 -0.8345  1.0981 -0.1827
 8680SOL     OW37498   2.895   1.882   9.094  0.0903 -0.3982  0.1636
 8680SOL    HW137499   2.838   1.942   9.141  2.6859  2.0851  0.1485
 8680SOL    HW237500   2.869   1.797   9.129 -2.2162 -0.4036 -1.5276
 8681SOL     OW37501   3.251   0.662   4.689  0.2145  0.0508 -0.2483
 8681SOL    HW137502   3.313   0.663   4.616 -0.2873  0.5040 -0.6643
 8681SOL    HW237503   3.266   0.574   4.724  1.8754  0.7017  0.6958
 8682SOL     OW37504   0.901   3.039   8.559  0.9033 -0.5235  0.4179
 8682SOL    HW137505   0.817   3.014   8.598  1.1097  0.8326  1.7365
 8682SOL    HW237506   0.877   3.058   8.469 -1.1875  0.5092  1.1928
 8683SOL     OW37507   0.437   2.572   6.958  0.0929  0.0282  0.1975
 8683SOL    HW137508   0.459   2.496   6.904 -0.6521  0.4202 -0.6649
 8683SOL    HW237509   0.472   2.638   6.898 -2.1633  1.0645  0.0192
 8684SOL     OW37510   3.436   1.581   1.237  0.6528 -0.6710 -0.1944
 8684SOL    HW137511   3.376   1.580   1.163  1.1692 -1.6820 -0.5940
 8684SOL    HW237512   3.454   1.675   1.243  4.7325 -1.4385 -0.4713
 8685SOL     OW37513   1.018   1.789   3.588 -0.2199 -0.6155  0.4026
 8685SOL    HW137514   0.943   1.801   3.530 -0.5763 -2.6700  0.4454
 8685SOL    HW237515   0.968   1.776   3.668  2.6326 -2.4196  1.8968
 8686SOL     OW37516   4.265   3.271   5.623  0.1365 -0.3613 -0.1420
 8686SOL    HW137517   4.258   3.365   5.611 -0.8402 -0.3609  0.4703
 8686SOL    HW237518   4.339   3.266   5.684 -0.0849  2.4677  0.3311
 8687SOL     OW37519   3.080   4.268   4.009 -0.9208 -0.5423  0.5974
 8687SOL    HW137520   3.161   4.261   3.959 -2.0501 -0.3967 -1.2450
 8687SOL    HW237521   3.027   4.331   3.960  1.4750  2.6981  2.1871
 8688SOL     OW37522   1.079   2.311   8.114 -0.4665 -0.6713  0.2892
 8688SOL    HW137523   1.118   2.398   8.111 -0.1380 -0.8758 -1.5492
 8688SOL    HW237524   1.074   2.301   8.209  2.1468 -0.1412  0.4868
 8689SOL     OW37525   0.812   0.224   2.284  0.5818  0.2937  0.4132
 8689SOL    HW137526   0.897   0.260   2.258  0.0494  1.2200 -0.0458
 8689SOL    HW237527   0.807   0.142   2.235  1.1130  1.5232 -1.7111
 8690SOL     OW37528   1.499   1.056   2.563  0.0397 -0.3687  0.0071
 8690SOL    HW137529   1.543   1.026   2.483  1.9235 -0.6771  1.1399
 8690SOL    HW237530   1.530   1.146   2.569 -1.6628  0.2213 -0.1367
 8691SOL     OW37531   3.850   3.642   7.698 -0.0239 -0.5777 -0.5690
 8691SOL    HW137532   3.864   3.570   7.637 -0.2008  1.5833 -3.1594
 8691SOL    HW237533   3.829   3.713   7.637  3.8782  0.3973 -0.7740
 8692SOL     OW37534   2.909   3.239  12.830  0.4687 -0.1577  0.0768
 8692SOL    HW137535   2.837   3.183  12.860  0.2639  0.0257 -0.0720
 8692SOL    HW237536   2.958   3.257  12.910  0.3288 -1.1471  0.3913
 8693SOL     OW37537   3.137   4.440   2.513  0.4607 -0.5274 -0.7838
 8693SOL    HW137538   3.206   4.438   2.446 -0.2677  2.1107 -1.6141
 8693SOL    HW237539   3.078   4.511   2.488  0.9157 -0.1562 -0.8023
 8694SOL     OW37540   0.130   3.112   7.519 -0.0560 -0.5880 -0.0208
 8694SOL    HW137541   0.195   3.140   7.455 -0.1935  1.5374  0.7749
 8694SOL    HW237542   0.050   3.107   7.467  0.8262  1.3945 -1.5679
 8695SOL     OW37543   0.924   2.318   1.813  0.4018 -0.1686  0.3766
 8695SOL    HW137544   0.855   2.272   1.765 -0.5096  0.6646  0.8856
 8695SOL    HW237545   0.996   2.309   1.751  0.9972 -0.3483  1.0933
 8696SOL     OW37546   4.115   0.849   8.786  0.0434  0.1965  0.0126
 8696SOL    HW137547   4.090   0.767   8.829  1.4261 -0.8768 -1.2050
 8696SOL    HW237548   4.154   0.895   8.860  0.6349  0.2266 -0.3197
 8697SOL     OW37549   1.887   0.943  17.662  0.3946 -0.3345  0.1543
 8697SOL    HW137550   1.817   0.951   0.044  0.2727  1.1874 -0.1552
 8697SOL    HW237551   1.901   1.036  17.643  2.3351 -0.5127  0.7383
 8698SOL     OW37552   3.222   1.159   8.511 -0.4789  0.4473 -0.4669
 8698SOL    HW137553   3.131   1.185   8.520 -0.8832 -0.6795 -1.2180
 8698SOL    HW237554   3.241   1.168   8.418  1.0994 -1.6764 -0.3548
 8699SOL     OW37555   3.047   2.584   6.287  0.4077 -0.5621 -0.7145
 8699SOL    HW137556   3.033   2.530   6.209 -2.6009 -1.7307  0.6050
 8699SOL    HW237557   2.967   2.571   6.338  1.5811 -1.0454  0.9984
 8700SOL     OW37558   2.470   2.297   3.055  0.1199 -0.6643  0.2449
 8700SOL    HW137559   2.543   2.351   3.084 -1.0247 -0.7525  3.2359
 8700SOL    HW237560   2.441   2.260   3.138  1.5758  1.1849  1.5620
 8701SOL     OW37561   1.253   0.999   7.000 -0.1831  0.4959 -0.4514
 8701SOL    HW137562   1.182   0.937   6.986  1.1563 -1.1148 -0.2014
 8701SOL    HW237563   1.225   1.047   7.077 -0.4540  1.0077 -0.8653
 8702SOL     OW37564   2.529   4.273   4.126  0.1323  0.0065 -0.6913
 8702SOL    HW137565   2.592   4.265   4.198 -0.0288  0.6912 -0.4765
 8702SOL    HW237566   2.555   4.209   4.060 -0.3188 -0.7812 -0.1140
 8703SOL     OW37567   1.860   2.376  16.034  0.5433  0.0520 -0.2449
 8703SOL    HW137568   1.874   2.296  15.983 -0.3339 -0.1673 -0.1513
 8703SOL    HW237569   1.914   2.438  15.987  1.6428 -0.4438  0.3620
 8704SOL     OW37570   1.604   3.068  16.520  0.3043  0.9829  0.4311
 8704SOL    HW137571   1.551   3.060  16.600  2.1019  0.2657  1.5399
 8704SOL    HW237572   1.673   3.004  16.535  0.0946  0.4658 -0.8606
 8705SOL     OW37573   0.854   2.139  16.686  0.3591  0.2409 -0.0180
 8705SOL    HW137574   0.919   2.113  16.750  0.6554 -1.1400 -0.8882
 8705SOL    HW237575   0.818   2.214  16.733  3.2068  0.5887  1.5619
 8706SOL     OW37576   3.202   0.550   2.184  0.4991 -0.7115  0.1774
 8706SOL    HW137577   3.272   0.488   2.166  1.8814  1.5159 -1.9982
 8706SOL    HW237578   3.199   0.609   2.109  1.7815 -0.6247  0.2069
 8707SOL     OW37579   2.713   4.486  10.966  0.2244  0.6686 -0.0836
 8707SOL    HW137580   2.782   4.448  11.020  1.2030  1.7376 -0.5752
 8707SOL    HW237581   2.761   4.566  10.948  1.4798 -0.2058 -0.6335
 8708SOL     OW37582   1.534   3.119   7.120  0.0770 -0.2181 -0.3888
 8708SOL    HW137583   1.503   3.166   7.043 -2.1370  1.4020  1.5296
 8708SOL    HW237584   1.449   3.103   7.160  0.6161 -1.2795  0.3596
 8709SOL     OW37585   2.251   4.361   5.096  0.0321  0.2348 -0.7180
 8709SOL    HW137586   2.258   4.315   5.180  1.2730 -2.2971 -2.1700
 8709SOL    HW237587   2.315   4.430   5.113  0.3293  0.2671 -1.9401
 8710SOL     OW37588   2.946   3.341   5.524 -0.3128  0.0062 -0.1979
 8710SOL    HW137589   2.872   3.346   5.585  0.4709  0.7737  0.7083
 8710SOL    HW237590   2.991   3.262   5.552 -0.0663 -0.4254 -1.8271
 8711SOL     OW37591   2.105   1.672   4.380 -0.1338 -0.1600  0.1127
 8711SOL    HW137592   2.107   1.720   4.463  1.0643 -0.3352  0.1879
 8711SOL    HW237593   2.028   1.615   4.384  0.1808 -0.5019  1.3588
 8712SOL     OW37594   4.087   2.572   3.248  0.2168 -0.2274 -0.0933
 8712SOL    HW137595   4.147   2.518   3.299 -1.4481 -2.0811 -0.0819
 8712SOL    HW237596   4.102   2.660   3.281  0.9457 -0.0234 -0.9802
 8713SOL     OW37597   1.799   0.674   3.146 -0.0787  0.1265  0.2486
 8713SOL    HW137598   1.777   0.761   3.179 -0.6198 -0.9736  2.8272
 8713SOL    HW237599   1.771   0.687   3.056 -0.5019  3.4599  0.8713
 8714SOL     OW37600   3.893   2.138   6.542  0.6256  0.2420  0.3253
 8714SOL    HW137601   3.886   2.231   6.563 -0.0012  0.0779  0.8353
 8714SOL    HW237602   3.985   2.137   6.516  0.4149  0.4770 -0.4299
 8715SOL     OW37603   3.232   3.083  10.074  0.3124  0.5527  0.3390
 8715SOL    HW137604   3.294   3.095  10.003 -0.0907  1.3479  0.1222
 8715SOL    HW237605   3.238   2.987  10.082 -0.8417  0.5249  0.7865
 8716SOL     OW37606   1.396   0.879   8.923 -0.8677  0.5062  0.1970
 8716SOL    HW137607   1.422   0.849   9.010 -1.4476  2.2321  0.9742
 8716SOL    HW237608   1.466   0.942   8.906 -0.1444 -0.5799 -0.8458
 8717SOL     OW37609   1.225   2.673   2.756 -0.2328 -0.1379  0.2233
 8717SOL    HW137610   1.311   2.684   2.715 -1.0033 -2.6078 -2.0543
 8717SOL    HW237611   1.222   2.760   2.796  1.6580 -0.2779  0.6667
 8718SOL     OW37612   0.507   4.199   6.786 -0.5489 -0.0231  0.1054
 8718SOL    HW137613   0.516   4.211   6.881  1.0537 -0.7912  0.0520
 8718SOL    HW237614   0.424   4.243   6.768 -0.6743  0.5030  1.8818
 8719SOL     OW37615   0.344   0.148   5.148 -0.4849  0.2315 -0.2328
 8719SOL    HW137616   0.276   0.092   5.187  0.6629  0.0583  1.5146
 8719SOL    HW237617   0.420   0.091   5.159  0.3957  0.9545 -2.5373
 8720SOL     OW37618   3.087   0.061   7.558  0.1521  0.2034  0.1966
 8720SOL    HW137619   3.129   4.710   7.509 -0.5399  0.2279 -0.4358
 8720SOL    HW237620   3.076   0.016   7.642  0.3851  0.3740  0.3220
 8721SOL     OW37621   3.765   1.409   0.550 -0.3525  0.5617 -0.1337
 8721SOL    HW137622   3.746   1.474   0.618  0.5993 -0.9541  1.5687
 8721SOL    HW237623   3.761   1.328   0.601  0.5729  0.3000 -0.4822
 8722SOL     OW37624   3.664   0.412  10.080 -0.5319  0.2947 -0.6638
 8722SOL    HW137625   3.676   0.460   9.998 -0.6159  1.2903 -0.0916
 8722SOL    HW237626   3.629   0.483  10.134 -1.1309 -0.8455  0.4451
 8723SOL     OW37627   1.937   3.805   3.821  0.0327  0.2224 -0.7581
 8723SOL    HW137628   1.843   3.823   3.827  0.3938  1.3552  1.5600
 8723SOL    HW237629   1.940   3.732   3.760  1.8833 -0.9498  0.7659
 8724SOL     OW37630   0.433   2.548   3.652  0.0932  0.0963 -0.4254
 8724SOL    HW137631   0.364   2.606   3.684  0.0402  0.3791 -1.0511
 8724SOL    HW237632   0.386   2.465   3.659 -2.0217  1.0048 -3.8754
 8725SOL     OW37633   0.551   2.622   7.889  0.1202 -0.5724 -0.0308
 8725SOL    HW137634   0.553   2.654   7.979 -1.3107 -1.0300  0.1658
 8725SOL    HW237635   0.495   2.545   7.897  1.5356 -1.5118  0.8479
 8726SOL     OW37636   2.502   3.831   6.860 -0.0118  0.2944  0.1431
 8726SOL    HW137637   2.590   3.864   6.842 -0.4797  1.6487  0.4023
 8726SOL    HW237638   2.457   3.855   6.779  1.7066 -1.4089 -1.3253
 8727SOL     OW37639   3.537   0.459   3.619  0.0347  0.0078  0.1643
 8727SOL    HW137640   3.588   0.385   3.652  0.7773  1.2448  1.7680
 8727SOL    HW237641   3.463   0.418   3.573 -0.5517  1.2062  0.0329
 8728SOL     OW37642   0.966   3.423  16.595 -0.4660 -0.6672 -0.1655
 8728SOL    HW137643   0.877   3.449  16.570 -0.5251 -2.1720 -1.5538
 8728SOL    HW237644   0.991   3.380  16.514 -0.8828 -0.4351 -0.4213
 8729SOL     OW37645   2.582   2.200   4.855  0.0390  0.3571  0.1068
 8729SOL    HW137646   2.501   2.215   4.904  1.5358  0.5905  2.5127
 8729SOL    HW237647   2.561   2.133   4.791 -2.4079  1.1513  0.0803
 8730SOL     OW37648   4.619   2.617   4.041 -0.0142  0.1507 -0.0856
 8730SOL    HW137649   4.559   2.592   3.970  0.4729 -0.9148 -0.1165
 8730SOL    HW237650   4.610   2.710   4.022 -0.8221  0.0850 -0.0452
 8731SOL     OW37651   4.137   4.261   3.653  0.1470  0.4143 -0.1222
 8731SOL    HW137652   4.081   4.334   3.627 -0.0868  0.7608  1.3300
 8731SOL    HW237653   4.117   4.191   3.591  4.3812 -0.4555 -0.4759
 8732SOL     OW37654   3.234   2.365   6.641  0.4381 -0.2909  0.3397
 8732SOL    HW137655   3.267   2.349   6.553 -1.3987  0.6969 -0.5105
 8732SOL    HW237656   3.237   2.276   6.675 -3.4086 -0.1066  1.1701
 8733SOL     OW37657   1.543   3.366   6.850 -0.4251 -0.3816  0.2748
 8733SOL    HW137658   1.534   3.460   6.836  3.2383  0.0439  0.7626
 8733SOL    HW237659   1.553   3.338   6.758 -1.2136 -2.1608  0.7292
 8734SOL     OW37660   3.747   1.635   7.911  0.3462 -0.2751  0.0107
 8734SOL    HW137661   3.721   1.726   7.900 -0.2323 -0.3625  0.6459
 8734SOL    HW237662   3.817   1.645   7.975  1.3312  1.1445 -1.3098
 8735SOL     OW37663   0.636   0.551   1.267 -0.3297 -0.1229 -0.1648
 8735SOL    HW137664   0.608   0.460   1.251  4.1829 -1.1900 -2.0032
 8735SOL    HW237665   0.706   0.564   1.203 -0.5691 -0.8582 -0.5822
 8736SOL     OW37666   1.734   2.092   6.305  0.0442 -0.2600 -0.6870
 8736SOL    HW137667   1.829   2.080   6.309  0.0039 -0.4519 -0.3638
 8736SOL    HW237668   1.718   2.164   6.366  0.3939  0.4128 -1.3840
 8737SOL     OW37669   1.209   0.958   7.376 -0.0002 -0.5215 -0.1521
 8737SOL    HW137670   1.202   0.868   7.408 -3.7635 -1.6199 -3.9976
 8737SOL    HW237671   1.303   0.966   7.364 -0.4724  2.3709 -1.7944
 8738SOL     OW37672   1.793   0.300   8.149 -0.4114 -1.0088  0.5500
 8738SOL    HW137673   1.834   0.217   8.124  0.0242 -1.0620  1.4521
 8738SOL    HW237674   1.867   0.343   8.192 -1.1596  2.4610 -1.6766
 8739SOL     OW37675   2.448   2.541   8.356 -0.1430 -0.2024 -0.3839
 8739SOL    HW137676   2.470   2.628   8.323 -0.7642 -0.4805 -1.5157
 8739SOL    HW237677   2.392   2.507   8.287  1.0986 -1.5133 -0.7594
 8740SOL     OW37678   0.346   1.640   2.108 -0.4574  0.0104 -0.2626
 8740SOL    HW137679   0.395   1.626   2.026 -0.1084 -1.1126  0.1378
 8740SOL    HW237680   0.420   1.673   2.159 -0.4747 -1.4968  0.7418
 8741SOL     OW37681   2.326   0.918   4.057 -0.8165 -0.2057  0.1323
 8741SOL    HW137682   2.238   0.939   4.025  0.3547 -0.8643 -3.4964
 8741SOL    HW237683   2.366   0.877   3.980 -1.3206 -0.0772 -0.2056
 8742SOL     OW37684   3.169   4.116   3.184  0.0030 -0.2233  0.2032
 8742SOL    HW137685   3.114   4.039   3.171 -1.6131  0.6520  2.0013
 8742SOL    HW237686   3.237   4.090   3.122 -0.0320  0.3247 -0.0696
 8743SOL     OW37687   3.125   0.674   6.388 -0.2496 -0.3446  0.0730
 8743SOL    HW137688   3.208   0.711   6.359  0.2186  0.2388  2.1807
 8743SOL    HW237689   3.164   0.642   6.470  1.3175 -0.5673 -0.7652
 8744SOL     OW37690   3.228   1.671  13.172  0.1041  0.1830  0.4708
 8744SOL    HW137691   3.263   1.600  13.119 -2.1569 -2.1883  2.1261
 8744SOL    HW237692   3.283   1.748  13.156  0.6973 -0.1157  1.0870
 8745SOL     OW37693   1.047   1.484   9.181  0.0160 -0.4775 -0.1707
 8745SOL    HW137694   1.106   1.485   9.257  0.6058  1.1884 -0.6366
 8745SOL    HW237695   1.074   1.568   9.145 -1.2439 -0.1459 -0.3379
 8746SOL     OW37696   3.985   2.518   7.667  0.1828 -0.5161 -0.2846
 8746SOL    HW137697   4.020   2.589   7.613 -1.5691  1.1909  0.8219
 8746SOL    HW237698   3.912   2.488   7.613 -0.3012  2.9055 -1.5188
 8747SOL     OW37699   3.011   2.383   4.007  0.3733 -0.7188 -0.0613
 8747SOL    HW137700   3.033   2.405   3.916  0.4304  0.6836  0.2979
 8747SOL    HW237701   2.992   2.290   3.994  3.0813 -1.4456  1.2011
 8748SOL     OW37702   2.337   1.242   1.883 -0.3303 -0.3049  0.5946
 8748SOL    HW137703   2.287   1.160   1.883  0.1997 -0.6379 -1.7452
 8748SOL    HW237704   2.392   1.218   1.958  1.1047 -0.0432 -0.3843
 8749SOL     OW37705   2.251   2.761   1.406 -0.6920 -0.5466  0.7017
 8749SOL    HW137706   2.216   2.721   1.486 -0.0481 -0.0368  1.2334
 8749SOL    HW237707   2.208   2.845   1.418  1.6512  0.5798  1.1193
 8750SOL     OW37708   0.201   2.087   2.620  0.3907 -0.2211  0.5385
 8750SOL    HW137709   0.254   2.157   2.659  2.5219 -1.1978 -0.6081
 8750SOL    HW237710   0.233   2.013   2.673  0.5961 -0.3063  0.2916
 8751SOL     OW37711   1.993   2.679   3.564 -0.7545  0.5071 -0.3468
 8751SOL    HW137712   2.021   2.700   3.653 -2.3873  1.0847  0.0367
 8751SOL    HW237713   2.072   2.663   3.512  0.5381  0.8812  1.5141
 8752SOL     OW37714   0.278   4.332  15.733  0.4449  0.0323  0.0144
 8752SOL    HW137715   0.269   4.245  15.693 -1.0593  0.6847 -1.0624
 8752SOL    HW237716   0.370   4.351  15.716  0.5862 -0.4763  0.2007
 8753SOL     OW37717   1.283   1.009   5.007 -0.1767 -0.1724  0.5425
 8753SOL    HW137718   1.274   0.915   4.991  2.5582 -0.0742 -1.4356
 8753SOL    HW237719   1.190   1.033   5.006  0.1901  1.3954  3.5835
 8754SOL     OW37720   4.376   2.018   4.591 -0.1779  0.4670  0.0959
 8754SOL    HW137721   4.286   2.006   4.561  0.7376  0.7646 -2.7013
 8754SOL    HW237722   4.358   2.007   4.685  2.4710 -1.2940  0.3868
 8755SOL     OW37723   4.685   3.450   4.075  0.5964 -0.0606 -0.4000
 8755SOL    HW137724   4.610   3.503   4.100  1.7213  0.3111  2.1059
 8755SOL    HW237725   4.662   3.361   4.099  1.7317  0.1429  1.4501
 8756SOL     OW37726   2.682   3.494   3.707  0.0592 -0.4023  0.2506
 8756SOL    HW137727   2.763   3.499   3.758  0.1159 -2.2647  0.3281
 8756SOL    HW237728   2.708   3.526   3.621 -3.2453  0.1529 -0.5514
 8757SOL     OW37729   1.211   1.354   2.162 -0.8405  0.1543  0.2635
 8757SOL    HW137730   1.258   1.353   2.245  2.9806 -1.6716 -1.9182
 8757SOL    HW237731   1.138   1.299   2.190 -1.2107 -0.3846 -1.7628
 8758SOL     OW37732   3.956   3.591   8.604 -0.3673 -0.3350 -0.0870
 8758SOL    HW137733   3.870   3.632   8.605 -0.2212 -0.0301 -0.2240
 8758SOL    HW237734   4.019   3.654   8.638 -1.7338  0.8375  0.2812
 8759SOL     OW37735   3.080   2.192   5.061 -0.1902 -0.0198  0.3350
 8759SOL    HW137736   2.998   2.190   5.012  1.4246  1.4215 -2.3841
 8759SOL    HW237737   3.136   2.159   4.992 -1.3028  0.0686 -0.6092
 8760SOL     OW37738   2.607   3.874   2.801  0.6678  0.0188  0.1644
 8760SOL    HW137739   2.597   3.949   2.859 -2.1843 -1.0499  1.0714
 8760SOL    HW237740   2.695   3.877   2.763 -0.6670 -1.8833 -3.1444
 8761SOL     OW37741   2.324   2.879  15.022  0.1582  0.3252  0.5118
 8761SOL    HW137742   2.258   2.825  15.064 -1.4305  3.7249  2.3656
 8761SOL    HW237743   2.374   2.810  14.978  1.1823  1.0181  0.5932
 8762SOL     OW37744   3.677   0.741   5.253 -0.1668 -0.4092  0.0261
 8762SOL    HW137745   3.704   0.760   5.163  1.5888  1.2064  0.9044
 8762SOL    HW237746   3.664   0.830   5.286  0.0980 -1.1879  2.2317
 8763SOL     OW37747   1.414   4.670   0.288 -0.1903  0.1309  0.1067
 8763SOL    HW137748   1.469   4.714   0.352 -0.4982 -2.8050  2.3317
 8763SOL    HW237749   1.331   4.717   0.291  0.3526  1.2301 -1.7031
 8764SOL     OW37750   0.479   2.921   3.997  0.6813 -0.5237 -0.7353
 8764SOL    HW137751   0.486   2.833   3.960 -0.4596 -0.5978 -0.7500
 8764SOL    HW237752   0.433   2.967   3.928 -1.4620 -0.0148  1.0350
 8765SOL     OW37753   1.698   0.942   9.286 -0.5426  0.1701 -0.9717
 8765SOL    HW137754   1.649   1.002   9.342  0.4716 -0.6199  0.7821
 8765SOL    HW237755   1.773   0.921   9.343  0.2791  1.2775 -1.6362
 8766SOL     OW37756   0.467   2.306  16.904 -0.0734  0.0374  0.3097
 8766SOL    HW137757   0.498   2.222  16.870 -2.0606 -0.6393  0.1726
 8766SOL    HW237758   0.377   2.296  16.874  0.2787  0.8843 -0.9770
 8767SOL     OW37759   0.005   0.988   8.199 -0.1389  0.0472  0.3801
 8767SOL    HW137760   4.685   0.916   8.151 -1.4200 -0.3445  2.0540
 8767SOL    HW237761   0.079   1.011   8.143 -0.2915 -2.8558 -0.9980
 8768SOL     OW37762   1.874   0.271   8.504  0.5655  0.0039  0.5420
 8768SOL    HW137763   1.781   0.285   8.520  0.8939  2.4437  0.2636
 8768SOL    HW237764   1.919   0.311   8.579 -1.9025 -1.4952  2.7844
 8769SOL     OW37765   3.890   3.466   0.987 -0.1032  0.3889 -0.0264
 8769SOL    HW137766   3.917   3.555   0.966  1.4382 -0.3446 -1.1694
 8769SOL    HW237767   3.969   3.418   0.961 -0.6159  0.1033 -1.0511
 8770SOL     OW37768   2.118   3.888  14.315  0.1889 -0.2973 -0.2338
 8770SOL    HW137769   2.154   3.897  14.403  2.0634 -0.3954 -0.9922
 8770SOL    HW237770   2.199   3.908  14.268 -0.3266  2.3047 -0.0520
 8771SOL     OW37771   4.554   4.526   3.096 -0.4925 -0.0494  0.5810
 8771SOL    HW137772   4.555   4.561   3.007 -2.2112  1.3606  1.1356
 8771SOL    HW237773   4.564   4.431   3.082 -1.1222  0.0226 -0.3959
 8772SOL     OW37774   4.120   2.251   5.322  0.0970  0.1932 -0.2027
 8772SOL    HW137775   4.196   2.225   5.269 -0.2611 -0.1485 -0.5491
 8772SOL    HW237776   4.105   2.335   5.278 -2.7755 -0.2697 -0.0704
 8773SOL     OW37777   2.174   2.097  12.306 -0.1121  0.5775  0.2282
 8773SOL    HW137778   2.201   2.183  12.339 -1.4962 -0.1013  3.1389
 8773SOL    HW237779   2.242   2.077  12.241  0.4557  3.3953 -0.0646
 8774SOL     OW37780   3.348   1.981  10.323  0.4519 -0.4028  0.2088
 8774SOL    HW137781   3.365   2.045  10.393 -0.6194  1.3011 -1.0745
 8774SOL    HW237782   3.429   1.993  10.273  0.9226  0.4789  1.1780
 8775SOL     OW37783   3.605   0.987   0.026  0.3035  0.0300 -0.5143
 8775SOL    HW137784   3.587   0.966   0.117  1.3519  1.4351  0.0084
 8775SOL    HW237785   3.666   0.918  17.681  1.3824  0.8731 -0.2180
 8776SOL     OW37786   2.013   3.505   2.999  0.1184 -0.6825  0.0693
 8776SOL    HW137787   2.096   3.477   3.037 -0.3889 -0.6507  1.2196
 8776SOL    HW237788   2.041   3.588   2.960 -0.0879 -0.4716  0.3671
 8777SOL     OW37789   1.066   0.211   8.511 -0.6767 -0.2485  0.1564
 8777SOL    HW137790   1.012   0.142   8.551  0.3461 -1.6016 -0.7805
 8777SOL    HW237791   1.041   0.293   8.552 -2.2151 -1.6543  2.0183
 8778SOL     OW37792   3.889   0.649   8.586  0.3010  0.0534 -0.3799
 8778SOL    HW137793   3.873   0.677   8.496 -1.7943  0.3488  0.1027
 8778SOL    HW237794   3.985   0.657   8.589  0.0163  2.9563  0.5126
 8779SOL     OW37795   4.535   4.460  11.907  0.9720 -0.0077 -0.0275
 8779SOL    HW137796   4.613   4.410  11.932 -1.1864 -3.0013  0.7206
 8779SOL    HW237797   4.540   4.467  11.811  1.2300  0.0544 -0.0082
 8780SOL     OW37798   4.080   2.831   1.883 -0.0728 -0.1921 -0.9047
 8780SOL    HW137799   4.028   2.768   1.933  1.0280 -1.1194 -0.9147
 8780SOL    HW237800   4.063   2.912   1.931 -2.5944 -1.1656 -0.1612
 8781SOL     OW37801   1.856   4.093  15.036 -1.1800  0.5581  0.1155
 8781SOL    HW137802   1.831   4.110  14.945 -0.3507 -2.0199 -0.5859
 8781SOL    HW237803   1.928   4.153  15.053 -1.2608  0.1784  1.8476
 8782SOL     OW37804   0.475   1.525   4.905  0.0691 -0.2414  0.0544
 8782SOL    HW137805   0.391   1.568   4.893 -0.1004 -0.7545 -0.6180
 8782SOL    HW237806   0.496   1.545   4.996  0.1827 -0.6846  0.1273
 8783SOL     OW37807   1.586   1.030   4.597 -0.1309 -0.7539  0.5971
 8783SOL    HW137808   1.628   1.078   4.526 -1.1253  1.2174  1.3390
 8783SOL    HW237809   1.588   1.093   4.670 -2.3087 -1.6274  1.4164
 8784SOL     OW37810   0.061   2.774   2.411 -0.5653  0.4518 -0.2956
 8784SOL    HW137811   0.041   2.810   2.325 -0.5821 -0.4943 -0.6822
 8784SOL    HW237812   0.100   2.693   2.379  0.6521  0.8125  0.2589
 8785SOL     OW37813   1.858   1.000   9.532 -0.7649  0.0801 -0.0628
 8785SOL    HW137814   1.814   1.016   9.615  0.1265 -1.2385  0.6600
 8785SOL    HW237815   1.840   0.906   9.528 -0.4664 -0.0096  0.6995
 8786SOL     OW37816   0.523   3.409  10.898 -0.2340 -0.0816 -0.4174
 8786SOL    HW137817   0.428   3.416  10.886 -0.1388 -0.0948 -1.2216
 8786SOL    HW237818   0.519   3.381  10.989  1.9550  1.4602  0.1451
 8787SOL     OW37819   3.064   3.150   9.621  0.4761  0.1983 -0.2643
 8787SOL    HW137820   3.102   3.214   9.562  1.2177 -0.3261 -0.3630
 8787SOL    HW237821   3.043   3.205   9.697 -1.2199 -1.7206  0.6619
 8788SOL     OW37822   3.657   0.146   4.737  0.5302  0.0351  0.7484
 8788SOL    HW137823   3.711   0.069   4.720  0.5690  0.6185 -1.7238
 8788SOL    HW237824   3.635   0.134   4.830  0.1771 -3.3219  0.2328
 8789SOL     OW37825   0.852   1.814   9.356 -0.7029  0.1407 -0.4026
 8789SOL    HW137826   0.874   1.839   9.446  0.2556 -1.9225 -0.0538
 8789SOL    HW237827   0.800   1.736   9.374  0.7394 -1.1718 -1.8114
 8790SOL     OW37828   4.198   3.590  11.884  0.8385  0.7232 -0.5560
 8790SOL    HW137829   4.157   3.602  11.970  0.5442  3.0144 -1.0003
 8790SOL    HW237830   4.152   3.661  11.839  2.0724 -0.0232 -2.9729
 8791SOL     OW37831   1.213   0.443   6.273  0.0864  0.3463  0.4551
 8791SOL    HW137832   1.171   0.446   6.360  0.1010 -2.8593  0.5883
 8791SOL    HW237833   1.243   0.352   6.267 -0.0114  0.3210  0.3535
 8792SOL     OW37834   1.820   2.045   9.066 -0.0322 -0.2943  0.1599
 8792SOL    HW137835   1.759   2.023   8.996  0.6209  0.5677 -0.6831
 8792SOL    HW237836   1.901   2.044   9.014  0.7576  1.5111  1.3530
 8793SOL     OW37837   1.187   2.603   6.411  0.1580 -0.1111 -0.0513
 8793SOL    HW137838   1.098   2.625   6.383  0.5676  1.4953 -0.0826
 8793SOL    HW237839   1.205   2.662   6.484  1.3514  1.9303 -1.9830
 8794SOL     OW37840   0.272   1.491   7.217  0.3461 -0.4689 -0.8537
 8794SOL    HW137841   0.210   1.555   7.182 -0.5514 -2.4776 -2.9640
 8794SOL    HW237842   0.325   1.545   7.275 -1.2221 -0.5766  0.6858
 8795SOL     OW37843   0.779   2.356   8.439  0.2802 -0.4587  0.6399
 8795SOL    HW137844   0.781   2.368   8.534  1.7148  0.5333  0.4886
 8795SOL    HW237845   0.716   2.426   8.420  1.3923  0.3889  0.0283
 8796SOL     OW37846   4.166   2.964   7.732 -0.2546  0.3925  0.2341
 8796SOL    HW137847   4.186   3.020   7.806 -0.3232  0.4641  0.1982
 8796SOL    HW237848   4.120   3.020   7.670  1.3733  0.1361 -1.1837
 8797SOL     OW37849   3.320   3.717   2.016 -0.4868 -0.1616 -0.4476
 8797SOL    HW137850   3.296   3.808   1.997  0.3436 -0.0184 -0.8246
 8797SOL    HW237851   3.356   3.684   1.934  1.2021  0.1455  0.1702
 8798SOL     OW37852   1.449   3.575  12.039  0.6191  0.0120  0.6277
 8798SOL    HW137853   1.450   3.488  11.999 -0.3736  0.0727  0.4774
 8798SOL    HW237854   1.483   3.543  12.123  1.4036 -0.0462  0.2914
 8799SOL     OW37855   3.585   2.212  15.651 -0.1822 -0.0217  0.3981
 8799SOL    HW137856   3.655   2.149  15.638 -0.1668 -0.5459  3.2092
 8799SOL    HW237857   3.567   2.190  15.742  0.1990 -0.4802  0.3586
 8800SOL     OW37858   1.745   2.286   7.357 -0.0784 -0.2684 -0.3594
 8800SOL    HW137859   1.764   2.272   7.450  2.1633  1.2155 -0.5732
 8800SOL    HW237860   1.797   2.367   7.353  1.3241 -1.3042 -3.0775
 8801SOL     OW37861   0.955   2.982   2.790  0.2346  0.2753  0.5930
 8801SOL    HW137862   0.950   2.988   2.695 -0.1640 -0.1214  0.5862
 8801SOL    HW237863   1.040   3.023   2.804  0.5541 -0.9612  2.3268
 8802SOL     OW37864   1.221   1.519   1.683  0.5158 -0.2979  0.3087
 8802SOL    HW137865   1.203   1.425   1.687  0.0612 -0.1804  0.9772
 8802SOL    HW237866   1.253   1.535   1.772  1.1403  0.8123 -0.1192
 8803SOL     OW37867   4.249   2.500   1.538  0.9372  0.2281 -0.7278
 8803SOL    HW137868   4.312   2.429   1.524 -0.7923 -1.3590 -0.4590
 8803SOL    HW237869   4.287   2.567   1.482 -1.0283  0.7191 -1.4345
 8804SOL     OW37870   3.167   2.180  15.417 -0.2931 -0.0672  0.3054
 8804SOL    HW137871   3.169   2.147  15.328 -0.2808 -0.1751  0.3455
 8804SOL    HW237872   3.259   2.198  15.435 -0.4361  0.6227  0.3640
 8805SOL     OW37873   3.021   3.699   2.082  0.1254  0.2006 -0.0795
 8805SOL    HW137874   3.095   3.652   2.041 -0.1463 -0.8061  0.5830
 8805SOL    HW237875   3.058   3.700   2.170 -1.1424 -0.9824  0.4498
 8806SOL     OW37876   3.338   4.248   0.847 -0.5258  0.7868  0.3047
 8806SOL    HW137877   3.253   4.257   0.890  0.0346 -1.8859  1.9615
 8806SOL    HW237878   3.397   4.222   0.918 -0.8351 -0.3439  0.1501
 8807SOL     OW37879   2.537   3.121   2.010  0.2211 -0.1274 -0.0241
 8807SOL    HW137880   2.619   3.165   1.987  1.6683 -1.7277  2.0543
 8807SOL    HW237881   2.505   3.114   1.920 -1.7592 -2.4329  0.8481
 8808SOL     OW37882   2.250   2.593  10.860 -0.5171 -0.1396 -0.3286
 8808SOL    HW137883   2.343   2.574  10.867 -0.5099 -0.0621 -0.2181
 8808SOL    HW237884   2.226   2.541  10.783  1.0631 -1.4207  0.0490
 8809SOL     OW37885   2.228   4.258   4.044  0.5503 -0.1688 -0.0000
 8809SOL    HW137886   2.203   4.185   3.987  1.6371 -0.7158  0.2387
 8809SOL    HW237887   2.319   4.232   4.057  0.2565 -0.9841  0.4233
 8810SOL     OW37888   2.543   0.994   3.642 -0.5118  0.1051 -0.0574
 8810SOL    HW137889   2.533   1.037   3.727  0.9704  1.3111 -0.4944
 8810SOL    HW237890   2.518   0.909   3.679  1.4720 -0.9798 -1.1956
 8811SOL     OW37891   3.028   1.056   4.892  0.2145 -0.2575  0.5107
 8811SOL    HW137892   2.956   0.995   4.875  1.2036 -1.4702  0.6278
 8811SOL    HW237893   2.984   1.139   4.906  1.0659  0.3334 -0.2700
 8812SOL     OW37894   3.624   2.990   0.799  0.1813 -0.6064  0.3871
 8812SOL    HW137895   3.582   2.991   0.713  1.2633  2.8659 -0.0889
 8812SOL    HW237896   3.624   3.082   0.827 -0.0286 -0.1548 -1.0930
 8813SOL     OW37897   2.158   2.255   5.136 -0.6265  0.0456  0.2410
 8813SOL    HW137898   2.073   2.210   5.129 -0.5081 -0.1652  0.1644
 8813SOL    HW237899   2.164   2.282   5.227  0.7082 -0.2220  0.2283
 8814SOL     OW37900   0.066   1.851   5.396 -0.3018  0.1985  0.1785
 8814SOL    HW137901   0.033   1.901   5.321  1.0320  0.4559 -0.2485
 8814SOL    HW237902   4.708   1.811   5.433 -1.8161  0.1713 -2.9749
 8815SOL     OW37903   4.561   2.256   5.462  0.7694  0.0596 -0.2548
 8815SOL    HW137904   4.568   2.275   5.369 -1.0608 -0.0548 -0.4265
 8815SOL    HW237905   4.650   2.253   5.497  0.5882  0.4398  0.2405
 8816SOL     OW37906   1.654   3.823   3.861 -0.0473 -0.1879  0.4392
 8816SOL    HW137907   1.675   3.775   3.941  1.6969  0.8051  0.5868
 8816SOL    HW237908   1.561   3.807   3.850  0.2514 -3.1407  2.1250
 8817SOL     OW37909   1.295   1.976   1.600  0.0533 -0.6843 -0.6266
 8817SOL    HW137910   1.229   2.005   1.662  0.5396  0.6980 -0.7369
 8817SOL    HW237911   1.265   1.893   1.564 -0.3235 -0.5479 -0.6238
 8818SOL     OW37912   4.528   4.321   5.868 -0.7051 -0.3435  0.2127
 8818SOL    HW137913   4.562   4.238   5.902  1.0214  0.7823  1.2701
 8818SOL    HW237914   4.444   4.327   5.915 -1.3085 -0.8775 -0.8006
 8819SOL     OW37915   2.662   1.379  11.624 -0.2618 -0.1015  0.5148
 8819SOL    HW137916   2.640   1.469  11.603 -3.9785 -1.1779 -0.1145
 8819SOL    HW237917   2.667   1.333  11.540 -0.3471  1.7056 -0.4551
 8820SOL     OW37918   2.768   2.873   2.989  0.0325 -0.3182  0.0470
 8820SOL    HW137919   2.836   2.835   3.044 -0.9438 -2.0287  0.0656
 8820SOL    HW237920   2.788   2.817   2.914 -0.2687 -1.2700  0.6809
 8821SOL     OW37921   2.854   4.691   2.632 -0.1561 -0.7057  0.0668
 8821SOL    HW137922   2.929   0.022   2.662  1.3342 -0.8507 -3.3842
 8821SOL    HW237923   2.788   4.700   2.701  0.5755  0.1183  0.6521
 8822SOL     OW37924   2.641   1.295   2.292 -0.1626 -0.0293  0.2427
 8822SOL    HW137925   2.628   1.364   2.227 -1.1692  1.1518  1.6752
 8822SOL    HW237926   2.584   1.330   2.361  0.7111 -0.6314  1.2608
 8823SOL     OW37927   0.248   4.405  10.543  0.6190 -0.1190  0.1895
 8823SOL    HW137928   0.296   4.342  10.489  3.1262  0.3097  1.9287
 8823SOL    HW237929   0.200   4.359  10.611 -0.8111  0.6683 -0.2799
 8824SOL     OW37930   1.968   2.343   6.383  0.2948  0.3248 -0.3713
 8824SOL    HW137931   2.041   2.281   6.382  0.3625  0.4045 -0.4112
 8824SOL    HW237932   1.970   2.386   6.469 -1.4278 -2.1893  0.9112
 8825SOL     OW37933   3.604   1.182   7.501 -0.2458  0.1798  0.5128
 8825SOL    HW137934   3.647   1.181   7.587 -3.2859  1.4953  2.0671
 8825SOL    HW237935   3.676   1.137   7.458  0.4832  1.0773  0.7920
 8826SOL     OW37936   2.811   0.569   2.405 -0.4870  0.1352  0.4016
 8826SOL    HW137937   2.742   0.506   2.424 -0.7384  0.3050  0.0642
 8826SOL    HW237938   2.775   0.645   2.451 -1.4177 -0.1545  0.1529
 8827SOL     OW37939   4.610   0.684   7.621  0.0083  0.3078  0.3423
 8827SOL    HW137940   4.515   0.675   7.619  0.0416  0.2312 -1.2909
 8827SOL    HW237941   4.633   0.666   7.712  1.1503 -1.2244 -0.2497
 8828SOL     OW37942   3.324   3.029  15.946  0.5200  0.2198  0.0145
 8828SOL    HW137943   3.274   3.111  15.946  1.2438  0.6541  2.0026
 8828SOL    HW237944   3.337   3.018  15.852  0.0123  3.7979 -0.4582
 8829SOL     OW37945   0.825   0.521  15.583  0.3920 -0.1458  0.1124
 8829SOL    HW137946   0.819   0.455  15.513  1.5062 -0.4501  0.3107
 8829SOL    HW237947   0.816   0.604  15.536 -0.9614 -0.8480 -0.8651
 8830SOL     OW37948   0.212   1.287   2.925 -0.2742  0.3128 -0.6142
 8830SOL    HW137949   0.177   1.339   2.853  0.4175  2.2935  0.4870
 8830SOL    HW237950   0.293   1.254   2.885 -0.6083  1.8164 -2.5408
 8831SOL     OW37951   3.751   3.964   6.076 -0.3728  0.8453 -0.1818
 8831SOL    HW137952   3.817   3.898   6.052 -1.8541 -1.0684  0.9679
 8831SOL    HW237953   3.718   3.991   5.991 -0.6541  1.6095  0.1736
 8832SOL     OW37954   1.772   3.527   6.069  0.4129  0.8433  0.4156
 8832SOL    HW137955   1.854   3.484   6.094  1.3014  2.1042 -0.3594
 8832SOL    HW237956   1.797   3.542   5.978  0.2642  0.6534  0.3445
 8833SOL     OW37957   4.565   3.017   7.805  0.2244  0.0425  0.5065
 8833SOL    HW137958   4.501   3.079   7.772 -0.0101 -0.1108  0.6749
 8833SOL    HW237959   4.613   3.078   7.860  0.8102 -1.1076  1.2825
 8834SOL     OW37960   2.672   2.434   3.218  0.2369  0.5955 -0.0206
 8834SOL    HW137961   2.751   2.482   3.194  0.2540  0.6289  0.1011
 8834SOL    HW237962   2.704   2.381   3.291 -2.7753  1.2884  1.7964
 8835SOL     OW37963   1.150   2.071   6.180  0.5954  0.0616  0.4029
 8835SOL    HW137964   1.096   2.130   6.127  0.3307  0.0237  0.6314
 8835SOL    HW237965   1.165   1.997   6.120  1.5902 -0.9844  1.9446
 8836SOL     OW37966   3.901   3.253   8.454  0.0589  0.1579  0.0844
 8836SOL    HW137967   3.921   3.168   8.415 -0.7967 -0.0956  0.2014
 8836SOL    HW237968   3.990   3.286   8.463  0.3120 -0.2464 -1.0466
 8837SOL     OW37969   1.728   2.811   7.584  0.1540  0.1576  0.4804
 8837SOL    HW137970   1.665   2.882   7.577 -0.6144 -0.4951  0.8449
 8837SOL    HW237971   1.798   2.855   7.633  0.7790 -0.7442  0.4037
 8838SOL     OW37972   0.982   3.852  13.247  0.3979  0.6700  0.3709
 8838SOL    HW137973   0.993   3.867  13.153 -2.4080  0.3828  0.0016
 8838SOL    HW237974   0.912   3.911  13.275 -0.3836 -0.4619  0.7769
 8839SOL     OW37975   4.581   0.713   4.985 -0.3220 -0.3091 -0.3424
 8839SOL    HW137976   4.676   0.703   4.985 -0.4286 -1.3664 -1.4091
 8839SOL    HW237977   4.556   0.804   5.003  0.8904  0.2252 -1.3861
 8840SOL     OW37978   0.771   1.879   4.494 -0.3049  0.0411  0.9102
 8840SOL    HW137979   0.777   1.957   4.548 -0.8085  1.0657 -0.5169
 8840SOL    HW237980   0.770   1.910   4.403 -2.7042 -0.7978  0.6647
 8841SOL     OW37981   1.067   2.384   2.440  0.0195  0.0224 -0.4068
 8841SOL    HW137982   0.996   2.368   2.501  1.5026 -0.3616  1.2280
 8841SOL    HW237983   1.043   2.464   2.394  0.1237  0.2736 -0.0243
 8842SOL     OW37984   4.526   1.648   4.437 -0.0168 -0.0712  0.1628
 8842SOL    HW137985   4.622   1.647   4.446 -0.3008  2.0726  3.2640
 8842SOL    HW237986   4.508   1.655   4.531  2.3776  2.1115  0.4620
 8843SOL     OW37987   1.569   0.810   5.023  0.0289 -0.6939 -0.2041
 8843SOL    HW137988   1.663   0.797   5.027  0.4789  2.5645 -0.0451
 8843SOL    HW237989   1.544   0.809   5.115  0.4286 -4.9929 -0.1633
 8844SOL     OW37990   0.306   0.172   2.737  0.1520  0.7142 -0.1990
 8844SOL    HW137991   0.332   0.214   2.819 -0.2301 -0.3582  0.4781
 8844SOL    HW237992   0.340   0.083   2.753  0.2645  0.8184  0.1540
 8845SOL     OW37993   3.318   0.467   2.508  0.7801  0.1005 -0.3718
 8845SOL    HW137994   3.308   0.420   2.425  0.0989 -0.0731 -0.1948
 8845SOL    HW237995   3.366   0.547   2.492  1.6958 -0.0376  1.6344
 8846SOL     OW37996   1.927   1.762   8.323 -0.5702  0.1860  0.0970
 8846SOL    HW137997   1.967   1.768   8.410 -2.8238  1.1134  1.0847
 8846SOL    HW237998   1.977   1.685   8.298  0.2680  0.5482  0.6708
 8847SOL     OW37999   1.759   2.373  14.440  0.1785 -0.1156  0.4747
 8847SOL    HW138000   1.762   2.361  14.535  1.8531  1.8685  0.6738
 8847SOL    HW238001   1.837   2.325  14.412  1.6268  1.9117  1.0686
 8848SOL     OW38002   0.024   1.615  13.388 -0.2359 -0.1293 -0.2283
 8848SOL    HW138003   0.033   1.708  13.367  1.7440 -0.5498 -1.2499
 8848SOL    HW238004   4.667   1.583  13.340 -1.0779 -2.5332  2.7079
 8849SOL     OW38005   4.159   1.046  16.038 -0.5628 -0.0222 -0.2473
 8849SOL    HW138006   4.121   1.091  15.962  0.6228  1.4247  0.0148
 8849SOL    HW238007   4.196   0.971  15.991 -0.5103 -0.9937  1.3551
 8850SOL     OW38008   1.666   3.768  12.376  0.0633 -0.2601  0.5407
 8850SOL    HW138009   1.580   3.777  12.418  0.4556  1.8850  0.9014
 8850SOL    HW238010   1.639   3.771  12.285  0.7858  0.6851  0.3547
 8851SOL     OW38011   1.351   0.049   5.448  0.1061  0.0903 -0.0668
 8851SOL    HW138012   1.256   0.055   5.438  0.5073  2.1531 -2.5209
 8851SOL    HW238013   1.362   0.011   5.535  1.9533  1.6576  0.3940
 8852SOL     OW38014   4.510   3.048   6.728  0.1207  0.3355 -0.6596
 8852SOL    HW138015   4.558   2.965   6.720 -0.6013 -0.0561 -0.9051
 8852SOL    HW238016   4.502   3.068   6.635  0.4480 -0.4798 -0.8571
 8853SOL     OW38017   1.609   0.110   8.617  0.5420 -0.4929  0.1554
 8853SOL    HW138018   1.618   0.201   8.645  1.0965 -0.3369 -0.5375
 8853SOL    HW238019   1.516   0.107   8.596  0.4941  0.0796  0.2822
 8854SOL     OW38020   3.253   1.120   6.616  0.3753 -0.2163 -0.6765
 8854SOL    HW138021   3.230   1.064   6.542  0.7713 -2.0689  0.6128
 8854SOL    HW238022   3.174   1.110   6.668 -1.0446  2.3640 -2.3134
 8855SOL     OW38023   2.799   2.835   4.938 -0.3555 -0.0622 -0.1497
 8855SOL    HW138024   2.798   2.826   4.842  1.3941 -3.7577  0.2080
 8855SOL    HW238025   2.712   2.800   4.956  1.0534 -2.8392  1.1785
 8856SOL     OW38026   3.345   2.939  11.198 -0.3790 -0.3486  0.4788
 8856SOL    HW138027   3.401   2.861  11.191 -0.1618 -0.2486  1.0820
 8856SOL    HW238028   3.265   2.901  11.161  0.4190 -0.6448 -0.9547
 8857SOL     OW38029   4.576   1.818  16.762  0.4140  0.1266 -0.2131
 8857SOL    HW138030   4.564   1.907  16.795  1.5529 -0.2449  1.2230
 8857SOL    HW238031   4.650   1.795  16.818  0.3485 -1.2999 -0.7100
 8858SOL     OW38032   4.562   2.549  11.049  0.0732  0.4402 -0.2294
 8858SOL    HW138033   4.538   2.634  11.012  0.4376  0.5589 -0.1965
 8858SOL    HW238034   4.490   2.526  11.107 -0.3181  0.8222 -0.5649
 8859SOL     OW38035   0.222   1.066   4.373  0.1370 -0.1338 -0.9543
 8859SOL    HW138036   0.262   0.989   4.333  1.7045  0.5401 -0.7065
 8859SOL    HW238037   0.290   1.133   4.361  1.1566 -0.9153  0.4983
 8860SOL     OW38038   0.364   1.885   6.965 -0.0378  0.1203  0.8040
 8860SOL    HW138039   0.445   1.892   6.914 -0.2649  1.8967  0.6954
 8860SOL    HW238040   0.373   1.799   7.005  1.4683  0.1247  0.4778
 8861SOL     OW38041   4.669   1.115   6.233  0.2570 -0.2976 -0.4056
 8861SOL    HW138042   4.576   1.097   6.238  0.6626 -1.6156  2.5650
 8861SOL    HW238043   4.703   1.036   6.274  0.5383 -1.0455 -2.0731
 8862SOL     OW38044   3.446   2.055   5.797  0.1001 -0.6168  0.3679
 8862SOL    HW138045   3.444   2.147   5.771 -3.3770 -0.5919  0.6560
 8862SOL    HW238046   3.527   2.032   5.751 -0.4173 -0.6222 -0.5411
 8863SOL     OW38047   0.700   2.211   9.906  0.6092 -0.0261  0.3010
 8863SOL    HW138048   0.775   2.270   9.900  1.1648 -0.5972  1.6623
 8863SOL    HW238049   0.700   2.159   9.987 -0.4631 -0.4840  0.0113
 8864SOL     OW38050   4.172   4.214   6.598 -0.4881  0.1521 -0.0012
 8864SOL    HW138051   4.081   4.243   6.607 -0.2582  1.2393 -1.1445
 8864SOL    HW238052   4.221   4.291   6.627  0.4341 -1.6430  3.1659
 8865SOL     OW38053   4.504   4.612   8.357 -0.0651  0.2499 -0.8172
 8865SOL    HW138054   4.415   4.576   8.346  0.2966 -0.8278 -0.2752
 8865SOL    HW238055   4.559   4.551   8.307  0.2986 -0.3164  0.2704
 8866SOL     OW38056   1.282   3.708   6.514 -0.2861  0.0708  0.1636
 8866SOL    HW138057   1.210   3.687   6.574 -0.6751  0.5951 -0.1191
 8866SOL    HW238058   1.238   3.665   6.440  0.1204 -1.3330  0.7328
 8867SOL     OW38059   3.339   4.595   1.795 -0.0340  0.6795  0.4965
 8867SOL    HW138060   3.412   4.533   1.798  0.6368  1.5169  1.5674
 8867SOL    HW238061   3.263   4.555   1.837  1.0603 -1.1844  0.7321
 8868SOL     OW38062   2.961   2.633   5.626 -0.6556 -0.7010 -0.0185
 8868SOL    HW138063   2.970   2.712   5.572 -3.4721 -0.9964 -0.9576
 8868SOL    HW238064   2.923   2.673   5.704 -1.2848  2.9180 -2.1717
 8869SOL     OW38065   3.201   3.835   5.864 -0.0403 -0.0705  0.0785
 8869SOL    HW138066   3.257   3.787   5.803 -2.4587  0.5060 -2.6414
 8869SOL    HW238067   3.247   3.918   5.864 -0.0171 -0.0834  1.1300
 8870SOL     OW38068   3.850   0.998   7.642  0.1053 -0.7875 -0.3254
 8870SOL    HW138069   3.851   0.943   7.721 -1.9437 -0.5454 -0.1132
 8870SOL    HW238070   3.896   1.079   7.663 -0.6897 -0.2738 -0.5256
 8871SOL     OW38071   0.695   1.122   4.363  0.1536  0.3225 -0.0714
 8871SOL    HW138072   0.765   1.068   4.399 -1.1667 -0.5127  1.2272
 8871SOL    HW238073   0.694   1.206   4.408 -0.4989  0.9622 -1.2556
 8872SOL     OW38074   3.240   3.266  10.264 -0.0782  0.8393 -0.0217
 8872SOL    HW138075   3.301   3.323  10.217  1.5140 -0.6797  0.2222
 8872SOL    HW238076   3.223   3.189  10.210 -2.0273  1.2237  0.0299
 8873SOL     OW38077   2.605   1.874   8.234 -0.0390 -0.5576  0.2361
 8873SOL    HW138078   2.700   1.878   8.236 -0.0922  0.2544  1.0030
 8873SOL    HW238079   2.576   1.937   8.300 -1.2033 -0.0935 -0.7069
 8874SOL     OW38080   3.025   3.571   5.860 -0.0277  0.2599 -0.0645
 8874SOL    HW138081   3.088   3.643   5.862 -0.3794  0.5576  0.3834
 8874SOL    HW238082   2.981   3.586   5.776  0.0907 -0.7509 -0.3045
 8875SOL     OW38083   1.618   2.277   9.089  0.1548 -0.3081 -0.2697
 8875SOL    HW138084   1.698   2.282   9.142  1.3031 -0.6893 -1.9769
 8875SOL    HW238085   1.639   2.301   8.999 -0.1586 -0.1608 -0.3033
 8876SOL     OW38086   3.281   0.001  13.960 -0.2512  0.5102  0.1113
 8876SOL    HW138087   3.320   4.687  13.880  2.4607  1.6646  0.9449
 8876SOL    HW238088   3.306   4.657  14.027  1.4137  1.0754  0.0341
 8877SOL     OW38089   1.655   0.262   6.116 -0.4003 -0.5628 -0.2275
 8877SOL    HW138090   1.647   0.335   6.056 -0.5056  0.5024  1.0746
 8877SOL    HW238091   1.701   0.303   6.189 -1.2149 -0.3609  0.1761
 8878SOL     OW38092   3.489   2.377   7.200  0.1641  0.3005  0.2652
 8878SOL    HW138093   3.545   2.427   7.142  0.1326  0.0144 -0.0106
 8878SOL    HW238094   3.525   2.290   7.186  1.6655  0.6147  2.1389
 8879SOL     OW38095   3.508   4.374   3.372  0.2810  0.1484  0.6299
 8879SOL    HW138096   3.461   4.368   3.455  0.9820 -0.2468  0.9941
 8879SOL    HW238097   3.503   4.285   3.338  1.5383  0.4560 -0.3806
 8880SOL     OW38098   2.187   1.385   2.193 -0.5915 -0.6368  0.2325
 8880SOL    HW138099   2.101   1.360   2.160 -2.0277  1.1158  2.6228
 8880SOL    HW238100   2.240   1.308   2.173 -0.0620 -1.0634  3.2038
 8881SOL     OW38101   3.867   3.868   3.973  0.4490 -0.5798 -0.6433
 8881SOL    HW138102   3.863   3.775   3.996 -2.2631 -0.2730  0.0305
 8881SOL    HW238103   3.960   3.876   3.950  0.6062 -0.4384  0.0333
 8882SOL     OW38104   0.615   0.509   7.079  0.1766 -0.4345  0.0304
 8882SOL    HW138105   0.659   0.567   7.141 -0.3339 -0.2818  0.2446
 8882SOL    HW238106   0.539   0.563   7.060 -0.7930 -2.6510 -2.4496
 8883SOL     OW38107   1.398   3.875   6.814 -0.0545 -0.1521  0.0703
 8883SOL    HW138108   1.463   3.872   6.744  0.1583  1.9125  0.1773
 8883SOL    HW238109   1.368   3.965   6.804  0.4008 -0.0921 -0.6870
 8884SOL     OW38110   2.640   2.426   8.840 -0.5469 -0.1215  0.6939
 8884SOL    HW138111   2.650   2.355   8.904 -1.1785 -2.5207 -1.8490
 8884SOL    HW238112   2.674   2.380   8.763 -0.2271  0.6894  0.3583
 8885SOL     OW38113   1.195   3.610  16.438 -0.0177 -0.3012  0.2354
 8885SOL    HW138114   1.100   3.604  16.426 -0.4786  0.6126  3.5015
 8885SOL    HW238115   1.226   3.523  16.459  0.8871  0.0419  0.3199
 8886SOL     OW38116   3.628   1.994  15.080  0.2904  0.6341 -0.3708
 8886SOL    HW138117   3.721   1.976  15.078  0.8576  3.4325  0.2988
 8886SOL    HW238118   3.626   2.081  15.040  2.1049  1.1531  0.6929
 8887SOL     OW38119   1.889   4.437   4.654 -0.0615  0.3259 -0.2435
 8887SOL    HW138120   1.851   4.415   4.569 -1.6290 -0.2150  0.5987
 8887SOL    HW238121   1.970   4.485   4.636 -0.2120  0.0282 -1.7228
 8888SOL     OW38122   1.193   2.063  16.638  0.6968  0.3293  0.0032
 8888SOL    HW138123   1.256   2.077  16.567  0.9040 -2.6930 -0.3842
 8888SOL    HW238124   1.249   2.091  16.711  1.4234  1.8428 -1.1298
 8889SOL     OW38125   2.820   2.153   2.479 -0.0997 -0.3914  0.2322
 8889SOL    HW138126   2.828   2.131   2.572 -0.4017  1.7464  0.7730
 8889SOL    HW238127   2.769   2.079   2.446  0.7046  0.1915 -2.3305
 8890SOL     OW38128   2.312   1.592   2.071  0.6034  0.1788  0.0880
 8890SOL    HW138129   2.266   1.528   2.124 -2.6341 -0.2857 -3.2528
 8890SOL    HW238130   2.326   1.548   1.987  0.7192 -2.3951  1.4600
 8891SOL     OW38131   3.481   0.491   3.913  0.1944 -0.2955  0.4573
 8891SOL    HW138132   3.520   0.503   3.826 -1.4280  0.2214 -0.1909
 8891SOL    HW238133   3.469   0.583   3.936 -1.3393 -1.0345  2.5573
 8892SOL     OW38134   0.420   4.563   7.194 -0.3002  0.4214  0.3769
 8892SOL    HW138135   0.348   4.521   7.146  1.0481 -2.6506  1.0876
 8892SOL    HW238136   0.385   4.549   7.282 -1.1900 -1.2798 -0.2356
 8893SOL     OW38137   4.562   3.984   5.513  0.0412  0.5745  0.4859
 8893SOL    HW138138   4.521   3.979   5.600  0.5284 -1.6398  0.5791
 8893SOL    HW238139   4.611   3.905   5.533  1.2784  0.6223 -2.3625
 8894SOL     OW38140   2.715   0.912  10.750  0.1675 -0.0342  0.2110
 8894SOL    HW138141   2.632   0.960  10.747 -0.6249 -1.4143  0.0993
 8894SOL    HW238142   2.719   0.897  10.845 -0.0611 -3.6793 -0.3510
 8895SOL     OW38143   3.622   0.813   6.286  0.0268  0.7295 -0.2538
 8895SOL    HW138144   3.669   0.871   6.345  1.4296  1.7136 -2.3180
 8895SOL    HW238145   3.694   0.787   6.228 -0.0996 -0.9593  0.3536
 8896SOL     OW38146   4.160   1.493   2.418  0.3476  0.1818  0.2109
 8896SOL    HW138147   4.100   1.492   2.492  1.4070 -4.2574  1.0169
 8896SOL    HW238148   4.179   1.586   2.405 -1.5010  0.7861  1.8927
 8897SOL     OW38149   0.117   2.818  14.523 -0.5567  0.2808 -0.4826
 8897SOL    HW138150   0.085   2.855  14.440 -2.3005 -1.1348 -0.4432
 8897SOL    HW238151   0.063   2.739  14.526  1.7841 -1.2231  2.0239
 8898SOL     OW38152   4.245   4.334   7.142  0.4629  0.0868  0.2749
 8898SOL    HW138153   4.154   4.342   7.114  1.0016 -2.9156 -2.3083
 8898SOL    HW238154   4.281   4.290   7.065 -0.9523  0.2411 -0.4869
 8899SOL     OW38155   0.270   2.382   5.022 -0.3700  0.7030 -0.4860
 8899SOL    HW138156   0.253   2.343   5.108  0.1873 -3.5145 -2.2562
 8899SOL    HW238157   0.340   2.326   4.986  0.4308  2.0744 -1.0469
 8900SOL     OW38158   0.098   0.665   5.599 -0.0892  0.3221 -0.3411
 8900SOL    HW138159   0.033   0.716   5.551  1.0527  0.6835 -1.5086
 8900SOL    HW238160   0.107   0.725   5.673  2.7605 -0.2173 -0.2637
 8901SOL     OW38161   1.199   3.580   2.963  0.2622 -0.1969 -0.3443
 8901SOL    HW138162   1.135   3.593   2.893  1.2855  2.1446 -0.8280
 8901SOL    HW238163   1.150   3.621   3.033  1.7878  0.5360  0.2798
 8902SOL     OW38164   2.768   4.675  17.432  0.3401 -0.1076 -0.0967
 8902SOL    HW138165   2.768   0.036  17.381 -0.9334 -0.0242  0.0279
 8902SOL    HW238166   2.714   4.620  17.375 -1.7556  1.9948 -0.1825
 8903SOL     OW38167   3.366   2.432   6.122  0.1515 -0.0693 -0.1969
 8903SOL    HW138168   3.441   2.454   6.067 -1.0373 -0.8543 -2.1061
 8903SOL    HW238169   3.401   2.367   6.183 -0.8397 -1.8208 -1.5158
 8904SOL     OW38170   2.050   2.718   6.968  0.1595  0.1886  0.3992
 8904SOL    HW138171   2.008   2.774   6.903  0.3169 -1.7320 -1.3872
 8904SOL    HW238172   2.044   2.777   7.043 -1.4405  0.9776 -0.3706
 8905SOL     OW38173   2.315   3.489   1.927  0.0567 -0.8537  0.4721
 8905SOL    HW138174   2.397   3.464   1.885  1.4097  1.3960  1.7686
 8905SOL    HW238175   2.262   3.416   1.896  0.8101 -0.1889 -2.3858
 8906SOL     OW38176   3.529   1.769   6.886 -0.5921  0.4452 -0.0435
 8906SOL    HW138177   3.582   1.782   6.807  1.0378 -1.6426  0.7008
 8906SOL    HW238178   3.452   1.724   6.851 -0.3840 -0.8099  1.1243
 8907SOL     OW38179   0.130   0.999   8.790 -0.2732 -0.4136 -0.0623
 8907SOL    HW138180   0.092   0.912   8.774  0.1890 -0.7048  0.4038
 8907SOL    HW238181   0.061   1.053   8.753 -0.3325 -1.0741 -0.9114
 8908SOL     OW38182   4.624   2.916   7.436 -0.6588 -0.3146  0.1011
 8908SOL    HW138183   4.555   2.897   7.499 -0.7911 -0.5726 -0.1205
 8908SOL    HW238184   4.572   2.905   7.356  0.1846 -0.5741 -0.4149
 8909SOL     OW38185   1.816   2.469   3.547  0.4231 -0.0068 -0.1216
 8909SOL    HW138186   1.808   2.462   3.642 -1.8957  2.8723 -0.1017
 8909SOL    HW238187   1.890   2.529   3.542  0.9279 -0.5507  0.8970
 8910SOL     OW38188   0.054   1.356   1.824  0.2754 -0.2137 -0.3668
 8910SOL    HW138189   4.707   1.378   1.889 -0.9060 -0.1174 -1.6248
 8910SOL    HW238190   0.008   1.309   1.754 -0.3161 -0.2851  0.0643
 8911SOL     OW38191   2.592   2.797  13.329 -0.4520  0.3621 -0.2362
 8911SOL    HW138192   2.563   2.843  13.250  0.2824  0.0367 -0.6982
 8911SOL    HW238193   2.661   2.857  13.356  0.4380  0.8277 -3.4595
 8912SOL     OW38194   4.509   4.337   3.652  0.0710 -0.2550 -0.5489
 8912SOL    HW138195   4.525   4.382   3.735 -0.4248 -1.0924 -0.0089
 8912SOL    HW238196   4.418   4.361   3.634  0.5328  2.9559  1.4321
 8913SOL     OW38197   3.616   1.685   9.676  0.5229  0.3167  0.2249
 8913SOL    HW138198   3.645   1.662   9.764 -1.6045 -0.3462  0.7545
 8913SOL    HW238199   3.565   1.606   9.660  0.8702 -0.0148  0.7554
 8914SOL     OW38200   0.250   1.239   1.593  0.4192  0.5482 -0.1997
 8914SOL    HW138201   0.234   1.297   1.519  1.8684  0.4519 -0.5927
 8914SOL    HW238202   0.171   1.247   1.647  0.0107 -0.9569 -0.5603
 8915SOL     OW38203   3.167   3.533   4.400 -0.2987 -0.5710  0.5880
 8915SOL    HW138204   3.125   3.547   4.316  2.1079  1.4128 -0.3089
 8915SOL    HW238205   3.231   3.605   4.405  0.5034 -1.2637  0.2363
 8916SOL     OW38206   0.063   2.475  17.358  0.1926 -0.2620 -0.2501
 8916SOL    HW138207   0.127   2.510  17.420 -1.0125  0.7429  0.4184
 8916SOL    HW238208   0.088   2.527  17.282 -0.5820  1.5891  0.7731
 8917SOL     OW38209   4.391   4.113   1.258 -0.0421  0.0381 -0.8419
 8917SOL    HW138210   4.423   4.120   1.348 -1.1827  0.4025 -0.4662
 8917SOL    HW238211   4.299   4.135   1.268  0.1353  1.1364 -1.6953
 8918SOL     OW38212   1.811   4.482   7.356  0.2147  0.5699  0.4619
 8918SOL    HW138213   1.859   4.400   7.368  0.3344  0.0799 -3.4587
 8918SOL    HW238214   1.723   4.458   7.388  0.5335 -0.8887  0.2588
 8919SOL     OW38215   1.402   4.644   5.711  0.7168 -0.6402  0.1047
 8919SOL    HW138216   1.495   4.659   5.729 -0.0424  1.7408  2.0304
 8919SOL    HW238217   1.385   4.605   5.797 -1.1669 -2.0055 -0.8824
 8920SOL     OW38218   2.471   0.648  12.274 -0.8431  0.0970 -0.4573
 8920SOL    HW138219   2.471   0.553  12.264 -2.3936 -0.0226  0.6243
 8920SOL    HW238220   2.470   0.650  12.370 -0.8927  2.7469 -0.4936
 8921SOL     OW38221   4.253   4.465   4.815  0.8212 -0.7015  0.2985
 8921SOL    HW138222   4.277   4.500   4.901  1.6155  0.0609 -0.2339
 8921SOL    HW238223   4.163   4.436   4.827  0.5052 -0.6933 -2.0472
 8922SOL     OW38224   4.322   1.311  11.497  0.2894 -0.5111  0.0202
 8922SOL    HW138225   4.291   1.394  11.460  1.6719  0.3345  0.7365
 8922SOL    HW238226   4.299   1.251  11.427 -0.0923  1.3417 -1.4509
 8923SOL     OW38227   0.736   3.993   4.622 -0.0900 -0.7238  0.2207
 8923SOL    HW138228   0.776   3.917   4.580 -0.0356 -1.4096  1.5101
 8923SOL    HW238229   0.799   4.056   4.586 -0.3031  0.5001  1.9838
 8924SOL     OW38230   4.476   3.410   2.282 -0.2411  0.4246  0.4140
 8924SOL    HW138231   4.518   3.380   2.363  1.6070 -0.2752 -0.8111
 8924SOL    HW238232   4.386   3.407   2.314 -0.5345  1.1152 -0.3665
 8925SOL     OW38233   2.599   0.547   5.840  0.1208  0.0923  0.3487
 8925SOL    HW138234   2.614   0.615   5.906  0.4813  1.8208 -1.4714
 8925SOL    HW238235   2.684   0.562   5.796  0.7562 -0.6963  1.3309
 8926SOL     OW38236   4.406   2.532   5.807 -0.0646  0.2330 -0.1132
 8926SOL    HW138237   4.402   2.460   5.744 -2.2231 -0.5649  0.9586
 8926SOL    HW238238   4.320   2.575   5.804  0.2081  0.9105  1.6226
 8927SOL     OW38239   3.323   1.895   7.373 -0.2169 -0.2912 -0.2069
 8927SOL    HW138240   3.298   1.840   7.447 -3.1206 -0.5556 -1.3444
 8927SOL    HW238241   3.284   1.973   7.413 -1.7497 -1.2372  0.1697
 8928SOL     OW38242   4.464   4.099   0.991  1.1236 -0.2689  0.3846
 8928SOL    HW138243   4.447   4.104   1.085  0.5695 -1.6310  0.3431
 8928SOL    HW238244   4.542   4.154   0.983  0.2471  1.2306  2.1136
 8929SOL     OW38245   0.590   0.901   1.837 -0.1777 -0.2083 -0.2131
 8929SOL    HW138246   0.554   0.971   1.892 -0.3112  1.8792 -2.9626
 8929SOL    HW238247   0.644   0.961   1.785 -1.0056  0.8973  0.1932
 8930SOL     OW38248   3.066   3.022   2.255 -0.0084  0.0150  0.1146
 8930SOL    HW138249   3.062   3.114   2.280  2.1070  0.2094 -0.2467
 8930SOL    HW238250   3.117   2.977   2.322 -1.8722 -0.4401  1.2438
 8931SOL     OW38251   3.389   1.917  15.182 -0.0654 -0.6937  0.9586
 8931SOL    HW138252   3.474   1.932  15.139  0.3063 -3.8259  0.6161
 8931SOL    HW238253   3.408   1.829  15.215  3.1273  0.1583  1.4432
 8932SOL     OW38254   4.370   1.756   7.067  0.0365 -0.1506 -0.0272
 8932SOL    HW138255   4.447   1.788   7.115  0.2050 -0.3210 -0.1839
 8932SOL    HW238256   4.339   1.687   7.127  1.9420 -0.8386  0.1838
 8933SOL     OW38257   1.210   3.576  14.718 -0.3665  0.5441 -0.6300
 8933SOL    HW138258   1.238   3.497  14.764  1.1173  0.5903 -1.4280
 8933SOL    HW238259   1.117   3.572  14.737  0.7151 -2.0221  4.2094
 8934SOL     OW38260   4.114   1.367   7.382 -0.5525  0.1838  0.1901
 8934SOL    HW138261   4.108   1.271   7.381 -1.7713  0.2588  0.5671
 8934SOL    HW238262   4.023   1.393   7.371 -0.7030 -0.4220  0.0003
 8935SOL     OW38263   2.397   0.546   6.375 -0.8507  0.7543  0.6016
 8935SOL    HW138264   2.482   0.585   6.353 -0.1200  0.2886  2.6087
 8935SOL    HW238265   2.400   0.518   6.467  1.1693  1.0287  0.6259
 8936SOL     OW38266   4.646   1.967   7.650 -0.0410  0.5366  0.2022
 8936SOL    HW138267   4.560   2.009   7.653 -0.5060 -0.3453 -0.8342
 8936SOL    HW238268   4.679   1.993   7.564  1.4690  0.6108  0.8110
 8937SOL     OW38269   0.581   1.419   5.384  0.0762 -0.5066  0.1987
 8937SOL    HW138270   0.492   1.383   5.379  1.6192 -4.5073  2.4901
 8937SOL    HW238271   0.590   1.421   5.479  0.3904  0.9818  0.1413
 8938SOL     OW38272   1.504   3.895   6.563 -0.0738 -0.5805  0.0344
 8938SOL    HW138273   1.515   3.915   6.470 -0.9667 -4.4408 -0.9259
 8938SOL    HW238274   1.420   3.850   6.561 -0.2007 -0.4100  1.8028
 8939SOL     OW38275   3.512   2.980   7.597  0.0693 -0.1260  0.0612
 8939SOL    HW138276   3.489   3.068   7.626 -2.3417  0.2927 -3.1802
 8939SOL    HW238277   3.539   3.004   7.508 -0.2103  3.1534  0.8707
 8940SOL     OW38278   2.035   1.245   3.973  0.5045  0.4348  0.0237
 8940SOL    HW138279   1.975   1.318   3.960  2.1251  1.4161 -1.9747
 8940SOL    HW238280   2.094   1.251   3.898  0.8333  0.8912  0.3143
 8941SOL     OW38281   1.260   1.221   5.540 -0.2295  0.4613  0.0654
 8941SOL    HW138282   1.288   1.258   5.624 -0.6412  2.8275 -0.8488
 8941SOL    HW238283   1.333   1.240   5.482  2.8559  0.6100  4.0313
 8942SOL     OW38284   3.967   2.107   4.137 -0.4255 -0.6454  0.1036
 8942SOL    HW138285   3.903   2.060   4.083 -0.2221 -0.4949 -0.2651
 8942SOL    HW238286   4.043   2.115   4.080  1.4628  0.1014  2.7230
 8943SOL     OW38287   3.183   1.498  14.692 -0.1829 -0.3772 -0.6136
 8943SOL    HW138288   3.252   1.539  14.744  0.5169 -1.2032 -0.8893
 8943SOL    HW238289   3.230   1.415  14.685  1.4663  0.3077  1.9761
 8944SOL     OW38290   2.571   4.535   8.758 -0.6217  0.0297  0.2298
 8944SOL    HW138291   2.621   4.563   8.681 -1.3979  0.0731 -0.2542
 8944SOL    HW238292   2.493   4.589   8.755 -0.5748  0.0696 -0.3617
 8945SOL     OW38293   2.823   4.118   2.323 -0.6074 -0.6911  0.2525
 8945SOL    HW138294   2.848   4.209   2.304 -1.7306 -0.3540  0.4282
 8945SOL    HW238295   2.750   4.113   2.262 -0.2664 -2.8034  0.0122
 8946SOL     OW38296   0.321   0.936  10.431  0.4220  0.0242 -0.4685
 8946SOL    HW138297   0.276   0.856  10.404  1.3409 -0.5955 -0.1463
 8946SOL    HW238298   0.279   0.939  10.517  0.4792  2.5746 -0.5138
 8947SOL     OW38299   0.363   1.101   6.410 -0.1472  0.2569 -0.6261
 8947SOL    HW138300   0.346   1.177   6.355 -1.7896  1.4850  1.5887
 8947SOL    HW238301   0.433   1.065   6.355 -0.2773 -0.7642 -0.1189
 8948SOL     OW38302   0.279   1.831   4.113 -0.1694 -0.2625  0.1061
 8948SOL    HW138303   0.273   1.776   4.191 -0.5804  0.2486  0.4334
 8948SOL    HW238304   0.268   1.915   4.158  0.0578 -0.1271 -0.0871
 8949SOL     OW38305   3.415   2.679   8.419  0.5423 -0.4739  0.5465
 8949SOL    HW138306   3.339   2.723   8.379  0.1808 -0.1456  1.6031
 8949SOL    HW238307   3.408   2.597   8.369 -1.0824 -0.6872  1.1041
 8950SOL     OW38308   2.238   3.555   8.745  0.0032  0.1826 -0.0919
 8950SOL    HW138309   2.260   3.477   8.693  1.6544  1.3695 -1.1380
 8950SOL    HW238310   2.318   3.606   8.756  2.3443 -4.0146  2.4135
 8951SOL     OW38311   1.922   0.210   4.118  0.4335 -0.4472 -0.2942
 8951SOL    HW138312   1.841   0.159   4.119  0.4785 -0.4771  2.2894
 8951SOL    HW238313   1.980   0.145   4.078 -0.1248 -0.8936 -0.3794
 8952SOL     OW38314   3.623   3.725   6.595  0.2334  0.2174 -0.2370
 8952SOL    HW138315   3.591   3.802   6.641 -3.0405 -2.0175  1.2372
 8952SOL    HW238316   3.670   3.678   6.664 -0.2621 -0.8260 -0.6038
 8953SOL     OW38317   1.581   4.460   0.793  0.4042  0.6224 -0.3819
 8953SOL    HW138318   1.523   4.515   0.740  0.4556  1.7777  0.7449
 8953SOL    HW238319   1.539   4.375   0.798 -1.1880  1.4242 -0.1406
 8954SOL     OW38320   1.717   0.513  10.738  0.1229 -0.3602 -0.2421
 8954SOL    HW138321   1.707   0.607  10.720 -0.9842 -0.6591 -1.1616
 8954SOL    HW238322   1.696   0.511  10.832  0.1736  1.4979 -0.1923
 8955SOL     OW38323   2.976   3.727  13.523  0.2939 -0.0706 -0.2171
 8955SOL    HW138324   3.057   3.732  13.472  1.6173 -3.5791  1.6027
 8955SOL    HW238325   2.929   3.653  13.486 -0.5917  1.1628 -1.5951
 8956SOL     OW38326   2.112   4.019  15.595 -0.1701  0.2947 -0.1139
 8956SOL    HW138327   2.107   4.097  15.539  1.3913  1.7602  1.7702
 8956SOL    HW238328   2.028   3.978  15.575 -0.0811 -0.7580  1.6550
 8957SOL     OW38329   3.574   2.024   7.273 -0.0307  0.1902  0.5660
 8957SOL    HW138330   3.608   2.086   7.338  1.6173  0.5158 -0.6070
 8957SOL    HW238331   3.502   1.980   7.318  1.4732  0.3728  3.1330
 8958SOL     OW38332   1.206   2.676   5.118  0.0575  0.4981  0.2263
 8958SOL    HW138333   1.263   2.669   5.041  0.0934  0.6811  0.2357
 8958SOL    HW238334   1.216   2.588   5.153 -2.2346  1.1383  2.5031
 8959SOL     OW38335   1.826   1.165   8.485 -0.0879 -0.2334 -0.0054
 8959SOL    HW138336   1.893   1.113   8.527  0.5255  0.7512  0.2389
 8959SOL    HW238337   1.772   1.089   8.461 -0.7355  0.1047  0.3822
 8960SOL     OW38338   1.082   0.796   6.468 -0.8096 -0.2412  0.0796
 8960SOL    HW138339   1.027   0.857   6.518 -1.0337 -0.3040 -0.0862
 8960SOL    HW238340   1.134   0.772   6.544 -3.0835  1.4999  2.1943
 8961SOL     OW38341   4.124   3.951   7.927  0.3341 -0.6739  0.0196
 8961SOL    HW138342   4.056   3.966   7.862  0.3154 -0.4264  0.0951
 8961SOL    HW238343   4.103   3.861   7.951 -2.2728  0.1199  0.6838
 8962SOL     OW38344   0.492   2.300   5.894  0.5588  0.0292 -0.1960
 8962SOL    HW138345   0.539   2.380   5.869 -3.0483  1.3640 -2.7435
 8962SOL    HW238346   0.435   2.333   5.963  0.0107 -1.0530 -0.1263
 8963SOL     OW38347   3.587   3.290   9.163  0.0871  0.1054  0.0195
 8963SOL    HW138348   3.626   3.310   9.078 -1.3896  2.6918 -0.0395
 8963SOL    HW238349   3.633   3.207   9.178 -1.9230 -1.4401 -2.3374
 8964SOL     OW38350   1.985   0.726  14.587  0.1187  0.5661  0.6303
 8964SOL    HW138351   1.931   0.804  14.599 -0.7149 -0.0212  0.7188
 8964SOL    HW238352   1.935   0.649  14.615 -0.3356  0.4581 -0.4579
 8965SOL     OW38353   0.042   1.148   6.551 -0.1304  0.7041 -0.0486
 8965SOL    HW138354   0.102   1.221   6.539  0.9625 -0.0873  0.6809
 8965SOL    HW238355   0.022   1.127   6.460 -0.9164 -1.2796  0.5815
 8966SOL     OW38356   4.030   3.950   6.260 -0.3133 -0.9659 -0.2096
 8966SOL    HW138357   3.941   3.918   6.276 -0.2197 -1.3870 -0.5559
 8966SOL    HW238358   4.053   3.951   6.353  0.6660 -1.3004 -0.4467
 8967SOL     OW38359   4.068   3.933   9.642 -0.0036 -0.1926  0.4266
 8967SOL    HW138360   4.157   3.904   9.622 -0.1642  0.0820 -0.6888
 8967SOL    HW238361   4.065   3.950   9.736  1.0498 -1.6856  0.7280
 8968SOL     OW38362   3.919   1.253   1.314 -0.7967  0.0042  0.7299
 8968SOL    HW138363   3.935   1.264   1.220 -0.1500 -2.6111  0.5413
 8968SOL    HW238364   3.994   1.302   1.347  0.6333 -0.6893 -1.4495
 8969SOL     OW38365   1.865   4.398   5.204  0.3118  0.0785  0.0187
 8969SOL    HW138366   1.917   4.471   5.236  0.5674  0.7918 -1.9871
 8969SOL    HW238367   1.853   4.337   5.276 -0.0929  0.6107  0.4007
 8970SOL     OW38368   3.857   0.033   6.928  0.2904 -0.4930  0.1175
 8970SOL    HW138369   3.770   4.716   6.913  0.6632 -1.6940  0.9756
 8970SOL    HW238370   3.875   0.047   6.835 -2.0141 -1.3362 -0.4647
 8971SOL     OW38371   3.280   4.534  14.194 -0.2010  0.3894 -0.0059
 8971SOL    HW138372   3.243   4.574  14.273  0.8160 -1.2966  1.3282
 8971SOL    HW238373   3.203   4.547  14.138  0.4845  1.5618 -0.6839
 8972SOL     OW38374   0.346   0.575   5.608  0.1889  0.1763 -0.3312
 8972SOL    HW138375   0.254   0.600   5.617  0.1715  0.0136 -0.0627
 8972SOL    HW238376   0.352   0.539   5.520 -0.0983 -0.9009  0.0900
 8973SOL     OW38377   2.848   1.230   7.648  0.4131  1.0052  0.3037
 8973SOL    HW138378   2.798   1.149   7.640  0.0752  1.4063 -1.6344
 8973SOL    HW238379   2.838   1.251   7.741 -0.5301 -0.2451  0.4823
 8974SOL     OW38380   0.789   3.805  12.043 -0.1287  0.2052  0.3521
 8974SOL    HW138381   0.777   3.877  12.105 -0.7504 -0.7367  1.3214
 8974SOL    HW238382   0.708   3.759  12.062 -0.6538  0.8423 -0.3859
 8975SOL     OW38383   4.048   0.176   5.911  0.3819 -0.2237 -0.0821
 8975SOL    HW138384   4.006   0.093   5.933  0.8129  0.0420  1.7695
 8975SOL    HW238385   4.091   0.204   5.992  1.1242 -2.1939  0.2107
 8976SOL     OW38386   1.272   3.413   0.464  0.0847 -0.4754 -0.2165
 8976SOL    HW138387   1.335   3.351   0.429  1.7200  1.3578 -0.5004
 8976SOL    HW238388   1.194   3.380   0.419 -2.0948  2.4038  1.3926
 8977SOL     OW38389   2.180   0.266   4.462 -0.5249  0.1299 -0.1782
 8977SOL    HW138390   2.160   0.301   4.549 -0.0901 -0.2750  0.0827
 8977SOL    HW238391   2.093   0.283   4.426 -0.8879 -1.6169 -0.1164
 8978SOL     OW38392   2.724   4.281   6.515  0.3074 -0.1021  0.9991
 8978SOL    HW138393   2.800   4.338   6.532  0.1743 -0.0822  1.5248
 8978SOL    HW238394   2.760   4.234   6.439  0.8502  4.0525 -1.3228
 8979SOL     OW38395   3.097   1.626   8.118  0.2634 -0.1695 -0.4520
 8979SOL    HW138396   3.090   1.714   8.081  0.9660  0.0642 -0.0343
 8979SOL    HW238397   3.146   1.578   8.052  1.9736 -1.4329  1.7347
 8980SOL     OW38398   0.444   1.828  12.299 -0.1591 -0.0640 -0.1793
 8980SOL    HW138399   0.465   1.850  12.389  0.7792 -0.4973 -0.2979
 8980SOL    HW238400   0.365   1.882  12.286 -0.3398 -0.4807 -0.8230
 8981SOL     OW38401   0.575   4.472   3.338  0.8368  0.4550 -0.0076
 8981SOL    HW138402   0.546   4.385   3.366  0.2853  0.9014  0.8013
 8981SOL    HW238403   0.505   4.502   3.281  0.1084  0.3886  0.8406
 8982SOL     OW38404   3.297   0.214   2.336  0.4464 -0.1728 -0.9256
 8982SOL    HW138405   3.310   0.122   2.314  2.0435  0.3566 -2.1496
 8982SOL    HW238406   3.303   0.258   2.251 -1.8047 -0.5856 -1.2946
 8983SOL     OW38407   1.968   1.252  11.294 -0.4335 -0.1769  0.0241
 8983SOL    HW138408   2.023   1.179  11.320  0.4485  1.5404  2.9063
 8983SOL    HW238409   1.976   1.240  11.199 -0.7224  0.4608 -0.0854
 8984SOL     OW38410   0.225   1.657  11.462 -0.3560 -0.2184  0.0079
 8984SOL    HW138411   0.179   1.643  11.544  0.1221 -1.2273  0.1000
 8984SOL    HW238412   0.268   1.740  11.483  1.8177 -0.2857 -4.0543
 8985SOL     OW38413   1.575   2.239  14.658 -0.3281  0.1814 -0.8876
 8985SOL    HW138414   1.599   2.156  14.616  0.6045  0.6606 -1.2863
 8985SOL    HW238415   1.571   2.209  14.749  1.2559  0.9271 -0.5752
 8986SOL     OW38416   0.604   1.571   2.533  0.1127  0.1338 -0.3911
 8986SOL    HW138417   0.578   1.490   2.577 -1.2467  1.9582  2.1362
 8986SOL    HW238418   0.584   1.552   2.441 -2.3657  1.0918 -0.0706
 8987SOL     OW38419   3.406   4.402   4.447 -0.1441  0.1281  0.7396
 8987SOL    HW138420   3.333   4.424   4.390  1.2242  0.3431 -0.9424
 8987SOL    HW238421   3.369   4.335   4.504 -2.3550  0.8219  0.1165
 8988SOL     OW38422   4.377   3.492   2.959  0.2662  0.0014  0.5213
 8988SOL    HW138423   4.447   3.545   2.997 -1.0848  2.0145  0.1791
 8988SOL    HW238424   4.410   3.480   2.870 -3.9063  2.5671 -1.3444
 8989SOL     OW38425   1.544   1.545   3.387 -0.2564  0.2126  0.0434
 8989SOL    HW138426   1.465   1.568   3.435 -0.8452  0.0504 -0.8496
 8989SOL    HW238427   1.508   1.464   3.351 -0.3097  1.3134 -2.3387
 8990SOL     OW38428   3.262   2.659   5.221 -0.2131 -0.3464  0.4786
 8990SOL    HW138429   3.207   2.580   5.217  0.9445 -1.1481  0.3930
 8990SOL    HW238430   3.346   2.614   5.215  0.3203  0.5246  1.5534
 8991SOL     OW38431   0.478   1.198   1.724  0.3313 -0.0780  0.9111
 8991SOL    HW138432   0.521   1.163   1.647  0.3261 -1.2704  1.4456
 8991SOL    HW238433   0.393   1.224   1.687  0.3184 -1.4066  0.0070
 8992SOL     OW38434   2.681   3.209   0.586 -0.3860  0.6214  0.0613
 8992SOL    HW138435   2.764   3.255   0.581  0.4910 -1.0442 -0.5521
 8992SOL    HW238436   2.696   3.133   0.531 -0.5938 -0.2711  1.2395
 8993SOL     OW38437   4.411   1.647   0.951  0.0302  0.3750 -0.1819
 8993SOL    HW138438   4.404   1.727   1.003 -1.7526 -0.6093  1.0916
 8993SOL    HW238439   4.505   1.634   0.957 -0.2324 -1.9680 -1.0365
 8994SOL     OW38440   1.592   2.639   6.032 -0.0091 -0.2299  0.8147
 8994SOL    HW138441   1.628   2.671   6.114 -0.5798  0.8660  0.6381
 8994SOL    HW238442   1.648   2.663   5.958 -1.4285  1.1308  0.1693
 8995SOL     OW38443   0.752   3.939  15.840  0.5746 -0.1743  0.1114
 8995SOL    HW138444   0.664   3.923  15.872  1.0125 -0.1400  1.3373
 8995SOL    HW238445   0.767   3.853  15.801  0.1295  0.3519 -1.2220
 8996SOL     OW38446   4.534   0.752   6.273 -0.2017 -0.1205 -0.1316
 8996SOL    HW138447   4.495   0.674   6.312 -2.1204  0.5320 -0.7282
 8996SOL    HW238448   4.481   0.831   6.287  1.5394  1.0514 -0.1008
 8997SOL     OW38449   2.866   3.487   0.711 -0.4071  0.0359  0.2126
 8997SOL    HW138450   2.825   3.524   0.633  0.1792 -0.4833 -0.3408
 8997SOL    HW238451   2.936   3.433   0.674 -1.2442 -0.7082 -0.2888
 8998SOL     OW38452   1.072   4.172   7.742 -0.1948 -0.1744 -0.1939
 8998SOL    HW138453   1.044   4.218   7.821 -0.1030 -1.9268  0.8530
 8998SOL    HW238454   1.166   4.166   7.761 -0.5046  1.7874  1.9604
 8999SOL     OW38455   0.768   1.445  15.781  0.7412  0.6808 -0.7087
 8999SOL    HW138456   0.764   1.486  15.868 -1.8067  1.1051 -1.0165
 8999SOL    HW238457   0.834   1.502  15.742  2.1736 -0.2412  0.3551
 9000SOL     OW38458   1.064   0.921  16.481  0.8270 -0.1323  0.2924
 9000SOL    HW138459   1.022   0.845  16.521  0.1569  1.2975  2.3547
 9000SOL    HW238460   1.034   0.993  16.537  0.0630 -0.1663 -0.0823
 9001SOL     OW38461   4.512   2.084   7.035 -0.7047 -0.1641 -0.2264
 9001SOL    HW138462   4.543   2.040   6.956  0.9295 -1.9876  1.4159
 9001SOL    HW238463   4.559   2.167   7.035 -0.2013 -0.4584 -1.6221
 9002SOL     OW38464   2.484   1.196  14.303 -0.7526 -0.1128 -0.1802
 9002SOL    HW138465   2.452   1.236  14.222  1.3862 -0.0077 -0.9840
 9002SOL    HW238466   2.405   1.161  14.342 -0.2902  0.9320  1.7046
 9003SOL     OW38467   2.764   4.143   1.783 -0.4265 -0.0569 -0.4585
 9003SOL    HW138468   2.739   4.091   1.707 -0.3653 -1.2712  0.3400
 9003SOL    HW238469   2.683   4.150   1.834  0.5072  3.6030  0.5428
 9004SOL     OW38470   0.781   4.591   6.765  0.6785  0.3240 -0.3165
 9004SOL    HW138471   0.734   4.638   6.834  1.8262 -0.3492  0.9092
 9004SOL    HW238472   0.772   4.656   6.695 -0.9236 -0.0820 -0.4927
 9005SOL     OW38473   4.094   1.947  12.863 -0.4321 -0.3201 -0.6402
 9005SOL    HW138474   4.167   1.918  12.808 -0.2860 -1.9491  0.4104
 9005SOL    HW238475   4.058   2.018  12.810  2.7312  0.3547 -1.8669
 9006SOL     OW38476   1.196   3.869   8.702 -0.1565 -0.7787  0.3392
 9006SOL    HW138477   1.147   3.951   8.713  1.8314  0.6056 -1.1227
 9006SOL    HW238478   1.139   3.814   8.649 -0.4281 -0.8088  0.6636
 9007SOL     OW38479   2.757   4.344  17.672 -0.5394 -0.0230  0.5626
 9007SOL    HW138480   2.793   4.433  17.673 -1.6332  0.4950 -4.4215
 9007SOL    HW238481   2.747   4.338  17.577  2.4072 -0.0326  0.2558
 9008SOL     OW38482   4.256   4.604   5.077 -0.2010 -0.2605 -0.0801
 9008SOL    HW138483   4.245   4.698   5.086  1.6546 -0.2513  2.1129
 9008SOL    HW238484   4.309   4.572   5.150  1.7871  3.1834 -0.0659
 9009SOL     OW38485   3.520   1.051   9.013 -0.7647 -0.1647 -0.0655
 9009SOL    HW138486   3.514   0.995   9.090  0.5445  0.0667  0.2053
 9009SOL    HW238487   3.574   1.120   9.050  0.9727 -2.0059  0.8109
 9010SOL     OW38488   0.670   3.991   7.174 -0.0036  0.9211 -0.2903
 9010SOL    HW138489   0.623   3.960   7.252  1.1587 -0.6886 -0.2204
 9010SOL    HW238490   0.633   3.944   7.100  1.0980  0.6789 -0.6840
 9011SOL     OW38491   4.043   4.251  12.772 -0.1677  0.5876  0.2705
 9011SOL    HW138492   4.060   4.213  12.685 -0.6765 -2.4125  1.4636
 9011SOL    HW238493   4.067   4.342  12.759  1.5648  0.0031 -0.7216
 9012SOL     OW38494   2.848   1.055   9.569 -0.2221  0.1905  0.4075
 9012SOL    HW138495   2.858   1.019   9.481  0.3650 -1.5834  1.1997
 9012SOL    HW238496   2.839   1.150   9.561  0.8352  0.0578 -2.1210
 9013SOL     OW38497   3.931   1.338  14.245 -0.4430  0.4413 -0.2105
 9013SOL    HW138498   3.858   1.392  14.215  1.0869  1.7345 -1.5305
 9013SOL    HW238499   3.993   1.364  14.178 -0.7324 -2.0469 -1.4388
 9014SOL     OW38500   3.968   0.953  11.171 -0.0482 -0.0126  0.3852
 9014SOL    HW138501   3.946   1.046  11.162 -0.9777 -0.3617 -1.0755
 9014SOL    HW238502   3.958   0.935  11.077  0.7593  1.8216 -0.0529
 9015SOL     OW38503   0.682   0.929   4.615 -0.1483  0.3111  0.0343
 9015SOL    HW138504   0.748   0.943   4.547  0.9078 -0.8811  0.8056
 9015SOL    HW238505   0.617   0.877   4.568  1.7800 -1.8595 -0.2446
 9016SOL     OW38506   0.046   4.652   8.151  0.4900 -0.4794 -0.6352
 9016SOL    HW138507   0.066   4.612   8.235 -0.2130  0.0108 -0.2458
 9016SOL    HW238508   0.130   4.698   8.145 -0.6487  1.5679 -0.9269
 9017SOL     OW38509   4.705   1.084  14.038 -0.2612  0.4332 -0.1483
 9017SOL    HW138510   4.682   1.033  13.960 -1.2553 -0.1359  0.5217
 9017SOL    HW238511   4.690   1.011  14.098  2.3943  0.1504  0.1571
 9018SOL     OW38512   0.709   1.174   8.495 -0.6404  0.3018  0.1926
 9018SOL    HW138513   0.801   1.189   8.512 -0.2052  1.0381 -2.8704
 9018SOL    HW238514   0.666   1.215   8.570 -0.2764 -0.4091  0.7910
 9019SOL     OW38515   3.049   3.292   2.345 -0.0755 -0.0279 -0.0461
 9019SOL    HW138516   2.992   3.325   2.414 -0.5427 -0.9083 -0.0236
 9019SOL    HW238517   3.089   3.368   2.301 -2.3875  1.4849  0.4726
 9020SOL     OW38518   3.426   2.460   6.818  0.3046 -0.8584 -0.1010
 9020SOL    HW138519   3.352   2.451   6.757  1.6050 -1.6987 -1.5414
 9020SOL    HW238520   3.468   2.377   6.795  0.2574 -0.9864  0.2645
 9021SOL     OW38521   3.412   4.428  17.437  0.1041  0.1002  0.1122
 9021SOL    HW138522   3.475   4.472  17.380  1.2458 -1.3626  0.2321
 9021SOL    HW238523   3.360   4.496  17.479 -0.7700 -0.7077  0.3267
 9022SOL     OW38524   0.133   1.862   4.541  0.0805  0.1939 -0.3546
 9022SOL    HW138525   0.199   1.930   4.528 -1.0586  1.6576  1.3899
 9022SOL    HW238526   0.063   1.916   4.579 -1.2863 -0.7113 -1.5789
 9023SOL     OW38527   3.719   3.529   6.756 -0.0143 -0.0076 -0.0034
 9023SOL    HW138528   3.726   3.444   6.712 -0.5947  1.4494 -2.9041
 9023SOL    HW238529   3.810   3.533   6.786 -0.1828  3.8427  0.0229
 9024SOL     OW38530   0.661   1.172   4.742  0.0773 -0.4321  0.1396
 9024SOL    HW138531   0.680   1.079   4.727  0.4356 -0.3291 -0.0312
 9024SOL    HW238532   0.695   1.217   4.664  0.5029 -0.0148  0.5715
 9025SOL     OW38533   4.217   3.042   0.753 -0.3057  0.5471  0.5076
 9025SOL    HW138534   4.260   3.010   0.674  0.5148  1.4459  0.5899
 9025SOL    HW238535   4.296   3.071   0.799 -0.2214  1.2099 -0.0608
 9026SOL     OW38536   1.000   3.657   4.694  0.0817 -0.1722 -0.0291
 9026SOL    HW138537   1.058   3.583   4.709 -0.1916  0.0815  2.3851
 9026SOL    HW238538   0.970   3.672   4.784  1.2337  2.4987 -0.0865
 9027SOL     OW38539   0.807   4.059  17.162 -0.1886 -0.4086 -0.2852
 9027SOL    HW138540   0.784   3.981  17.213  1.0449 -0.3253  0.3868
 9027SOL    HW238541   0.801   4.025  17.072  1.8429 -1.8615  0.1184
 9028SOL     OW38542   3.450   0.515  16.782 -0.2565  0.3450 -0.0651
 9028SOL    HW138543   3.472   0.438  16.835  0.1544  1.0388  0.7730
 9028SOL    HW238544   3.472   0.593  16.834 -2.3039 -0.2176  1.6524
 9029SOL     OW38545   1.834   0.887   5.726  0.5482  0.4380  0.3541
 9029SOL    HW138546   1.829   0.905   5.819 -2.0348  1.5783 -0.0101
 9029SOL    HW238547   1.885   0.806   5.723  1.0374  0.7393  0.6745
 9030SOL     OW38548   1.580   0.564  14.615  0.3890 -0.4823  0.0636
 9030SOL    HW138549   1.577   0.500  14.544  0.1320  0.1342 -0.4824
 9030SOL    HW238550   1.613   0.641  14.568  0.9131 -0.3459  0.6738
 9031SOL     OW38551   4.571   4.284   2.754 -0.4743  0.1689  0.0145
 9031SOL    HW138552   4.649   4.240   2.788 -0.1168  0.1490 -0.8105
 9031SOL    HW238553   4.532   4.204   2.718 -1.1320 -0.0257  1.1698
 9032SOL     OW38554   4.120   2.187  16.008 -0.0495 -0.1007 -0.9783
 9032SOL    HW138555   4.170   2.269  16.001  0.6626 -0.5460 -1.0833
 9032SOL    HW238556   4.194   2.127  15.995 -1.5949 -2.4536  1.3679
 9033SOL     OW38557   4.661   0.941  14.269  0.0096 -0.2627  0.1577
 9033SOL    HW138558   4.597   0.970  14.334 -0.7080 -2.1292  0.2824
 9033SOL    HW238559   4.651   0.846  14.277 -2.5328  0.0663  1.0734
 9034SOL     OW38560   4.257   1.753   2.236  0.2648  0.9504 -0.1584
 9034SOL    HW138561   4.280   1.793   2.319 -0.7558 -0.8721  1.0245
 9034SOL    HW238562   4.341   1.725   2.201  0.7429 -0.0963  1.8057
 9035SOL     OW38563   4.243   3.998   8.715 -0.5583  0.6189 -0.0069
 9035SOL    HW138564   4.332   3.967   8.726 -1.2364 -1.0752  0.7245
 9035SOL    HW238565   4.195   3.917   8.731  0.5709 -0.3944 -1.8246
 9036SOL     OW38566   3.020   2.250   9.143  0.0581  0.2319  0.1201
 9036SOL    HW138567   2.948   2.186   9.140 -0.3392  0.6195  1.2442
 9036SOL    HW238568   2.993   2.287   9.227 -1.0721  1.5467 -0.8240
 9037SOL     OW38569   1.629   1.077   4.164  0.2301  0.5149  0.1607
 9037SOL    HW138570   1.587   1.153   4.123 -2.8742 -1.4812 -0.3578
 9037SOL    HW238571   1.671   1.052   4.082 -0.1523  1.5113 -0.3300
 9038SOL     OW38572   1.039   2.148  14.306 -0.7904  0.2880  0.5232
 9038SOL    HW138573   1.063   2.238  14.285 -1.1853  0.0880 -0.8284
 9038SOL    HW238574   1.114   2.097  14.274 -0.1197  2.0082 -0.6377
 9039SOL     OW38575   4.294   1.781   6.590  0.1497  0.3787  0.4447
 9039SOL    HW138576   4.244   1.753   6.512  2.2181 -0.3391 -0.6192
 9039SOL    HW238577   4.329   1.695   6.613  1.9373  0.6757 -1.1305
 9040SOL     OW38578   0.095   0.942   1.222  0.3089  0.2042  0.3046
 9040SOL    HW138579   0.075   0.850   1.203  2.7792 -0.2367 -0.2133
 9040SOL    HW238580   0.016   0.982   1.187 -0.6291 -1.9885 -0.1225
 9041SOL     OW38581   0.093   4.644   9.088  0.3720  0.3535  0.2339
 9041SOL    HW138582   0.098   0.012   9.124 -0.0688  0.2567  0.5370
 9041SOL    HW238583   0.006   4.648   9.049  0.6227 -0.7653 -0.4615
 9042SOL     OW38584   0.930   0.435   7.160 -0.3592 -0.2610 -0.1752
 9042SOL    HW138585   0.910   0.510   7.216 -0.6532 -0.2597 -0.2827
 9042SOL    HW238586   0.884   0.452   7.078 -2.5964 -0.4024  1.0444
 9043SOL     OW38587   3.035   2.588   7.246 -0.7347  0.3462 -0.5031
 9043SOL    HW138588   2.993   2.514   7.289  1.0908 -0.3617  0.0627
 9043SOL    HW238589   3.088   2.556   7.173  0.8769  2.0696 -0.1002
 9044SOL     OW38590   3.145   4.524   4.679  0.0035 -0.3969  0.3362
 9044SOL    HW138591   3.106   4.501   4.763 -1.0047 -0.0171 -0.0334
 9044SOL    HW238592   3.080   4.517   4.610  0.0337 -2.0914  0.4780
 9045SOL     OW38593   0.404   2.724  14.516  0.4009 -0.3140  0.1077
 9045SOL    HW138594   0.352   2.653  14.478 -0.8647  1.1287 -0.8705
 9045SOL    HW238595   0.420   2.783  14.442  3.5814 -0.9515  0.2897
 9046SOL     OW38596   2.177   4.495  12.915 -0.5475  0.9076 -0.0532
 9046SOL    HW138597   2.122   4.418  12.904 -0.2823  0.7801 -0.4598
 9046SOL    HW238598   2.134   4.524  12.996 -1.3164 -0.5301  0.0535
 9047SOL     OW38599   0.943   1.774   8.292 -0.1839  0.1602 -0.2819
 9047SOL    HW138600   0.864   1.720   8.291  0.1277 -0.3338  2.0438
 9047SOL    HW238601   0.956   1.785   8.386 -2.3417 -1.4161  0.1960
 9048SOL     OW38602   2.495   1.131   4.102  0.1783  0.2102 -0.5842
 9048SOL    HW138603   2.411   1.153   4.142  0.9244 -0.1990  1.2104
 9048SOL    HW238604   2.467   1.041   4.082  1.0251 -0.1111 -0.3083
 9049SOL     OW38605   1.711   2.293  13.419  0.6274  0.3804  0.2238
 9049SOL    HW138606   1.641   2.248  13.372  0.0628 -2.5471  3.8729
 9049SOL    HW238607   1.729   2.359  13.352 -1.5972  1.2935  0.5027
 9050SOL     OW38608   3.724   1.929   0.792  0.0238 -0.1701  0.4561
 9050SOL    HW138609   3.724   1.926   0.888 -2.0668 -0.3946  0.4430
 9050SOL    HW238610   3.688   1.841   0.783  1.0847 -0.6757  1.1725
 9051SOL     OW38611   0.423   4.370   4.682 -0.3332 -0.2021 -0.0238
 9051SOL    HW138612   0.494   4.366   4.618 -0.3135 -0.4867  0.0157
 9051SOL    HW238613   0.470   4.350   4.763 -1.9268  0.5507  1.0986
 9052SOL     OW38614   1.096   0.687  17.302 -0.3075 -0.0259 -0.1036
 9052SOL    HW138615   1.024   0.683  17.366  0.5650  0.5340  0.9122
 9052SOL    HW238616   1.126   0.776  17.317 -0.9233 -0.1758  1.9559
 9053SOL     OW38617   1.038   0.784  14.073 -0.2404 -0.0083 -0.7224
 9053SOL    HW138618   1.065   0.772  13.982  2.5359  1.6794 -0.1147
 9053SOL    HW238619   0.980   0.708  14.082  0.5699 -0.6915 -1.2376
 9054SOL     OW38620   1.370   4.073   3.885 -0.8044 -0.5969 -0.1690
 9054SOL    HW138621   1.382   4.166   3.868  2.9412 -0.7546  1.6139
 9054SOL    HW238622   1.355   4.037   3.798 -0.3530 -1.4544  0.1071
 9055SOL     OW38623   4.566   3.004   3.756  0.2453  0.1876 -0.5429
 9055SOL    HW138624   4.622   2.973   3.685  0.0974  0.6390 -0.8586
 9055SOL    HW238625   4.569   2.929   3.815 -1.8371 -0.2908 -1.0363
 9056SOL     OW38626   3.918   1.904   5.782 -0.0352 -0.1683  0.0588
 9056SOL    HW138627   3.868   1.982   5.759 -0.0894 -0.4458 -0.7522
 9056SOL    HW238628   3.986   1.892   5.716 -1.1312 -1.6928 -0.7981
 9057SOL     OW38629   2.204   0.587  12.184 -0.3278  0.4278 -0.5046
 9057SOL    HW138630   2.180   0.668  12.228 -2.4550 -0.1916 -0.5228
 9057SOL    HW238631   2.293   0.561  12.206 -0.3634 -0.7856 -1.8006
 9058SOL     OW38632   3.440   1.762   2.049 -0.2620  0.3354 -0.2215
 9058SOL    HW138633   3.437   1.815   2.129  1.3291  2.3696 -1.5301
 9058SOL    HW238634   3.385   1.815   1.992 -2.3001 -0.5328  0.9539
 9059SOL     OW38635   4.094   3.741   9.038  0.3752 -0.3009 -0.1338
 9059SOL    HW138636   4.039   3.768   9.112 -0.8759  0.9234 -1.4877
 9059SOL    HW238637   4.178   3.735   9.083  0.7532  1.9744 -0.5142
 9060SOL     OW38638   1.218   0.693  10.968  0.4979  0.1612 -0.0296
 9060SOL    HW138639   1.308   0.696  10.999  0.9447 -1.8272 -1.1191
 9060SOL    HW238640   1.184   0.628  11.029  1.6049  1.0955  1.5773
 9061SOL     OW38641   0.189   4.430   9.387 -0.0083  0.0420  0.4406
 9061SOL    HW138642   0.192   4.335   9.381 -1.0168 -0.0620  1.5623
 9061SOL    HW238643   0.211   4.465   9.301  0.4183 -0.7617  0.2303
 9062SOL     OW38644   1.554   3.879   2.355  0.1135 -0.2829  0.1591
 9062SOL    HW138645   1.608   3.954   2.329 -1.6068  0.9425  0.0881
 9062SOL    HW238646   1.618   3.809   2.371  0.5564  0.1122  0.1158
 9063SOL     OW38647   3.642   1.963  13.951  0.0082 -0.2528 -0.0252
 9063SOL    HW138648   3.612   1.905  14.021  0.9382  1.1271  1.5030
 9063SOL    HW238649   3.554   1.993  13.928  1.1409  2.9959 -0.1521
 9064SOL     OW38650   3.736   1.989   3.110  0.1065 -0.2689 -0.4778
 9064SOL    HW138651   3.707   2.024   3.026  0.9350  0.9055 -0.2718
 9064SOL    HW238652   3.682   1.910   3.099 -1.1233  0.6520 -1.0391
 9065SOL     OW38653   1.002   3.690   5.596  0.2790  0.2469 -0.5020
 9065SOL    HW138654   1.050   3.705   5.514  2.5583  0.0434  0.7671
 9065SOL    HW238655   1.003   3.780   5.629  2.1253  0.2647 -0.5729
 9066SOL     OW38656   0.180   0.305   2.145  0.9109 -0.1372  0.0729
 9066SOL    HW138657   0.262   0.263   2.120  2.1057  3.4472 -1.9644
 9066SOL    HW238658   0.118   0.286   2.075 -0.3471 -0.1601  1.1877
 9067SOL     OW38659   2.308   3.613   9.116 -0.1626 -0.1017  0.0110
 9067SOL    HW138660   2.311   3.699   9.157 -1.2885  0.0384 -0.1951
 9067SOL    HW238661   2.389   3.619   9.066 -0.0829  1.4827  0.3488
 9068SOL     OW38662   4.263   3.949   9.361  0.3496  0.2335 -0.0587
 9068SOL    HW138663   4.305   3.925   9.443 -0.8767 -0.0822  0.4681
 9068SOL    HW238664   4.187   4.001   9.384  0.9401  1.0082  0.1535
 9069SOL     OW38665   0.819   2.467   6.503  0.3424 -0.2649  0.0217
 9069SOL    HW138666   0.867   2.384   6.507 -0.4914 -0.6848  1.5309
 9069SOL    HW238667   0.873   2.511   6.569  0.7837  0.0401 -0.5485
 9070SOL     OW38668   1.238   0.529   3.228  0.0436 -0.0624 -0.1384
 9070SOL    HW138669   1.277   0.611   3.196 -1.3534  1.4281  1.9952
 9070SOL    HW238670   1.195   0.501   3.147 -3.3338 -2.8500  2.6668
 9071SOL     OW38671   0.675   1.170   8.052  0.1600 -0.1720 -0.0391
 9071SOL    HW138672   0.654   1.239   7.989  0.9438  1.9938  2.0817
 9071SOL    HW238673   0.771   1.171   8.054  0.1505 -0.0516  0.2004
 9072SOL     OW38674   3.531   0.783   7.591 -0.2007 -0.1227  0.1525
 9072SOL    HW138675   3.504   0.714   7.530  0.1109 -0.2796  0.1963
 9072SOL    HW238676   3.457   0.777   7.651  0.5032 -1.2688  0.8937
 9073SOL     OW38677   0.891   0.308  16.043 -0.0330  0.1375  0.2473
 9073SOL    HW138678   0.936   0.392  16.048  0.3935 -0.0820  0.1301
 9073SOL    HW238679   0.817   0.317  16.102 -0.4446 -1.2178 -0.0678
 9074SOL     OW38680   0.790   0.734   7.718 -0.2453 -0.3405 -0.0602
 9074SOL    HW138681   0.754   0.654   7.755  1.4712 -1.0552  0.0574
 9074SOL    HW238682   0.883   0.726   7.737 -0.3009 -0.0857  0.3248
 9075SOL     OW38683   3.915   2.415  17.298  0.6854 -0.4352 -0.3173
 9075SOL    HW138684   3.955   2.484  17.351 -0.9119 -0.6156  1.1121
 9075SOL    HW238685   3.851   2.380  17.360 -0.2784  0.8545 -0.5963
 9076SOL     OW38686   3.510   2.169   7.780  0.5714  0.1284 -0.3844
 9076SOL    HW138687   3.491   2.129   7.864  0.4615 -0.5770 -0.7439
 9076SOL    HW238688   3.486   2.261   7.791 -0.2414 -0.0977 -0.2758
 9077SOL     OW38689   1.706   0.162  14.796 -0.0729  0.3682 -0.2466
 9077SOL    HW138690   1.726   0.071  14.820  1.4252  0.8562  0.3685
 9077SOL    HW238691   1.769   0.182  14.726 -0.1102  0.6035 -0.2112
 9078SOL     OW38692   3.347   3.244   1.819 -0.6030 -0.7466  0.3947
 9078SOL    HW138693   3.353   3.311   1.751 -3.7457  0.9885  1.8478
 9078SOL    HW238694   3.417   3.179   1.809  0.2316  0.1549  0.4537
 9079SOL     OW38695   3.715   3.398   8.585  0.3935  0.4846 -0.4038
 9079SOL    HW138696   3.748   3.338   8.517 -2.0246  1.9075 -2.8523
 9079SOL    HW238697   3.787   3.385   8.646  0.8490 -1.1412 -1.2700
 9080SOL     OW38698   3.923   0.798   5.939  0.2365  0.1217  0.3926
 9080SOL    HW138699   3.882   0.861   5.880  1.8290  0.2640 -0.5626
 9080SOL    HW238700   4.014   0.827   5.949 -1.0571  4.0625  0.8685
 9081SOL     OW38701   3.481   2.718   9.342  0.5260 -0.1235 -0.4329
 9081SOL    HW138702   3.398   2.732   9.297  1.4738  3.1985 -1.1645
 9081SOL    HW238703   3.494   2.776   9.417 -1.8129 -1.8285  1.2974
 9082SOL     OW38704   3.056   1.694   2.170 -0.3001  0.0589 -0.2793
 9082SOL    HW138705   3.021   1.612   2.205  1.2970  0.3388  1.9595
 9082SOL    HW238706   3.105   1.727   2.245  3.4721  0.2877 -2.8166
 9083SOL     OW38707   0.952   1.889   5.175 -0.6264 -0.5572  0.3281
 9083SOL    HW138708   0.914   1.975   5.156  1.6088 -0.2381 -2.7690
 9083SOL    HW238709   1.029   1.916   5.225 -0.3738  0.5102 -0.6272
 9084SOL     OW38710   0.345   1.116   6.674  0.0168 -0.8196 -0.0279
 9084SOL    HW138711   0.347   1.097   6.580 -1.5246 -0.9854 -0.0383
 9084SOL    HW238712   0.263   1.160   6.697  0.9728  0.5443  0.7718
 9085SOL     OW38713   4.171   3.488   3.765  0.1852  0.2862  0.0413
 9085SOL    HW138714   4.150   3.495   3.858  1.8314 -0.1181  0.4567
 9085SOL    HW238715   4.265   3.508   3.769 -0.0190  0.8163  2.2123
 9086SOL     OW38716   2.636   1.464  10.923  0.0213  0.7068  0.0469
 9086SOL    HW138717   2.585   1.430  10.850  1.0370 -1.2620  0.2682
 9086SOL    HW238718   2.616   1.557  10.912  0.1251  0.5734 -1.2233
 9087SOL     OW38719   2.729   4.175   6.960 -0.0078 -0.1317 -0.2804
 9087SOL    HW138720   2.680   4.214   6.886  1.3242  0.1334 -1.0168
 9087SOL    HW238721   2.702   4.084   6.958 -0.7082  0.1397 -3.5391
 9088SOL     OW38722   0.981   0.022   9.914  0.6366  0.4972 -0.5670
 9088SOL    HW138723   0.892   0.054   9.899 -0.2714 -2.5437 -1.6530
 9088SOL    HW238724   0.980   4.687   9.992  0.8729  1.2232 -0.0540
 9089SOL     OW38725   0.561   2.497   4.027  0.4873 -0.1604 -0.0657
 9089SOL    HW138726   0.576   2.591   4.020 -0.3787 -0.0680 -0.5899
 9089SOL    HW238727   0.469   2.483   4.047  0.3583 -0.0329 -0.5911
 9090SOL     OW38728   2.401   3.671   2.086 -0.3904 -0.2159  0.3939
 9090SOL    HW138729   2.496   3.673   2.074 -0.3249 -0.4059  0.8957
 9090SOL    HW238730   2.372   3.595   2.036 -2.4203 -0.3077  1.6776
 9091SOL     OW38731   3.884   3.789   9.533  0.1717  0.2681  0.4126
 9091SOL    HW138732   3.949   3.847   9.573 -0.5172  1.9899 -0.9830
 9091SOL    HW238733   3.835   3.765   9.611 -1.5645  1.2245 -0.3912
 9092SOL     OW38734   2.518   4.621   2.609  0.0913 -0.0201  0.0306
 9092SOL    HW138735   2.500   4.599   2.701  1.0351  0.2296  0.2689
 9092SOL    HW238736   2.427   4.648   2.593  0.7259  2.1293  0.0371
 9093SOL     OW38737   1.842   3.261  15.855  0.2283 -0.2738  1.0755
 9093SOL    HW138738   1.763   3.311  15.877 -0.8298 -2.0117  1.2224
 9093SOL    HW238739   1.794   3.181  15.830  1.2021  0.4683 -3.1931
 9094SOL     OW38740   4.027   2.911   0.867 -0.5428  0.2140  0.6138
 9094SOL    HW138741   4.090   2.960   0.814 -0.8364  1.6666  1.5937
 9094SOL    HW238742   4.082   2.857   0.923 -2.5784 -1.4871  0.9601
 9095SOL     OW38743   2.698   1.446   3.320  0.3102 -0.3462 -0.2500
 9095SOL    HW138744   2.640   1.434   3.395 -0.4650 -2.9468 -1.2562
 9095SOL    HW238745   2.731   1.356   3.319 -0.7930 -0.7464 -0.8873
 9096SOL     OW38746   1.693   2.735   4.603 -0.0816 -0.5208 -0.4438
 9096SOL    HW138747   1.783   2.705   4.587 -1.0971 -1.9159 -3.6508
 9096SOL    HW238748   1.665   2.663   4.660  1.2097 -0.6551  0.0149
 9097SOL     OW38749   1.257   4.126   4.149 -0.3208  0.6263 -0.6910
 9097SOL    HW138750   1.317   4.075   4.094 -0.9601 -1.8907  0.9382
 9097SOL    HW238751   1.268   4.214   4.113 -4.1409  0.4653 -2.1965
 9098SOL     OW38752   2.688   2.812   5.495 -0.3926  1.0453 -0.2436
 9098SOL    HW138753   2.749   2.877   5.460 -1.4692  0.8013 -2.5838
 9098SOL    HW238754   2.695   2.746   5.426 -0.6019 -0.0281  0.7444
 9099SOL     OW38755   3.670   1.441   1.948 -0.1163  0.1691  0.4387
 9099SOL    HW138756   3.759   1.477   1.950 -0.1725  0.1838  2.8722
 9099SOL    HW238757   3.632   1.464   2.033  1.1549  1.5618  0.6390
 9100SOL     OW38758   2.692   1.698   4.149 -0.5102 -0.6053 -0.2734
 9100SOL    HW138759   2.636   1.625   4.125  0.1418 -0.7973 -1.1848
 9100SOL    HW238760   2.646   1.774   4.112  0.6285  0.8550  1.2790
 9101SOL     OW38761   2.452   1.346   7.480  0.2051  0.3375  0.2709
 9101SOL    HW138762   2.545   1.356   7.498 -0.0860 -0.0059  1.9726
 9101SOL    HW238763   2.438   1.252   7.471  0.5441  0.4132 -1.0231
 9102SOL     OW38764   2.768   1.614   3.111 -0.4270  0.6798 -0.5919
 9102SOL    HW138765   2.721   1.597   3.030 -1.5341  3.1801 -0.4870
 9102SOL    HW238766   2.759   1.532   3.160  0.4633  1.2972  0.6133
 9103SOL     OW38767   2.938   1.675  10.887  0.2449  0.1312  0.5985
 9103SOL    HW138768   3.031   1.697  10.883  0.4620 -0.6803  1.2685
 9103SOL    HW238769   2.909   1.676  10.795 -2.6484  3.1379  1.5244
 9104SOL     OW38770   0.700   0.419   3.119  0.6218  0.3632 -0.1212
 9104SOL    HW138771   0.619   0.468   3.121  1.1381  1.2539 -1.0718
 9104SOL    HW238772   0.713   0.392   3.028  1.2976  0.1240  0.0432
 9105SOL     OW38773   0.010   2.007   9.869 -0.1232  0.4281  0.0798
 9105SOL    HW138774   0.028   2.044   9.782 -1.9920  0.5812 -0.2391
 9105SOL    HW238775   4.635   2.014   9.872 -0.3400 -2.1265 -0.6382
 9106SOL     OW38776   0.089   1.604   3.980 -0.1388  0.5925 -0.1533
 9106SOL    HW138777   0.032   1.626   4.054 -1.2698 -0.3385 -0.7438
 9106SOL    HW238778   0.168   1.601   4.033  0.4368 -0.8819 -1.0787
 9107SOL     OW38779   4.695   2.338   2.677  0.0333  0.3561 -0.0748
 9107SOL    HW138780   4.635   2.339   2.602  0.1838  1.8229 -0.1726
 9107SOL    HW238781   0.008   2.426   2.660 -0.4476  0.3642 -0.9965
 9108SOL     OW38782   0.812   2.472   3.588  0.3992  0.0949 -0.0840
 9108SOL    HW138783   0.878   2.524   3.634 -1.5654  0.9808  1.7645
 9108SOL    HW238784   0.792   2.545   3.530  0.7917 -1.5663 -2.3019
 9109SOL     OW38785   3.165   2.012   8.976  0.0747  0.0605  0.9563
 9109SOL    HW138786   3.154   1.943   9.042  2.1113  0.4547  1.7166
 9109SOL    HW238787   3.141   1.973   8.893 -0.4486  2.5717 -0.0637
 9110SOL     OW38788   4.409   2.044   7.824 -0.1593 -0.5340  0.3254
 9110SOL    HW138789   4.459   2.011   7.898  0.9793 -0.6902 -0.5105
 9110SOL    HW238790   4.324   2.033   7.865 -0.2314  0.3267  0.3975
 9111SOL     OW38791   2.743   3.392   6.188 -0.2699 -0.0010 -0.3591
 9111SOL    HW138792   2.828   3.348   6.183 -0.4820 -0.5657  0.9116
 9111SOL    HW238793   2.704   3.332   6.253  1.0952 -0.3029  0.1866
 9112SOL     OW38794   1.090   1.223   9.065  0.1969  0.1715  0.1050
 9112SOL    HW138795   1.001   1.196   9.090  0.0733 -0.0962 -0.6154
 9112SOL    HW238796   1.096   1.307   9.111 -0.6094 -0.2676  1.0269
 9113SOL     OW38797   0.385   2.024   5.146  0.2808 -0.1373  0.0760
 9113SOL    HW138798   0.394   1.944   5.198  2.4995 -0.7459 -1.2013
 9113SOL    HW238799   0.470   2.030   5.103  0.1366  1.0309 -0.0318
 9114SOL     OW38800   2.521   1.240   2.670 -0.0338  0.1547 -0.5666
 9114SOL    HW138801   2.525   1.304   2.599  0.9779  2.0159  1.1584
 9114SOL    HW238802   2.525   1.296   2.748 -0.6755  1.7780 -1.6998
 9115SOL     OW38803   0.290   2.963   6.635  0.2241  0.1996 -0.9474
 9115SOL    HW138804   0.378   2.925   6.627  1.0414  1.6211  1.1874
 9115SOL    HW238805   0.289   3.003   6.722 -1.0052 -1.7200 -0.0898
 9116SOL     OW38806   3.765   4.264   5.918 -0.1124  0.3936 -0.0385
 9116SOL    HW138807   3.754   4.277   5.824  2.0876  0.1999 -0.3245
 9116SOL    HW238808   3.845   4.211   5.918  0.6057  1.4963 -2.3977
 9117SOL     OW38809   4.244   3.638   1.076 -0.6262  0.8175  0.5353
 9117SOL    HW138810   4.284   3.715   1.034 -1.4117  1.2631  0.5904
 9117SOL    HW238811   4.192   3.675   1.148  0.1785  0.4424  1.2999
 9118SOL     OW38812   2.056   3.049  11.997  0.2338 -0.1250  0.5950
 9118SOL    HW138813   2.014   3.086  12.074  1.2715  2.6523 -0.1675
 9118SOL    HW238814   2.023   2.960  12.011  1.4826 -0.4157  1.6917
 9119SOL     OW38815   1.754   1.968   5.840 -0.1426 -0.6988  0.0885
 9119SOL    HW138816   1.677   1.911   5.834  0.0922 -1.1624  1.5935
 9119SOL    HW238817   1.811   1.928   5.774  0.6593  0.5080  0.0372
 9120SOL     OW38818   3.903   4.552  16.613  0.6849  0.1645  0.3975
 9120SOL    HW138819   3.881   4.528  16.703 -1.8741  0.9040 -0.0306
 9120SOL    HW238820   3.815   4.567  16.580  0.3385  1.5518  1.9734
 9121SOL     OW38821   3.533   0.031  16.308  0.8590 -0.0310  0.2151
 9121SOL    HW138822   3.546   0.094  16.378  0.6555  0.7705 -0.4728
 9121SOL    HW238823   3.450   4.714  16.336  1.3738  0.5261  2.4760
 9122SOL     OW38824   2.246   1.337  10.751 -0.1113  0.1036 -0.0059
 9122SOL    HW138825   2.179   1.273  10.727 -0.2926 -0.5070  2.1247
 9122SOL    HW238826   2.271   1.319  10.842 -1.2111  1.8699  0.6253
 9123SOL     OW38827   1.512   1.781   6.585  0.4139  0.5558 -0.1060
 9123SOL    HW138828   1.543   1.854   6.638 -1.1590 -0.0681  1.6363
 9123SOL    HW238829   1.593   1.743   6.551  0.1625 -0.3455  0.3067
 9124SOL     OW38830   2.284   0.454   3.066 -0.1588  0.1525 -0.2454
 9124SOL    HW138831   2.214   0.432   3.005  0.4155  0.5892 -1.0563
 9124SOL    HW238832   2.243   0.427   3.148  0.6837 -0.2282  0.0519
 9125SOL     OW38833   3.442   0.717   0.033 -0.1985  0.3660  0.2398
 9125SOL    HW138834   3.517   0.730  17.659  0.4571  0.3714  1.0894
 9125SOL    HW238835   3.474   0.664   0.106 -0.4482 -4.0641 -2.8469
 9126SOL     OW38836   4.298   0.517   1.098  0.1194  0.2233  0.3267
 9126SOL    HW138837   4.335   0.482   1.179 -1.5290 -1.4628  0.3508
 9126SOL    HW238838   4.323   0.445   1.041 -2.5600  0.9972 -1.8427
 9127SOL     OW38839   0.719   3.754   4.944  0.6277 -0.2395  0.0184
 9127SOL    HW138840   0.737   3.847   4.930 -1.7218  0.2181  0.1203
 9127SOL    HW238841   0.809   3.720   4.944  2.0849  3.6272  0.6991
 9128SOL     OW38842   2.091   2.173   5.685  0.4715  0.3462  0.5253
 9128SOL    HW138843   2.123   2.096   5.638 -0.4425  0.4370 -0.2589
 9128SOL    HW238844   2.050   2.131   5.760  0.4504 -1.2850 -0.3864
 9129SOL     OW38845   2.304   2.506   2.962 -0.1031  0.1756  0.4882
 9129SOL    HW138846   2.374   2.572   2.961 -2.2310  2.4386  1.0632
 9129SOL    HW238847   2.351   2.431   2.924  0.7957  0.7629  0.4229
 9130SOL     OW38848   1.110   2.931   6.321 -0.2595 -0.9413  0.3855
 9130SOL    HW138849   1.087   2.951   6.412 -0.6540 -1.0235  0.3056
 9130SOL    HW238850   1.028   2.888   6.297 -0.7963 -0.1262  0.7322
 9131SOL     OW38851   3.475   0.905   9.255  0.0870 -0.1553 -0.0136
 9131SOL    HW138852   3.497   0.899   9.348 -1.7898  1.3390  0.5261
 9131SOL    HW238853   3.452   0.816   9.230 -1.5222  0.1435  0.3939
 9132SOL     OW38854   0.409   0.350   4.929  0.3703  1.1752  0.6271
 9132SOL    HW138855   0.360   0.302   4.862  0.0809  0.8765  1.0491
 9132SOL    HW238856   0.376   0.294   5.000 -1.1482  1.9053  0.5067
 9133SOL     OW38857   4.208   1.519   8.038  0.5387  0.5022 -0.0710
 9133SOL    HW138858   4.222   1.610   8.011  3.8985 -0.6809 -2.4136
 9133SOL    HW238859   4.245   1.514   8.126 -0.9289 -0.6128  0.4783
 9134SOL     OW38860   3.064   3.876  17.203  0.2282  0.0975 -0.1688
 9134SOL    HW138861   3.118   3.952  17.183  0.2545 -0.0389 -0.6223
 9134SOL    HW238862   3.048   3.890  17.296  1.5628  0.2741  0.0409
 9135SOL     OW38863   1.243   0.021   8.836  0.2514  0.8513  0.6905
 9135SOL    HW138864   1.164   0.065   8.866  0.1166 -0.0568  1.6659
 9135SOL    HW238865   1.296   0.052   8.909  0.1071  0.3578  1.0067
 9136SOL     OW38866   1.512   1.617   1.394  0.1168  0.5867 -0.0959
 9136SOL    HW138867   1.544   1.611   1.484  0.7226 -0.8536 -0.4067
 9136SOL    HW238868   1.531   1.708   1.373  2.9941 -0.5187 -2.3022
 9137SOL     OW38869   0.112   0.579   2.109  0.4838 -0.3004  0.0522
 9137SOL    HW138870   0.120   0.557   2.202  0.8978  0.7553  0.2704
 9137SOL    HW238871   0.137   0.499   2.063  3.5839  1.3279 -1.1451
 9138SOL     OW38872   2.877   1.528  13.012 -0.4924 -0.1803 -0.4016
 9138SOL    HW138873   2.868   1.606  12.958 -0.0194 -0.5411 -0.9913
 9138SOL    HW238874   2.940   1.471  12.969  0.1475 -1.0442  1.6601
 9139SOL     OW38875   1.966   3.190   2.602  0.4999 -0.3031 -0.8555
 9139SOL    HW138876   1.933   3.235   2.680 -1.5893 -1.8554 -0.8408
 9139SOL    HW238877   2.054   3.160   2.625 -0.0180 -1.2198 -0.0700
 9140SOL     OW38878   1.785   3.942   7.248  0.1001  0.1198  0.5407
 9140SOL    HW138879   1.824   3.931   7.161 -0.4828 -1.1841  0.4461
 9140SOL    HW238880   1.695   3.922   7.222  0.6085 -2.0350  0.4709
 9141SOL     OW38881   1.493   3.491   2.156 -0.5939 -0.0380 -0.1071
 9141SOL    HW138882   1.558   3.436   2.200 -1.8144 -0.7050  0.8492
 9141SOL    HW238883   1.425   3.497   2.223  0.9713 -0.9794  1.5582
 9142SOL     OW38884   0.930   2.400  10.222 -0.1333 -0.1724  0.2425
 9142SOL    HW138885   0.935   2.494  10.206  2.2265 -0.1827  0.8995
 9142SOL    HW238886   0.946   2.399  10.317 -0.2819 -0.4381  0.2646
 9143SOL     OW38887   3.758   3.652  16.400  0.1337  0.1804  0.4007
 9143SOL    HW138888   3.671   3.675  16.368 -0.0285  0.1307  0.7975
 9143SOL    HW238889   3.733   3.595  16.473  0.8297 -2.2411 -1.2583
 9144SOL     OW38890   3.868   0.635   5.652 -0.3103  0.2124 -0.3278
 9144SOL    HW138891   3.873   0.572   5.724  0.8601  2.0481  1.1829
 9144SOL    HW238892   3.953   0.667   5.623  0.5103 -1.5849  0.0531
 9145SOL     OW38893   3.443   2.429   5.272  0.0931 -0.0187  0.2026
 9145SOL    HW138894   3.440   2.338   5.302 -0.4441 -0.7836 -2.1691
 9145SOL    HW238895   3.503   2.469   5.335  0.7012 -0.8307  0.1344
 9146SOL     OW38896   1.639   4.406   6.598  0.2939  0.1524 -0.2575
 9146SOL    HW138897   1.697   4.329   6.593 -1.5938 -1.2914  0.1482
 9146SOL    HW238898   1.703   4.472   6.625  1.6121  0.2984 -3.8110
 9147SOL     OW38899   4.500   1.869  11.864 -0.3573  0.2079  0.4916
 9147SOL    HW138900   4.517   1.831  11.950 -0.0484  0.7546  0.6706
 9147SOL    HW238901   4.529   1.959  11.874  1.0264 -0.0470 -1.2741
 9148SOL     OW38902   2.440   2.106   2.051 -0.0312  0.6836  0.4650
 9148SOL    HW138903   2.521   2.057   2.070 -0.9274 -1.1873 -0.5701
 9148SOL    HW238904   2.380   2.032   2.045 -0.8102  1.2421  1.2747
 9149SOL     OW38905   4.218   0.516   8.297  0.0594 -0.1395 -0.2050
 9149SOL    HW138906   4.184   0.551   8.379  0.8044  0.1460 -0.0157
 9149SOL    HW238907   4.236   0.427   8.328 -0.5723 -0.1163  0.2196
 9150SOL     OW38908   0.361   1.021   2.147  0.4359 -0.6032  1.0622
 9150SOL    HW138909   0.337   1.003   2.238 -0.3381  2.9880  1.5476
 9150SOL    HW238910   0.277   1.049   2.111  1.7608  1.2049 -0.5989
 9151SOL     OW38911   2.475   0.123  17.173 -0.3346 -0.6207 -0.1770
 9151SOL    HW138912   2.470   0.097  17.081 -2.0635  0.4051 -0.3751
 9151SOL    HW238913   2.445   0.212  17.158  1.4346 -0.0582 -0.3897
 9152SOL     OW38914   0.444   0.875   6.828  0.4986 -0.3329  0.2450
 9152SOL    HW138915   0.530   0.882   6.786  0.5741 -0.6437  0.3533
 9152SOL    HW238916   0.384   0.929   6.776  0.9119 -0.1863 -0.0852
 9153SOL     OW38917   4.139   2.744   1.071 -0.1542 -0.5752  0.0748
 9153SOL    HW138918   4.058   2.698   1.096 -0.4050 -0.6875 -0.9135
 9153SOL    HW238919   4.162   2.774   1.158 -1.6737  0.8507 -0.0109
 9154SOL     OW38920   0.465   4.676   2.802  0.3613 -0.2005  0.1192
 9154SOL    HW138921   0.530   4.696   2.734  0.3727  2.6286  0.9640
 9154SOL    HW238922   0.527   4.655   2.871 -0.2560 -0.1223  0.6932
 9155SOL     OW38923   1.965   2.718   4.565 -0.0758  1.0548  0.2850
 9155SOL    HW138924   2.021   2.795   4.556 -0.0130  1.1477  1.4983
 9155SOL    HW238925   1.958   2.732   4.659  3.2690 -2.1763  1.0306
 9156SOL     OW38926   4.273   1.254   0.649 -0.6146 -0.0111 -0.0999
 9156SOL    HW138927   4.324   1.334   0.637  1.5547 -1.5904 -1.4000
 9156SOL    HW238928   4.227   1.274   0.730 -1.2270 -0.4129 -0.3432
 9157SOL     OW38929   2.461   3.872  11.304 -0.5030 -0.6664 -0.9200
 9157SOL    HW138930   2.378   3.904  11.268  0.0179  1.6302 -0.0974
 9157SOL    HW238931   2.436   3.781  11.317 -0.5461 -0.3192  1.4548
 9158SOL     OW38932   0.998   2.096   9.619 -0.2976 -0.2641  0.3099
 9158SOL    HW138933   1.076   2.040   9.616  0.0692  0.1807  1.7567
 9158SOL    HW238934   0.976   2.077   9.710  0.1632 -0.6490  0.3405
 9159SOL     OW38935   4.420   3.504   5.992  0.5767  1.0683 -0.0420
 9159SOL    HW138936   4.376   3.437   6.045  0.0288  1.5792  0.1542
 9159SOL    HW238937   4.342   3.546   5.955  1.6634  0.6280 -2.7737
 9160SOL     OW38938   2.412   4.342  14.536  0.1998  0.1825 -0.3550
 9160SOL    HW138939   2.503   4.359  14.563  0.8939 -3.6712 -0.2573
 9160SOL    HW238940   2.368   4.383  14.610  0.8564 -0.6894  0.5179
 9161SOL     OW38941   1.799   1.794   3.068  0.0376  0.3585 -0.5665
 9161SOL    HW138942   1.771   1.814   3.157  2.5532  1.8965 -0.1459
 9161SOL    HW238943   1.861   1.865   3.053  1.3672 -0.9194 -1.0796
 9162SOL     OW38944   4.477   3.818   1.928 -0.0639  0.6516 -0.1291
 9162SOL    HW138945   4.570   3.806   1.946  0.6942  1.7257 -3.1919
 9162SOL    HW238946   4.459   3.808   1.834 -0.7111 -0.4136  0.1102
 9163SOL     OW38947   3.109   4.180  10.948  0.4979 -0.2116  0.0885
 9163SOL    HW138948   3.152   4.095  10.949 -0.2388 -0.5864 -0.4766
 9163SOL    HW238949   3.143   4.233  10.876  2.2163  1.6428  2.2597
 9164SOL     OW38950   1.863   0.648  16.138  0.8837  0.2612 -0.6795
 9164SOL    HW138951   1.787   0.665  16.194  1.7592  0.4808  0.4490
 9164SOL    HW238952   1.903   0.732  16.114  1.0369  1.1428  2.6953
 9165SOL     OW38953   0.309   2.344   4.366  0.2484  0.0474  0.2028
 9165SOL    HW138954   0.237   2.385   4.318  1.2026  0.1841 -1.0898
 9165SOL    HW238955   0.382   2.401   4.343  0.7617  0.7769  3.5923
 9166SOL     OW38956   2.236   1.226   6.277  0.2343 -0.2851  0.1113
 9166SOL    HW138957   2.164   1.205   6.217  0.4482 -1.5339  0.2928
 9166SOL    HW238958   2.261   1.138   6.307  2.1617  0.6175  1.1295
 9167SOL     OW38959   1.445   2.835   3.370 -0.1051 -0.1044  0.2559
 9167SOL    HW138960   1.499   2.802   3.441  0.8746  1.4236  0.2186
 9167SOL    HW238961   1.432   2.757   3.316  1.0610 -0.1835  0.0937
 9168SOL     OW38962   2.085   0.446   6.118 -0.0974  0.0710 -0.2349
 9168SOL    HW138963   2.079   0.352   6.101 -2.2953  0.7290 -3.0386
 9168SOL    HW238964   2.043   0.441   6.204 -0.7886 -1.9865 -0.6889
 9169SOL     OW38965   0.762   0.641   6.294  0.0082  0.2555  0.1839
 9169SOL    HW138966   0.776   0.733   6.269 -0.6542  0.0161 -1.0368
 9169SOL    HW238967   0.787   0.585   6.221 -0.0445 -1.4257  1.4598
 9170SOL     OW38968   3.466   2.963   8.960  0.3624 -0.3590 -0.2528
 9170SOL    HW138969   3.371   2.952   8.963  0.4641 -0.9733  0.7093
 9170SOL    HW238970   3.477   3.054   8.987  0.8475 -0.7215  0.7925
 9171SOL     OW38971   1.845   1.811   7.967  0.4506  0.1557 -0.3825
 9171SOL    HW138972   1.782   1.823   8.037 -0.9051 -0.7000 -1.4576
 9171SOL    HW238973   1.810   1.736   7.919  2.6782 -0.0053 -1.7775
 9172SOL     OW38974   0.023   2.770   8.468  0.1472  0.3879 -0.1709
 9172SOL    HW138975   0.076   2.693   8.448 -0.8038  0.1114 -1.5552
 9172SOL    HW238976   0.068   2.792   8.550 -0.8945  0.9036  0.2681
 9173SOL     OW38977   1.198   2.190   5.283  0.2162 -0.0404 -0.0797
 9173SOL    HW138978   1.252   2.176   5.206  0.7997  0.8739  0.1611
 9173SOL    HW238979   1.197   2.100   5.316 -2.5643  0.6176  1.6277
 9174SOL     OW38980   3.052   3.060  11.429  0.0003 -0.6827  0.5896
 9174SOL    HW138981   3.042   2.999  11.356 -1.0596 -2.8907  2.5576
 9174SOL    HW238982   3.147   3.069  11.437 -0.1397  2.2650 -1.2294
 9175SOL     OW38983   1.873   0.720   6.344 -0.2561  0.3857 -0.5157
 9175SOL    HW138984   1.856   0.748   6.435 -0.5301 -0.2958 -0.3624
 9175SOL    HW238985   1.968   0.713   6.350 -0.3888  0.5230  2.1593
 9176SOL     OW38986   0.952   0.449  16.396  0.0719  0.6562 -0.2733
 9176SOL    HW138987   0.970   0.452  16.302  0.2458 -3.5382 -0.3723
 9176SOL    HW238988   0.867   0.409  16.414 -0.4229  1.3139 -1.1859
 9177SOL     OW38989   1.878   1.812   2.362 -0.3361  0.4336  0.1678
 9177SOL    HW138990   1.836   1.889   2.399  1.4182  0.8098  1.3451
 9177SOL    HW238991   1.800   1.757   2.351 -1.1051  1.8369 -1.4910
 9178SOL     OW38992   3.126   2.313   4.712 -0.4390  0.0441 -0.0272
 9178SOL    HW138993   3.084   2.338   4.630 -0.7691 -2.1247 -0.5197
 9178SOL    HW238994   3.205   2.367   4.713 -0.8800  0.7012 -3.1903
 9179SOL     OW38995   2.008   0.415  11.836 -0.3470 -0.1385 -0.1178
 9179SOL    HW138996   2.018   0.502  11.874  0.0151  0.1586 -0.8941
 9179SOL    HW238997   2.040   0.362  11.909  3.1042 -0.8604 -2.1732
 9180SOL     OW38998   1.177   3.601   3.636 -0.2344 -0.1306  0.1072
 9180SOL    HW138999   1.136   3.681   3.604 -0.5057  0.2462  1.4040
 9180SOL    HW239000   1.122   3.587   3.713  1.6827  1.4325  1.7590
 9181SOL     OW39001   0.935   2.886  14.910 -0.6353 -0.3513 -0.4721
 9181SOL    HW139002   0.969   2.827  14.978 -1.1674 -0.6722 -0.4882
 9181SOL    HW239003   0.928   2.832  14.831  1.4656  0.2216 -1.0531
 9182SOL     OW39004   4.680   3.089   5.082 -1.1526 -0.0982 -0.8235
 9182SOL    HW139005   0.042   3.139   5.082 -0.5722 -1.0563 -2.0585
 9182SOL    HW239006   4.637   3.135   5.010 -0.6294  0.8273 -0.5574
 9183SOL     OW39007   1.474   1.107  13.088  0.6100 -0.5099 -0.0546
 9183SOL    HW139008   1.441   1.120  13.176 -0.3792  0.7125 -0.6154
 9183SOL    HW239009   1.394   1.073  13.048 -0.7984  1.6773  0.9468
 9184SOL     OW39010   0.745   1.554   9.413  0.3038  0.1887 -0.7116
 9184SOL    HW139011   0.718   1.468   9.445  3.6978 -1.3432 -1.9437
 9184SOL    HW239012   0.757   1.605   9.493  1.3323 -2.2458  0.6829
 9185SOL     OW39013   2.383   4.108   5.684  0.0509  0.0846  0.1995
 9185SOL    HW139014   2.298   4.093   5.725 -0.5321  1.9307 -0.3725
 9185SOL    HW239015   2.356   4.108   5.593  2.7378 -0.1204 -0.6052
 9186SOL     OW39016   0.069   1.566   6.413  0.5246 -0.0544 -0.2684
 9186SOL    HW139017   0.115   1.637   6.367 -0.7763  0.9055 -0.1001
 9186SOL    HW239018   0.073   1.495   6.349 -0.6083  2.3040 -2.9956
 9187SOL     OW39019   0.740   1.474   5.168 -0.4446 -0.1912  0.2968
 9187SOL    HW139020   0.677   1.441   5.231 -1.1177  2.8580  1.2255
 9187SOL    HW239021   0.727   1.569   5.177 -0.0977 -0.3192  2.0850
 9188SOL     OW39022   2.815   1.289   7.982  0.5261 -0.3311  0.4372
 9188SOL    HW139023   2.858   1.203   7.985  0.1934 -0.5407 -0.6822
 9188SOL    HW239024   2.768   1.295   8.065 -1.2319 -0.2223 -0.5740
 9189SOL     OW39025   1.266   4.200   0.183  0.1636  0.2591  0.5877
 9189SOL    HW139026   1.239   4.133   0.120 -1.1082  1.5630 -0.2737
 9189SOL    HW239027   1.307   4.151   0.254 -1.2499  0.4612  1.5350
 9190SOL     OW39028   1.151   3.850   2.430 -0.2781  0.1244  0.6279
 9190SOL    HW139029   1.140   3.924   2.491  0.2254 -0.3489  1.2920
 9190SOL    HW239030   1.109   3.777   2.476  0.9389 -0.6162  0.5595
 9191SOL     OW39031   4.642   2.046   4.582  0.4668 -0.5402 -0.0536
 9191SOL    HW139032   4.643   2.110   4.510 -0.3785  2.2392  2.4327
 9191SOL    HW239033   4.549   2.039   4.600  0.0525  3.7966 -0.4797
 9192SOL     OW39034   1.520   0.681   1.323 -0.1098  0.0409  0.1203
 9192SOL    HW139035   1.579   0.646   1.256 -2.9885  1.7507 -3.2618
 9192SOL    HW239036   1.570   0.752   1.364  1.4243 -1.1731  0.3995
 9193SOL     OW39037   0.211   1.333  15.543  0.6351  0.3996  0.1636
 9193SOL    HW139038   0.195   1.287  15.626  0.0669  0.9364  0.3489
 9193SOL    HW239039   0.283   1.388  15.573 -0.3361  0.7836  1.7760
 9194SOL     OW39040   0.680   0.587  17.309  0.1464 -0.7125 -0.7651
 9194SOL    HW139041   0.628   0.547  17.240 -0.2716  0.3284 -1.0604
 9194SOL    HW239042   0.700   0.526  17.380  0.1131 -0.3380 -0.4329
 9195SOL     OW39043   1.439   0.323   7.370 -0.1355 -0.1830 -0.0450
 9195SOL    HW139044   1.438   0.415   7.344  0.0867 -0.5799 -1.4591
 9195SOL    HW239045   1.364   0.296   7.316 -0.8378  1.2011  0.2459
 9196SOL     OW39046   3.268   1.130   5.032  0.0098 -0.7233  0.6417
 9196SOL    HW139047   3.198   1.108   4.970 -0.9002 -0.9663  1.7473
 9196SOL    HW239048   3.241   1.076   5.107  0.2005 -2.8102 -0.7801
 9197SOL     OW39049   1.143   2.475   3.842 -0.0988  0.3552  0.5957
 9197SOL    HW139050   1.068   2.416   3.837 -1.8739  2.4079  3.7301
 9197SOL    HW239051   1.207   2.410   3.873  0.7289  0.7320 -0.3105
 9198SOL     OW39052   3.073   1.889   6.406 -0.4298 -0.1633 -0.1046
 9198SOL    HW139053   3.030   1.803   6.414 -1.3811  0.2438 -0.8886
 9198SOL    HW239054   3.144   1.879   6.343  1.3254  1.9637  1.5306
 9199SOL     OW39055   2.988   1.446   5.748  0.2602  0.3482  0.4795
 9199SOL    HW139056   3.080   1.425   5.735 -0.2197 -1.8454  0.6454
 9199SOL    HW239057   2.968   1.373   5.807  0.8484  0.3214  0.6540
 9200SOL     OW39058   1.540   3.158   9.615  0.1828 -0.1983 -0.1427
 9200SOL    HW139059   1.563   3.105   9.691  0.7841 -0.4468 -0.4966
 9200SOL    HW239060   1.599   3.120   9.551  2.2997  0.3844  1.4542
 9201SOL     OW39061   3.455   0.438   6.922 -0.5785 -0.0186 -0.0697
 9201SOL    HW139062   3.464   0.358   6.973 -2.2472  0.8127  1.5684
 9201SOL    HW239063   3.547   0.439   6.895 -0.2805 -1.2975  0.9176
 9202SOL     OW39064   0.975   1.445   9.744  0.1346  0.3168 -0.6158
 9202SOL    HW139065   0.925   1.383   9.797  0.3174  0.0275 -0.7795
 9202SOL    HW239066   0.905   1.506   9.721  0.3180  0.9797  0.5644
 9203SOL     OW39067   3.324   3.556   0.419 -0.5807 -0.3642 -0.2489
 9203SOL    HW139068   3.339   3.598   0.335  0.1429  1.0044  0.5694
 9203SOL    HW239069   3.229   3.564   0.430 -0.5963  0.0453 -0.6786
 9204SOL     OW39070   3.001   3.311   1.897  0.7091 -0.5370  0.5520
 9204SOL    HW139071   3.035   3.224   1.919  1.6144  0.0646  1.5352
 9204SOL    HW239072   3.081   3.364   1.898  1.0678 -1.0767  0.3694
 9205SOL     OW39073   1.614   3.352   7.808  0.0962  0.8444 -0.3668
 9205SOL    HW139074   1.653   3.267   7.829  1.8682  2.0879  1.3394
 9205SOL    HW239075   1.528   3.324   7.778  0.4191  1.2105 -1.6398
 9206SOL     OW39076   0.274   0.035  15.713 -0.3277  0.2835 -0.3806
 9206SOL    HW139077   0.322   0.038  15.631 -1.2629  0.4366 -0.9208
 9206SOL    HW239078   0.343   0.054  15.776 -0.7548  1.4516 -0.2513
 9207SOL     OW39079   2.596   3.809   7.392 -0.5983  0.3793 -0.1295
 9207SOL    HW139080   2.507   3.778   7.411 -1.2075  0.7533 -2.3738
 9207SOL    HW239081   2.620   3.767   7.310  0.2825 -1.1608  0.9334
 9208SOL     OW39082   2.261   0.940   8.704 -0.3590 -0.2876 -0.2176
 9208SOL    HW139083   2.294   1.010   8.647  0.2729 -2.0305 -2.0032
 9208SOL    HW239084   2.329   0.951   8.770 -1.1918 -3.4115  1.1606
 9209SOL     OW39085   0.971   0.525   6.455 -0.8433  0.3943 -0.2091
 9209SOL    HW139086   0.911   0.555   6.387 -0.7436  1.8027  0.3085
 9209SOL    HW239087   1.005   0.606   6.494 -1.3882  0.0142  1.0730
 9210SOL     OW39088   2.380   4.018  13.550  0.3289  0.2575  0.4001
 9210SOL    HW139089   2.416   4.054  13.632 -0.6150  0.6544  0.6393
 9210SOL    HW239090   2.454   4.014  13.490  0.0364  0.0503  0.0502
 9211SOL     OW39091   4.705   3.056  13.803 -0.5773  0.4405  0.9552
 9211SOL    HW139092   4.669   3.008  13.877 -1.0268 -1.7327 -0.6784
 9211SOL    HW239093   4.626   3.106  13.783 -2.8003 -3.2706  0.4572
 9212SOL     OW39094   1.440   3.898   2.596 -0.8925  0.4040 -0.4221
 9212SOL    HW139095   1.481   3.903   2.510  0.9145 -2.2667  0.3102
 9212SOL    HW239096   1.405   3.809   2.594 -1.9894  0.7787  2.1367
 9213SOL     OW39097   2.673   1.352  11.350 -0.0465 -0.3725  0.3131
 9213SOL    HW139098   2.710   1.404  11.279 -1.7687  0.7011  0.1997
 9213SOL    HW239099   2.632   1.285  11.296 -3.5377 -0.4258  3.0140
 9214SOL     OW39100   2.545   2.298   2.556  0.3610 -0.1313  0.0408
 9214SOL    HW139101   2.614   2.353   2.520 -1.5475  0.5732 -2.5560
 9214SOL    HW239102   2.486   2.286   2.481 -0.2047  1.1138  0.2777
 9215SOL     OW39103   0.895   2.669   0.616 -0.3534 -0.5852 -0.5059
 9215SOL    HW139104   0.886   2.652   0.522 -1.8706 -1.5884 -0.1747
 9215SOL    HW239105   0.886   2.580   0.650  1.7460 -0.8657 -0.6561
 9216SOL     OW39106   3.424   4.407   7.329  0.1645  0.0668  0.6668
 9216SOL    HW139107   3.395   4.320   7.358 -0.0343  0.3546  1.3319
 9216SOL    HW239108   3.358   4.469   7.359  0.8988  1.4633 -0.6239
 9217SOL     OW39109   0.524   2.124   5.390 -0.4957 -0.2618  0.2774
 9217SOL    HW139110   0.540   2.056   5.326  0.6671  1.3859 -1.1849
 9217SOL    HW239111   0.571   2.085   5.464 -2.0009 -0.8266  0.9442
 9218SOL     OW39112   2.850   0.155   2.428 -0.0180 -0.7772  0.1112
 9218SOL    HW139113   2.851   0.078   2.486 -1.4973 -0.1755  0.9464
 9218SOL    HW239114   2.755   0.167   2.422  0.1679  0.8292  0.5026
 9219SOL     OW39115   0.774   3.841   3.459 -0.3594  0.3967  0.3198
 9219SOL    HW139116   0.802   3.931   3.471 -0.4214  0.7179 -2.0154
 9219SOL    HW239117   0.724   3.852   3.379 -2.6553  0.7764  1.8112
 9220SOL     OW39118   1.329   1.790   6.357 -0.1365 -0.1062  0.2291
 9220SOL    HW139119   1.385   1.797   6.434  0.7761 -2.5424 -0.2188
 9220SOL    HW239120   1.353   1.864   6.302  1.5491 -1.1780 -0.4804
 9221SOL     OW39121   1.311   0.573  15.855  0.1114  0.5053  0.0644
 9221SOL    HW139122   1.217   0.575  15.839 -0.0093 -0.4889  0.6566
 9221SOL    HW239123   1.335   0.520  15.778 -0.7036 -1.6169  1.2793
 9222SOL     OW39124   0.226   0.498   9.039  0.4009  0.1878  0.6162
 9222SOL    HW139125   0.260   0.409   9.031  0.9865  0.3013  1.8115
 9222SOL    HW239126   0.256   0.535   9.122  3.4182  0.0016 -0.3859
 9223SOL     OW39127   3.565   0.892  12.909  0.1673 -0.0631  0.2170
 9223SOL    HW139128   3.521   0.819  12.953  1.0368 -0.1500  0.9457
 9223SOL    HW239129   3.616   0.931  12.980  0.7532 -0.1910 -0.1285
 9224SOL     OW39130   2.759   3.841   4.220  0.5858  0.0122 -0.1471
 9224SOL    HW139131   2.715   3.770   4.267  0.1307  0.6479  0.4019
 9224SOL    HW239132   2.802   3.792   4.150  1.0366 -1.2606  1.0295
 9225SOL     OW39133   1.149   3.302   1.221  0.3950  0.4628 -0.3386
 9225SOL    HW139134   1.228   3.343   1.257 -0.2008  1.2386  0.0681
 9225SOL    HW239135   1.080   3.364   1.241 -0.6919 -0.0746 -2.3829
 9226SOL     OW39136   4.589   3.651   6.179  0.2790 -0.3148  0.0052
 9226SOL    HW139137   4.678   3.643   6.145 -0.7856 -0.7064 -2.6906
 9226SOL    HW239138   4.547   3.581   6.128 -1.8803  1.1296 -0.2094
 9227SOL     OW39139   0.686   1.610   2.960  0.0512 -0.7406 -0.0331
 9227SOL    HW139140   0.663   1.681   3.020  3.6783 -1.6567  2.4022
 9227SOL    HW239141   0.599   1.589   2.926  0.2619  1.3136 -1.8806
 9228SOL     OW39142   2.744   2.509  16.218  0.2563  0.2796 -0.5267
 9228SOL    HW139143   2.739   2.438  16.282  0.9563  1.9540  1.4062
 9228SOL    HW239144   2.828   2.554  16.231 -1.4317  2.8677  1.6005
 9229SOL     OW39145   4.695   1.255   2.312  0.5133  0.2388  0.1921
 9229SOL    HW139146   4.632   1.183   2.313  0.8991 -0.1084 -1.0874
 9229SOL    HW239147   4.697   1.273   2.406 -0.4983  0.6265  0.1391
 9230SOL     OW39148   4.246   3.900   1.540  0.2201  0.2179 -0.4248
 9230SOL    HW139149   4.319   3.962   1.547 -0.1364  0.8853 -2.7468
 9230SOL    HW239150   4.196   3.948   1.606  0.5999 -0.5169  0.3870
 9231SOL     OW39151   1.309   2.685   8.882 -0.6086  0.4991 -0.0420
 9231SOL    HW139152   1.328   2.591   8.887  0.0600  0.7918  2.6810
 9231SOL    HW239153   1.276   2.694   8.972  1.0794  0.7087  0.5450
 9232SOL     OW39154   4.090   4.368   0.635  0.2533 -0.4779 -0.1065
 9232SOL    HW139155   4.011   4.361   0.582  1.8396  0.2571 -2.5891
 9232SOL    HW239156   4.087   4.278   0.667  1.2625 -0.4137  0.1731
 9233SOL     OW39157   0.432   0.607   7.933  0.0129  0.2711  0.1551
 9233SOL    HW139158   0.429   0.529   7.878  0.8364 -0.9231  1.7890
 9233SOL    HW239159   0.526   0.611   7.950 -0.1647 -1.4613  1.6179
 9234SOL     OW39160   0.483   2.090   8.750 -0.4228  0.0853  0.7163
 9234SOL    HW139161   0.473   2.025   8.819 -2.5593  1.2498  1.5102
 9234SOL    HW239162   0.506   2.168   8.800  0.3602  0.5834 -0.4283
 9235SOL     OW39163   2.697   3.308   6.494  0.3004  0.3390 -0.3824
 9235SOL    HW139164   2.751   3.385   6.477  1.6339 -0.7769 -1.1766
 9235SOL    HW239165   2.764   3.247   6.524  0.0765 -0.4293 -1.4222
 9236SOL     OW39166   0.524   0.594   5.233 -0.4183 -0.7512  0.0404
 9236SOL    HW139167   0.575   0.675   5.237 -1.8422  0.2507 -2.1981
 9236SOL    HW239168   0.477   0.612   5.151  0.9658 -2.0750 -1.0508
 9237SOL     OW39169   1.178   3.335  10.873  0.3004  0.1624 -0.1649
 9237SOL    HW139170   1.155   3.400  10.939 -0.5283 -1.4066  1.0959
 9237SOL    HW239171   1.096   3.320  10.827  1.7333 -1.1694 -2.3146
 9238SOL     OW39172   0.415   0.409   8.382 -0.0493  0.3310 -0.0171
 9238SOL    HW139173   0.509   0.429   8.381  0.0336 -0.0565  0.0527
 9238SOL    HW239174   0.402   0.362   8.300 -0.3618 -1.0738  0.8469
 9239SOL     OW39175   3.093   4.170   7.520 -0.0308  0.1936  0.0732
 9239SOL    HW139176   3.051   4.189   7.604 -0.8166  1.1492 -0.5318
 9239SOL    HW239177   3.061   4.083   7.497  0.6015 -0.4725  1.6718
 9240SOL     OW39178   4.422   1.089   8.594 -0.0459 -0.3854 -0.4077
 9240SOL    HW139179   4.504   1.108   8.640  0.3683 -0.0609 -1.2620
 9240SOL    HW239180   4.457   1.093   8.505 -2.0406  0.7364 -1.1557
 9241SOL     OW39181   0.067   0.950   9.546 -0.1012 -0.0218 -0.5605
 9241SOL    HW139182   0.094   0.872   9.497 -0.1737 -1.1369  1.1917
 9241SOL    HW239183   4.708   0.970   9.495  0.1432  1.6606 -0.2982
 9242SOL     OW39184   2.391   4.447  12.581  0.4505  0.1355 -0.4684
 9242SOL    HW139185   2.409   4.443  12.675 -0.5264  0.4241 -0.2673
 9242SOL    HW239186   2.480   4.461  12.551  0.5926  0.1112 -0.0601
 9243SOL     OW39187   3.665   2.351   9.119 -0.0788 -0.1116 -0.3743
 9243SOL    HW139188   3.599   2.395   9.173 -0.1421  1.6631 -1.9389
 9243SOL    HW239189   3.738   2.351   9.181 -1.4958  1.9330  1.2935
 9244SOL     OW39190   1.769   3.416  12.571 -0.6704  0.2918 -0.4490
 9244SOL    HW139191   1.829   3.345  12.591  0.4397  1.6236  0.9872
 9244SOL    HW239192   1.689   3.366  12.559 -1.4506  0.9258  2.2154
 9245SOL     OW39193   4.540   0.947   5.973  0.0564 -0.2506  0.1393
 9245SOL    HW139194   4.600   1.004   6.021 -0.6691  0.6235 -0.0076
 9245SOL    HW239195   4.482   1.009   5.930  0.6673  0.1783 -0.0723
 9246SOL     OW39196   0.832   0.561   5.552  0.5083  0.0983 -0.7874
 9246SOL    HW139197   0.751   0.554   5.604  0.9682  2.6875  0.2708
 9246SOL    HW239198   0.839   0.468   5.528 -2.0047  0.0023 -1.2159
 9247SOL     OW39199   0.808   3.381   3.831 -0.3547 -0.3377  0.0720
 9247SOL    HW139200   0.819   3.458   3.887 -1.8703  0.8700 -1.3018
 9247SOL    HW239201   0.728   3.394   3.780 -0.0741 -0.2651 -0.3434
 9248SOL     OW39202   0.157   4.370  16.073  0.2130 -0.0683  0.2812
 9248SOL    HW139203   0.156   4.283  16.031 -0.6279  0.9726 -1.8620
 9248SOL    HW239204   0.114   4.426  16.008 -1.8087 -0.5705  1.1643
 9249SOL     OW39205   2.029   1.394   9.134  0.4518  0.7097 -0.2925
 9249SOL    HW139206   2.116   1.413   9.099  1.0558 -1.6757 -0.1309
 9249SOL    HW239207   2.049   1.439   9.216 -2.4961 -1.7213  1.7430
 9250SOL     OW39208   3.212   3.373   7.738 -0.2598 -0.2015 -0.8003
 9250SOL    HW139209   3.148   3.420   7.683  0.8025  0.6487 -1.3202
 9250SOL    HW239210   3.243   3.448   7.790 -1.4384 -0.2099 -0.0909
 9251SOL     OW39211   3.733   2.931   8.450 -0.0922 -0.1479  0.4616
 9251SOL    HW139212   3.659   2.989   8.467 -1.0477 -1.4447  0.7599
 9251SOL    HW239213   3.786   2.948   8.528 -1.0345  1.8531  0.6791
 9252SOL     OW39214   0.840   0.946   6.267  0.2547 -0.1476  0.9919
 9252SOL    HW139215   0.811   1.023   6.218 -1.2949 -1.0949  0.4281
 9252SOL    HW239216   0.921   0.921   6.223  0.7543 -0.1222  1.9069
 9253SOL     OW39217   2.219   1.346   6.647 -0.5705  0.8402  0.5078
 9253SOL    HW139218   2.131   1.317   6.621  1.2536 -2.1435 -2.3186
 9253SOL    HW239219   2.208   1.441   6.637 -3.5506  0.5860  1.2406
 9254SOL     OW39220   3.499   3.791  13.942  0.4049  0.3024 -0.1486
 9254SOL    HW139221   3.578   3.779  13.994  0.1654  0.0890  0.1694
 9254SOL    HW239222   3.452   3.712  13.969  0.1916  0.3970 -0.2421
 9255SOL     OW39223   3.786   0.333   2.969  0.2092  0.2284 -0.6377
 9255SOL    HW139224   3.802   0.365   2.880  0.9193 -0.2056 -0.6686
 9255SOL    HW239225   3.867   0.289   2.998 -0.0477 -1.1729 -2.0334
 9256SOL     OW39226   0.179   2.827   5.597  0.0908 -0.3461  0.7745
 9256SOL    HW139227   0.191   2.769   5.522  0.9976  1.1589 -0.2142
 9256SOL    HW239228   0.218   2.907   5.564  1.5471 -0.6917  1.6572
 9257SOL     OW39229   0.994   0.096  15.938  0.3568 -0.2264  0.2442
 9257SOL    HW139230   0.943   0.169  15.973  2.1915  1.3165 -0.2773
 9257SOL    HW239231   1.081   0.131  15.957  1.7094 -2.4717 -1.7342
 9258SOL     OW39232   1.409   1.330   3.546  0.1254  0.0003  0.1049
 9258SOL    HW139233   1.366   1.387   3.610  1.0981 -1.2992  1.9076
 9258SOL    HW239234   1.360   1.343   3.464 -1.0080 -0.3083  0.7476
 9259SOL     OW39235   2.053   1.977   4.327  0.5033  0.1175 -0.1250
 9259SOL    HW139236   2.110   2.040   4.372  0.3426  0.1201  0.0757
 9259SOL    HW239237   2.083   1.896   4.367  1.4832  0.5254 -0.0085
 9260SOL     OW39238   4.114   2.689   2.715 -0.3111 -0.3440  0.1874
 9260SOL    HW139239   4.163   2.721   2.790  0.4773  0.6402 -0.7591
 9260SOL    HW239240   4.187   2.684   2.653 -0.9669 -0.7875 -0.5492
 9261SOL     OW39241   1.702   2.818   6.485 -0.3232  0.1955  0.5859
 9261SOL    HW139242   1.707   2.910   6.510  0.8715  0.4547 -0.6486
 9261SOL    HW239243   1.608   2.814   6.465 -0.6003  0.0385  1.9133
 9262SOL     OW39244   3.217   2.710  17.217 -0.2371 -0.3904  0.2182
 9262SOL    HW139245   3.240   2.620  17.236  1.0207 -0.5403 -2.0217
 9262SOL    HW239246   3.250   2.751  17.297 -1.2151  0.2068  0.3230
 9263SOL     OW39247   0.974   0.482   5.844 -0.6591 -0.2054 -0.4193
 9263SOL    HW139248   1.003   0.405   5.796  0.1785 -0.3594  0.3252
 9263SOL    HW239249   0.974   0.547   5.774 -0.4099 -0.0487 -0.2752
 9264SOL     OW39250   0.192   3.474   3.139  0.4340 -0.2161  0.4846
 9264SOL    HW139251   0.189   3.394   3.086 -1.6951  1.6799 -2.2828
 9264SOL    HW239252   0.233   3.443   3.219 -1.1579 -0.6444  1.1290
 9265SOL     OW39253   0.146   2.867  17.679  0.0925 -0.1079 -0.0614
 9265SOL    HW139254   0.062   2.909   0.017  0.8463  1.6696 -0.6378
 9265SOL    HW239255   0.163   2.913  17.597 -1.2325 -1.4850 -1.1015
 9266SOL     OW39256   2.781   4.189   0.222  0.3978  0.1451  0.2380
 9266SOL    HW139257   2.770   4.228   0.135 -1.5546  0.1202  0.4727
 9266SOL    HW239258   2.864   4.142   0.219  0.7201  0.7649 -0.4284
 9267SOL     OW39259   1.596   2.269   3.823  0.0045 -0.2854 -0.6280
 9267SOL    HW139260   1.617   2.217   3.901  0.4598 -0.4017 -0.8297
 9267SOL    HW239261   1.670   2.328   3.818 -1.4650  1.5439 -0.7341
 9268SOL     OW39262   0.414   1.597   6.744  0.5501  0.5711  0.0479
 9268SOL    HW139263   0.329   1.642   6.740  1.1735  1.5830 -1.5218
 9268SOL    HW239264   0.430   1.601   6.838 -2.3616 -0.0821  0.5694
 9269SOL     OW39265   4.137   1.541   5.805 -0.5886 -0.1547 -0.3697
 9269SOL    HW139266   4.119   1.456   5.844  0.7182 -0.3199 -0.1022
 9269SOL    HW239267   4.075   1.540   5.732 -0.1564 -0.9355 -0.7234
 9270SOL     OW39268   1.071   3.491   9.553 -0.0484  0.6764  0.1176
 9270SOL    HW139269   1.160   3.474   9.525  0.1240 -0.0119  1.0796
 9270SOL    HW239270   1.047   3.566   9.498  1.1705  0.4798 -0.6665
 9271SOL     OW39271   3.416   3.223   4.095 -0.2691 -0.0962 -0.2723
 9271SOL    HW139272   3.378   3.171   4.024  0.6844 -1.5452  0.2607
 9271SOL    HW239273   3.423   3.149   4.156 -2.0388 -0.8779 -1.0054
 9272SOL     OW39274   2.293   3.386  10.490 -0.3097 -0.0102 -0.6275
 9272SOL    HW139275   2.253   3.471  10.507 -2.5374 -1.3994  1.2302
 9272SOL    HW239276   2.218   3.330  10.470 -2.1287  2.0466  0.4963
 9273SOL     OW39277   0.248   4.291   6.768  0.1698 -0.1417  0.0255
 9273SOL    HW139278   0.182   4.360   6.767 -0.2995 -0.5783  1.2491
 9273SOL    HW239279   0.202   4.220   6.723 -0.0716  0.5513 -0.8079
 9274SOL     OW39280   0.802   3.731   2.658  0.5342  0.0729  0.1221
 9274SOL    HW139281   0.761   3.805   2.702 -1.8460 -0.4138 -1.2780
 9274SOL    HW239282   0.725   3.674   2.651 -0.9357  2.0710  0.2302
 9275SOL     OW39283   0.223   1.560   4.218 -0.5381 -0.3147 -0.3697
 9275SOL    HW139284   0.200   1.467   4.217  0.3178 -0.5394  1.1187
 9275SOL    HW239285   0.311   1.568   4.256  0.1302 -2.0090 -1.5724
 9276SOL     OW39286   2.394   3.572   6.979  0.0129 -0.4892 -0.0709
 9276SOL    HW139287   2.300   3.559   6.967  0.0967 -0.7920 -0.4036
 9276SOL    HW239288   2.407   3.657   6.936  1.3971 -0.8391 -0.3263
 9277SOL     OW39289   4.430   4.547   7.218 -0.0403 -0.2429  0.3206
 9277SOL    HW139290   4.377   4.555   7.296  0.3559  1.2322  0.4276
 9277SOL    HW239291   4.377   4.487   7.165 -0.2906 -0.7943  1.1929
 9278SOL     OW39292   4.185   1.336  13.644 -0.0907  0.6307  0.0940
 9278SOL    HW139293   4.274   1.352  13.674  0.0573  2.1234 -1.1488
 9278SOL    HW239294   4.197   1.279  13.568  2.5495  1.4446 -0.0842
 9279SOL     OW39295   3.593   4.006   6.705  0.5155  0.0505  0.5410
 9279SOL    HW139296   3.548   4.078   6.661 -0.7427 -0.0625  1.6581
 9279SOL    HW239297   3.562   4.012   6.795 -1.1625  0.4002 -0.0657
 9280SOL     OW39298   1.572   3.501   3.820 -0.2554 -0.0356 -0.3763
 9280SOL    HW139299   1.505   3.562   3.787 -0.0527  0.3053 -0.1505
 9280SOL    HW239300   1.605   3.467   3.737  0.0152 -0.2890 -0.1604
 9281SOL     OW39301   3.613   2.175   8.409  0.1263 -0.2134 -0.0713
 9281SOL    HW139302   3.560   2.228   8.469  0.7050  0.7172 -0.3723
 9281SOL    HW239303   3.592   2.084   8.429  0.9505 -0.1714  0.9903
 9282SOL     OW39304   0.596   1.378   7.911  0.2286 -0.0177 -0.3012
 9282SOL    HW139305   0.578   1.434   7.835 -0.6399  1.5481  1.0686
 9282SOL    HW239306   0.517   1.324   7.912 -0.4422  0.9881 -0.0470
 9283SOL     OW39307   4.063   4.579   0.804 -0.0342 -0.1862  0.3473
 9283SOL    HW139308   3.998   4.629   0.756 -0.0560 -1.2777 -0.7745
 9283SOL    HW239309   4.088   4.517   0.735 -0.8202 -0.3832  0.2363
 9284SOL     OW39310   0.932   1.298  17.568 -0.2611  0.2657 -0.0806
 9284SOL    HW139311   0.972   1.294  17.481  1.0672 -0.2732  0.5533
 9284SOL    HW239312   0.846   1.336  17.550  0.2622  1.7777  0.5649
 9285SOL     OW39313   1.694   0.263   7.083  0.0550 -0.2876  0.3690
 9285SOL    HW139314   1.617   0.319   7.071  0.2165 -0.3014 -0.7660
 9285SOL    HW239315   1.685   0.231   7.172  2.2144 -1.7575  0.0718
 9286SOL     OW39316   3.733   0.969  13.122 -0.4558 -0.1007 -0.4572
 9286SOL    HW139317   3.734   1.056  13.161  0.2185 -0.1327 -0.3972
 9286SOL    HW239318   3.705   0.916  13.197 -2.3405 -1.2196 -1.9381
 9287SOL     OW39319   1.979   0.922   2.934  0.0928 -0.0903  0.6022
 9287SOL    HW139320   1.920   0.992   2.964  3.8258  3.0593  0.5133
 9287SOL    HW239321   1.927   0.841   2.943  2.3343 -1.5965 -0.1736
 9288SOL     OW39322   1.617   4.490   5.081 -0.2896 -0.2117  0.2602
 9288SOL    HW139323   1.643   4.511   4.992 -1.9072 -0.3908 -0.2630
 9288SOL    HW239324   1.693   4.497   5.139 -1.5779 -0.2935  1.9852
 9289SOL     OW39325   4.621   2.323  10.241  0.1067 -0.2522  0.0139
 9289SOL    HW139326   4.713   2.314  10.218  0.2780  2.0982 -0.1789
 9289SOL    HW239327   4.626   2.277  10.325  0.0398  0.7374  0.5550
 9290SOL     OW39328   3.063   0.341   2.390  0.0528 -0.4255 -0.3416
 9290SOL    HW139329   2.986   0.284   2.392 -0.4330  0.2526  0.1440
 9290SOL    HW239330   3.136   0.280   2.383 -0.0464 -0.5434 -0.3666
 9291SOL     OW39331   3.237   3.614   0.092 -0.6859  0.0329 -0.3275
 9291SOL    HW139332   3.319   3.565   0.101 -1.8118 -1.4225  2.0754
 9291SOL    HW239333   3.221   3.593   0.000  0.7277  1.5362 -0.9287
 9292SOL     OW39334   1.749   0.554  11.474 -0.1004  0.1150  0.1813
 9292SOL    HW139335   1.693   0.547  11.552 -0.4874 -1.6004 -0.2458
 9292SOL    HW239336   1.833   0.565  11.519  0.7726  0.7441 -1.6065
 9293SOL     OW39337   3.253   4.436   3.007  0.1198  0.4646  0.0486
 9293SOL    HW139338   3.339   4.400   2.988 -0.7448 -0.4926 -2.0262
 9293SOL    HW239339   3.195   4.401   2.939 -0.0280  0.1221  0.3534
 9294SOL     OW39340   1.106   2.766   8.713 -0.5380  0.1502 -0.2243
 9294SOL    HW139341   1.109   2.859   8.738  0.2370  0.1099 -0.1456
 9294SOL    HW239342   1.183   2.737   8.762  1.0596  2.7054 -1.2035
 9295SOL     OW39343   0.727   1.737   8.587 -0.0893 -0.4117 -0.5839
 9295SOL    HW139344   0.822   1.728   8.595 -0.1579 -0.3443  0.3339
 9295SOL    HW239345   0.712   1.697   8.502  0.4775  0.1317 -0.9404
 9296SOL     OW39346   3.410   0.944  13.200  0.3285 -0.3079 -0.2055
 9296SOL    HW139347   3.383   0.974  13.113 -1.2310  1.6250  0.9637
 9296SOL    HW239348   3.473   0.872  13.191  0.8991 -0.0863  2.0170
 9297SOL     OW39349   2.686   2.650  13.725 -0.1482 -0.1492  0.1006
 9297SOL    HW139350   2.700   2.576  13.784 -1.1007 -2.1647 -2.1888
 9297SOL    HW239351   2.605   2.625  13.681  0.3518 -2.1331  0.2664
 9298SOL     OW39352   2.631   0.824   4.287  0.4784  0.4890 -0.1006
 9298SOL    HW139353   2.669   0.799   4.203 -0.2615 -3.2037  0.6543
 9298SOL    HW239354   2.546   0.780   4.284  0.4903  0.4554  0.0737
 9299SOL     OW39355   1.632   1.698  17.343 -0.5497 -0.6906 -0.0724
 9299SOL    HW139356   1.553   1.675  17.391  0.1737  2.7585  2.8153
 9299SOL    HW239357   1.623   1.794  17.344  1.3900 -0.5270  0.9790
 9300SOL     OW39358   1.187   2.398   7.234  0.1371 -0.5998  0.2560
 9300SOL    HW139359   1.216   2.345   7.308  1.2307  0.9657  0.9473
 9300SOL    HW239360   1.220   2.481   7.267  1.0301  0.5262 -3.4397
 9301SOL     OW39361   3.261   3.528   5.172 -0.1625  0.4814 -0.0487
 9301SOL    HW139362   3.291   3.513   5.262 -2.8305 -0.0717  0.7206
 9301SOL    HW239363   3.343   3.563   5.137 -0.2273  1.6242  0.9362
 9302SOL     OW39364   3.990   1.903   8.266  0.3603  0.3234 -1.6359
 9302SOL    HW139365   3.981   1.979   8.209  0.2634  1.5415 -0.0229
 9302SOL    HW239366   4.070   1.861   8.235  0.0206  0.2128 -2.3636
 9303SOL     OW39367   3.815   3.413   1.470 -0.0603 -0.0839  0.1145
 9303SOL    HW139368   3.792   3.364   1.390  1.2652 -1.2190  0.4214
 9303SOL    HW239369   3.849   3.494   1.433  0.9770 -0.4819  0.1893
 9304SOL     OW39370   3.522   1.109   8.384  0.3818 -0.2015 -0.3879
 9304SOL    HW139371   3.605   1.132   8.343  0.0442  1.2095 -0.2878
 9304SOL    HW239372   3.511   1.027   8.337  0.4246 -0.0315 -0.6975
 9305SOL     OW39373   4.522   3.188   3.973 -0.1658 -0.5046  0.1679
 9305SOL    HW139374   4.488   3.239   3.899 -1.2967  0.1299  1.1096
 9305SOL    HW239375   4.540   3.108   3.925 -1.3144  0.1948 -1.4294
 9306SOL     OW39376   2.954   2.740   1.393 -0.6013  0.0341  0.9954
 9306SOL    HW139377   3.008   2.694   1.329  0.6474  1.8549  0.7444
 9306SOL    HW239378   3.011   2.800   1.441  0.0158  1.1916 -1.2038
 9307SOL     OW39379   3.996   0.086  12.861  0.5318 -0.0579  0.2437
 9307SOL    HW139380   3.949   0.169  12.858  0.5605 -0.0751 -0.8544
 9307SOL    HW239381   4.061   0.089  12.931  1.7142 -1.1731 -0.8060
 9308SOL     OW39382   4.103   4.676   7.839  0.3038 -0.7639  0.1141
 9308SOL    HW139383   4.198   4.669   7.843  0.4620  1.2519 -0.0373
 9308SOL    HW239384   4.081   4.713   7.925 -0.9849  0.0223 -0.5502
 9309SOL     OW39385   3.203   4.441  16.602  0.1269 -0.2604  0.0340
 9309SOL    HW139386   3.171   4.392  16.526 -0.2240 -0.6071  0.4020
 9309SOL    HW239387   3.222   4.370  16.664  0.4355  0.2707  0.5487
 9310SOL     OW39388   0.705   3.606  10.875 -1.3032  0.5735  0.1925
 9310SOL    HW139389   0.716   3.653  10.792 -0.9076 -0.5354 -0.3712
 9310SOL    HW239390   0.642   3.535  10.864 -1.1091  0.1380  1.8508
 9311SOL     OW39391   3.762   3.791  10.424 -0.2680  0.3142  0.7092
 9311SOL    HW139392   3.721   3.705  10.429  1.2448 -0.3415  2.0811
 9311SOL    HW239393   3.779   3.788  10.330 -2.1141  0.7357  0.3498
 9312SOL     OW39394   0.449   0.986  11.554 -0.0197 -0.1567  0.0142
 9312SOL    HW139395   0.525   1.003  11.608  0.2416  0.3375 -0.5151
 9312SOL    HW239396   0.445   1.070  11.508 -0.4035 -0.2444 -0.1161
 9313SOL     OW39397   2.409   0.890   5.325  0.1868 -0.4245 -0.1280
 9313SOL    HW139398   2.401   0.980   5.356  0.2710 -0.7505  0.8279
 9313SOL    HW239399   2.318   0.863   5.324  0.1971 -0.4380 -0.6204
 9314SOL     OW39400   3.072   1.165   6.837  0.0191 -0.5914  0.1279
 9314SOL    HW139401   2.986   1.206   6.841  0.7806  0.7699  2.0468
 9314SOL    HW239402   3.124   1.228   6.886 -0.4735  0.1113 -0.2609
 9315SOL     OW39403   2.662   4.326   4.412  0.2711  0.9329 -0.0747
 9315SOL    HW139404   2.699   4.409   4.380  1.7585  0.2787 -0.0299
 9315SOL    HW239405   2.698   4.312   4.500  0.2508 -0.0051 -0.2174
 9316SOL     OW39406   3.661   3.019   4.232 -0.0839  0.2165  0.3147
 9316SOL    HW139407   3.658   3.016   4.327 -0.6201  1.1538  0.3302
 9316SOL    HW239408   3.667   3.112   4.214  0.3558 -0.2978 -2.2652
 9317SOL     OW39409   3.049   3.336   9.892 -0.0158  0.4920  0.2940
 9317SOL    HW139410   3.133   3.336   9.846 -0.3568  2.5558 -0.2969
 9317SOL    HW239411   3.052   3.251   9.936  0.7545 -0.3982 -1.4617
 9318SOL     OW39412   3.445   4.160   3.842  0.1734 -0.1467  0.4512
 9318SOL    HW139413   3.464   4.181   3.933 -0.9093 -0.2077  0.6931
 9318SOL    HW239414   3.458   4.065   3.836 -2.3966 -0.3489 -1.9815
 9319SOL     OW39415   3.379   1.273   0.383 -0.5716  0.0467 -0.2247
 9319SOL    HW139416   3.362   1.308   0.296  2.9189 -0.9282 -1.3235
 9319SOL    HW239417   3.384   1.183   0.350  1.5625  0.9444 -2.3160
 9320SOL     OW39418   0.548   0.584   0.866  0.5096  0.5812  0.1555
 9320SOL    HW139419   0.500   0.667   0.863 -0.0838  0.2205 -0.4351
 9320SOL    HW239420   0.500   0.541   0.795 -0.7536  0.5219  1.0332
 9321SOL     OW39421   2.528   4.413   9.871  0.4029 -0.1646  0.4588
 9321SOL    HW139422   2.463   4.348   9.899  1.4600 -1.6062 -0.3964
 9321SOL    HW239423   2.603   4.392   9.926  1.1637  1.0550 -0.1237
 9322SOL     OW39424   3.750   1.428   4.962  0.1789  0.0975  0.2060
 9322SOL    HW139425   3.789   1.424   4.874  0.2541 -1.4689  0.3238
 9322SOL    HW239426   3.776   1.516   4.988  0.7644  0.2112 -0.7407
 9323SOL     OW39427   3.444   3.053   4.900 -0.3818  0.3301 -0.6951
 9323SOL    HW139428   3.414   2.975   4.945  3.2789 -1.8926 -2.0809
 9323SOL    HW239429   3.525   3.078   4.945 -0.4589 -0.5528 -0.0725
 9324SOL     OW39430   1.322   3.247   7.903 -0.0644  0.6201  0.1103
 9324SOL    HW139431   1.237   3.216   7.935 -0.0092  0.1919 -0.1640
 9324SOL    HW239432   1.316   3.268   7.809  1.7005  0.2603 -0.0767
 9325SOL     OW39433   1.244   0.151   2.941  0.2764 -0.0671 -0.0591
 9325SOL    HW139434   1.237   0.166   3.036  0.9548  2.4363 -0.4048
 9325SOL    HW239435   1.156   0.181   2.920 -0.4713 -0.2747  2.8025
 9326SOL     OW39436   2.298   1.308  11.015 -0.4178  0.6367 -0.2842
 9326SOL    HW139437   2.219   1.268  11.052  0.1932 -0.3198 -0.0249
 9326SOL    HW239438   2.284   1.397  11.044  0.7896  0.4966  0.7265
 9327SOL     OW39439   0.878   2.380  16.299 -0.2616  0.4125 -0.5751
 9327SOL    HW139440   0.962   2.423  16.284 -1.5479  1.4036 -4.9329
 9327SOL    HW239441   0.899   2.323  16.372 -1.2955  0.1183 -0.5046
 9328SOL     OW39442   2.093   1.906   5.073  0.3740  0.3448 -0.5052
 9328SOL    HW139443   2.047   1.876   4.995  1.1967 -1.8031 -0.1717
 9328SOL    HW239444   2.185   1.899   5.049 -0.0088 -1.8772 -1.2938
 9329SOL     OW39445   2.622   4.665  12.678  0.0879 -0.2067 -0.4170
 9329SOL    HW139446   2.530   4.690  12.693 -0.3112 -2.8598  1.5401
 9329SOL    HW239447   2.615   4.614  12.597 -0.2214 -0.4460 -0.2421
 9330SOL     OW39448   4.623   4.562   7.635 -0.0387 -0.6453  0.1030
 9330SOL    HW139449   4.663   4.628   7.578  0.1668 -1.2180 -0.4153
 9330SOL    HW239450   4.623   4.493   7.569 -0.4254  0.3772 -0.9705
 9331SOL     OW39451   1.563   1.097  11.371  0.1446 -0.3569  0.1215
 9331SOL    HW139452   1.471   1.090  11.399 -0.1254  0.9840 -0.4305
 9331SOL    HW239453   1.566   1.186  11.337 -1.6468 -0.5717 -0.6245
 9332SOL     OW39454   1.113   3.071   4.420  0.1994 -0.5128  0.2599
 9332SOL    HW139455   1.130   3.145   4.361  1.1555 -0.3621  0.7218
 9332SOL    HW239456   1.080   3.009   4.355  2.7060  0.1914 -1.6629
 9333SOL     OW39457   1.906   2.092   4.731  0.3232  0.7711  0.4514
 9333SOL    HW139458   2.001   2.079   4.737  0.2244 -0.5293 -0.9033
 9333SOL    HW239459   1.884   2.005   4.764  2.7307 -0.0668 -0.0798
 9334SOL     OW39460   4.720   4.523   7.178 -0.4104  0.0105  0.4904
 9334SOL    HW139461   4.624   4.531   7.179 -0.2693  1.8659 -0.8928
 9334SOL    HW239462   0.036   4.612   7.179  1.3372 -0.6933 -4.1078
 9335SOL     OW39463   1.981   3.249   5.279 -0.2080  0.1274 -0.8902
 9335SOL    HW139464   2.015   3.251   5.190 -0.8330 -0.6357 -1.1482
 9335SOL    HW239465   2.027   3.323   5.317 -1.2813  0.7186 -0.7449
 9336SOL     OW39466   2.894   2.174   3.112  0.2703  0.6915  0.0385
 9336SOL    HW139467   2.868   2.112   3.043 -0.2071  1.0674 -0.1174
 9336SOL    HW239468   2.911   2.252   3.059 -0.5130 -0.0138 -1.2741
 9337SOL     OW39469   2.253   3.810  11.777 -0.1930 -0.1702 -0.0247
 9337SOL    HW139470   2.219   3.876  11.717  2.0513  1.6052  0.6319
 9337SOL    HW239471   2.229   3.825  11.868 -1.2740 -0.8236 -0.2024
 9338SOL     OW39472   0.885   1.665   6.025  0.0152  0.3455  0.3222
 9338SOL    HW139473   0.797   1.665   5.986  0.1168 -0.6688  0.0937
 9338SOL    HW239474   0.887   1.751   6.067  1.1705  0.7504 -0.5755
 9339SOL     OW39475   1.276   3.601   7.465  0.1562 -0.0016 -0.1186
 9339SOL    HW139476   1.181   3.610   7.454  0.0777 -0.7948 -0.0681
 9339SOL    HW239477   1.285   3.506   7.461 -1.0699 -0.0836 -0.7684
 9340SOL     OW39478   4.070   4.666   7.112 -0.0087 -0.1482 -0.2049
 9340SOL    HW139479   4.133   0.018   7.115  0.7690 -0.8338 -0.1150
 9340SOL    HW239480   3.999   4.711   7.066  1.6945  1.0730 -1.6680
 9341SOL     OW39481   0.068   2.800   1.133 -0.1328 -0.0081  0.6462
 9341SOL    HW139482   0.031   2.785   1.220  0.2619  0.1293  0.8367
 9341SOL    HW239483   0.076   2.714   1.093 -1.3227 -0.2978  1.0302
 9342SOL     OW39484   0.421   0.650  16.356  0.2311 -0.5081  0.2534
 9342SOL    HW139485   0.427   0.741  16.329  1.3327 -0.1283  1.7867
 9342SOL    HW239486   0.327   0.635  16.348  0.4417 -1.1679 -0.9385
 9343SOL     OW39487   3.550   0.780   8.857  0.0796  0.5589 -0.4344
 9343SOL    HW139488   3.525   0.740   8.773 -0.9912 -1.3207  0.7631
 9343SOL    HW239489   3.646   0.783   8.847  0.1931  1.9639  1.0859
 9344SOL     OW39490   3.201   1.778   9.107  0.6468 -0.3356 -0.0585
 9344SOL    HW139491   3.170   1.712   9.044  1.0265  1.4594 -2.1281
 9344SOL    HW239492   3.260   1.727   9.162  2.2779 -1.3719 -2.7771
 9345SOL     OW39493   3.784   2.477   0.104  0.1900 -0.1449 -0.7089
 9345SOL    HW139494   3.845   2.411   0.070 -2.4501 -1.6059 -2.6493
 9345SOL    HW239495   3.703   2.425   0.111 -0.0734  0.0311 -2.5463
 9346SOL     OW39496   2.022   1.229   9.445  0.5691  0.0309 -0.3335
 9346SOL    HW139497   2.092   1.176   9.406  0.3576 -1.0841  0.8243
 9346SOL    HW239498   1.953   1.163   9.446  0.4040  0.2062 -0.2680
 9347SOL     OW39499   0.215   4.574   2.884  0.0226  0.4568  0.1309
 9347SOL    HW139500   0.214   4.479   2.867 -1.0037  0.4751  0.1211
 9347SOL    HW239501   0.293   4.609   2.840  0.8129 -1.3216  0.0987
 9348SOL     OW39502   2.353   1.218   5.872  0.3381 -0.1431 -0.0516
 9348SOL    HW139503   2.259   1.223   5.886 -0.0381 -0.2046 -2.4637
 9348SOL    HW239504   2.372   1.303   5.834  0.5817  0.7295  2.0391
 9349SOL     OW39505   1.382   3.106  10.247  0.1592 -0.4547  0.5006
 9349SOL    HW139506   1.380   3.061  10.332 -1.1834 -2.0347 -0.3762
 9349SOL    HW239507   1.414   3.038  10.189  1.3503  0.2654  0.3217
 9350SOL     OW39508   1.297   3.987  12.912  0.2160  0.6299  0.0084
 9350SOL    HW139509   1.239   3.911  12.905  1.2610 -0.2218  0.5131
 9350SOL    HW239510   1.383   3.945  12.921 -0.7037 -1.0114  1.1861
 9351SOL     OW39511   0.949   1.611   6.730 -0.2754  0.3561 -0.2141
 9351SOL    HW139512   0.889   1.538   6.717  1.1777 -1.0477  0.9626
 9351SOL    HW239513   0.994   1.617   6.646  1.4771 -3.4936  0.4676
 9352SOL     OW39514   4.008   1.758   5.387 -0.0998 -0.1692  0.7439
 9352SOL    HW139515   4.083   1.711   5.425  1.0460  2.0526  1.2372
 9352SOL    HW239516   4.043   1.844   5.408 -1.3049  0.3628  0.5343
 9353SOL     OW39517   2.232   0.100   2.300  0.5242 -0.1570 -0.0446
 9353SOL    HW139518   2.159   0.068   2.354 -1.1778  1.3985 -1.4170
 9353SOL    HW239519   2.268   0.023   2.257  0.7640  0.8166 -1.5819
 9354SOL     OW39520   0.962   2.279   9.423  0.2097 -0.3408  0.1471
 9354SOL    HW139521   1.055   2.296   9.410 -0.3157  2.4471  0.0616
 9354SOL    HW239522   0.967   2.218   9.497 -2.3013 -1.8908 -0.9725
 9355SOL     OW39523   2.329   2.682   5.395 -0.4823 -0.3549 -0.1996
 9355SOL    HW139524   2.371   2.660   5.478 -0.6498 -3.0228 -0.8176
 9355SOL    HW239525   2.397   2.694   5.328  0.6004 -1.3427  0.7304
 9356SOL     OW39526   4.166   1.016   6.239  0.3387 -0.2408  0.1135
 9356SOL    HW139527   4.107   1.058   6.303 -0.4732  1.4760 -1.7484
 9356SOL    HW239528   4.159   1.082   6.170 -0.1603  0.8085  1.1447
 9357SOL     OW39529   1.828   3.879   3.300 -0.6604 -0.1518 -0.4387
 9357SOL    HW139530   1.740   3.845   3.314 -0.1080 -1.9055 -1.2662
 9357SOL    HW239531   1.878   3.797   3.301 -1.6277 -0.7414 -2.1973
 9358SOL     OW39532   0.559   2.789   0.405  0.4669 -0.4271  0.1181
 9358SOL    HW139533   0.630   2.845   0.437 -1.4975  2.7198 -1.0047
 9358SOL    HW239534   0.482   2.845   0.414  0.4877 -0.3475 -0.2195
 9359SOL     OW39535   3.576   2.734   9.058 -0.0235 -0.2939 -0.7583
 9359SOL    HW139536   3.559   2.808   9.000  0.8844  0.1573 -0.4284
 9359SOL    HW239537   3.610   2.660   9.007  0.5805 -0.7322  0.2902
 9360SOL     OW39538   2.111   3.595  10.086  0.1614  0.2242  0.2486
 9360SOL    HW139539   2.106   3.673  10.141 -1.0682  0.1529  0.2356
 9360SOL    HW239540   2.202   3.590  10.057  0.7579 -0.7668  2.3062
 9361SOL     OW39541   0.523   0.724  11.510 -0.2455 -0.3692 -0.6003
 9361SOL    HW139542   0.505   0.809  11.552  2.1720  0.5614 -1.4767
 9361SOL    HW239543   0.440   0.708  11.465 -1.7726  1.5691  1.4561
 9362SOL     OW39544   4.475   2.342   7.406  0.0977 -0.0649 -0.6941
 9362SOL    HW139545   4.549   2.343   7.466  0.9646 -1.2353 -1.7384
 9362SOL    HW239546   4.458   2.249   7.390  3.8156 -1.1493  1.5964
 9363SOL     OW39547   1.074   4.381  11.691  0.6800  0.3171  0.3976
 9363SOL    HW139548   1.144   4.430  11.648  0.9858 -0.6708 -0.2257
 9363SOL    HW239549   1.015   4.361  11.618 -0.9182  1.2647  1.4342
 9364SOL     OW39550   0.399   2.273   6.899 -0.3071  0.0660 -0.1077
 9364SOL    HW139551   0.457   2.198   6.911  0.7726  1.0479  0.8924
 9364SOL    HW239552   0.327   2.245   6.956  0.1461  0.1521  0.5068
 9365SOL     OW39553   1.449   3.537  12.486 -0.3320 -0.4091  0.2564
 9365SOL    HW139554   1.524   3.536  12.545  0.6035 -0.6592 -0.9334
 9365SOL    HW239555   1.428   3.627  12.461  2.2578  0.3383  0.7946
 9366SOL     OW39556   0.353   4.601   9.145  0.1731  0.0397  0.0496
 9366SOL    HW139557   0.265   4.598   9.108 -0.4538  3.3493  1.2068
 9366SOL    HW239558   0.389   4.650   9.071  0.6620  0.5843  0.6360
 9367SOL     OW39559   4.140   0.669   8.548  0.0211 -0.1217 -0.4937
 9367SOL    HW139560   4.185   0.664   8.632 -0.1876  0.6491 -0.3312
 9367SOL    HW239561   4.183   0.745   8.508 -1.0800  0.8195  0.0999
 9368SOL     OW39562   4.631   0.711   8.199  0.0059  0.1272 -0.1820
 9368SOL    HW139563   4.719   0.675   8.206 -1.1015 -2.9315 -2.2314
 9368SOL    HW239564   4.574   0.651   8.246 -1.4113  1.6696  0.0743
 9369SOL     OW39565   1.414   1.519  13.386 -0.5714  0.0780 -0.0942
 9369SOL    HW139566   1.369   1.602  13.399  0.5815  0.6420  0.2956
 9369SOL    HW239567   1.475   1.543  13.317 -0.6688  0.2098 -0.1344
 9370SOL     OW39568   4.332   4.498   8.676  0.0985  0.2832  0.4588
 9370SOL    HW139569   4.248   4.512   8.719  1.1072  1.0218  2.1875
 9370SOL    HW239570   4.332   4.413   8.630  2.6210  1.3225 -1.4415
 9371SOL     OW39571   0.380   3.228   7.423 -0.3376 -0.1784  0.2549
 9371SOL    HW139572   0.419   3.304   7.466  0.9109 -1.3265  1.1424
 9371SOL    HW239573   0.454   3.168   7.426 -0.1095 -0.0387 -2.4257
 9372SOL     OW39574   3.386   3.269   7.368  0.0168  0.1893  0.1851
 9372SOL    HW139575   3.320   3.200   7.360 -0.3906  0.6839 -0.7415
 9372SOL    HW239576   3.465   3.219   7.346  0.4628 -0.1985  2.6591
 9373SOL     OW39577   3.838   0.990   7.212 -0.1825  0.6561 -0.5568
 9373SOL    HW139578   3.900   0.918   7.223 -2.6946 -1.4859 -0.7526
 9373SOL    HW239579   3.781   0.985   7.289 -0.3348  0.0772 -0.7145
 9374SOL     OW39580   0.333   2.120  10.355 -0.1760  0.2389 -0.2983
 9374SOL    HW139581   0.313   2.213  10.368  0.9301  0.4192  0.1179
 9374SOL    HW239582   0.264   2.096  10.293 -0.0355 -0.8147 -0.0363
 9375SOL     OW39583   0.969   1.561   4.966 -0.2039 -0.0626 -0.0994
 9375SOL    HW139584   1.024   1.608   5.029 -0.4130 -1.0245  0.8091
 9375SOL    HW239585   0.946   1.481   5.013 -2.6570 -2.2569 -5.0911
 9376SOL     OW39586   2.345   2.750   8.183 -0.9702  0.3092  0.3608
 9376SOL    HW139587   2.343   2.807   8.259 -0.1993 -0.4064  0.9075
 9376SOL    HW239588   2.252   2.755   8.161 -0.9229 -1.0115 -0.1301
 9377SOL     OW39589   3.447   1.760   4.542 -0.1428 -0.1419  0.5081
 9377SOL    HW139590   3.424   1.687   4.486  0.5317 -0.0896  0.1567
 9377SOL    HW239591   3.515   1.806   4.492 -0.2956 -0.7024 -0.2079
 9378SOL     OW39592   0.865   1.695   9.971  1.2290 -0.0129 -0.2545
 9378SOL    HW139593   0.950   1.658   9.996  0.2339 -2.2761 -0.1937
 9378SOL    HW239594   0.824   1.702  10.057 -2.5804 -1.6634 -1.9013
 9379SOL     OW39595   3.361   3.036   2.031  1.0985 -0.7779  0.5212
 9379SOL    HW139596   3.419   3.053   2.105 -1.3794 -1.2873  2.5975
 9379SOL    HW239597   3.415   3.063   1.957  0.5014 -0.5274  0.1785
 9380SOL     OW39598   1.148   1.443   2.748  1.0536  0.0133 -0.1601
 9380SOL    HW139599   1.072   1.439   2.690  0.0374 -0.6976  1.2231
 9380SOL    HW239600   1.205   1.500   2.697 -1.2350  0.9028 -1.7139
 9381SOL     OW39601   3.107   0.525   4.929  0.5148  0.2332 -0.1580
 9381SOL    HW139602   3.033   0.477   4.892  0.0833  2.6514 -2.4455
 9381SOL    HW239603   3.187   0.495   4.886  1.0901 -0.3858  1.3324
 9382SOL     OW39604   3.034   0.332  17.185  0.1201  0.4846  0.2101
 9382SOL    HW139605   3.025   0.426  17.199  0.8552  0.4153  1.1451
 9382SOL    HW239606   3.108   0.334  17.124  0.9005 -2.7903  1.0255
 9383SOL     OW39607   1.095   1.467   0.129 -0.1534  0.7262 -0.0117
 9383SOL    HW139608   1.102   1.398   0.063 -1.7058  0.7612 -0.2208
 9383SOL    HW239609   1.028   1.428   0.186  0.4579 -0.4590 -0.1098
 9384SOL     OW39610   4.390   1.382   4.028 -0.3027  0.3331 -0.5469
 9384SOL    HW139611   4.363   1.293   4.049 -1.7525  0.7622 -0.5747
 9384SOL    HW239612   4.315   1.421   3.982 -0.0708  2.1896  0.6284
 9385SOL     OW39613   4.610   0.631   6.934 -0.0092 -0.2340 -0.0621
 9385SOL    HW139614   4.597   0.720   6.966  1.1660  0.4399 -1.4535
 9385SOL    HW239615   4.524   0.617   6.893  0.3775 -2.2655 -0.1847
 9386SOL     OW39616   4.691   3.601   1.700 -0.0778  0.2904  0.0692
 9386SOL    HW139617   4.624   3.558   1.752  0.6695 -0.3223  0.5319
 9386SOL    HW239618   4.636   3.680   1.699 -0.9116 -0.2759  1.4041
 9387SOL     OW39619   2.639   1.512  13.136 -0.3535  0.5762  0.2220
 9387SOL    HW139620   2.647   1.428  13.182  0.7642  0.9941  0.7996
 9387SOL    HW239621   2.708   1.516  13.071 -1.2744  0.0461 -0.7761
 9388SOL     OW39622   2.375   0.396   4.290  1.2053  1.1005 -0.2390
 9388SOL    HW139623   2.428   0.316   4.279 -0.0118  0.6501 -2.8842
 9388SOL    HW239624   2.314   0.354   4.350  1.3161  0.6851 -0.4126
 9389SOL     OW39625   0.677   1.012  15.030  0.9805 -0.3587  0.4296
 9389SOL    HW139626   0.646   1.094  15.070  1.2143 -0.2962  0.4811
 9389SOL    HW239627   0.675   1.025  14.936  0.7363  0.6647  0.5726
 9390SOL     OW39628   0.759   4.538   7.939  0.4405 -0.2666  0.6248
 9390SOL    HW139629   0.750   4.447   7.970  1.3134 -0.9714 -1.2128
 9390SOL    HW239630   0.683   4.552   7.882  2.4750  1.3065 -1.6390
 9391SOL     OW39631   1.005   0.802   8.891 -0.3691 -0.2063 -0.2937
 9391SOL    HW139632   1.013   0.840   8.979  1.8995 -0.4574 -0.4101
 9391SOL    HW239633   0.941   0.737   8.922 -0.6103 -0.1309 -0.6387
 9392SOL     OW39634   2.271   2.878   2.236  0.2540 -0.0018 -0.2336
 9392SOL    HW139635   2.320   2.918   2.308 -0.2563  0.9097 -0.4095
 9392SOL    HW239636   2.278   2.944   2.167  0.2456  0.9566  0.6849
 9393SOL     OW39637   2.561   1.654   5.812  0.1710  0.2555 -0.0390
 9393SOL    HW139638   2.619   1.657   5.736 -0.5153 -0.3986 -0.5981
 9393SOL    HW239639   2.498   1.724   5.797  1.0598  0.7594 -1.4815
 9394SOL     OW39640   0.435   3.301   2.814 -0.7834  0.1894 -0.1609
 9394SOL    HW139641   0.411   3.224   2.762 -1.8789  0.7966 -0.5658
 9394SOL    HW239642   0.524   3.286   2.845 -0.3796  0.2690 -1.2793
 9395SOL     OW39643   2.669   0.634   6.356 -0.1521 -0.1985  0.0207
 9395SOL    HW139644   2.745   0.649   6.412  0.9592 -1.1305 -1.2293
 9395SOL    HW239645   2.702   0.565   6.298 -1.8979 -1.0598  0.0406
 9396SOL     OW39646   1.975   1.933  13.071 -0.3040 -0.5109  0.2829
 9396SOL    HW139647   1.927   1.873  13.013  0.4414 -1.4446  0.6255
 9396SOL    HW239648   2.065   1.905  13.055 -1.0699 -1.6482 -2.1155
 9397SOL     OW39649   0.469   2.415  14.558  0.0064  0.6190 -0.7009
 9397SOL    HW139650   0.446   2.458  14.641  0.1965 -0.7340  0.0586
 9397SOL    HW239651   0.390   2.431  14.507 -0.6663 -1.2790 -0.2294
 9398SOL     OW39652   4.493   0.454  10.560 -0.7249  0.6413 -0.1193
 9398SOL    HW139653   4.586   0.476  10.550 -1.0726  1.4902 -1.5809
 9398SOL    HW239654   4.506   0.363  10.533 -1.2692  0.4216  0.3696
 9399SOL     OW39655   4.647   4.080   5.945 -0.0465  0.8405 -0.1035
 9399SOL    HW139656   0.018   4.100   5.924  0.2641  0.4492  0.8785
 9399SOL    HW239657   4.653   4.027   6.024 -0.7552 -1.9440 -1.9484
 9400SOL     OW39658   3.477   0.762  11.290  0.2348  0.2421  0.6892
 9400SOL    HW139659   3.567   0.735  11.305  0.2236 -0.4614 -0.5008
 9400SOL    HW239660   3.484   0.803  11.204  1.0996  0.3300  0.8061
 9401SOL     OW39661   2.172   3.572  12.806 -0.9980  0.5193  0.2992
 9401SOL    HW139662   2.182   3.657  12.764 -0.4251 -0.5715 -1.7468
 9401SOL    HW239663   2.086   3.545  12.775 -1.8958  1.3568  2.0447
 9402SOL     OW39664   4.005   2.314   1.833 -0.0812  0.9127 -0.0650
 9402SOL    HW139665   3.975   2.350   1.917 -0.9006  3.5008 -1.4718
 9402SOL    HW239666   4.038   2.401   1.809  2.7585  0.1743  1.1538
 9403SOL     OW39667   0.290   0.556   4.619 -0.7080 -0.7502 -0.5633
 9403SOL    HW139668   0.263   0.504   4.543  0.9231 -0.4216 -1.3643
 9403SOL    HW239669   0.350   0.491   4.656 -0.9116 -0.5216  0.1684
 9404SOL     OW39670   2.893   0.049   8.686  0.1064 -0.1839  0.1730
 9404SOL    HW139671   2.914   0.002   8.767  1.1070  0.4135  0.2678
 9404SOL    HW239672   2.964   0.114   8.691  0.6857 -0.6295 -2.3033
 9405SOL     OW39673   1.343   4.556  16.195 -0.1742  0.3361  0.5223
 9405SOL    HW139674   1.305   4.500  16.263 -0.7187  0.4875  0.3418
 9405SOL    HW239675   1.266   4.598  16.156  0.0031 -0.8049 -1.0332
 9406SOL     OW39676   4.477   1.646   4.706  0.3386  0.3705 -0.1114
 9406SOL    HW139677   4.422   1.701   4.762  1.1512 -1.6572  2.6865
 9406SOL    HW239678   4.565   1.669   4.733  1.0362 -1.3215 -0.9108
 9407SOL     OW39679   2.162   4.538  15.364  0.2435 -0.5680 -0.0157
 9407SOL    HW139680   2.078   4.578  15.387  0.2858 -0.6514  0.2984
 9407SOL    HW239681   2.151   4.551  15.270 -0.6816  0.7620  0.2715
 9408SOL     OW39682   1.157   3.354   5.588  0.1155 -0.5482 -0.0756
 9408SOL    HW139683   1.202   3.336   5.670 -3.0184  0.5365  1.9125
 9408SOL    HW239684   1.209   3.306   5.524  0.8380  1.4067 -0.9510
 9409SOL     OW39685   3.642   0.699  17.370  0.6334 -0.0028  0.6640
 9409SOL    HW139686   3.591   0.619  17.357  1.5008  0.0254 -3.0670
 9409SOL    HW239687   3.707   0.685  17.301 -1.3694 -3.8471 -0.4242
 9410SOL     OW39688   0.520   3.162   5.461  0.3893  0.2400  0.0730
 9410SOL    HW139689   0.603   3.119   5.441  1.2579  1.7435  0.4949
 9410SOL    HW239690   0.553   3.246   5.492  4.0322 -1.6933  1.4521
 9411SOL     OW39691   0.117   2.882   7.072 -0.0714  0.2662 -0.1017
 9411SOL    HW139692   0.101   2.788   7.065 -0.8105  0.4405 -0.7446
 9411SOL    HW239693   0.167   2.880   7.154 -0.9088 -1.0445  0.3769
 9412SOL     OW39694   2.487   0.965   9.822 -0.3158  0.1576 -0.3767
 9412SOL    HW139695   2.577   0.938   9.808  0.1364  1.2143  0.5517
 9412SOL    HW239696   2.442   0.925   9.747  0.2251 -0.1691 -0.5256
 9413SOL     OW39697   0.520   0.713   9.681 -0.8804  0.1572  0.0063
 9413SOL    HW139698   0.508   0.800   9.643 -1.8942  0.6487  1.4544
 9413SOL    HW239699   0.456   0.716   9.752  0.1062  0.8681  0.8436
 9414SOL     OW39700   0.055   1.388   0.687 -0.2538  0.3164  0.3976
 9414SOL    HW139701   0.054   1.419   0.596 -1.3406 -0.1108  0.2663
 9414SOL    HW239702   0.062   1.293   0.681  0.0994  0.4039 -0.5366
 9415SOL     OW39703   1.530   4.102   2.739  0.5533  0.1244 -0.0214
 9415SOL    HW139704   1.503   4.023   2.692 -0.3390 -0.5266  1.5917
 9415SOL    HW239705   1.597   4.121   2.673  1.0702 -2.5688 -0.2732
 9416SOL     OW39706   3.246   1.554   8.634 -0.2395  0.2159  0.0803
 9416SOL    HW139707   3.162   1.540   8.589  0.0082  0.0450 -0.3260
 9416SOL    HW239708   3.304   1.490   8.594 -1.3918 -1.2821  0.8135
 9417SOL     OW39709   4.286   2.165   7.136 -0.1065  0.0055  0.1955
 9417SOL    HW139710   4.358   2.124   7.089  0.5079  0.6125  0.6119
 9417SOL    HW239711   4.296   2.129   7.224  1.8753 -0.8192 -0.3866
 9418SOL     OW39712   2.930   2.225   9.716  0.0146  0.2598  0.4356
 9418SOL    HW139713   2.878   2.292   9.761  0.3788  1.0456 -0.3243
 9418SOL    HW239714   3.014   2.222   9.762 -0.7582 -0.5543  1.7926
 9419SOL     OW39715   3.023   3.954   4.969 -0.1267  0.3367  0.2206
 9419SOL    HW139716   3.005   3.864   4.941  0.3983  0.1768  0.3896
 9419SOL    HW239717   3.118   3.948   4.962 -0.0700 -1.8837  2.9105
 9420SOL     OW39718   1.928   2.372   6.005 -0.0346  0.0251 -0.0631
 9420SOL    HW139719   1.847   2.358   6.053  0.8962  0.1175  1.5393
 9420SOL    HW239720   1.945   2.283   5.973 -0.4705  0.1353 -0.5947
 9421SOL     OW39721   2.422   3.163   9.511  0.2127 -0.2863 -0.0207
 9421SOL    HW139722   2.377   3.222   9.572 -1.9447 -2.0080  0.0416
 9421SOL    HW239723   2.470   3.227   9.457 -0.5508 -0.8157 -1.3191
 9422SOL     OW39724   4.181   3.561   2.722  0.3373 -0.0226  0.1494
 9422SOL    HW139725   4.173   3.514   2.639 -0.0578  0.8062 -0.2877
 9422SOL    HW239726   4.152   3.492   2.782 -2.3157  0.6301 -0.3818
 9423SOL     OW39727   0.876   4.691  10.191  0.1654  0.3154  0.1881
 9423SOL    HW139728   0.787   0.004  10.193  0.8944  2.2125  1.1971
 9423SOL    HW239729   0.862   4.601  10.163 -1.2225  0.1640  1.3706
 9424SOL     OW39730   3.749   3.702   0.814 -0.1489 -0.9997 -0.2307
 9424SOL    HW139731   3.691   3.765   0.857  0.0139 -1.0204  0.0198
 9424SOL    HW239732   3.814   3.765   0.784  1.3294 -2.4552 -0.0899
 9425SOL     OW39733   0.469   4.647  13.174  0.1103 -0.3617  0.2575
 9425SOL    HW139734   0.444   4.656  13.083  1.4509  2.1399  0.1441
 9425SOL    HW239735   0.534   4.576  13.176 -1.9656 -2.2644 -0.4900
 9426SOL     OW39736   1.983   0.722   0.164 -0.2684 -0.1944 -0.2035
 9426SOL    HW139737   1.968   0.816   0.175 -1.4662 -0.4478  0.2587
 9426SOL    HW239738   1.968   0.712   0.069 -0.1611  0.1473 -0.2556
 9427SOL     OW39739   3.895   2.127   2.612  0.6642 -0.3297  0.2398
 9427SOL    HW139740   3.872   2.216   2.638 -0.0252 -0.2328 -0.6741
 9427SOL    HW239741   3.990   2.128   2.602  0.6432 -0.4364  0.0328
 9428SOL     OW39742   1.884   0.976   7.568  0.3593  0.2775  0.1182
 9428SOL    HW139743   1.968   1.020   7.554  1.0643 -0.4733  1.9579
 9428SOL    HW239744   1.878   0.945   7.478 -2.3052 -0.4722  0.5718
 9429SOL     OW39745   1.017   0.847   9.573  0.1526  0.1980  0.3604
 9429SOL    HW139746   1.039   0.901   9.496 -1.8189 -0.2999 -0.5352
 9429SOL    HW239747   0.962   0.779   9.535  0.0038 -0.1224  1.1622
 9430SOL     OW39748   3.165   0.568   3.658  0.3582  0.2434 -0.4334
 9430SOL    HW139749   3.232   0.562   3.590 -0.5703 -0.9789 -1.2375
 9430SOL    HW239750   3.102   0.543   3.591 -1.0371 -1.1169  1.3815
 9431SOL     OW39751   1.005   2.285   2.970 -0.2653  0.2100  0.2572
 9431SOL    HW139752   1.023   2.272   2.876 -1.6425  1.6690 -0.2081
 9431SOL    HW239753   1.077   2.341   2.998 -1.7407  2.1914  0.0564
 9432SOL     OW39754   1.721   4.599   4.828 -0.4153 -0.4779 -0.2069
 9432SOL    HW139755   1.787   4.630   4.889 -0.8729 -1.5134  0.8071
 9432SOL    HW239756   1.784   4.556   4.770 -0.3917 -2.4726  1.3045
 9433SOL     OW39757   1.678   1.024  11.132 -0.2453 -0.0994  0.5874
 9433SOL    HW139758   1.591   1.039  11.095 -0.4294  0.3658  1.2150
 9433SOL    HW239759   1.663   1.052  11.222 -0.3157  0.9071  0.2633
 9434SOL     OW39760   1.774   0.541   6.875  0.1283  0.4400 -0.2633
 9434SOL    HW139761   1.791   0.514   6.965 -3.0727 -0.7070 -0.0104
 9434SOL    HW239762   1.679   0.555   6.874 -0.1478 -1.4741 -1.7400
 9435SOL     OW39763   2.316   1.679   2.843  0.3694 -0.3799  0.2070
 9435SOL    HW139764   2.282   1.768   2.833  3.2710  0.7519  0.5163
 9435SOL    HW239765   2.255   1.654   2.913 -0.2048 -2.5853 -1.0782
 9436SOL     OW39766   1.584   1.381  15.482 -0.0735  0.3544  0.1481
 9436SOL    HW139767   1.609   1.463  15.440  1.4832  0.4641  1.3156
 9436SOL    HW239768   1.621   1.319  15.420 -1.8056 -0.6682  0.1343
 9437SOL     OW39769   3.989   0.066   9.273  0.4839  0.0505  0.2628
 9437SOL    HW139770   3.947   0.090   9.190  1.7737  0.4474 -0.2644
 9437SOL    HW239771   4.037   0.143   9.304  0.5207 -0.3258  1.1506
 9438SOL     OW39772   3.387   2.209   2.412  0.3194 -0.5850 -0.3470
 9438SOL    HW139773   3.301   2.170   2.430 -0.2291  0.5016 -0.6347
 9438SOL    HW239774   3.366   2.293   2.371  2.4016  1.1803  2.1642
 9439SOL     OW39775   4.521   4.477   2.093 -0.1469 -0.1234 -0.4114
 9439SOL    HW139776   4.538   4.553   2.148 -2.9195  1.3944 -1.6380
 9439SOL    HW239777   4.592   4.491   2.031 -1.7804  0.1604 -2.2199
 9440SOL     OW39778   0.218   0.603   8.388 -0.1753  0.1875 -0.3872
 9440SOL    HW139779   0.252   0.682   8.346 -1.3643  0.1570 -1.3842
 9440SOL    HW239780   0.285   0.535   8.388 -0.4256 -0.0572 -1.5577
 9441SOL     OW39781   1.742   1.938   7.000  0.8757 -0.0928 -0.0171
 9441SOL    HW139782   1.737   1.977   7.087 -0.2476  0.8176 -0.4843
 9441SOL    HW239783   1.690   2.002   6.950  1.5932  1.1115  0.7678
 9442SOL     OW39784   1.616   4.494   8.821  0.5615  0.4285  0.4167
 9442SOL    HW139785   1.617   4.473   8.914 -1.7352  1.6056  0.7170
 9442SOL    HW239786   1.523   4.480   8.803  0.6028 -1.5887  1.8040
 9443SOL     OW39787   0.079   2.221   6.530  0.1064 -0.3267  0.6299
 9443SOL    HW139788   0.024   2.298   6.543 -0.9255 -0.6256 -1.7791
 9443SOL    HW239789   0.165   2.247   6.562 -0.0087  0.3209  0.4074
 9444SOL     OW39790   2.164   4.305   5.383  0.3484  0.1603 -0.6375
 9444SOL    HW139791   2.072   4.281   5.399  0.0816  0.1736 -2.1703
 9444SOL    HW239792   2.167   4.396   5.411  1.6335  0.0171 -0.3193
 9445SOL     OW39793   3.733   4.419   3.538  0.2317  0.0591  0.3845
 9445SOL    HW139794   3.806   4.400   3.479 -0.0141 -2.4953  0.9214
 9445SOL    HW239795   3.664   4.402   3.474  1.1744 -2.0590 -0.0636
 9446SOL     OW39796   1.621   3.919   5.702 -0.3012  0.0938  0.0345
 9446SOL    HW139797   1.583   3.878   5.779  0.9290 -0.6640  0.2305
 9446SOL    HW239798   1.614   3.856   5.631 -1.6356  1.0766 -0.7117
 9447SOL     OW39799   4.114   0.697   6.806 -0.1393 -0.1079 -0.4859
 9447SOL    HW139800   4.025   0.661   6.805  0.0423 -0.6435  1.7567
 9447SOL    HW239801   4.100   0.776   6.754 -2.4971 -0.3169 -0.1636
 9448SOL     OW39802   2.095   1.623  14.761 -0.4438  0.2502  0.0782
 9448SOL    HW139803   2.116   1.707  14.800 -0.7426  0.4530 -0.1934
 9448SOL    HW239804   2.045   1.590  14.835  1.8612  0.4743  1.7529
 9449SOL     OW39805   3.318   1.078   1.871  0.6640  0.4366  0.3283
 9449SOL    HW139806   3.233   1.115   1.847 -0.3760 -1.5850  0.8571
 9449SOL    HW239807   3.378   1.151   1.858 -0.1923  0.9313 -0.7743
 9450SOL     OW39808   0.772   3.067   5.381 -0.5346 -0.6145  0.2344
 9450SOL    HW139809   0.836   3.137   5.396  0.2203 -1.2932  0.1583
 9450SOL    HW239810   0.768   3.021   5.465  2.0036 -0.7454  0.2707
 9451SOL     OW39811   3.861   0.118   8.734 -0.1915 -0.4146 -0.2521
 9451SOL    HW139812   3.911   0.104   8.654 -1.7263 -0.8055 -1.1496
 9451SOL    HW239813   3.858   0.213   8.728 -0.8200 -0.4788 -0.9152
 9452SOL     OW39814   2.666   4.425   0.703 -0.4625  0.3960 -0.4432
 9452SOL    HW139815   2.742   4.410   0.648 -0.5215  0.7538 -0.6193
 9452SOL    HW239816   2.605   4.361   0.665  0.5202 -1.0733  0.4564
 9453SOL     OW39817   0.312   1.651   0.763 -0.2347  0.2357 -0.9255
 9453SOL    HW139818   0.313   1.700   0.681  1.3228  0.4295 -0.8005
 9453SOL    HW239819   0.357   1.571   0.738 -0.1042  0.0323 -0.0545
 9454SOL     OW39820   3.717   2.822   2.026  0.2422  0.5847 -0.8132
 9454SOL    HW139821   3.745   2.747   1.973 -1.3636 -1.0516  0.6524
 9454SOL    HW239822   3.666   2.773   2.091  0.7276  0.1282 -0.7774
 9455SOL     OW39823   1.249   0.805   4.095 -0.0571  0.1070  0.1827
 9455SOL    HW139824   1.181   0.784   4.031  0.4640 -1.6383  0.2050
 9455SOL    HW239825   1.320   0.845   4.044  0.1248 -0.5277 -0.0541
 9456SOL     OW39826   1.022   1.239  16.966  0.3220  0.0494  0.2947
 9456SOL    HW139827   0.987   1.246  16.877 -1.0811  0.2572  0.8557
 9456SOL    HW239828   1.073   1.159  16.956  0.9238  0.4222  0.4512
 9457SOL     OW39829   0.757   4.137   8.469  0.3430  0.6000  0.4389
 9457SOL    HW139830   0.848   4.152   8.442  0.4952 -3.7656 -1.5421
 9457SOL    HW239831   0.708   4.211   8.433 -1.0151 -0.1304  0.7672
 9458SOL     OW39832   2.711   4.428   3.663 -0.3587  0.1979 -0.3630
 9458SOL    HW139833   2.642   4.370   3.631 -0.1154  0.0884 -0.6917
 9458SOL    HW239834   2.656   4.487   3.716 -2.6827 -2.3753  0.1079
 9459SOL     OW39835   1.040   1.416  10.380 -0.2458  0.0984 -0.6017
 9459SOL    HW139836   0.989   1.430  10.300 -0.5664 -0.0444 -0.4246
 9459SOL    HW239837   1.002   1.338  10.420  3.3333 -1.3529  0.0046
 9460SOL     OW39838   3.978   3.340   4.970 -0.3142 -0.8674 -0.3682
 9460SOL    HW139839   3.891   3.333   4.929 -1.3298 -0.3682  1.7133
 9460SOL    HW239840   3.992   3.435   4.969  2.5259 -1.3045 -0.7269
 9461SOL     OW39841   3.762   2.141   1.112 -0.1541 -0.0852 -0.1264
 9461SOL    HW139842   3.761   2.101   1.199 -0.4634 -0.9143 -0.5136
 9461SOL    HW239843   3.723   2.071   1.061  0.2912 -0.6086  0.2569
 9462SOL     OW39844   1.287   2.154   5.926 -0.5771  0.2299 -0.0410
 9462SOL    HW139845   1.342   2.144   5.848 -0.4840 -3.8083  0.5511
 9462SOL    HW239846   1.206   2.194   5.894  0.0069 -0.3605 -2.3012
 9463SOL     OW39847   0.303   3.654   6.877 -0.1454  0.2212 -0.3316
 9463SOL    HW139848   0.254   3.606   6.944  0.6417 -0.4063 -0.2088
 9463SOL    HW239849   0.390   3.643   6.914 -0.3389  0.9427  0.3475
 9464SOL     OW39850   2.487   0.059   8.176  0.0011  0.2349  0.3138
 9464SOL    HW139851   2.512   0.120   8.244  2.4107 -0.2300 -0.1709
 9464SOL    HW239852   2.541   0.092   8.104 -1.4691  0.4019 -0.7240
 9465SOL     OW39853   2.043   2.804   2.365  0.3086  0.2681 -0.0679
 9465SOL    HW139854   2.024   2.897   2.379 -3.1822 -0.6441  1.0374
 9465SOL    HW239855   2.131   2.812   2.327  1.5763  1.3617  3.0192
 9466SOL     OW39856   3.385   2.250   5.465  0.3946 -0.1195 -0.2561
 9466SOL    HW139857   3.410   2.244   5.557  0.9076  0.1968 -0.3790
 9466SOL    HW239858   3.297   2.285   5.476  0.7420  0.6949 -0.0855
 9467SOL     OW39859   3.008   1.918   4.720 -0.5257  0.7495 -0.1362
 9467SOL    HW139860   3.070   1.858   4.678 -1.7977 -1.0319  0.5562
 9467SOL    HW239861   2.933   1.880   4.674 -0.5073  3.4408 -2.4078
 9468SOL     OW39862   2.128   4.686  11.373 -0.4311 -0.1977 -0.2645
 9468SOL    HW139863   2.108   4.607  11.423 -1.3681 -1.2834 -2.3747
 9468SOL    HW239864   2.063   0.024  11.413 -2.5581 -1.7141 -1.4484
 9469SOL     OW39865   4.632   4.489   4.852  0.3542  0.3841 -0.0829
 9469SOL    HW139866   4.650   4.574   4.812  2.9315 -0.1345 -0.0125
 9469SOL    HW239867   4.720   4.469   4.884 -0.3195 -1.7021  0.4383
 9470SOL     OW39868   1.685   0.758  13.108 -0.1596  0.0186 -0.7568
 9470SOL    HW139869   1.608   0.799  13.069 -1.3925  0.0290  1.6911
 9470SOL    HW239870   1.675   0.800  13.194 -0.2284  2.4453 -1.9403
 9471SOL     OW39871   1.885   4.421   1.067 -0.4734 -0.8680  0.3142
 9471SOL    HW139872   1.867   4.381   0.982 -2.8902 -0.5880  0.6849
 9471SOL    HW239873   1.841   4.506   1.061 -1.7260 -1.7606 -2.9085
 9472SOL     OW39874   3.331   0.390   9.070  0.2521  0.1127 -0.2516
 9472SOL    HW139875   3.389   0.330   9.023  1.0561  2.0556 -1.7552
 9472SOL    HW239876   3.352   0.372   9.162  3.3201  0.6871 -0.8491
 9473SOL     OW39877   0.072   2.734  15.092 -0.5493 -0.2204  0.6383
 9473SOL    HW139878   0.140   2.712  15.156 -0.0803  1.1599  0.6215
 9473SOL    HW239879   0.016   2.796  15.138 -1.5339 -2.2614  2.2011
 9474SOL     OW39880   4.540   1.178   9.743 -0.2176  0.3836  0.3792
 9474SOL    HW139881   4.631   1.203   9.759 -0.1378  0.5695 -0.3750
 9474SOL    HW239882   4.553   1.190   9.649 -0.1414 -3.0159 -0.0424
 9475SOL     OW39883   1.825   4.497   2.098 -0.3432  0.3756 -0.1377
 9475SOL    HW139884   1.777   4.465   2.021  0.5115 -1.4412  0.0797
 9475SOL    HW239885   1.880   4.423   2.123 -1.0724 -0.9800 -2.5295
 9476SOL     OW39886   1.767   3.642   4.461 -0.0270  0.0136 -0.7200
 9476SOL    HW139887   1.762   3.575   4.530  0.0268 -0.9235 -1.6241
 9476SOL    HW239888   1.768   3.726   4.505 -3.0585 -0.6998  0.6532
 9477SOL     OW39889   0.614   0.981  11.314  0.3996 -0.6154  0.4455
 9477SOL    HW139890   0.562   0.998  11.393 -1.9166 -3.2449 -0.5040
 9477SOL    HW239891   0.545   0.958  11.252  0.1992  0.4458  0.2658
 9478SOL     OW39892   2.855   0.098  16.122  0.1901 -0.5181  0.1052
 9478SOL    HW139893   2.951   0.103  16.122  0.0457  2.1845  0.4775
 9478SOL    HW239894   2.852   0.014  16.076  0.8714 -0.2291 -0.4677
 9479SOL     OW39895   4.073   1.911  13.305 -0.4805 -0.0906 -0.0620
 9479SOL    HW139896   4.124   1.939  13.229  1.3248  0.3925  1.3304
 9479SOL    HW239897   4.092   1.967  13.381 -0.7283 -0.7363  0.4686
 9480SOL     OW39898   0.210   3.774   8.713  0.0607  0.2877  0.1471
 9480SOL    HW139899   0.302   3.792   8.693  0.3541 -1.0986  0.2304
 9480SOL    HW239900   0.177   3.855   8.751 -0.3779 -0.3519  1.1343
 9481SOL     OW39901   3.417   3.957   7.604 -0.3707  0.6516 -0.2324
 9481SOL    HW139902   3.394   3.923   7.690  0.2272  1.4940  0.2611
 9481SOL    HW239903   3.369   3.885   7.562  2.0882 -0.9871 -0.2261
 9482SOL     OW39904   1.418   2.007  11.093  0.1285 -0.0105  0.1256
 9482SOL    HW139905   1.329   2.038  11.081  0.1102  0.3473  1.1753
 9482SOL    HW239906   1.405   1.912  11.085 -0.5853  0.1311 -0.3759
 9483SOL     OW39907   1.953   3.401   5.668  0.3854 -0.0195  0.1265
 9483SOL    HW139908   2.046   3.404   5.645  0.2438 -2.9996 -0.8215
 9483SOL    HW239909   1.945   3.481   5.720 -1.0495 -0.9644  1.3511
 9484SOL     OW39910   2.531   3.726  10.427  0.1500  0.0602  0.7128
 9484SOL    HW139911   2.499   3.651  10.478 -0.8701  0.1781  0.2467
 9484SOL    HW239912   2.610   3.752  10.475 -0.0480  0.3967  0.8536
 9485SOL     OW39913   2.032   1.434  15.698 -0.3034 -0.3581  1.1282
 9485SOL    HW139914   1.956   1.485  15.670  1.5859  0.3089 -2.8370
 9485SOL    HW239915   2.013   1.349  15.660 -1.8405  1.2052 -1.5495
 9486SOL     OW39916   1.826   1.393  16.571  0.3191 -0.0472  0.0126
 9486SOL    HW139917   1.900   1.414  16.515  1.4783 -1.2451  1.0959
 9486SOL    HW239918   1.768   1.400  16.495  0.9981  0.5330 -0.4538
 9487SOL     OW39919   2.889   0.382   9.364  0.0694 -0.0769 -0.3068
 9487SOL    HW139920   2.796   0.377   9.385  0.4105 -1.8594  0.7727
 9487SOL    HW239921   2.885   0.341   9.278 -0.9948 -0.3069 -0.1440
 9488SOL     OW39922   4.064   3.122   3.536 -0.2304 -0.2158  0.3401
 9488SOL    HW139923   4.146   3.130   3.487  0.1981 -0.3773  1.0265
 9488SOL    HW239924   4.089   3.174   3.613 -0.6247 -0.9360  0.9443
 9489SOL     OW39925   4.566   2.961   8.608  0.0762 -0.1171  0.0916
 9489SOL    HW139926   4.656   2.945   8.635 -0.1699 -0.6229  0.6249
 9489SOL    HW239927   4.582   2.959   8.514 -1.2518  1.0249 -0.1541
 9490SOL     OW39928   2.950   4.590   2.393  0.2261 -0.4030 -0.0245
 9490SOL    HW139929   2.902   4.589   2.476 -1.7061  1.4907 -1.1408
 9490SOL    HW239930   2.927   4.671   2.347 -1.0703 -0.2176  0.9679
 9491SOL     OW39931   3.679   4.012  13.954  0.0230  0.0879  0.5489
 9491SOL    HW139932   3.649   4.006  14.045 -0.4947  3.2699  0.5840
 9491SOL    HW239933   3.616   3.949  13.919  0.1999  0.6124 -0.7379
 9492SOL     OW39934   1.977   0.968   8.664  0.2672 -0.0421  0.2858
 9492SOL    HW139935   2.072   0.973   8.653  0.1419 -0.6458 -1.0318
 9492SOL    HW239936   1.967   0.931   8.752 -0.6060  1.1657  0.6919
 9493SOL     OW39937   4.145   1.935   0.389  0.0718  0.7888  0.7318
 9493SOL    HW139938   4.069   1.878   0.408 -0.2631  0.5540 -1.2822
 9493SOL    HW239939   4.093   2.014   0.399 -2.8793 -1.1110  0.6561
 9494SOL     OW39940   0.625   1.122  13.628 -0.0504 -0.7590 -0.4290
 9494SOL    HW139941   0.566   1.147  13.557 -0.8903 -0.1040  0.5050
 9494SOL    HW239942   0.566   1.105  13.701  0.2009 -0.3099 -0.1227
 9495SOL     OW39943   0.679   0.925   9.065 -0.6707 -0.5654 -0.1492
 9495SOL    HW139944   0.662   0.864   9.136 -2.4644  0.7089  0.5108
 9495SOL    HW239945   0.598   0.916   9.016 -1.2516 -0.7964  0.8648
 9496SOL     OW39946   2.516   4.629   3.368  0.1816  0.0661 -0.5063
 9496SOL    HW139947   2.576   4.698   3.396 -0.7387  0.2200  1.0496
 9496SOL    HW239948   2.434   4.648   3.413  0.1316 -0.0305 -0.5562
 9497SOL     OW39949   4.560   1.709  15.575 -0.2084  0.0740  0.3449
 9497SOL    HW139950   4.599   1.647  15.514 -1.3219 -0.7745  0.4937
 9497SOL    HW239951   4.641   1.728  15.622 -0.0928 -3.2350  1.5411
 9498SOL     OW39952   0.508   3.879   7.529  0.5443 -0.3272 -0.4614
 9498SOL    HW139953   0.419   3.906   7.551  0.8071 -0.5837  0.8669
 9498SOL    HW239954   0.548   3.965   7.520 -2.3828  1.4574  3.5631
 9499SOL     OW39955   1.534   4.298   3.470  0.0793 -0.4131  0.4586
 9499SOL    HW139956   1.602   4.314   3.405  0.1115  1.7577  1.0586
 9499SOL    HW239957   1.512   4.209   3.440 -0.2730  0.3056 -1.4108
 9500SOL     OW39958   2.509   2.165   4.134 -0.0444 -0.3452 -0.9197
 9500SOL    HW139959   2.580   2.227   4.145 -0.6849  0.0439  1.0055
 9500SOL    HW239960   2.434   2.216   4.102 -1.2775 -1.0820  0.7788
 9501SOL     OW39961   2.765   2.884   4.347  0.4785  0.2771 -0.2006
 9501SOL    HW139962   2.706   2.906   4.420 -1.0542  1.0918 -1.6794
 9501SOL    HW239963   2.825   2.821   4.386  1.8470  2.4651  1.2482
 9502SOL     OW39964   0.874   2.698   5.273 -0.7097  0.2089  0.3742
 9502SOL    HW139965   0.891   2.657   5.358 -0.3411 -2.5644 -1.0299
 9502SOL    HW239966   0.786   2.734   5.281 -0.8791 -0.2389  0.5143
 9503SOL     OW39967   0.073   2.786   8.748  0.9120 -0.4411  0.4874
 9503SOL    HW139968   0.051   2.719   8.813 -1.2971 -1.5884 -1.4519
 9503SOL    HW239969   0.028   2.858   8.793  0.8909 -0.0815 -0.1070
 9504SOL     OW39970   1.483   0.316   4.166 -0.4478  0.5525  0.4935
 9504SOL    HW139971   1.535   0.286   4.240 -1.0129 -0.7040  0.3805
 9504SOL    HW239972   1.534   0.394   4.144 -0.7038  0.4937 -0.3214
 9505SOL     OW39973   0.822   0.754   2.997  0.1808  0.2357 -0.1524
 9505SOL    HW139974   0.808   0.702   2.918  0.5613 -2.3485  1.4876
 9505SOL    HW239975   0.918   0.757   2.988  0.5181 -3.8542  2.4572
 9506SOL     OW39976   1.514   2.648  14.470 -0.8602  0.4040  0.3490
 9506SOL    HW139977   1.544   2.736  14.495  1.9584 -1.2247  2.6043
 9506SOL    HW239978   1.538   2.601  14.550 -0.8231  0.9731  0.6795
 9507SOL     OW39979   1.134   3.961  10.182  0.3689 -0.0027  0.2210
 9507SOL    HW139980   1.112   4.033  10.124  3.0919  0.7791  0.1574
 9507SOL    HW239981   1.229   3.958  10.170  0.2910  0.2325 -0.4111
 9508SOL     OW39982   2.566   3.647   4.902  1.2950  0.2814 -0.4563
 9508SOL    HW139983   2.566   3.617   4.993  0.2964  1.9322  0.0770
 9508SOL    HW239984   2.562   3.741   4.918  1.6446 -0.2484  2.8407
 9509SOL     OW39985   4.512   1.087   6.817  0.4577 -0.3659 -0.0912
 9509SOL    HW139986   4.468   1.157   6.866 -1.8012 -1.0407 -1.1220
 9509SOL    HW239987   4.483   1.109   6.728 -0.4693 -1.1956  0.0049
 9510SOL     OW39988   4.643   3.788   6.479  0.3636  0.2798  0.0385
 9510SOL    HW139989   4.657   3.697   6.504 -0.1737  0.3235  0.4965
 9510SOL    HW239990   4.592   3.794   6.398 -0.2993  0.2024  0.4557
 9511SOL     OW39991   0.388   0.801  16.752  0.0134 -0.0135 -0.2942
 9511SOL    HW139992   0.417   0.881  16.795  0.1884 -0.1127 -0.2273
 9511SOL    HW239993   0.313   0.774  16.805  1.8971 -0.3986  2.1680
 9512SOL     OW39994   0.453   1.393   5.748 -0.0968 -0.2318  0.2138
 9512SOL    HW139995   0.365   1.426   5.769 -0.1689 -0.9686  1.0890
 9512SOL    HW239996   0.429   1.332   5.678  3.7611  0.5503 -1.7525
 9513SOL     OW39997   4.531   2.023   3.729  0.5099 -0.7055  0.0871
 9513SOL    HW139998   4.548   1.962   3.801  1.7108 -2.3673 -1.5968
 9513SOL    HW239999   4.624   2.031   3.708  0.6883 -1.0307  0.7588
 9514SOL     OW40000   0.314   0.973   5.023 -0.4846  0.3309  0.6769
 9514SOL    HW140001   0.383   1.039   5.017 -0.1696  0.0164  0.7494
 9514SOL    HW240002   0.249   1.002   4.959 -1.1167  0.2727  1.2940
 9515SOL     OW40003   4.034   2.138   1.287 -0.4616  0.0806 -0.3376
 9515SOL    HW140004   4.100   2.074   1.314 -1.2635 -0.0263  1.3657
 9515SOL    HW240005   3.961   2.106   1.340 -0.4799  1.0113  0.1801
 9516SOL     OW40006   3.016   4.178  12.880 -0.3153  0.0535 -0.7414
 9516SOL    HW140007   2.925   4.165  12.856 -0.3576 -0.1307 -0.4768
 9516SOL    HW240008   3.022   4.271  12.900 -0.0165 -0.2168  0.3847
 9517SOL     OW40009   3.534   1.649   3.558 -0.3593  0.1973  0.1007
 9517SOL    HW140010   3.541   1.554   3.552  1.2067  0.3820 -0.9171
 9517SOL    HW240011   3.618   1.676   3.594 -1.0164  1.6347  0.5475
 9518SOL     OW40012   3.788   2.390   2.442  0.0104  0.7056 -0.5129
 9518SOL    HW140013   3.882   2.372   2.443  0.0648  1.1195  1.7905
 9518SOL    HW240014   3.756   2.343   2.365 -4.5443  1.5392  0.8383
 9519SOL     OW40015   3.815   2.451   7.452  0.3152  0.0388 -0.5438
 9519SOL    HW140016   3.723   2.434   7.474  0.5403 -0.8569 -0.3141
 9519SOL    HW240017   3.829   2.384   7.385 -1.8457 -0.8888 -0.0929
 9520SOL     OW40018   3.578   1.769  15.681 -0.8499  0.4197 -0.1658
 9520SOL    HW140019   3.645   1.730  15.736  0.3044  0.6120 -1.4153
 9520SOL    HW240020   3.624   1.765  15.597 -1.0374  2.4555 -0.3503
 9521SOL     OW40021   1.162   0.934   2.037  0.3279  0.3471 -0.3227
 9521SOL    HW140022   1.236   0.917   2.094 -1.0390  1.7513  1.8788
 9521SOL    HW240023   1.166   1.028   2.017  0.5692  0.7102  1.4951
 9522SOL     OW40024   3.402   1.404   6.843 -0.2976 -0.1953  0.5242
 9522SOL    HW140025   3.331   1.419   6.906  0.7294  1.1095  1.3923
 9522SOL    HW240026   3.367   1.468   6.781  0.0881 -1.5743 -1.0892
 9523SOL     OW40027   0.520   0.259   1.568  0.4983 -0.1774 -0.1757
 9523SOL    HW140028   0.510   0.274   1.474  1.3113  1.3686 -0.0275
 9523SOL    HW240029   0.565   0.343   1.583 -1.1538  0.6613  0.0395
 9524SOL     OW40030   4.025   3.246   0.135 -0.3578 -0.0897  0.6895
 9524SOL    HW140031   4.023   3.341   0.122 -0.0854 -0.1404  0.2820
 9524SOL    HW240032   4.087   3.239   0.209  0.4349 -0.7380 -0.0324
 9525SOL     OW40033   4.239   4.551   8.328  0.6107  0.3621  0.3666
 9525SOL    HW140034   4.188   4.572   8.249  3.0976 -0.8651 -1.5342
 9525SOL    HW240035   4.164   4.518   8.379 -0.1835 -0.4475 -1.3296
 9526SOL     OW40036   4.384   4.078   5.053  0.6985  0.1783  0.0319
 9526SOL    HW140037   4.436   4.159   5.061 -0.8501  1.0358  1.4092
 9526SOL    HW240038   4.358   4.079   4.961  0.1815  2.2348  0.1921
 9527SOL     OW40039   1.230   3.965  17.088 -0.1853  0.1727  0.0683
 9527SOL    HW140040   1.253   3.873  17.105  1.5361  0.5396 -0.2845
 9527SOL    HW240041   1.316   3.999  17.064 -0.3580  2.5410  2.8247
 9528SOL     OW40042   3.164   0.284   5.110  0.1767 -0.3521 -0.1475
 9528SOL    HW140043   3.255   0.289   5.080 -0.4534 -0.1940 -1.9784
 9528SOL    HW240044   3.163   0.366   5.159  0.9379 -0.6101  0.3056
 9529SOL     OW40045   2.335   4.595   1.865  0.1264  0.2530 -0.3482
 9529SOL    HW140046   2.403   4.529   1.875 -0.7958 -0.2339  3.0169
 9529SOL    HW240047   2.259   4.553   1.905 -0.4837  0.5604 -1.1781
 9530SOL     OW40048   2.234   3.635   2.313  0.3575 -0.2535 -0.0444
 9530SOL    HW140049   2.243   3.539   2.314  0.7789 -0.2023  3.6414
 9530SOL    HW240050   2.294   3.657   2.242 -0.9866  1.6751 -0.5430
 9531SOL     OW40051   4.718   4.310   9.698 -0.0891 -0.2732 -0.7397
 9531SOL    HW140052   0.040   4.387   9.658  0.3476  0.3793  1.0013
 9531SOL    HW240053   4.681   4.272   9.618 -0.8911 -0.5421 -0.2354
 9532SOL     OW40054   3.348   1.952   3.181  0.0478  0.4456  0.0633
 9532SOL    HW140055   3.372   1.872   3.227  0.8527  0.4714 -0.3234
 9532SOL    HW240056   3.305   1.923   3.100 -0.6954 -0.4596  0.7749
 9533SOL     OW40057   0.518   1.754  16.941  0.1305  0.0800 -0.7708
 9533SOL    HW140058   0.518   1.680  16.880  0.4574  0.1578 -0.8661
 9533SOL    HW240059   0.531   1.703  17.021  0.7682  0.3203 -0.7264
 9534SOL     OW40060   2.931   2.356  16.036 -0.0261  0.1807 -0.0571
 9534SOL    HW140061   2.939   2.451  16.027 -0.1113  0.0944 -1.0436
 9534SOL    HW240062   2.910   2.350  16.129 -1.6772 -1.2886 -0.5071
 9535SOL     OW40063   4.614   0.092   1.018 -0.1899 -0.0496  0.4429
 9535SOL    HW140064   4.698   0.133   1.041 -0.3013  0.9737 -0.9897
 9535SOL    HW240065   4.607   0.100   0.923  1.1576 -0.1380  0.3330
 9536SOL     OW40066   2.582   0.932   2.868  0.1291 -0.3170  0.0035
 9536SOL    HW140067   2.641   0.943   2.793  0.4800 -2.5253 -0.0308
 9536SOL    HW240068   2.614   1.002   2.925  0.0207  0.4992 -0.9335
 9537SOL     OW40069   0.822   3.347   8.911  0.1995 -0.1262 -0.3579
 9537SOL    HW140070   0.859   3.285   8.848  1.1601  0.3633 -0.2744
 9537SOL    HW240071   0.902   3.386   8.947 -0.3072 -1.2180  1.9318
 9538SOL     OW40072   4.700   4.473   2.366 -0.0959  0.6250  0.1814
 9538SOL    HW140073   0.011   4.562   2.382  2.9140 -0.4382  0.1516
 9538SOL    HW240074   0.060   4.422   2.377 -0.5370 -0.1665 -0.2703
 9539SOL     OW40075   0.003   2.469   3.205  0.1248 -0.8970  0.8672
 9539SOL    HW140076   0.003   2.374   3.196 -3.5811 -1.0144  1.7584
 9539SOL    HW240077   0.079   2.479   3.262  1.2365 -0.6818 -0.6711
 9540SOL     OW40078   1.479   0.021   7.721  0.1776  0.0913  0.4897
 9540SOL    HW140079   1.395   0.020   7.676  1.4764 -1.7936 -1.8942
 9540SOL    HW240080   1.443   4.708   7.803 -0.4009 -0.7847 -0.1217
 9541SOL     OW40081   2.590   4.431  13.758 -0.5132 -0.4836  0.7033
 9541SOL    HW140082   2.617   4.482  13.681 -2.0812  0.7292  0.9736
 9541SOL    HW240083   2.599   4.344  13.718 -0.2170  0.5950 -1.6148
 9542SOL     OW40084   1.135   3.020   8.857  0.3977 -0.0705 -0.3489
 9542SOL    HW140085   1.227   3.006   8.881 -0.5339 -0.4034  3.0113
 9542SOL    HW240086   1.094   2.961   8.920  0.0831  1.1407  0.5742
 9543SOL     OW40087   0.930   0.696  16.542  0.7457 -0.3874  0.1640
 9543SOL    HW140088   0.923   0.613  16.494 -1.6532  0.2029 -0.4834
 9543SOL    HW240089   0.854   0.696  16.600 -0.7283 -3.1004 -1.7734
 9544SOL     OW40090   3.965   2.676   5.885 -0.0679  0.0450  0.2405
 9544SOL    HW140091   4.028   2.611   5.916  1.2026  0.4338 -1.5365
 9544SOL    HW240092   3.936   2.722   5.964  0.3662 -1.6775  1.3830
 9545SOL     OW40093   0.430   1.423  16.863  0.0416 -0.5140  0.7380
 9545SOL    HW140094   0.346   1.378  16.859 -0.6219  0.7431  0.5344
 9545SOL    HW240095   0.454   1.400  16.953 -0.7575  1.5436  1.4853
 9546SOL     OW40096   3.712   2.031   2.429  0.1827 -0.5468 -0.0642
 9546SOL    HW140097   3.785   2.067   2.479  0.5635 -0.4988 -0.6528
 9546SOL    HW240098   3.726   1.938   2.442 -0.2655 -0.8167 -1.5007
 9547SOL     OW40099   4.081   4.609  12.421  0.4486  0.1517 -0.0087
 9547SOL    HW140100   4.121   4.672  12.361  0.3283 -1.2486 -1.5630
 9547SOL    HW240101   4.008   4.580  12.366 -0.7815  1.2114  1.0861
 9548SOL     OW40102   2.590   4.217  11.244  0.2702 -0.5819 -0.2992
 9548SOL    HW140103   2.607   4.308  11.267 -0.7034 -0.5870  0.4791
 9548SOL    HW240104   2.518   4.226  11.181  1.5487  1.6788 -1.4286
 9549SOL     OW40105   1.415   3.132  12.180  0.0051  0.3222 -0.3311
 9549SOL    HW140106   1.357   3.143  12.105 -1.1660  0.3410  0.5949
 9549SOL    HW240107   1.438   3.040  12.166 -2.4533 -0.0929 -1.5446
 9550SOL     OW40108   1.910   3.461   7.336  0.5209 -0.6543  0.5657
 9550SOL    HW140109   1.997   3.423   7.345  1.0870  0.8819  1.4903
 9550SOL    HW240110   1.877   3.452   7.425  0.8334 -1.3022  0.6170
 9551SOL     OW40111   2.109   0.226   2.728  0.0056  0.1910 -0.3369
 9551SOL    HW140112   2.154   0.211   2.811 -0.3288 -0.1396 -0.2152
 9551SOL    HW240113   2.040   0.287   2.756 -0.0680  1.1964 -2.6823
 9552SOL     OW40114   1.411   2.254   8.676  0.0805 -0.0098 -0.3830
 9552SOL    HW140115   1.379   2.295   8.756 -1.2040 -3.8611  1.0333
 9552SOL    HW240116   1.369   2.168   8.678  2.7672 -1.3047 -0.0400
 9553SOL     OW40117   3.664   0.917   3.089  0.5591 -0.5004  0.4566
 9553SOL    HW140118   3.753   0.906   3.056  0.8475  0.3430  0.9550
 9553SOL    HW240119   3.642   0.832   3.126  0.5177 -1.1798 -1.1059
 9554SOL     OW40120   4.576   4.648  14.715 -0.0709  0.3467 -0.3311
 9554SOL    HW140121   4.561   4.686  14.802  1.5341  2.0915 -0.8353
 9554SOL    HW240122   4.495   4.600  14.696 -0.5852  2.1423 -2.6287
 9555SOL     OW40123   3.600   3.021   1.106 -0.8003 -0.3173 -0.4709
 9555SOL    HW140124   3.643   2.948   1.061 -0.6107 -1.1655  1.0919
 9555SOL    HW240125   3.614   3.085   1.036  1.8953 -0.2873  0.0933
 9556SOL     OW40126   3.881   3.001   2.189 -0.2067  0.5801 -0.1309
 9556SOL    HW140127   3.832   2.945   2.129  0.2022  0.7362 -0.6069
 9556SOL    HW240128   3.965   3.017   2.146  1.2074 -0.4207  2.2289
 9557SOL     OW40129   4.335   1.173   1.379 -0.2966 -0.2162  0.1140
 9557SOL    HW140130   4.333   1.221   1.296  0.8915 -0.7404 -0.2154
 9557SOL    HW240131   4.278   1.225   1.435  3.0851  2.0296  1.4840
 9558SOL     OW40132   3.638   1.315  16.676 -0.7082 -0.1159 -0.0948
 9558SOL    HW140133   3.689   1.395  16.685  2.9099 -2.5168  1.1986
 9558SOL    HW240134   3.693   1.250  16.720  1.3260 -0.4743 -3.1574
 9559SOL     OW40135   4.126   4.112  13.218 -0.2023 -0.5312  0.1381
 9559SOL    HW140136   4.100   4.037  13.271 -0.8847 -0.8288 -0.6214
 9559SOL    HW240137   4.187   4.070  13.157  0.4545  1.5662 -0.6607
 9560SOL     OW40138   3.084   4.082  15.339 -0.1857  0.2495 -0.8733
 9560SOL    HW140139   3.090   4.176  15.322 -1.1521  0.7401  1.5519
 9560SOL    HW240140   3.089   4.083  15.435  2.1444  2.7142 -1.0273
 9561SOL     OW40141   0.167   2.979  12.539  0.3472  0.3489 -0.2627
 9561SOL    HW140142   0.158   2.986  12.634  0.3324  0.4518 -0.2722
 9561SOL    HW240143   0.185   2.885  12.532  0.0856  0.1504  1.7220
 9562SOL     OW40144   0.757   0.683  16.915  0.5459  0.1941 -0.6197
 9562SOL    HW140145   0.700   0.755  16.942  1.2463  0.7562 -0.6485
 9562SOL    HW240146   0.760   0.709  16.823  0.1058  1.6257 -0.2364
 9563SOL     OW40147   2.738   1.902   0.493  0.0212 -0.6242  0.0222
 9563SOL    HW140148   2.764   1.979   0.544  0.0463  0.1607 -1.1725
 9563SOL    HW240149   2.656   1.933   0.456 -0.5589  1.0461  2.7309
 9564SOL     OW40150   4.018   0.279   3.181 -0.5164  0.1320 -0.4058
 9564SOL    HW140151   3.966   0.243   3.253 -1.5715  0.1924 -1.1433
 9564SOL    HW240152   4.072   0.204   3.157 -0.1033  0.6233 -1.0056
 9565SOL     OW40153   3.540   3.565   9.204 -0.2642  0.5016 -0.2677
 9565SOL    HW140154   3.626   3.575   9.246  0.7757  1.9018 -2.7070
 9565SOL    HW240155   3.552   3.470   9.206 -1.5818  0.3619  0.5071
   4.72018   4.72018  17.68334
